<LesHouchesEvents version="3.0">
<header>
<!--
#*********************************************************************
#                                                                    *
#                        MadGraph5_aMC@NLO                           *
#                                                                    *
#                           Going Beyond                             *
#                                                                    *
#                   http://madgraph.hep.uiuc.edu                     *
#                   http://madgraph.phys.ucl.ac.be                   *
#                   http://amcatnlo.cern.ch                          *
#                                                                    *
#                     The MadGraph5_aMC@NLO team                     *
#                                                                    *
#....................................................................*
#                                                                    *
# This file contains all the information necessary to reproduce      *
# the events generated:                                              *
#                                                                    *
# 1. software version                                                *
# 2. proc_card          : code generation info including model       *
# 3. param_card         : model primary parameters in the LH format  *
# 4. run_card           : running parameters (collider and cuts)     *
# 5. pythia_card        : present only if pythia has been run        *
# 6. pgs_card           : present only if pgs has been run           *
# 7. delphes_cards      : present only if delphes has been run       *
#                                                                    *
#                                                                    *
#*********************************************************************
-->
<MGVersion>
#5.2.2.3
</MGVersion>
<MG5ProcCard>
#************************************************************
#*                     MadGraph5_aMC@NLO                    *
#*                                                          *
#*                *                       *                 *
#*                  *        * *        *                   *
#*                    * * * * 5 * * * *                     *
#*                  *        * *        *                   *
#*                *                       *                 *
#*                                                          *
#*                                                          *
#*         VERSION 2.2.3                 2015-02-10         *
#*                                                          *
#*    The MadGraph5_aMC@NLO Development Team - Find us at   *
#*    https://server06.fynu.ucl.ac.be/projects/madgraph     *
#*                                                          *
#************************************************************
#*                                                          *
#*               Command File for MadGraph5_aMC@NLO         *
#*                                                          *
#*     run as ./bin/mg5_aMC  filename                       *
#*                                                          *
#************************************************************
set group_subprocesses Auto
set ignore_six_quark_processes False
set loop_optimized_output True
set gauge unitary
set complex_mass_scheme False
import model sm
define p = g u c d s u~ c~ d~ s~
define j = g u c d s u~ c~ d~ s~
define l+ = e+ mu+
define l- = e- mu-
define vl = ve vm vt
define vl~ = ve~ vm~ vt~
import model Zprime_UFO
generate p p > zph, zph > j j
add process p p > zph, zph > b b~
output Dijet_signal
</MG5ProcCard>
<MGProcCard>
#*********************************************************************
#                        MadGraph/MadEvent                           *
#                   http://madgraph.hep.uiuc.edu                     *
#                                                                    *
#                          proc_card.dat                             *
#*********************************************************************
#                                                                    *
#            This Files is generated by MADGRAPH 5                   *
#                                                                    *
# WARNING: This Files is generated for MADEVENT (compatibility issue)*
#          This files is NOT a valid MG4 proc_card.dat               *
#          Running this in MG4 will NEVER reproduce the result of MG5*
#                                                                    *
#*********************************************************************
#*********************************************************************
# Process(es) requested : mg2 input                                  *
#*********************************************************************
# Begin PROCESS # This is TAG. Do not modify this line
p p > zph , zph > j j           #Process
# Be carefull the coupling are here in MG5 convention
          
end_coup           # End the couplings input

done               # this tells MG there are no more procs
# End PROCESS  # This is TAG. Do not modify this line
#*********************************************************************
# Model information                                                  *
#*********************************************************************
# Begin MODEL  # This is TAG. Do not modify this line
Zprime_UFO
# End   MODEL  # This is TAG. Do not modify this line
#*********************************************************************
# Start multiparticle definitions                                    *
#*********************************************************************
# Begin MULTIPARTICLES # This is TAG. Do not modify this line

# End  MULTIPARTICLES # This is TAG. Do not modify this line
</MGProcCard>
<MGRunCard>
#*********************************************************************
#                       MadGraph5_aMC@NLO                            *
#                                                                    *
#                     run_card.dat MadEvent                          *
#                                                                    *
#  This file is used to set the parameters of the run.               *
#                                                                    *
#  Some notation/conventions:                                        *
#                                                                    *
#   Lines starting with a '# ' are info or comments                  *
#                                                                    *
#   mind the format:   value    = variable     ! comment             *
#*********************************************************************
#
#*******************                                                 
# Running parameters
#*******************                                                 
#                                                                    
#*********************************************************************
# Tag name for the run (one word)                                    *
#*********************************************************************
  tag_1     = run_tag ! name of the run 
#*********************************************************************
# Run to generate the grid pack                                      *
#*********************************************************************
  .false.     = gridpack  !True = setting up the grid pack
#*********************************************************************
# Number of events and rnd seed                                      *
# Warning: Do not generate more than 1M events in a single run       *
# If you want to run Pythia, avoid more than 50k events in a run.    *
#*********************************************************************
  2000 = nevents ! Number of unweighted events requested 
 1479 = iseed   ! rnd seed (0=assigned automatically=default))
#*********************************************************************
# Collider type and energy                                           *
# lpp: 0=No PDF, 1=proton, -1=antiproton, 2=photon from proton,      *
#                                         3=photon from electron     *
#*********************************************************************
        1     = lpp1    ! beam 1 type 
        1     = lpp2    ! beam 2 type
     4000     = ebeam1  ! beam 1 total energy in GeV
     4000     = ebeam2  ! beam 2 total energy in GeV
#*********************************************************************
# Beam polarization from -100 (left-handed) to 100 (right-handed)    *
#*********************************************************************
        0     = polbeam1 ! beam polarization for beam 1
        0     = polbeam2 ! beam polarization for beam 2
#*********************************************************************
# PDF CHOICE: this automatically fixes also alpha_s and its evol.    *
#*********************************************************************
 'nn23lo1'    = pdlabel     ! PDF set                                     
 230000    = lhaid     ! if pdlabel=lhapdf, this is the lhapdf number
#*********************************************************************
# Renormalization and factorization scales                           *
#*********************************************************************
 F        = fixed_ren_scale  ! if .true. use fixed ren scale
 F        = fixed_fac_scale  ! if .true. use fixed fac scale
 91.1880  = scale            ! fixed ren scale
 91.1880  = dsqrt_q2fact1    ! fixed fact scale for pdf1
 91.1880  = dsqrt_q2fact2    ! fixed fact scale for pdf2
 1        = scalefact        ! scale factor for event-by-event scales
#*********************************************************************
# Matching - Warning! ickkw > 1 is still beta
#*********************************************************************
 0        = ickkw            ! 0 no matching, 1 MLM, 2 CKKW matching
 1        = highestmult      ! for ickkw=2, highest mult group
 1        = ktscheme         ! for ickkw=1, 1 Durham kT, 2 Pythia pTE
 1        = alpsfact         ! scale factor for QCD emission vx
 F        = chcluster        ! cluster only according to channel diag
 T        = pdfwgt           ! for ickkw=1, perform pdf reweighting
 5        = asrwgtflavor     ! highest quark flavor for a_s reweight
 T        = clusinfo         ! include clustering tag in output
 3.0      = lhe_version       ! Change the way clustering information pass to shower.        
#*********************************************************************
#**********************************************************
#
#**********************************************************
# Automatic ptj and mjj cuts if xqcut > 0
# (turn off for VBF and single top processes)
#**********************************************************
   T  = auto_ptj_mjj  ! Automatic setting of ptj and mjj
#**********************************************************
#                                                                    
#**********************************
# BW cutoff (M+/-bwcutoff*Gamma)
#**********************************
  15  = bwcutoff      ! (M+/-bwcutoff*Gamma)
#**********************************************************
# Apply pt/E/eta/dr/mij cuts on decay products or not
# (note that etmiss/ptll/ptheavy/ht/sorted cuts always apply)
#**********************************************************
   T  = cut_decays    ! Cut decay products 
#*************************************************************
# Number of helicities to sum per event (0 = all helicities)
# 0 gives more stable result, but longer run time (needed for
# long decay chains e.g.).
# Use >=2 if most helicities contribute, e.g. pure QCD.
#*************************************************************
   0  = nhel          ! Number of helicities used per event
#*******************                                                 
# Standard Cuts
#*******************                                                 
#                                                                    
#*********************************************************************
# Minimum and maximum pt's (for max, -1 means no cut)                *
#*********************************************************************
 20  = ptj       ! minimum pt for the jets 
  0  = ptb       ! minimum pt for the b 
 10  = pta       ! minimum pt for the photons 
 10  = ptl       ! minimum pt for the charged leptons 
  0  = misset    ! minimum missing Et (sum of neutrino's momenta)
  0  = ptheavy   ! minimum pt for one heavy final state
 1.0 = ptonium   ! minimum pt for the quarkonium states
 -1  = ptjmax    ! maximum pt for the jets
 -1  = ptbmax    ! maximum pt for the b
 -1  = ptamax    ! maximum pt for the photons
 -1  = ptlmax    ! maximum pt for the charged leptons
 -1  = missetmax ! maximum missing Et (sum of neutrino's momenta)
#*********************************************************************
# Minimum and maximum E's (in the center of mass frame)              *
#*********************************************************************
  0  = ej     ! minimum E for the jets 
  0  = eb     ! minimum E for the b 
  0  = ea     ! minimum E for the photons 
  0  = el     ! minimum E for the charged leptons 
 -1   = ejmax ! maximum E for the jets
 -1   = ebmax ! maximum E for the b
 -1   = eamax ! maximum E for the photons
 -1   = elmax ! maximum E for the charged leptons
#*********************************************************************
# Maximum and minimum absolute rapidity (for max, -1 means no cut)   *
#*********************************************************************
   5  = etaj    ! max rap for the jets 
  -1  = etab    ! max rap for the b
 2.5  = etaa    ! max rap for the photons 
 2.5  = etal    ! max rap for the charged leptons 
 0.6  = etaonium ! max rap for the quarkonium states
   0  = etajmin ! min rap for the jets
   0  = etabmin ! min rap for the b
   0  = etaamin ! min rap for the photons
   0  = etalmin ! main rap for the charged leptons
#*********************************************************************
# Minimum and maximum DeltaR distance                                *
#*********************************************************************
 0.4 = drjj    ! min distance between jets 
 0   = drbb    ! min distance between b's 
 0.4 = drll    ! min distance between leptons 
 0.4 = draa    ! min distance between gammas 
 0   = drbj    ! min distance between b and jet 
 0.4 = draj    ! min distance between gamma and jet 
 0.4 = drjl    ! min distance between jet and lepton 
 0   = drab    ! min distance between gamma and b 
 0   = drbl    ! min distance between b and lepton 
 0.4 = dral    ! min distance between gamma and lepton 
 -1  = drjjmax ! max distance between jets
 -1  = drbbmax ! max distance between b's
 -1  = drllmax ! max distance between leptons
 -1  = draamax ! max distance between gammas
 -1  = drbjmax ! max distance between b and jet
 -1  = drajmax ! max distance between gamma and jet
 -1  = drjlmax ! max distance between jet and lepton
 -1  = drabmax ! max distance between gamma and b
 -1  = drblmax ! max distance between b and lepton
 -1  = dralmax ! maxdistance between gamma and lepton
#*********************************************************************
# Minimum and maximum invariant mass for pairs                       *
# WARNING: for four lepton final state mmll cut require to have      *
#          different lepton masses for each flavor!                  *           
#*********************************************************************
 0   = mmjj    ! min invariant mass of a jet pair 
 0   = mmbb    ! min invariant mass of a b pair 
 0   = mmaa    ! min invariant mass of gamma gamma pair
 0   = mmll    ! min invariant mass of l+l- (same flavour) lepton pair
 -1  = mmjjmax ! max invariant mass of a jet pair
 -1  = mmbbmax ! max invariant mass of a b pair
 -1  = mmaamax ! max invariant mass of gamma gamma pair
 -1  = mmllmax ! max invariant mass of l+l- (same flavour) lepton pair
#*********************************************************************
# Minimum and maximum invariant mass for all letpons                 *
#*********************************************************************
 0   = mmnl    ! min invariant mass for all letpons (l+- and vl) 
 -1  = mmnlmax ! max invariant mass for all letpons (l+- and vl) 
#*********************************************************************
# Minimum and maximum pt for 4-momenta sum of leptons                *
#*********************************************************************
 0   = ptllmin  ! Minimum pt for 4-momenta sum of leptons(l and vl)
 -1  = ptllmax  ! Maximum pt for 4-momenta sum of leptons(l and vl)
#*********************************************************************
# Inclusive cuts                                                     *
#*********************************************************************
 0  = xptj ! minimum pt for at least one jet  
 0  = xptb ! minimum pt for at least one b 
 0  = xpta ! minimum pt for at least one photon 
 0  = xptl ! minimum pt for at least one charged lepton 
#*********************************************************************
# Control the pt's of the jets sorted by pt                          *
#*********************************************************************
 0   = ptj1min ! minimum pt for the leading jet in pt
 0   = ptj2min ! minimum pt for the second jet in pt
 0   = ptj3min ! minimum pt for the third jet in pt
 0   = ptj4min ! minimum pt for the fourth jet in pt
 -1  = ptj1max ! maximum pt for the leading jet in pt 
 -1  = ptj2max ! maximum pt for the second jet in pt
 -1  = ptj3max ! maximum pt for the third jet in pt
 -1  = ptj4max ! maximum pt for the fourth jet in pt
 0   = cutuse  ! reject event if fails any (0) / all (1) jet pt cuts
#*********************************************************************
# Control the pt's of leptons sorted by pt                           *
#*********************************************************************
 0   = ptl1min ! minimum pt for the leading lepton in pt
 0   = ptl2min ! minimum pt for the second lepton in pt
 0   = ptl3min ! minimum pt for the third lepton in pt
 0   = ptl4min ! minimum pt for the fourth lepton in pt
 -1  = ptl1max ! maximum pt for the leading lepton in pt 
 -1  = ptl2max ! maximum pt for the second lepton in pt
 -1  = ptl3max ! maximum pt for the third lepton in pt
 -1  = ptl4max ! maximum pt for the fourth lepton in pt
#*********************************************************************
# Control the Ht(k)=Sum of k leading jets                            *
#*********************************************************************
 0   = htjmin ! minimum jet HT=Sum(jet pt)
 -1  = htjmax ! maximum jet HT=Sum(jet pt)
 0   = ihtmin  !inclusive Ht for all partons (including b)
 -1  = ihtmax  !inclusive Ht for all partons (including b)
 0   = ht2min ! minimum Ht for the two leading jets
 0   = ht3min ! minimum Ht for the three leading jets
 0   = ht4min ! minimum Ht for the four leading jets
 -1  = ht2max ! maximum Ht for the two leading jets
 -1  = ht3max ! maximum Ht for the three leading jets
 -1  = ht4max ! maximum Ht for the four leading jets
#***********************************************************************
# Photon-isolation cuts, according to hep-ph/9801442                   *
# When ptgmin=0, all the other parameters are ignored                  *
# When ptgmin>0, pta and draj are not going to be used                 *
#***********************************************************************
   0 = ptgmin ! Min photon transverse momentum
 0.4 = R0gamma ! Radius of isolation code
 1.0 = xn ! n parameter of eq.(3.4) in hep-ph/9801442
 1.0 = epsgamma ! epsilon_gamma parameter of eq.(3.4) in hep-ph/9801442
 .true. = isoEM ! isolate photons from EM energy (photons and leptons)
#*********************************************************************
# WBF cuts                                                           *
#*********************************************************************
 0   = xetamin ! minimum rapidity for two jets in the WBF case  
 0   = deltaeta ! minimum rapidity for two jets in the WBF case 
#*********************************************************************
# KT DURHAM CUT                                                      *
#*********************************************************************
 -1    =  ktdurham        
 0.4  =  dparameter 
#*********************************************************************
# maximal pdg code for quark to be considered as a light jet         *
# (otherwise b cuts are applied)                                     *
#*********************************************************************
 4 = maxjetflavor    ! Maximum jet pdg code
#*********************************************************************
# Jet measure cuts                                                   *
#*********************************************************************
 0   = xqcut   ! minimum kt jet measure between partons
#*********************************************************************
#
#*********************************************************************
# Store info for systematics studies                                 *
# WARNING: If use_syst is T, matched Pythia output is                *
#          meaningful ONLY if plotted taking matchscale              *
#          reweighting into account!                                 *
#*********************************************************************
   F  = use_syst      ! Enable systematics studies
#
#**************************************
# Parameter of the systematics study
#  will be used by SysCalc (if installed)
#**************************************                                  
#
0.5 1 2 = sys_scalefact  # factorization/renormalization scale factor
0.5 1 2 = sys_alpsfact  # \alpha_s emission scale factors
30 50 = sys_matchscale # variation of merging scale
# PDF sets and number of members (0 or none for all members).
CT10nlo.LHgrid = sys_pdf # matching scales
# MSTW2008nlo68cl.LHgrid 1  = sys_pdf
</MGRunCard>
<slha>
######################################################################
## PARAM_CARD AUTOMATICALY GENERATED BY MG5 FOLLOWING UFO MODEL   ####
######################################################################
##                                                                  ##
##  Width set on Auto will be computed following the information    ##
##        present in the decay.py files of the model.               ##
##        See  arXiv:1402.1178 for more details.                    ##
##                                                                  ##
######################################################################

###################################
## INFORMATION FOR CKMBLOCK
###################################
Block ckmblock 
    1 2.277360e-01 # cabi 

###################################
## INFORMATION FOR FRBLOCK
###################################
Block frblock 
    1 8.000000e-01 # gz 

###################################
## INFORMATION FOR MASS
###################################
Block mass 
    1 5.040000e-03 # MD 
    2 2.550000e-03 # MU 
    3 1.010000e-01 # MS 
    4 1.270000e+00 # MC 
    5 4.700000e+00 # MB 
    6 1.720000e+02 # MT 
   11 5.110000e-04 # Me 
   13 1.056600e-01 # MM 
   15 1.777000e+00 # MTA 
   23 9.118760e+01 # MZ 
   25 1.200000e+02 # MH 
  10030 6.000000e+02 # MZph 
  10031 3.000000e+02 # MZpl 
## Dependent parameters, given by model restrictions.
## Those values should be edited following the 
## analytical expression. MG5 ignores those values 
## but they are important for interfacing the output of MG5
## to external program such as Pythia.
  12 0.000000 # ve : 0.0 
  14 0.000000 # vm : 0.0 
  16 0.000000 # vt : 0.0 
  21 0.000000 # g : 0.0 
  22 0.000000 # a : 0.0 
  24 79.824360 # w+ : cmath.sqrt(MZ__exp__2/2. + cmath.sqrt(MZ__exp__4/4. - (aEW*cmath.pi*MZ__exp__2)/(Gf*sqrt__2))) 

###################################
## INFORMATION FOR SMINPUTS
###################################
Block sminputs 
    1 1.279000e+02 # aEWM1 
    2 1.166370e-05 # Gf 
    3 1.184000e-01 # aS 

###################################
## INFORMATION FOR YUKAWA
###################################
Block yukawa 
    1 5.040000e-03 # ymdo 
    2 2.550000e-03 # ymup 
    3 1.010000e-01 # yms 
    4 1.270000e+00 # ymc 
    5 4.700000e+00 # ymb 
    6 1.720000e+02 # ymt 
   11 5.110000e-04 # yme 
   13 1.056600e-01 # ymm 
   15 1.777000e+00 # ymtau 

###################################
## INFORMATION FOR DECAY
###################################
DECAY   6 1.508336e+00 # WT 
DECAY  23 2.495200e+00 # WZ 
DECAY  24 2.085000e+00 # WW 
DECAY  25 5.753088e-03 # WH 
## Dependent parameters, given by model restrictions.
## Those values should be edited following the 
## analytical expression. MG5 ignores those values 
## but they are important for interfacing the output of MG5
## to external program such as Pythia.
DECAY  1 0.000000 # d : 0.0 
DECAY  2 0.000000 # u : 0.0 
DECAY  3 0.000000 # s : 0.0 
DECAY  4 0.000000 # c : 0.0 
DECAY  5 0.000000 # b : 0.0 
DECAY  11 0.000000 # e- : 0.0 
DECAY  12 0.000000 # ve : 0.0 
DECAY  13 0.000000 # mu- : 0.0 
DECAY  14 0.000000 # vm : 0.0 
DECAY  15 0.000000 # ta- : 0.0 
DECAY  16 0.000000 # vt : 0.0 
DECAY  21 0.000000 # g : 0.0 
DECAY  22 0.000000 # a : 0.0 
DECAY  10030 0.308725 # zph : (gz__exp__2*MZph*(5 + cmath.sqrt(1 - (4*MT__exp__2)/MZph__exp__2)))/(144.*cmath.pi) 
DECAY  10031 0.132629 # zpl : (5*gz__exp__2*MZpl)/(144.*cmath.pi) 
#===========================================================
# QUANTUM NUMBERS OF NEW STATE(S) (NON SM PDG CODE)
#===========================================================

Block QNUMBERS 10030  # zph 
        1 0  # 3 times electric charge
        2 3  # number of spin states (2S+1)
        3 1  # colour rep (1: singlet, 3: triplet, 8: octet)
        4 0  # Particle/Antiparticle distinction (0=own anti)
Block QNUMBERS 10031  # zpl 
        1 0  # 3 times electric charge
        2 3  # number of spin states (2S+1)
        3 1  # colour rep (1: singlet, 3: triplet, 8: octet)
        4 0  # Particle/Antiparticle distinction (0=own anti)
</slha>
## END BANNER##
<MGGenerationInfo>
#  Number of Events        :         4166
#  Integrated weight (pb)  :  0.12174E+02
#  Max wgt                 :  0.39346E-02
#  Average wgt             :  0.29222E-02
</MGGenerationInfo>
</header>
<init>
     2212     2212  0.40000000000E+04  0.40000000000E+04 0 0  247000  247000 2   1
  0.12152509174E+02  0.22146834938E-01  0.39346340000E-02   0
</init>
<event>
 5   0  0.3934634E-02  0.6021991E+03  0.7818609E-02  0.9900854E-01
       -2   -1    0    0    0  501  0.00000000000E+00  0.00000000000E+00  0.12786579525E+03  0.12786579527E+03  0.25500000920E-02 0.  1.
        2   -1    0    0  501    0  0.00000000000E+00  0.00000000000E+00 -0.70903196850E+03  0.70903196850E+03  0.25500000920E-02 0. -1.
    10030    2    1    2    0    0  0.00000000000E+00  0.00000000000E+00 -0.58116617325E+03  0.83689776377E+03  0.60219909173E+03 0.  0.
        1    1    3    3  502    0  0.19703998202E+03  0.17012619367E+03 -0.50085735642E+03  0.56446945692E+03  0.50400001928E-02 0. -1.
       -1    1    3    3    0  502 -0.19703998202E+03 -0.17012619367E+03 -0.80308816832E+02  0.27242830685E+03  0.50400001928E-02 0.  1.
</event>
<event>
 5   0  0.1521750E-02  0.6001187E+03  0.7818609E-02  0.9905160E-01
       -3   -1    0    0    0  501  0.00000000000E+00  0.00000000000E+00  0.12278271093E+04  0.12278271134E+04  0.10100000352E+00 0. -1.
        3   -1    0    0  501    0  0.00000000000E+00  0.00000000000E+00 -0.73329196335E+02  0.73329265891E+02  0.10100000352E+00 0.  1.
    10030    2    1    2    0    0  0.00000000000E+00  0.00000000000E+00  0.11544979129E+04  0.13011563793E+04  0.60011873197E+03 0.  0.
        1    1    3    3  502    0 -0.78872616983E+02  0.21745631641E+03  0.16286570767E+03  0.28290171088E+03  0.50400001928E-02 0.  1.
       -1    1    3    3    0  502  0.78872616983E+02 -0.21745631641E+03  0.99163220526E+03  0.10182546684E+04  0.50400001928E-02 0. -1.
</event>
<event>
 5   0  0.3934634E-02  0.5951351E+03  0.7818609E-02  0.9915551E-01
        2   -1    0    0  501    0  0.00000000000E+00  0.00000000000E+00  0.52587362203E+03  0.52587362204E+03  0.25500000920E-02 0.  1.
       -2   -1    0    0    0  501  0.00000000000E+00  0.00000000000E+00 -0.16837971279E+03  0.16837971281E+03  0.25500000920E-02 0. -1.
    10030    2    1    2    0    0  0.00000000000E+00  0.00000000000E+00  0.35749390924E+03  0.69425333485E+03  0.59513510886E+03 0.  0.
        1    1    3    3  502    0 -0.16832914144E+03 -0.17332078814E+03 -0.23882213876E+02  0.24278623442E+03  0.50400001928E-02 0. -1.
       -1    1    3    3    0  502  0.16832914144E+03  0.17332078814E+03  0.38137612312E+03  0.45146710043E+03  0.50400001928E-02 0.  1.
</event>
<event>
 5   0  0.3832191E-02  0.5994027E+03  0.7818609E-02  0.9906646E-01
       -2   -1    0    0    0  501  0.00000000000E+00  0.00000000000E+00  0.23159059391E+03  0.23159059392E+03  0.25500000920E-02 0. -1.
        2   -1    0    0  501    0  0.00000000000E+00  0.00000000000E+00 -0.38784347603E+03  0.38784347604E+03  0.25500000920E-02 0.  1.
    10030    2    1    2    0    0  0.00000000000E+00  0.00000000000E+00 -0.15625288213E+03  0.61943406997E+03  0.59940270592E+03 0.  0.
        3    1    3    3  502    0  0.17724042635E+02  0.90300340729E+02 -0.37288206596E+03  0.38406944494E+03  0.10100000352E+00 0.  1.
       -3    1    3    3    0  502 -0.17724042635E+02 -0.90300340729E+02  0.21662918383E+03  0.23536462502E+03  0.10100000352E+00 0. -1.
</event>
<event>
 5   0  0.3934634E-02  0.5983046E+03  0.7818609E-02  0.9908930E-01
       -2   -1    0    0    0  501  0.00000000000E+00  0.00000000000E+00  0.50526816115E+02  0.50526816179E+02  0.25500000920E-02 0.  1.
        2   -1    0    0  501    0  0.00000000000E+00  0.00000000000E+00 -0.17711801936E+04  0.17711801936E+04  0.25500000920E-02 0. -1.
    10030    2    1    2    0    0  0.00000000000E+00  0.00000000000E+00 -0.17206533775E+04  0.18217070098E+04  0.59830459135E+03 0.  0.
        1    1    3    3  502    0 -0.92274047528E+02  0.24504427185E+03 -0.13008309920E+04  0.13269221774E+04  0.50400001928E-02 0.  1.
       -1    1    3    3    0  502  0.92274047528E+02 -0.24504427185E+03 -0.41982238551E+03  0.49478483244E+03  0.50400001928E-02 0. -1.
</event>
<event>
 5   0  0.3832191E-02  0.6010796E+03  0.7818609E-02  0.9903169E-01
       -2   -1    0    0    0  501  0.00000000000E+00  0.00000000000E+00  0.33848094877E+03  0.33848094878E+03  0.25500000920E-02 0.  1.
        2   -1    0    0  501    0  0.00000000000E+00  0.00000000000E+00 -0.26685152397E+03  0.26685152398E+03  0.25500000920E-02 0. -1.
    10030    2    1    2    0    0  0.00000000000E+00  0.00000000000E+00  0.71629424798E+02  0.60533247276E+03  0.60107955220E+03 0.  0.
        3    1    3    3  502    0 -0.20858578380E+03  0.19731659911E+03 -0.53595653745E+02  0.29208624375E+03  0.10100000352E+00 0. -1.
       -3    1    3    3    0  502  0.20858578380E+03 -0.19731659911E+03  0.12522507854E+03  0.31324622900E+03  0.10100000352E+00 0.  1.
</event>
<event>
 5   0  0.2276105E-02  0.5998247E+03  0.7818609E-02  0.9905770E-01
        1   -1    0    0  501    0  0.00000000000E+00  0.00000000000E+00  0.21943400391E+04  0.21943400391E+04  0.50400001928E-02 0. -1.
       -1   -1    0    0    0  501  0.00000000000E+00  0.00000000000E+00 -0.40990651769E+02  0.40990652079E+02  0.50400001928E-02 0.  1.
    10030    2    1    2    0    0  0.00000000000E+00  0.00000000000E+00  0.21533493873E+04  0.22353306912E+04  0.59982473693E+03 0.  0.
        1    1    3    3  502    0 -0.29843411502E+03  0.28311610276E+02  0.10427314802E+04  0.10849670079E+04  0.50400001928E-02 0. -1.
       -1    1    3    3    0  502  0.29843411502E+03 -0.28311610276E+02  0.11106179071E+04  0.11503636833E+04  0.50400001928E-02 0.  1.
</event>
<event>
 5   0  0.2295179E-02  0.6004321E+03  0.7818609E-02  0.9904510E-01
       -1   -1    0    0    0  501  0.00000000000E+00  0.00000000000E+00  0.22941178221E+03  0.22941178226E+03  0.50400001928E-02 0.  1.
        1   -1    0    0  501    0  0.00000000000E+00  0.00000000000E+00 -0.39287296722E+03  0.39287296726E+03  0.50400001928E-02 0. -1.
    10030    2    1    2    0    0  0.00000000000E+00  0.00000000000E+00 -0.16346118502E+03  0.62228474952E+03  0.60043213645E+03 0.  0.
        3    1    3    3  502    0 -0.82316201612E+02  0.15751533040E+03 -0.33249239603E+03  0.37701225441E+03  0.10100000352E+00 0. -1.
       -3    1    3    3    0  502  0.82316201612E+02 -0.15751533040E+03  0.16903121102E+03  0.24527249511E+03  0.10100000352E+00 0.  1.
</event>
<event>
 5   0  0.3934634E-02  0.6007897E+03  0.7818609E-02  0.9903769E-01
       -2   -1    0    0    0  501  0.00000000000E+00  0.00000000000E+00  0.11268201710E+03  0.11268201713E+03  0.25500000920E-02 0.  1.
        2   -1    0    0  501    0  0.00000000000E+00  0.00000000000E+00 -0.80081165976E+03  0.80081165977E+03  0.25500000920E-02 0. -1.
    10030    2    1    2    0    0  0.00000000000E+00  0.00000000000E+00 -0.68812964266E+03  0.91349367690E+03  0.60078972413E+03 0.  0.
        1    1    3    3  502    0 -0.82477250430E+02  0.21142082610E+03 -0.44811228074E+02  0.23132079183E+03  0.50400001928E-02 0.  1.
       -1    1    3    3    0  502  0.82477250430E+02 -0.21142082610E+03 -0.64331841459E+03  0.68217288506E+03  0.50400001928E-02 0. -1.
</event>
<event>
 5   0  0.1521750E-02  0.5984977E+03  0.7818609E-02  0.9908528E-01
       -4   -1    0    0    0  501  0.00000000000E+00  0.00000000000E+00  0.28786062554E+03  0.28786342705E+03  0.12699999809E+01 0.  1.
        4   -1    0    0  501    0  0.00000000000E+00  0.00000000000E+00 -0.31108199929E+03  0.31108459168E+03  0.12699999809E+01 0. -1.
    10030    2    1    2    0    0  0.00000000000E+00  0.00000000000E+00 -0.23221373750E+02  0.59894801873E+03  0.59849770003E+03 0.  0.
        3    1    3    3  502    0 -0.21202291463E+03  0.20998265945E+03 -0.34064824552E+02  0.30034456225E+03  0.10100000352E+00 0. -1.
       -3    1    3    3    0  502  0.21202291463E+03 -0.20998265945E+03  0.10843450802E+02  0.29860345649E+03  0.10100000352E+00 0.  1.
</event>
<event>
 5   0  0.3934634E-02  0.5993432E+03  0.7818609E-02  0.9906770E-01
       -2   -1    0    0    0  501  0.00000000000E+00  0.00000000000E+00  0.19782110810E+03  0.19782110811E+03  0.25500000920E-02 0.  1.
        2   -1    0    0  501    0  0.00000000000E+00  0.00000000000E+00 -0.45396103552E+03  0.45396103553E+03  0.25500000920E-02 0. -1.
    10030    2    1    2    0    0  0.00000000000E+00  0.00000000000E+00 -0.25613992742E+03  0.65178214364E+03  0.59934322417E+03 0.  0.
        1    1    3    3  502    0  0.21421196355E+03 -0.12717123157E+03  0.53068105376E+02  0.25470671625E+03  0.50400001928E-02 0.  1.
       -1    1    3    3    0  502 -0.21421196355E+03  0.12717123157E+03 -0.30920803280E+03  0.39707542740E+03  0.50400001928E-02 0. -1.
</event>
<event>
 5   0  0.1521750E-02  0.5963341E+03  0.7818609E-02  0.9913041E-01
        4   -1    0    0  501    0  0.00000000000E+00  0.00000000000E+00  0.10933230012E+03  0.10933967601E+03  0.12699999809E+01 0. -1.
       -4   -1    0    0    0  501  0.00000000000E+00  0.00000000000E+00 -0.81311494828E+03  0.81311594008E+03  0.12699999809E+01 0.  1.
    10030    2    1    2    0    0  0.00000000000E+00  0.00000000000E+00 -0.70378264816E+03  0.92245561609E+03  0.59633409076E+03 0.  0.
        4    1    3    3  502    0 -0.13517943231E+03 -0.12809599295E+03  0.83016563622E+01  0.18642047293E+03  0.12699999809E+01 0.  1.
       -4    1    3    3    0  502  0.13517943231E+03  0.12809599295E+03 -0.71208430452E+03  0.73603514316E+03  0.12699999809E+01 0. -1.
</event>
<event>
 5   0  0.3737642E-02  0.6006352E+03  0.7818609E-02  0.9904089E-01
        2   -1    0    0  501    0  0.00000000000E+00  0.00000000000E+00  0.11838264828E+04  0.11838264828E+04  0.25500000920E-02 0. -1.
       -2   -1    0    0    0  501  0.00000000000E+00  0.00000000000E+00 -0.76185713137E+02  0.76185713179E+02  0.25500000920E-02 0.  1.
    10030    2    1    2    0    0  0.00000000000E+00  0.00000000000E+00  0.11076407697E+04  0.12600121960E+04  0.60063521326E+03 0.  0.
        5    1    3    3  502    0  0.27669335561E+03  0.85274740500E+02  0.38681683544E+03  0.48319804282E+03  0.46999998093E+01 0.  1.
       -5    1    3    3    0  502 -0.27669335561E+03 -0.85274740500E+02  0.72082393424E+03  0.77681415318E+03  0.46999998093E+01 0. -1.
</event>
<event>
 5   0  0.2382531E-02  0.5989776E+03  0.7818609E-02  0.9907529E-01
       -1   -1    0    0    0  501  0.00000000000E+00  0.00000000000E+00  0.23520319429E+03  0.23520319434E+03  0.50400001928E-02 0. -1.
        1   -1    0    0  501    0  0.00000000000E+00  0.00000000000E+00 -0.38134496643E+03  0.38134496647E+03  0.50400001928E-02 0.  1.
    10030    2    1    2    0    0  0.00000000000E+00  0.00000000000E+00 -0.14614177215E+03  0.61654816081E+03  0.59897764318E+03 0.  0.
        5    1    3    3  502    0  0.28871902185E+03  0.43342015070E+02 -0.14161449883E+03  0.32452112431E+03  0.46999998093E+01 0.  1.
       -5    1    3    3    0  502 -0.28871902185E+03 -0.43342015070E+02 -0.45272733220E+01  0.29202703650E+03  0.46999998093E+01 0. -1.
</event>
<event>
 5   0  0.1521750E-02  0.5997337E+03  0.7818609E-02  0.9905959E-01
       -3   -1    0    0    0  501  0.00000000000E+00  0.00000000000E+00  0.74582155715E+03  0.74582156399E+03  0.10100000352E+00 0. -1.
        3   -1    0    0  501    0  0.00000000000E+00  0.00000000000E+00 -0.12056515722E+03  0.12056519953E+03  0.10100000352E+00 0.  1.
    10030    2    1    2    0    0  0.00000000000E+00  0.00000000000E+00  0.62525639993E+03  0.86638676352E+03  0.59973365617E+03 0.  0.
        2    1    3    3  502    0 -0.11140949153E+03 -0.12616229558E+03 -0.45891001213E+02  0.17445625133E+03  0.25500000920E-02 0.  1.
       -2    1    3    3    0  502  0.11140949153E+03  0.12616229558E+03  0.67114740115E+03  0.69193051219E+03  0.25500000920E-02 0. -1.
</event>
<event>
 5   0  0.1521750E-02  0.6012273E+03  0.7818609E-02  0.9902863E-01
       -3   -1    0    0    0  501  0.00000000000E+00  0.00000000000E+00  0.87081661260E+02  0.87081719831E+02  0.10100000352E+00 0.  1.
        3   -1    0    0  501    0  0.00000000000E+00  0.00000000000E+00 -0.10377446205E+04  0.10377446255E+04  0.10100000352E+00 0. -1.
    10030    2    1    2    0    0  0.00000000000E+00  0.00000000000E+00 -0.95066295928E+03  0.11248263453E+04  0.60122728223E+03 0.  0.
        5    1    3    3  502    0 -0.26899822811E+03  0.71765007797E+02 -0.26336598168E+03  0.38326752194E+03  0.46999998093E+01 0.  1.
       -5    1    3    3    0  502  0.26899822811E+03 -0.71765007797E+02 -0.68729697760E+03  0.74155882335E+03  0.46999998093E+01 0. -1.
</event>
<event>
 5   0  0.2276105E-02  0.5912541E+03  0.7818609E-02  0.9923719E-01
       -1   -1    0    0    0  501  0.00000000000E+00  0.00000000000E+00  0.18279293314E+03  0.18279293321E+03  0.50400001928E-02 0. -1.
        1   -1    0    0  501    0  0.00000000000E+00  0.00000000000E+00 -0.47811118580E+03  0.47811118582E+03  0.50400001928E-02 0.  1.
    10030    2    1    2    0    0  0.00000000000E+00  0.00000000000E+00 -0.29531825266E+03  0.66090411903E+03  0.59125407754E+03 0.  0.
        1    1    3    3  502    0 -0.28381230886E+03  0.14497111447E+02 -0.56602947791E+02  0.28976453653E+03  0.50400001928E-02 0. -1.
       -1    1    3    3    0  502  0.28381230886E+03 -0.14497111447E+02 -0.23871530486E+03  0.37113958251E+03  0.50400001928E-02 0.  1.
</event>
<event>
 5   0  0.2295179E-02  0.5970345E+03  0.7818609E-02  0.9911578E-01
       -1   -1    0    0    0  501  0.00000000000E+00  0.00000000000E+00  0.30504940129E+03  0.30504940133E+03  0.50400001928E-02 0. -1.
        1   -1    0    0  501    0  0.00000000000E+00  0.00000000000E+00 -0.29212498700E+03  0.29212498705E+03  0.50400001928E-02 0.  1.
    10030    2    1    2    0    0  0.00000000000E+00  0.00000000000E+00  0.12924414283E+02  0.59717438838E+03  0.59703451295E+03 0.  0.
        3    1    3    3  502    0  0.18184060777E+00 -0.10108930705E+03  0.28740781108E+03  0.30466759122E+03  0.10100000352E+00 0. -1.
       -3    1    3    3    0  502 -0.18184060777E+00  0.10108930705E+03 -0.27448339680E+03  0.29250679716E+03  0.10100000352E+00 0.  1.
</event>
<event>
 5   0  0.2295179E-02  0.6005391E+03  0.7818609E-02  0.9904288E-01
       -1   -1    0    0    0  501  0.00000000000E+00  0.00000000000E+00  0.96266753074E+02  0.96266753206E+02  0.50400001928E-02 0.  1.
        1   -1    0    0  501    0  0.00000000000E+00  0.00000000000E+00 -0.93658290720E+03  0.93658290722E+03  0.50400001928E-02 0. -1.
    10030    2    1    2    0    0  0.00000000000E+00  0.00000000000E+00 -0.84031615413E+03  0.10328496604E+04  0.60053907628E+03 0.  0.
        3    1    3    3  502    0  0.79638067546E+02  0.27855276695E+03 -0.28443073743E+03  0.40599842410E+03  0.10100000352E+00 0.  1.
       -3    1    3    3    0  502 -0.79638067546E+02 -0.27855276695E+03 -0.55588541670E+03  0.62685123632E+03  0.10100000352E+00 0. -1.
</event>
<event>
 5   0  0.3934634E-02  0.5981007E+03  0.7818609E-02  0.9909354E-01
       -2   -1    0    0    0  501  0.00000000000E+00  0.00000000000E+00  0.10335601974E+03  0.10335601977E+03  0.25500000920E-02 0.  1.
        2   -1    0    0  501    0  0.00000000000E+00  0.00000000000E+00 -0.86527239419E+03  0.86527239420E+03  0.25500000920E-02 0. -1.
    10030    2    1    2    0    0  0.00000000000E+00  0.00000000000E+00 -0.76191637446E+03  0.96862841396E+03  0.59810069610E+03 0.  0.
        1    1    3    3  502    0 -0.10795334858E+03 -0.27888553903E+03 -0.38128728779E+03  0.48457307520E+03  0.50400001928E-02 0. -1.
       -1    1    3    3    0  502  0.10795334858E+03  0.27888553903E+03 -0.38062908667E+03  0.48405533877E+03  0.50400001928E-02 0.  1.
</event>
<event>
 5   0  0.2309055E-02  0.6020673E+03  0.7818609E-02  0.9901126E-01
        1   -1    0    0  501    0  0.00000000000E+00  0.00000000000E+00  0.64874072756E+03  0.64874072758E+03  0.50400001928E-02 0. -1.
       -1   -1    0    0    0  501  0.00000000000E+00  0.00000000000E+00 -0.13968792784E+03  0.13968792793E+03  0.50400001928E-02 0.  1.
    10030    2    1    2    0    0  0.00000000000E+00  0.00000000000E+00  0.50905279972E+03  0.78842865551E+03  0.60206726528E+03 0.  0.
        4    1    3    3  502    0  0.52173335164E+02  0.53237571840E+02  0.63646064386E+03  0.64081203176E+03  0.12699999809E+01 0. -1.
       -4    1    3    3    0  502 -0.52173335164E+02 -0.53237571840E+02 -0.12740784414E+03  0.14761662375E+03  0.12699999809E+01 0.  1.
</event>
<event>
 5   0  0.2276105E-02  0.5976748E+03  0.7818609E-02  0.9910242E-01
        1   -1    0    0  501    0  0.00000000000E+00  0.00000000000E+00  0.38894129101E+03  0.38894129104E+03  0.50400001928E-02 0.  1.
       -1   -1    0    0    0  501  0.00000000000E+00  0.00000000000E+00 -0.22960739270E+03  0.22960739276E+03  0.50400001928E-02 0. -1.
    10030    2    1    2    0    0  0.00000000000E+00  0.00000000000E+00  0.15933389831E+03  0.61854868380E+03  0.59767481382E+03 0.  0.
        1    1    3    3  502    0 -0.27726137680E+03  0.58210159842E+01  0.19489293290E+03  0.33895576497E+03  0.50400001928E-02 0.  1.
       -1    1    3    3    0  502  0.27726137680E+03 -0.58210159842E+01 -0.35559034590E+02  0.27959291882E+03  0.50400001928E-02 0. -1.
</event>
<event>
 5   0  0.3798925E-02  0.5996665E+03  0.7818609E-02  0.9906098E-01
       -2   -1    0    0    0  501  0.00000000000E+00  0.00000000000E+00  0.30876461221E+02  0.30876461326E+02  0.25500000920E-02 0.  1.
        2   -1    0    0  501    0  0.00000000000E+00  0.00000000000E+00 -0.29116026690E+04  0.29116026690E+04  0.25500000920E-02 0. -1.
    10030    2    1    2    0    0  0.00000000000E+00  0.00000000000E+00 -0.28807262078E+04  0.29424791304E+04  0.59966653086E+03 0.  0.
        2    1    3    3  502    0 -0.21936583901E+03  0.66872256137E+02 -0.23881203159E+04  0.23991064822E+04  0.25500000920E-02 0. -1.
       -2    1    3    3    0  502  0.21936583901E+03 -0.66872256137E+02 -0.49260589196E+03  0.54337264816E+03  0.25500000920E-02 0.  1.
</event>
<event>
 5   0  0.2295179E-02  0.5868259E+03  0.7818609E-02  0.9933121E-01
        1   -1    0    0  501    0  0.00000000000E+00  0.00000000000E+00  0.68846965620E+03  0.68846965622E+03  0.50400001928E-02 0.  1.
       -1   -1    0    0    0  501  0.00000000000E+00  0.00000000000E+00 -0.12504714634E+03  0.12504714644E+03  0.50400001928E-02 0. -1.
    10030    2    1    2    0    0  0.00000000000E+00  0.00000000000E+00  0.56342250986E+03  0.81351680266E+03  0.58682592273E+03 0.  0.
        3    1    3    3  502    0  0.15833708453E+03  0.66454013920E+02 -0.48112767862E+02  0.17833007861E+03  0.10100000352E+00 0. -1.
       -3    1    3    3    0  502 -0.15833708453E+03 -0.66454013920E+02  0.61153527772E+03  0.63518672405E+03  0.10100000352E+00 0.  1.
</event>
<event>
 5   0  0.1521750E-02  0.6024839E+03  0.7818609E-02  0.9900266E-01
        3   -1    0    0  501    0  0.00000000000E+00  0.00000000000E+00  0.18444985890E+03  0.18444988655E+03  0.10100000352E+00 0.  1.
       -3   -1    0    0    0  501  0.00000000000E+00  0.00000000000E+00 -0.49198576241E+03  0.49198577277E+03  0.10100000352E+00 0. -1.
    10030    2    1    2    0    0  0.00000000000E+00  0.00000000000E+00 -0.30753590351E+03  0.67643565933E+03  0.60248391619E+03 0.  0.
        2    1    3    3  502    0  0.23037908301E+03  0.19220018809E+03 -0.12340641069E+03  0.32441420498E+03  0.25500000920E-02 0.  1.
       -2    1    3    3    0  502 -0.23037908301E+03 -0.19220018809E+03 -0.18412949282E+03  0.35202145435E+03  0.25500000920E-02 0. -1.
</event>
<event>
 5   0  0.3832191E-02  0.5446153E+03  0.7818609E-02  0.1002748E+00
       -2   -1    0    0    0  501  0.00000000000E+00  0.00000000000E+00  0.67016196440E+02  0.67016196488E+02  0.25500000920E-02 0. -1.
        2   -1    0    0  501    0  0.00000000000E+00  0.00000000000E+00 -0.11064704910E+04  0.11064704910E+04  0.25500000920E-02 0.  1.
    10030    2    1    2    0    0  0.00000000000E+00  0.00000000000E+00 -0.10394542945E+04  0.11734866874E+04  0.54461525431E+03 0.  0.
        3    1    3    3  502    0 -0.85335709217E+02 -0.15532192016E+03 -0.96520665563E+03  0.98134141889E+03  0.10100000352E+00 0.  1.
       -3    1    3    3    0  502  0.85335709217E+02  0.15532192016E+03 -0.74247638883E+02  0.19214526856E+03  0.10100000352E+00 0. -1.
</event>
<event>
 5   0  0.2309055E-02  0.6010173E+03  0.7818609E-02  0.9903298E-01
       -1   -1    0    0    0  501  0.00000000000E+00  0.00000000000E+00  0.94219839432E+03  0.94219839434E+03  0.50400001928E-02 0. -1.
        1   -1    0    0  501    0  0.00000000000E+00  0.00000000000E+00 -0.95845461822E+02  0.95845461955E+02  0.50400001928E-02 0.  1.
    10030    2    1    2    0    0  0.00000000000E+00  0.00000000000E+00  0.84635293250E+03  0.10380438563E+04  0.60101727199E+03 0.  0.
        4    1    3    3  502    0 -0.39483341249E+02 -0.17729700317E+02  0.93678226072E+03  0.93778243394E+03  0.12699999809E+01 0. -1.
       -4    1    3    3    0  502  0.39483341249E+02  0.17729700317E+02 -0.90429328219E+02  0.10026142235E+03  0.12699999809E+01 0.  1.
</event>
<event>
 5   0  0.3798925E-02  0.6014497E+03  0.7818609E-02  0.9902403E-01
       -2   -1    0    0    0  501  0.00000000000E+00  0.00000000000E+00  0.12305005758E+03  0.12305005761E+03  0.25500000920E-02 0.  1.
        2   -1    0    0  501    0  0.00000000000E+00  0.00000000000E+00 -0.73494840230E+03  0.73494840231E+03  0.25500000920E-02 0. -1.
    10030    2    1    2    0    0  0.00000000000E+00  0.00000000000E+00 -0.61189834472E+03  0.85799845991E+03  0.60144972603E+03 0.  0.
        2    1    3    3  502    0 -0.65032641731E+02  0.18293396463E+03 -0.63356347449E+03  0.66264376260E+03  0.25500000920E-02 0. -1.
       -2    1    3    3    0  502  0.65032641731E+02 -0.18293396463E+03  0.21665129768E+02  0.19535469731E+03  0.25500000920E-02 0.  1.
</event>
<event>
 5   0  0.2225808E-02  0.6037524E+03  0.7818609E-02  0.9897652E-01
        1   -1    0    0  501    0  0.00000000000E+00  0.00000000000E+00  0.12759595037E+04  0.12759595037E+04  0.50400001928E-02 0.  1.
       -1   -1    0    0    0  501  0.00000000000E+00  0.00000000000E+00 -0.71420155394E+02  0.71420155572E+02  0.50400001928E-02 0. -1.
    10030    2    1    2    0    0  0.00000000000E+00  0.00000000000E+00  0.12045393483E+04  0.13473796592E+04  0.60375235372E+03 0.  0.
        2    1    3    3  502    0 -0.14322214894E+03 -0.61784781865E+02  0.25480566820E+02  0.15804810188E+03  0.25500000920E-02 0. -1.
       -2    1    3    3    0  502  0.14322214894E+03  0.61784781865E+02  0.11790587814E+04  0.11893315574E+04  0.25500000920E-02 0.  1.
</event>
<event>
 5   0  0.3832191E-02  0.6124944E+03  0.7818609E-02  0.9879818E-01
        2   -1    0    0  501    0  0.00000000000E+00  0.00000000000E+00  0.73794882205E+03  0.73794882205E+03  0.25500000920E-02 0. -1.
       -2   -1    0    0    0  501  0.00000000000E+00  0.00000000000E+00 -0.12709195641E+03  0.12709195644E+03  0.25500000920E-02 0.  1.
    10030    2    1    2    0    0  0.00000000000E+00  0.00000000000E+00  0.61085686564E+03  0.86504077849E+03  0.61249443929E+03 0.  0.
        3    1    3    3  502    0  0.19633910000E+03 -0.23153813284E+03  0.36242057781E+03  0.47276594058E+03  0.10100000352E+00 0.  1.
       -3    1    3    3    0  502 -0.19633910000E+03  0.23153813284E+03  0.24843628783E+03  0.39227483792E+03  0.10100000352E+00 0. -1.
</event>
<event>
 5   0  0.3737642E-02  0.6001503E+03  0.7818609E-02  0.9905094E-01
        2   -1    0    0  501    0  0.00000000000E+00  0.00000000000E+00  0.89040425774E+03  0.89040425775E+03  0.25500000920E-02 0.  1.
       -2   -1    0    0    0  501  0.00000000000E+00  0.00000000000E+00 -0.10112833131E+03  0.10112833134E+03  0.25500000920E-02 0. -1.
    10030    2    1    2    0    0  0.00000000000E+00  0.00000000000E+00  0.78927592643E+03  0.99153258909E+03  0.60015030383E+03 0.  0.
        5    1    3    3  502    0  0.18441012382E+03 -0.20590393996E+03  0.58744693312E+03  0.64924534306E+03  0.46999998093E+01 0.  1.
       -5    1    3    3    0  502 -0.18441012382E+03  0.20590393996E+03  0.20182899331E+03  0.34228724603E+03  0.46999998093E+01 0. -1.
</event>
<event>
 5   0  0.2225808E-02  0.6017526E+03  0.7818609E-02  0.9901777E-01
       -1   -1    0    0    0  501  0.00000000000E+00  0.00000000000E+00  0.12642819646E+03  0.12642819656E+03  0.50400001928E-02 0. -1.
        1   -1    0    0  501    0  0.00000000000E+00  0.00000000000E+00 -0.71603131347E+03  0.71603131349E+03  0.50400001928E-02 0.  1.
    10030    2    1    2    0    0  0.00000000000E+00  0.00000000000E+00 -0.58960311701E+03  0.84245951004E+03  0.60175259906E+03 0.  0.
        2    1    3    3  502    0 -0.11123153052E+03 -0.12732788453E+03 -0.64323725155E+03  0.66508571278E+03  0.25500000920E-02 0.  1.
       -2    1    3    3    0  502  0.11123153052E+03  0.12732788453E+03  0.53634134535E+02  0.17737379726E+03  0.25500000920E-02 0. -1.
</event>
<event>
 5   0  0.3832191E-02  0.6072267E+03  0.7818609E-02  0.9890525E-01
        2   -1    0    0  501    0  0.00000000000E+00  0.00000000000E+00  0.15914903886E+03  0.15914903888E+03  0.25500000920E-02 0. -1.
       -2   -1    0    0    0  501  0.00000000000E+00  0.00000000000E+00 -0.57921228188E+03  0.57921228188E+03  0.25500000920E-02 0.  1.
    10030    2    1    2    0    0  0.00000000000E+00  0.00000000000E+00 -0.42006324302E+03  0.73836132077E+03  0.60722673844E+03 0.  0.
        3    1    3    3  502    0  0.18412397440E+03 -0.18530125606E+03 -0.21880767448E+02  0.26213922185E+03  0.10100000352E+00 0. -1.
       -3    1    3    3    0  502 -0.18412397440E+03  0.18530125606E+03 -0.39818247557E+03  0.47622209892E+03  0.10100000352E+00 0.  1.
</event>
<event>
 5   0  0.3934634E-02  0.5931655E+03  0.7818609E-02  0.9919688E-01
       -2   -1    0    0    0  501  0.00000000000E+00  0.00000000000E+00  0.11346307078E+03  0.11346307081E+03  0.25500000920E-02 0. -1.
        2   -1    0    0  501    0  0.00000000000E+00  0.00000000000E+00 -0.77524200528E+03  0.77524200529E+03  0.25500000920E-02 0.  1.
    10030    2    1    2    0    0  0.00000000000E+00  0.00000000000E+00 -0.66177893450E+03  0.88870507609E+03  0.59316553686E+03 0.  0.
        1    1    3    3  502    0 -0.22908346866E+03 -0.18774028496E+03 -0.35389068109E+03  0.46148051357E+03  0.50400001928E-02 0. -1.
       -1    1    3    3    0  502  0.22908346866E+03  0.18774028496E+03 -0.30788825341E+03  0.42722456253E+03  0.50400001928E-02 0.  1.
</event>
<event>
 5   0  0.2295179E-02  0.5991924E+03  0.7818609E-02  0.9907083E-01
       -1   -1    0    0    0  501  0.00000000000E+00  0.00000000000E+00  0.21753630872E+03  0.21753630878E+03  0.50400001928E-02 0.  1.
        1   -1    0    0  501    0  0.00000000000E+00  0.00000000000E+00 -0.41261103469E+03  0.41261103472E+03  0.50400001928E-02 0. -1.
    10030    2    1    2    0    0  0.00000000000E+00  0.00000000000E+00 -0.19507472597E+03  0.63014734350E+03  0.59919239465E+03 0.  0.
        3    1    3    3  502    0 -0.10702784190E+03  0.18267555180E+03  0.12538640497E+03  0.24606315636E+03  0.10100000352E+00 0.  1.
       -3    1    3    3    0  502  0.10702784190E+03 -0.18267555180E+03 -0.32046113093E+03  0.38408418713E+03  0.10100000352E+00 0. -1.
</event>
<event>
 5   0  0.3832191E-02  0.6000111E+03  0.7818609E-02  0.9905383E-01
       -2   -1    0    0    0  501  0.00000000000E+00  0.00000000000E+00  0.18733697354E+03  0.18733697356E+03  0.25500000920E-02 0.  1.
        2   -1    0    0  501    0  0.00000000000E+00  0.00000000000E+00 -0.48043541306E+03  0.48043541307E+03  0.25500000920E-02 0. -1.
    10030    2    1    2    0    0  0.00000000000E+00  0.00000000000E+00 -0.29309843952E+03  0.66777238663E+03  0.60001105415E+03 0.  0.
        3    1    3    3  502    0 -0.60873689137E+02  0.23290320084E+03 -0.34580409673E+03  0.42134307934E+03  0.10100000352E+00 0. -1.
       -3    1    3    3    0  502  0.60873689137E+02 -0.23290320084E+03  0.52705657209E+02  0.24642930729E+03  0.10100000352E+00 0.  1.
</event>
<event>
 5   0  0.2309055E-02  0.5866283E+03  0.7818609E-02  0.9933543E-01
        1   -1    0    0  501    0  0.00000000000E+00  0.00000000000E+00  0.13540577769E+04  0.13540577769E+04  0.50400001928E-02 0.  1.
       -1   -1    0    0    0  501  0.00000000000E+00  0.00000000000E+00 -0.63537318978E+02  0.63537319178E+02  0.50400001928E-02 0. -1.
    10030    2    1    2    0    0  0.00000000000E+00  0.00000000000E+00  0.12905204579E+04  0.14175950961E+04  0.58662833561E+03 0.  0.
        4    1    3    3  502    0 -0.10255706804E+03  0.20547659051E+03  0.10861861944E+04  0.11101984702E+04  0.12699999809E+01 0.  1.
       -4    1    3    3    0  502  0.10255706804E+03 -0.20547659051E+03  0.20433426353E+03  0.30739662589E+03  0.12699999809E+01 0. -1.
</event>
<event>
 5   0  0.2309055E-02  0.5989748E+03  0.7818609E-02  0.9907535E-01
        1   -1    0    0  501    0  0.00000000000E+00  0.00000000000E+00  0.61761006765E+03  0.61761006767E+03  0.50400001928E-02 0.  1.
       -1   -1    0    0    0  501  0.00000000000E+00  0.00000000000E+00 -0.14522545741E+03  0.14522545750E+03  0.50400001928E-02 0. -1.
    10030    2    1    2    0    0  0.00000000000E+00  0.00000000000E+00  0.47238461024E+03  0.76283552517E+03  0.59897480620E+03 0.  0.
        4    1    3    3  502    0 -0.14723219873E+02 -0.26351048826E+03  0.55918041635E+02  0.26978322947E+03  0.12699999809E+01 0. -1.
       -4    1    3    3    0  502  0.14723219873E+02  0.26351048826E+03  0.41646656860E+03  0.49305229569E+03  0.12699999809E+01 0.  1.
</event>
<event>
 5   0  0.2295179E-02  0.6011901E+03  0.7818609E-02  0.9902940E-01
       -1   -1    0    0    0  501  0.00000000000E+00  0.00000000000E+00  0.27700503221E+03  0.27700503226E+03  0.50400001928E-02 0. -1.
        1   -1    0    0  501    0  0.00000000000E+00  0.00000000000E+00 -0.32619402630E+03  0.32619402634E+03  0.50400001928E-02 0.  1.
    10030    2    1    2    0    0  0.00000000000E+00  0.00000000000E+00 -0.49188994086E+02  0.60319905859E+03  0.60119010899E+03 0.  0.
        3    1    3    3  502    0 -0.21604357420E+03  0.10028184459E+03  0.15939248389E+03  0.28659596723E+03  0.10100000352E+00 0. -1.
       -3    1    3    3    0  502  0.21604357420E+03 -0.10028184459E+03 -0.20858147797E+03  0.31660309137E+03  0.10100000352E+00 0.  1.
</event>
<event>
 5   0  0.3724066E-02  0.6008538E+03  0.7818609E-02  0.9903636E-01
        2   -1    0    0  501    0  0.00000000000E+00  0.00000000000E+00  0.25749667937E+03  0.25749667939E+03  0.25500000920E-02 0.  1.
       -2   -1    0    0    0  501  0.00000000000E+00  0.00000000000E+00 -0.35051456064E+03  0.35051456065E+03  0.25500000920E-02 0. -1.
    10030    2    1    2    0    0  0.00000000000E+00  0.00000000000E+00 -0.93017881265E+02  0.60801124004E+03  0.60085384394E+03 0.  0.
        4    1    3    3  502    0  0.10564212073E+03  0.13374146302E+02  0.23775658089E+03  0.26051665997E+03  0.12699999809E+01 0.  1.
       -4    1    3    3    0  502 -0.10564212073E+03 -0.13374146302E+02 -0.33077446216E+03  0.34749458007E+03  0.12699999809E+01 0. -1.
</event>
<event>
 5   0  0.3724066E-02  0.5968142E+03  0.7818609E-02  0.9912038E-01
        2   -1    0    0  501    0  0.00000000000E+00  0.00000000000E+00  0.66798951184E+03  0.66798951185E+03  0.25500000920E-02 0.  1.
       -2   -1    0    0    0  501  0.00000000000E+00  0.00000000000E+00 -0.13330569762E+03  0.13330569765E+03  0.25500000920E-02 0. -1.
    10030    2    1    2    0    0  0.00000000000E+00  0.00000000000E+00  0.53468381422E+03  0.80129520950E+03  0.59681423540E+03 0.  0.
        4    1    3    3  502    0  0.27138920989E+03 -0.55206789160E+02  0.11816409437E+03  0.30110506291E+03  0.12699999809E+01 0. -1.
       -4    1    3    3    0  502 -0.27138920989E+03  0.55206789160E+02  0.41651971985E+03  0.50019014658E+03  0.12699999809E+01 0.  1.
</event>
<event>
 5   0  0.1521750E-02  0.5982119E+03  0.7818609E-02  0.9909123E-01
       -4   -1    0    0    0  501  0.00000000000E+00  0.00000000000E+00  0.11867596911E+03  0.11868276431E+03  0.12699999809E+01 0.  1.
        4   -1    0    0  501    0  0.00000000000E+00  0.00000000000E+00 -0.75382513522E+03  0.75382620503E+03  0.12699999809E+01 0. -1.
    10030    2    1    2    0    0  0.00000000000E+00  0.00000000000E+00 -0.63514916611E+03  0.87250896934E+03  0.59821186746E+03 0.  0.
        1    1    3    3  502    0 -0.19272722703E+03  0.15277443062E+03 -0.56586970022E+03  0.61700269719E+03  0.50400001928E-02 0.  1.
       -1    1    3    3    0  502  0.19272722703E+03 -0.15277443062E+03 -0.69279465897E+02  0.25550627215E+03  0.50400001928E-02 0. -1.
</event>
<event>
 5   0  0.2295179E-02  0.5905632E+03  0.7818609E-02  0.9925180E-01
        1   -1    0    0  501    0  0.00000000000E+00  0.00000000000E+00  0.88599625342E+03  0.88599625344E+03  0.50400001928E-02 0. -1.
       -1   -1    0    0    0  501  0.00000000000E+00  0.00000000000E+00 -0.98410388186E+02  0.98410388315E+02  0.50400001928E-02 0.  1.
    10030    2    1    2    0    0  0.00000000000E+00  0.00000000000E+00  0.78758586524E+03  0.98440664175E+03  0.59056324065E+03 0.  0.
        3    1    3    3  502    0 -0.90895725740E+02  0.10870280669E+03  0.82562123297E+03  0.83769252335E+03  0.10100000352E+00 0. -1.
       -3    1    3    3    0  502  0.90895725740E+02 -0.10870280669E+03 -0.38035367736E+02  0.14671411840E+03  0.10100000352E+00 0.  1.
</event>
<event>
 5   0  0.2382531E-02  0.5951921E+03  0.7818609E-02  0.9915431E-01
       -1   -1    0    0    0  501  0.00000000000E+00  0.00000000000E+00  0.39716625129E+03  0.39716625132E+03  0.50400001928E-02 0.  1.
        1   -1    0    0  501    0  0.00000000000E+00  0.00000000000E+00 -0.22298824810E+03  0.22298824816E+03  0.50400001928E-02 0. -1.
    10030    2    1    2    0    0  0.00000000000E+00  0.00000000000E+00  0.17417800318E+03  0.62015449948E+03  0.59519209204E+03 0.  0.
        5    1    3    3  502    0 -0.60640850244E+02  0.23252258763E+03 -0.95762578188E+02  0.25872113917E+03  0.46999998093E+01 0.  1.
       -5    1    3    3    0  502  0.60640850244E+02 -0.23252258763E+03  0.26994058137E+03  0.36143336031E+03  0.46999998093E+01 0. -1.
</event>
<event>
 5   0  0.3798925E-02  0.6007907E+03  0.7818609E-02  0.9903767E-01
       -2   -1    0    0    0  501  0.00000000000E+00  0.00000000000E+00  0.48354848613E+03  0.48354848614E+03  0.25500000920E-02 0. -1.
        2   -1    0    0  501    0  0.00000000000E+00  0.00000000000E+00 -0.18661494545E+03  0.18661494546E+03  0.25500000920E-02 0.  1.
    10030    2    1    2    0    0  0.00000000000E+00  0.00000000000E+00  0.29693354069E+03  0.67016343160E+03  0.60079072685E+03 0.  0.
        2    1    3    3  502    0 -0.16167330877E+03  0.21718902886E+03  0.33355453600E+01  0.27077750810E+03  0.25500000920E-02 0.  1.
       -2    1    3    3    0  502  0.16167330877E+03 -0.21718902886E+03  0.29359799533E+03  0.39938592350E+03  0.25500000920E-02 0. -1.
</event>
<event>
 5   0  0.3832191E-02  0.6053371E+03  0.7818609E-02  0.9894395E-01
        2   -1    0    0  501    0  0.00000000000E+00  0.00000000000E+00  0.11619258579E+04  0.11619258579E+04  0.25500000920E-02 0.  1.
       -2   -1    0    0    0  501  0.00000000000E+00  0.00000000000E+00 -0.78841728224E+02  0.78841728266E+02  0.25500000920E-02 0. -1.
    10030    2    1    2    0    0  0.00000000000E+00  0.00000000000E+00  0.10830841297E+04  0.12407675862E+04  0.60533707217E+03 0.  0.
        3    1    3    3  502    0  0.16081744946E+03  0.25028998040E+03  0.42740216636E+03  0.52074941032E+03  0.10100000352E+00 0. -1.
       -3    1    3    3    0  502 -0.16081744946E+03 -0.25028998040E+03  0.65568196336E+03  0.72001817589E+03  0.10100000352E+00 0.  1.
</event>
<event>
 5   0  0.3934634E-02  0.5987209E+03  0.7818609E-02  0.9908063E-01
       -2   -1    0    0    0  501  0.00000000000E+00  0.00000000000E+00  0.17840822972E+03  0.17840822974E+03  0.25500000920E-02 0.  1.
        2   -1    0    0  501    0  0.00000000000E+00  0.00000000000E+00 -0.50231247896E+03  0.50231247897E+03  0.25500000920E-02 0. -1.
    10030    2    1    2    0    0  0.00000000000E+00  0.00000000000E+00 -0.32390424924E+03  0.68072070871E+03  0.59872090375E+03 0.  0.
        1    1    3    3  502    0  0.52042061629E+02  0.24771229074E+03  0.19772532287E+02  0.25389113458E+03  0.50400001928E-02 0.  1.
       -1    1    3    3    0  502 -0.52042061629E+02 -0.24771229074E+03 -0.34367678153E+03  0.42682957413E+03  0.50400001928E-02 0. -1.
</event>
<event>
 5   0  0.3798925E-02  0.6042112E+03  0.7818609E-02  0.9896708E-01
       -2   -1    0    0    0  501  0.00000000000E+00  0.00000000000E+00  0.57524242375E+02  0.57524242432E+02  0.25500000920E-02 0. -1.
        2   -1    0    0  501    0  0.00000000000E+00  0.00000000000E+00 -0.15865969394E+04  0.15865969394E+04  0.25500000920E-02 0.  1.
    10030    2    1    2    0    0  0.00000000000E+00  0.00000000000E+00 -0.15290726971E+04  0.16441211819E+04  0.60421117813E+03 0.  0.
        2    1    3    3  502    0 -0.28233143715E+03 -0.62535216028E+02 -0.10024749284E+04  0.10433492588E+04  0.25500000920E-02 0.  1.
       -2    1    3    3    0  502  0.28233143715E+03  0.62535216028E+02 -0.52659776865E+03  0.60077192312E+03  0.25500000920E-02 0. -1.
</event>
<event>
 5   0  0.3832191E-02  0.5998208E+03  0.7818609E-02  0.9905778E-01
        2   -1    0    0  501    0  0.00000000000E+00  0.00000000000E+00  0.53373627669E+03  0.53373627670E+03  0.25500000920E-02 0.  1.
       -2   -1    0    0    0  501  0.00000000000E+00  0.00000000000E+00 -0.16852189419E+03  0.16852189421E+03  0.25500000920E-02 0. -1.
    10030    2    1    2    0    0  0.00000000000E+00  0.00000000000E+00  0.36521438250E+03  0.70225817091E+03  0.59982080109E+03 0.  0.
        3    1    3    3  502    0  0.82820156399E+02  0.24360254937E+03  0.21974162390E+01  0.25730569214E+03  0.10100000352E+00 0. -1.
       -3    1    3    3    0  502 -0.82820156399E+02 -0.24360254937E+03  0.36301696626E+03  0.44495247877E+03  0.10100000352E+00 0.  1.
</event>
<event>
 5   0  0.2295179E-02  0.6100526E+03  0.7818609E-02  0.9884767E-01
       -1   -1    0    0    0  501  0.00000000000E+00  0.00000000000E+00  0.12597398124E+04  0.12597398124E+04  0.50400001928E-02 0.  1.
        1   -1    0    0  501    0  0.00000000000E+00  0.00000000000E+00 -0.73857359476E+02  0.73857359648E+02  0.50400001928E-02 0. -1.
    10030    2    1    2    0    0  0.00000000000E+00  0.00000000000E+00  0.11858824529E+04  0.13335971720E+04  0.61005264130E+03 0.  0.
        3    1    3    3  502    0  0.23049788748E+03 -0.13227216166E+03  0.26564958550E+03  0.37575911614E+03  0.10100000352E+00 0.  1.
       -3    1    3    3    0  502 -0.23049788748E+03  0.13227216166E+03  0.92023286740E+03  0.95783805590E+03  0.10100000352E+00 0. -1.
</event>
<event>
 5   0  0.3737642E-02  0.5969624E+03  0.7818609E-02  0.9911728E-01
       -2   -1    0    0    0  501  0.00000000000E+00  0.00000000000E+00  0.82550132470E+02  0.82550132510E+02  0.25500000920E-02 0. -1.
        2   -1    0    0  501    0  0.00000000000E+00  0.00000000000E+00 -0.10792354448E+04  0.10792354448E+04  0.25500000920E-02 0.  1.
    10030    2    1    2    0    0  0.00000000000E+00  0.00000000000E+00 -0.99668531235E+03  0.11617855773E+04  0.59696240740E+03 0.  0.
        5    1    3    3  502    0  0.75590888565E+02 -0.17154780525E+02  0.62546072475E+02  0.99711434194E+02  0.46999998093E+01 0. -1.
       -5    1    3    3    0  502 -0.75590888565E+02  0.17154780525E+02 -0.10592313848E+04  0.10620741431E+04  0.46999998093E+01 0.  1.
</event>
<event>
 5   0  0.2382531E-02  0.6019014E+03  0.7818609E-02  0.9901469E-01
        1   -1    0    0  501    0  0.00000000000E+00  0.00000000000E+00  0.34824406643E+03  0.34824406646E+03  0.50400001928E-02 0. -1.
       -1   -1    0    0    0  501  0.00000000000E+00  0.00000000000E+00 -0.26008003987E+03  0.26008003992E+03  0.50400001928E-02 0.  1.
    10030    2    1    2    0    0  0.00000000000E+00  0.00000000000E+00  0.88164026554E+02  0.60832410639E+03  0.60190142285E+03 0.  0.
        5    1    3    3  502    0  0.16050121828E+03 -0.25286166938E+03  0.14623506865E+02  0.29989265056E+03  0.46999998093E+01 0.  1.
       -5    1    3    3    0  502 -0.16050121828E+03  0.25286166938E+03  0.73540519689E+02  0.30843145583E+03  0.46999998093E+01 0. -1.
</event>
<event>
 5   0  0.2295179E-02  0.6009834E+03  0.7818609E-02  0.9903368E-01
        1   -1    0    0  501    0  0.00000000000E+00  0.00000000000E+00  0.18056612464E+04  0.18056612464E+04  0.50400001928E-02 0. -1.
       -1   -1    0    0    0  501  0.00000000000E+00  0.00000000000E+00 -0.50006763060E+02  0.50006763314E+02  0.50400001928E-02 0.  1.
    10030    2    1    2    0    0  0.00000000000E+00  0.00000000000E+00  0.17556544833E+04  0.18556680097E+04  0.60098344189E+03 0.  0.
        3    1    3    3  502    0  0.15268146754E+03 -0.70038792215E+02  0.10850668636E+03  0.19997693400E+03  0.10100000352E+00 0.  1.
       -3    1    3    3    0  502 -0.15268146754E+03  0.70038792215E+02  0.16471477969E+04  0.16556910757E+04  0.10100000352E+00 0. -1.
</event>
<event>
 5   0  0.1521750E-02  0.6061552E+03  0.7818609E-02  0.9892718E-01
        3   -1    0    0  501    0  0.00000000000E+00  0.00000000000E+00  0.34020265646E+03  0.34020267145E+03  0.10100000352E+00 0.  1.
       -3   -1    0    0    0  501  0.00000000000E+00  0.00000000000E+00 -0.27000379535E+03  0.27000381424E+03  0.10100000352E+00 0. -1.
    10030    2    1    2    0    0  0.00000000000E+00  0.00000000000E+00  0.70198861114E+02  0.61020648569E+03  0.60615515759E+03 0.  0.
        3    1    3    3  502    0  0.14083560259E+03 -0.11794113196E+03 -0.20757445968E+03  0.27718575735E+03  0.10100000352E+00 0. -1.
       -3    1    3    3    0  502 -0.14083560259E+03  0.11794113196E+03  0.27777332079E+03  0.33302072835E+03  0.10100000352E+00 0.  1.
</event>
<event>
 5   0  0.3832191E-02  0.5962043E+03  0.7818609E-02  0.9913312E-01
        2   -1    0    0  501    0  0.00000000000E+00  0.00000000000E+00  0.34971987319E+03  0.34971987320E+03  0.25500000920E-02 0. -1.
       -2   -1    0    0    0  501  0.00000000000E+00  0.00000000000E+00 -0.25410303826E+03  0.25410303828E+03  0.25500000920E-02 0.  1.
    10030    2    1    2    0    0  0.00000000000E+00  0.00000000000E+00  0.95616834925E+02  0.60382291148E+03  0.59620426810E+03 0.  0.
        3    1    3    3  502    0 -0.21465276589E+03 -0.15862953834E+03  0.18226686287E+03  0.32320327944E+03  0.10100000352E+00 0. -1.
       -3    1    3    3    0  502  0.21465276589E+03  0.15862953834E+03 -0.86650027943E+02  0.28061963204E+03  0.10100000352E+00 0.  1.
</event>
<event>
 5   0  0.2276105E-02  0.5913862E+03  0.7818609E-02  0.9923440E-01
       -1   -1    0    0    0  501  0.00000000000E+00  0.00000000000E+00  0.63230793887E+03  0.63230793889E+03  0.50400001928E-02 0. -1.
        1   -1    0    0  501    0  0.00000000000E+00  0.00000000000E+00 -0.13827820764E+03  0.13827820773E+03  0.50400001928E-02 0.  1.
    10030    2    1    2    0    0  0.00000000000E+00  0.00000000000E+00  0.49402973123E+03  0.77058614662E+03  0.59138619702E+03 0.  0.
        1    1    3    3  502    0  0.16433524892E+03 -0.24408756524E+03  0.20903477720E+03  0.36094369595E+03  0.50400001928E-02 0. -1.
       -1    1    3    3    0  502 -0.16433524892E+03  0.24408756524E+03  0.28499495403E+03  0.40964245067E+03  0.50400001928E-02 0.  1.
</event>
<event>
 5   0  0.2295179E-02  0.6084870E+03  0.7818609E-02  0.9887953E-01
       -1   -1    0    0    0  501  0.00000000000E+00  0.00000000000E+00  0.22859483880E+03  0.22859483885E+03  0.50400001928E-02 0.  1.
        1   -1    0    0  501    0  0.00000000000E+00  0.00000000000E+00 -0.40492649236E+03  0.40492649239E+03  0.50400001928E-02 0. -1.
    10030    2    1    2    0    0  0.00000000000E+00  0.00000000000E+00 -0.17633165356E+03  0.63352133125E+03  0.60848699666E+03 0.  0.
        3    1    3    3  502    0  0.42840263934E+02 -0.30047130966E+03 -0.11014847136E+03  0.32287922214E+03  0.10100000352E+00 0. -1.
       -3    1    3    3    0  502 -0.42840263934E+02  0.30047130966E+03 -0.66183182200E+02  0.31064210911E+03  0.10100000352E+00 0.  1.
</event>
<event>
 5   0  0.2225808E-02  0.5862790E+03  0.7818609E-02  0.9934289E-01
        1   -1    0    0  501    0  0.00000000000E+00  0.00000000000E+00  0.80389503296E+02  0.80389503454E+02  0.50400001928E-02 0. -1.
       -1   -1    0    0    0  501  0.00000000000E+00  0.00000000000E+00 -0.10689300767E+04  0.10689300767E+04  0.50400001928E-02 0.  1.
    10030    2    1    2    0    0  0.00000000000E+00  0.00000000000E+00 -0.98854057337E+03  0.11493195801E+04  0.58627897121E+03 0.  0.
        2    1    3    3  502    0 -0.37651393722E+02  0.11261459637E+03 -0.10196734659E+04  0.10265640028E+04  0.25500000920E-02 0.  1.
       -2    1    3    3    0  502  0.37651393722E+02 -0.11261459637E+03  0.31132892530E+02  0.12275557734E+03  0.25500000920E-02 0. -1.
</event>
<event>
 5   0  0.2382531E-02  0.6024014E+03  0.7818609E-02  0.9900436E-01
       -1   -1    0    0    0  501  0.00000000000E+00  0.00000000000E+00  0.22565854031E+03  0.22565854037E+03  0.50400001928E-02 0.  1.
        1   -1    0    0  501    0  0.00000000000E+00  0.00000000000E+00 -0.40203163081E+03  0.40203163084E+03  0.50400001928E-02 0. -1.
    10030    2    1    2    0    0  0.00000000000E+00  0.00000000000E+00 -0.17637309050E+03  0.62769017121E+03  0.60240143093E+03 0.  0.
        5    1    3    3  502    0  0.23149712162E+03  0.46186155261E+02 -0.28305545620E+03  0.36860081326E+03  0.46999998093E+01 0. -1.
       -5    1    3    3    0  502 -0.23149712162E+03 -0.46186155261E+02  0.10668236570E+03  0.25908935795E+03  0.46999998093E+01 0.  1.
</event>
<event>
 5   0  0.3724066E-02  0.6043903E+03  0.7818609E-02  0.9896339E-01
        2   -1    0    0  501    0  0.00000000000E+00  0.00000000000E+00  0.13935316061E+04  0.13935316061E+04  0.25500000920E-02 0.  1.
       -2   -1    0    0    0  501  0.00000000000E+00  0.00000000000E+00 -0.65532714171E+02  0.65532714221E+02  0.25500000920E-02 0. -1.
    10030    2    1    2    0    0  0.00000000000E+00  0.00000000000E+00  0.13279988919E+04  0.14590643203E+04  0.60439029929E+03 0.  0.
        4    1    3    3  502    0 -0.22959821828E+03  0.63396671686E+02  0.11129577038E+04  0.11381612114E+04  0.12699999809E+01 0.  1.
       -4    1    3    3    0  502  0.22959821828E+03 -0.63396671686E+02  0.21504118813E+03  0.32090310891E+03  0.12699999809E+01 0. -1.
</event>
<event>
 5   0  0.3934634E-02  0.5958066E+03  0.7818609E-02  0.9914144E-01
        2   -1    0    0  501    0  0.00000000000E+00  0.00000000000E+00  0.17854180510E+04  0.17854180511E+04  0.25500000920E-02 0. -1.
       -2   -1    0    0    0  501  0.00000000000E+00  0.00000000000E+00 -0.49706214721E+02  0.49706214787E+02  0.25500000920E-02 0.  1.
    10030    2    1    2    0    0  0.00000000000E+00  0.00000000000E+00  0.17357118363E+04  0.18351242658E+04  0.59580658967E+03 0.  0.
        1    1    3    3  502    0 -0.15917433838E+03 -0.15601322572E+03  0.25904751416E+03  0.34173412358E+03  0.50400001928E-02 0. -1.
       -1    1    3    3    0  502  0.15917433838E+03  0.15601322572E+03  0.14766643222E+04  0.14933901423E+04  0.50400001928E-02 0.  1.
</event>
<event>
 5   0  0.2309055E-02  0.6000732E+03  0.7818609E-02  0.9905254E-01
       -1   -1    0    0    0  501  0.00000000000E+00  0.00000000000E+00  0.12102069271E+03  0.12102069281E+03  0.50400001928E-02 0.  1.
        1   -1    0    0  501    0  0.00000000000E+00  0.00000000000E+00 -0.74385589849E+03  0.74385589851E+03  0.50400001928E-02 0. -1.
    10030    2    1    2    0    0  0.00000000000E+00  0.00000000000E+00 -0.62283520578E+03  0.86487659132E+03  0.60007318275E+03 0.  0.
        4    1    3    3  502    0 -0.14736429748E+03  0.18093862126E+03 -0.58322626897E+03  0.62817952414E+03  0.12699999809E+01 0. -1.
       -4    1    3    3    0  502  0.14736429748E+03 -0.18093862126E+03 -0.39608936813E+02  0.23669706718E+03  0.12699999809E+01 0.  1.
</event>
<event>
 5   0  0.3798925E-02  0.6014155E+03  0.7818609E-02  0.9902474E-01
       -2   -1    0    0    0  501  0.00000000000E+00  0.00000000000E+00  0.11350834190E+03  0.11350834193E+03  0.25500000920E-02 0.  1.
        2   -1    0    0  501    0  0.00000000000E+00  0.00000000000E+00 -0.79663868652E+03  0.79663868653E+03  0.25500000920E-02 0. -1.
    10030    2    1    2    0    0  0.00000000000E+00  0.00000000000E+00 -0.68313034462E+03  0.91014702845E+03  0.60141545180E+03 0.  0.
        2    1    3    3  502    0 -0.73561766896E+02  0.12874660377E+02  0.99251382563E+02  0.12420920810E+03  0.25500000920E-02 0.  1.
       -2    1    3    3    0  502  0.73561766896E+02 -0.12874660377E+02 -0.78238172718E+03  0.78593782036E+03  0.25500000920E-02 0. -1.
</event>
<event>
 5   0  0.2295179E-02  0.5917449E+03  0.7818609E-02  0.9922682E-01
       -1   -1    0    0    0  501  0.00000000000E+00  0.00000000000E+00  0.13748784726E+03  0.13748784735E+03  0.50400001928E-02 0.  1.
        1   -1    0    0  501    0  0.00000000000E+00  0.00000000000E+00 -0.63671454874E+03  0.63671454876E+03  0.50400001928E-02 0. -1.
    10030    2    1    2    0    0  0.00000000000E+00  0.00000000000E+00 -0.49922670148E+03  0.77420239611E+03  0.59174492027E+03 0.  0.
        3    1    3    3  502    0  0.93123242137E+02 -0.19423220065E+03 -0.51499132258E+03  0.55822411138E+03  0.10100000352E+00 0. -1.
       -3    1    3    3    0  502 -0.93123242137E+02  0.19423220065E+03  0.15764621100E+02  0.21597828473E+03  0.10100000352E+00 0.  1.
</event>
<event>
 5   0  0.3798925E-02  0.6008674E+03  0.7818609E-02  0.9903608E-01
       -2   -1    0    0    0  501  0.00000000000E+00  0.00000000000E+00  0.14191384856E+03  0.14191384858E+03  0.25500000920E-02 0. -1.
        2   -1    0    0  501    0  0.00000000000E+00  0.00000000000E+00 -0.63602256047E+03  0.63602256048E+03  0.25500000920E-02 0.  1.
    10030    2    1    2    0    0  0.00000000000E+00  0.00000000000E+00 -0.49410871191E+03  0.77793640906E+03  0.60086740414E+03 0.  0.
        2    1    3    3  502    0  0.24687256598E+02  0.94619763242E+02  0.12073314901E+03  0.15536683530E+03  0.25500000920E-02 0. -1.
       -2    1    3    3    0  502 -0.24687256598E+02 -0.94619763242E+02 -0.61484186092E+03  0.62256957376E+03  0.25500000920E-02 0.  1.
</event>
<event>
 5   0  0.2225808E-02  0.5991592E+03  0.7818609E-02  0.9907152E-01
        1   -1    0    0  501    0  0.00000000000E+00  0.00000000000E+00  0.47752051192E+03  0.47752051194E+03  0.50400001928E-02 0.  1.
       -1   -1    0    0    0  501  0.00000000000E+00  0.00000000000E+00 -0.18794574626E+03  0.18794574633E+03  0.50400001928E-02 0. -1.
    10030    2    1    2    0    0  0.00000000000E+00  0.00000000000E+00  0.28957476566E+03  0.66546625827E+03  0.59915924093E+03 0.  0.
        2    1    3    3  502    0  0.28917253623E+03 -0.55857955909E+02  0.20569286936E+03  0.35923588832E+03  0.25500000920E-02 0.  1.
       -2    1    3    3    0  502 -0.28917253623E+03  0.55857955909E+02  0.83881896302E+02  0.30623036995E+03  0.25500000920E-02 0. -1.
</event>
<event>
 5   0  0.2225808E-02  0.6016400E+03  0.7818609E-02  0.9902009E-01
       -1   -1    0    0    0  501  0.00000000000E+00  0.00000000000E+00  0.18586929114E+03  0.18586929121E+03  0.50400001928E-02 0.  1.
        1   -1    0    0  501    0  0.00000000000E+00  0.00000000000E+00 -0.48686182499E+03  0.48686182502E+03  0.50400001928E-02 0. -1.
    10030    2    1    2    0    0  0.00000000000E+00  0.00000000000E+00 -0.30099253385E+03  0.67273111623E+03  0.60163996651E+03 0.  0.
        2    1    3    3  502    0 -0.18964729754E+03  0.20592099004E+03 -0.27381010734E+02  0.28128148065E+03  0.25500000920E-02 0.  1.
       -2    1    3    3    0  502  0.18964729754E+03 -0.20592099004E+03 -0.27361152312E+03  0.39144963558E+03  0.25500000920E-02 0. -1.
</event>
<event>
 5   0  0.2225808E-02  0.5970646E+03  0.7818609E-02  0.9911515E-01
       -1   -1    0    0    0  501  0.00000000000E+00  0.00000000000E+00  0.30135970095E+03  0.30135970099E+03  0.50400001928E-02 0.  1.
        1   -1    0    0  501    0  0.00000000000E+00  0.00000000000E+00 -0.29573138393E+03  0.29573138398E+03  0.50400001928E-02 0. -1.
    10030    2    1    2    0    0  0.00000000000E+00  0.00000000000E+00  0.56283170121E+01  0.59709108496E+03  0.59706455747E+03 0.  0.
        2    1    3    3  502    0  0.13118984572E+03  0.80979735697E+02  0.25846790013E+03  0.30095539307E+03  0.25500000920E-02 0.  1.
       -2    1    3    3    0  502 -0.13118984572E+03 -0.80979735697E+02 -0.25283958312E+03  0.29613569189E+03  0.25500000920E-02 0. -1.
</event>
<event>
 5   0  0.3798925E-02  0.5876809E+03  0.7818609E-02  0.9931299E-01
        2   -1    0    0  501    0  0.00000000000E+00  0.00000000000E+00  0.75949847975E+03  0.75949847976E+03  0.25500000920E-02 0. -1.
       -2   -1    0    0    0  501  0.00000000000E+00  0.00000000000E+00 -0.11368320556E+03  0.11368320559E+03  0.25500000920E-02 0.  1.
    10030    2    1    2    0    0  0.00000000000E+00  0.00000000000E+00  0.64581527419E+03  0.87318168535E+03  0.58768094001E+03 0.  0.
        2    1    3    3  502    0  0.70935782851E+02 -0.13177975531E+02 -0.10031766345E+03  0.12356851514E+03  0.25500000920E-02 0.  1.
       -2    1    3    3    0  502 -0.70935782851E+02  0.13177975531E+02  0.74613293763E+03  0.74961317021E+03  0.25500000920E-02 0. -1.
</event>
<event>
 5   0  0.2382531E-02  0.5990830E+03  0.7818609E-02  0.9907310E-01
       -1   -1    0    0    0  501  0.00000000000E+00  0.00000000000E+00  0.61039170958E+03  0.61039170960E+03  0.50400001928E-02 0.  1.
        1   -1    0    0  501    0  0.00000000000E+00  0.00000000000E+00 -0.14699595142E+03  0.14699595151E+03  0.50400001928E-02 0. -1.
    10030    2    1    2    0    0  0.00000000000E+00  0.00000000000E+00  0.46339575816E+03  0.75738766110E+03  0.59908299969E+03 0.  0.
        5    1    3    3  502    0 -0.25005236925E+03  0.11205953571E+03  0.38455912287E+03  0.47221958440E+03  0.46999998093E+01 0.  1.
       -5    1    3    3    0  502  0.25005236925E+03 -0.11205953571E+03  0.78836635286E+02  0.28516807670E+03  0.46999998093E+01 0. -1.
</event>
<event>
 5   0  0.3737642E-02  0.6005226E+03  0.7818609E-02  0.9904322E-01
       -2   -1    0    0    0  501  0.00000000000E+00  0.00000000000E+00  0.11064091308E+03  0.11064091311E+03  0.25500000920E-02 0. -1.
        2   -1    0    0  501    0  0.00000000000E+00  0.00000000000E+00 -0.81486005725E+03  0.81486005726E+03  0.25500000920E-02 0.  1.
    10030    2    1    2    0    0  0.00000000000E+00  0.00000000000E+00 -0.70421914417E+03  0.92550097036E+03  0.60052264164E+03 0.  0.
        5    1    3    3  502    0 -0.14061247061E+03 -0.26399685242E+03 -0.31226037533E+03  0.43242899646E+03  0.46999998093E+01 0. -1.
       -5    1    3    3    0  502  0.14061247061E+03  0.26399685242E+03 -0.39195876884E+03  0.49307197390E+03  0.46999998093E+01 0.  1.
</event>
<event>
 5   0  0.3737642E-02  0.5991406E+03  0.7818609E-02  0.9907191E-01
        2   -1    0    0  501    0  0.00000000000E+00  0.00000000000E+00  0.25839703809E+03  0.25839703810E+03  0.25500000920E-02 0. -1.
       -2   -1    0    0    0  501  0.00000000000E+00  0.00000000000E+00 -0.34730416746E+03  0.34730416747E+03  0.25500000920E-02 0.  1.
    10030    2    1    2    0    0  0.00000000000E+00  0.00000000000E+00 -0.88907129372E+02  0.60570120558E+03  0.59914061186E+03 0.  0.
        5    1    3    3  502    0 -0.92127347300E+02  0.42502293512E+02 -0.32936644164E+03  0.34467119977E+03  0.46999998093E+01 0.  1.
       -5    1    3    3    0  502  0.92127347300E+02 -0.42502293512E+02  0.24045931227E+03  0.26103000580E+03  0.46999998093E+01 0. -1.
</event>
<event>
 5   0  0.3724066E-02  0.6007842E+03  0.7818609E-02  0.9903780E-01
        2   -1    0    0  501    0  0.00000000000E+00  0.00000000000E+00  0.11364616159E+04  0.11364616159E+04  0.25500000920E-02 0. -1.
       -2   -1    0    0    0  501  0.00000000000E+00  0.00000000000E+00 -0.79400309219E+02  0.79400309260E+02  0.25500000920E-02 0.  1.
    10030    2    1    2    0    0  0.00000000000E+00  0.00000000000E+00  0.10570613067E+04  0.12158619252E+04  0.60078416672E+03 0.  0.
        4    1    3    3  502    0  0.94988198036E+02  0.10088705878E+03 -0.10849984502E+02  0.13899745127E+03  0.12699999809E+01 0.  1.
       -4    1    3    3    0  502 -0.94988198036E+02 -0.10088705878E+03  0.10679112912E+04  0.10768644739E+04  0.12699999809E+01 0. -1.
</event>
<event>
 5   0  0.2309055E-02  0.5973252E+03  0.7818609E-02  0.9910971E-01
       -1   -1    0    0    0  501  0.00000000000E+00  0.00000000000E+00  0.88906246145E+02  0.88906246288E+02  0.50400001928E-02 0.  1.
        1   -1    0    0  501    0  0.00000000000E+00  0.00000000000E+00 -0.10032966745E+04  0.10032966746E+04  0.50400001928E-02 0. -1.
    10030    2    1    2    0    0  0.00000000000E+00  0.00000000000E+00 -0.91439042840E+03  0.10922029208E+04  0.59732517505E+03 0.  0.
        4    1    3    3  502    0 -0.29088400782E+02  0.27642018833E+03 -0.25736653152E+03  0.37880522703E+03  0.12699999809E+01 0.  1.
       -4    1    3    3    0  502  0.29088400782E+02 -0.27642018833E+03 -0.65702389688E+03  0.71339769382E+03  0.12699999809E+01 0. -1.
</event>
<event>
 5   0  0.1521750E-02  0.5840114E+03  0.7818609E-02  0.9939144E-01
       -4   -1    0    0    0  501  0.00000000000E+00  0.00000000000E+00  0.58048677721E+03  0.58048816647E+03  0.12699999809E+01 0.  1.
        4   -1    0    0  501    0  0.00000000000E+00  0.00000000000E+00 -0.14688506461E+03  0.14689055485E+03  0.12699999809E+01 0. -1.
    10030    2    1    2    0    0  0.00000000000E+00  0.00000000000E+00  0.43360171260E+03  0.72737872132E+03  0.58401143744E+03 0.  0.
        5    1    3    3  502    0 -0.19261544781E+02  0.11174393025E+02 -0.14578218975E+03  0.14754799563E+03  0.46999998093E+01 0. -1.
       -5    1    3    3    0  502  0.19261544781E+02 -0.11174393025E+02  0.57938390235E+03  0.57983072570E+03  0.46999998093E+01 0.  1.
</event>
<event>
 5   0  0.1521750E-02  0.5980381E+03  0.7818609E-02  0.9909485E-01
       -3   -1    0    0    0  501  0.00000000000E+00  0.00000000000E+00  0.11555399268E+03  0.11555403682E+03  0.10100000352E+00 0. -1.
        3   -1    0    0  501    0  0.00000000000E+00  0.00000000000E+00 -0.77377143006E+03  0.77377143665E+03  0.10100000352E+00 0.  1.
    10030    2    1    2    0    0  0.00000000000E+00  0.00000000000E+00 -0.65821743738E+03  0.88932547348E+03  0.59803812830E+03 0.  0.
        4    1    3    3  502    0 -0.22706197166E+03  0.19654132555E+02 -0.41263892301E+02  0.23161982991E+03  0.12699999809E+01 0. -1.
       -4    1    3    3    0  502  0.22706197166E+03 -0.19654132555E+02 -0.61695354508E+03  0.65770564357E+03  0.12699999809E+01 0.  1.
</event>
<event>
 5   0  0.3798925E-02  0.6007678E+03  0.7818609E-02  0.9903814E-01
        2   -1    0    0  501    0  0.00000000000E+00  0.00000000000E+00  0.72815015865E+03  0.72815015865E+03  0.25500000920E-02 0. -1.
       -2   -1    0    0    0  501  0.00000000000E+00  0.00000000000E+00 -0.12391740005E+03  0.12391740007E+03  0.25500000920E-02 0.  1.
    10030    2    1    2    0    0  0.00000000000E+00  0.00000000000E+00  0.60423275860E+03  0.85206755873E+03  0.60076775718E+03 0.  0.
        2    1    3    3  502    0  0.72738223223E+02 -0.51110724767E+02  0.70906483157E+03  0.71461604424E+03  0.25500000920E-02 0. -1.
       -2    1    3    3    0  502 -0.72738223223E+02  0.51110724767E+02 -0.10483207298E+03  0.13745151449E+03  0.25500000920E-02 0.  1.
</event>
<event>
 5   0  0.2225808E-02  0.5841986E+03  0.7818609E-02  0.9938742E-01
       -1   -1    0    0    0  501  0.00000000000E+00  0.00000000000E+00  0.91148090909E+02  0.91148091048E+02  0.50400001928E-02 0.  1.
        1   -1    0    0  501    0  0.00000000000E+00  0.00000000000E+00 -0.93608100153E+03  0.93608100154E+03  0.50400001928E-02 0. -1.
    10030    2    1    2    0    0  0.00000000000E+00  0.00000000000E+00 -0.84493291062E+03  0.10272290926E+04  0.58419858371E+03 0.  0.
        2    1    3    3  502    0 -0.15604678952E+03  0.67192639861E+02 -0.46707617933E+01  0.16996254703E+03  0.25500000920E-02 0.  1.
       -2    1    3    3    0  502  0.15604678952E+03 -0.67192639861E+02 -0.84026214882E+03  0.85726654555E+03  0.25500000920E-02 0. -1.
</event>
<event>
 5   0  0.3832191E-02  0.6030748E+03  0.7818609E-02  0.9899047E-01
        2   -1    0    0  501    0  0.00000000000E+00  0.00000000000E+00  0.10875083275E+04  0.10875083275E+04  0.25500000920E-02 0.  1.
       -2   -1    0    0    0  501  0.00000000000E+00  0.00000000000E+00 -0.83608375128E+02  0.83608375167E+02  0.25500000920E-02 0. -1.
    10030    2    1    2    0    0  0.00000000000E+00  0.00000000000E+00  0.10038999523E+04  0.11711167026E+04  0.60307480207E+03 0.  0.
        3    1    3    3  502    0 -0.24404506585E+03  0.91887622685E+02  0.79596472774E+03  0.83759249482E+03  0.10100000352E+00 0.  1.
       -3    1    3    3    0  502  0.24404506585E+03 -0.91887622685E+02  0.20793522459E+03  0.33352420781E+03  0.10100000352E+00 0. -1.
</event>
<event>
 5   0  0.3737642E-02  0.5993632E+03  0.7818609E-02  0.9906728E-01
       -2   -1    0    0    0  501  0.00000000000E+00  0.00000000000E+00  0.39186205987E+02  0.39186206070E+02  0.25500000920E-02 0. -1.
        2   -1    0    0  501    0  0.00000000000E+00  0.00000000000E+00 -0.22918539326E+04  0.22918539326E+04  0.25500000920E-02 0.  1.
    10030    2    1    2    0    0  0.00000000000E+00  0.00000000000E+00 -0.22526677266E+04  0.23310401387E+04  0.59936319671E+03 0.  0.
        5    1    3    3  502    0 -0.11444258672E+03 -0.34285587635E+02 -0.57587962394E+02  0.13270670890E+03  0.46999998093E+01 0. -1.
       -5    1    3    3    0  502  0.11444258672E+03  0.34285587635E+02 -0.21950797642E+04  0.21983334298E+04  0.46999998093E+01 0.  1.
</event>
<event>
 5   0  0.2382531E-02  0.6035050E+03  0.7818609E-02  0.9898161E-01
        1   -1    0    0  501    0  0.00000000000E+00  0.00000000000E+00  0.84246472285E+02  0.84246472435E+02  0.50400001928E-02 0. -1.
       -1   -1    0    0    0  501  0.00000000000E+00  0.00000000000E+00 -0.10808117311E+04  0.10808117311E+04  0.50400001928E-02 0.  1.
    10030    2    1    2    0    0  0.00000000000E+00  0.00000000000E+00 -0.99656525884E+03  0.11650582036E+04  0.60350501455E+03 0.  0.
        5    1    3    3  502    0 -0.46076769363E+02  0.19416443027E+03 -0.93514274144E+03  0.95620966922E+03  0.46999998093E+01 0.  1.
       -5    1    3    3    0  502  0.46076769363E+02 -0.19416443027E+03 -0.61422517408E+02  0.20884853435E+03  0.46999998093E+01 0. -1.
</event>
<event>
 5   0  0.2295179E-02  0.5974238E+03  0.7818609E-02  0.9910765E-01
        1   -1    0    0  501    0  0.00000000000E+00  0.00000000000E+00  0.13155073695E+04  0.13155073695E+04  0.50400001928E-02 0. -1.
       -1   -1    0    0    0  501  0.00000000000E+00  0.00000000000E+00 -0.67828426634E+02  0.67828426821E+02  0.50400001928E-02 0.  1.
    10030    2    1    2    0    0  0.00000000000E+00  0.00000000000E+00  0.12476789429E+04  0.13833357963E+04  0.59742378672E+03 0.  0.
        3    1    3    3  502    0  0.60120196755E+02 -0.21748908914E+03  0.10770680591E+04  0.11004506150E+04  0.10100000352E+00 0. -1.
       -3    1    3    3    0  502 -0.60120196755E+02  0.21748908914E+03  0.17061088379E+03  0.28288518134E+03  0.10100000352E+00 0.  1.
</event>
<event>
 5   0  0.3832191E-02  0.5439025E+03  0.7818609E-02  0.1002915E+00
       -2   -1    0    0    0  501  0.00000000000E+00  0.00000000000E+00  0.53307207742E+02  0.53307207803E+02  0.25500000920E-02 0.  1.
        2   -1    0    0  501    0  0.00000000000E+00  0.00000000000E+00 -0.13873823337E+04  0.13873823337E+04  0.25500000920E-02 0. -1.
    10030    2    1    2    0    0  0.00000000000E+00  0.00000000000E+00 -0.13340751260E+04  0.14406895416E+04  0.54390248511E+03 0.  0.
        3    1    3    3  502    0  0.10317929399E+03 -0.13297749513E+03 -0.10123176247E+03  0.19640993064E+03  0.10100000352E+00 0.  1.
       -3    1    3    3    0  502 -0.10317929399E+03  0.13297749513E+03 -0.12328433635E+04  0.12442796109E+04  0.10100000352E+00 0. -1.
</event>
<event>
 5   0  0.3934634E-02  0.6039136E+03  0.7818609E-02  0.9897320E-01
        2   -1    0    0  501    0  0.00000000000E+00  0.00000000000E+00  0.15811401234E+04  0.15811401234E+04  0.25500000920E-02 0. -1.
       -2   -1    0    0    0  501  0.00000000000E+00  0.00000000000E+00 -0.57665928493E+02  0.57665928549E+02  0.25500000920E-02 0.  1.
    10030    2    1    2    0    0  0.00000000000E+00  0.00000000000E+00  0.15234741949E+04  0.16388060519E+04  0.60391361415E+03 0.  0.
        1    1    3    3  502    0 -0.31946598042E+02 -0.80190951049E+02 -0.23471106864E+02  0.89454271220E+02  0.50400001928E-02 0.  1.
       -1    1    3    3    0  502  0.31946598042E+02  0.80190951049E+02  0.15469453017E+04  0.15493517807E+04  0.50400001928E-02 0. -1.
</event>
<event>
 5   0  0.3934634E-02  0.5995105E+03  0.7818609E-02  0.9906422E-01
       -2   -1    0    0    0  501  0.00000000000E+00  0.00000000000E+00  0.13269685914E+03  0.13269685916E+03  0.25500000920E-02 0. -1.
        2   -1    0    0  501    0  0.00000000000E+00  0.00000000000E+00 -0.67713129564E+03  0.67713129564E+03  0.25500000920E-02 0.  1.
    10030    2    1    2    0    0  0.00000000000E+00  0.00000000000E+00 -0.54443443650E+03  0.80982815481E+03  0.59951045418E+03 0.  0.
        1    1    3    3  502    0  0.62034739684E+02 -0.95516611843E+02  0.10233030834E+03  0.15311180260E+03  0.50400001928E-02 0. -1.
       -1    1    3    3    0  502 -0.62034739684E+02  0.95516611843E+02 -0.64676474484E+03  0.65671635220E+03  0.50400001928E-02 0.  1.
</event>
<event>
 5   0  0.3798925E-02  0.5848081E+03  0.7818609E-02  0.9937436E-01
        2   -1    0    0  501    0  0.00000000000E+00  0.00000000000E+00  0.14167531910E+04  0.14167531910E+04  0.25500000920E-02 0. -1.
       -2   -1    0    0    0  501  0.00000000000E+00  0.00000000000E+00 -0.60349335859E+02  0.60349335913E+02  0.25500000920E-02 0.  1.
    10030    2    1    2    0    0  0.00000000000E+00  0.00000000000E+00  0.13564038552E+04  0.14771025269E+04  0.58480805123E+03 0.  0.
        2    1    3    3  502    0 -0.16399109792E+03 -0.17472741334E+03  0.11014309800E+04  0.11271969451E+04  0.25500000920E-02 0. -1.
       -2    1    3    3    0  502  0.16399109792E+03  0.17472741334E+03  0.25497287514E+03  0.34990558189E+03  0.25500000920E-02 0.  1.
</event>
<event>
 5   0  0.2276105E-02  0.6092612E+03  0.7818609E-02  0.9886376E-01
       -1   -1    0    0    0  501  0.00000000000E+00  0.00000000000E+00  0.75854850470E+02  0.75854850637E+02  0.50400001928E-02 0.  1.
        1   -1    0    0  501    0  0.00000000000E+00  0.00000000000E+00 -0.12233863358E+04  0.12233863358E+04  0.50400001928E-02 0. -1.
    10030    2    1    2    0    0  0.00000000000E+00  0.00000000000E+00 -0.11475314853E+04  0.12992411865E+04  0.60926115151E+03 0.  0.
        1    1    3    3  502    0  0.14862065759E+03 -0.24170642523E+03 -0.33736067155E+03  0.44082005239E+03  0.50400001928E-02 0.  1.
       -1    1    3    3    0  502 -0.14862065759E+03  0.24170642523E+03 -0.81017081380E+03  0.85842113407E+03  0.50400001928E-02 0. -1.
</event>
<event>
 5   0  0.3934634E-02  0.5991230E+03  0.7818609E-02  0.9907227E-01
       -2   -1    0    0    0  501  0.00000000000E+00  0.00000000000E+00  0.73641671747E+02  0.73641671791E+02  0.25500000920E-02 0.  1.
        2   -1    0    0  501    0  0.00000000000E+00  0.00000000000E+00 -0.12185640243E+04  0.12185640243E+04  0.25500000920E-02 0. -1.
    10030    2    1    2    0    0  0.00000000000E+00  0.00000000000E+00 -0.11449223526E+04  0.12922056961E+04  0.59912299876E+03 0.  0.
        1    1    3    3  502    0 -0.15934397689E+03 -0.19297444904E+03 -0.92756880309E+03  0.96073592909E+03  0.50400001928E-02 0. -1.
       -1    1    3    3    0  502  0.15934397689E+03  0.19297444904E+03 -0.21735354948E+03  0.33146976702E+03  0.50400001928E-02 0.  1.
</event>
<event>
 5   0  0.3724066E-02  0.5944555E+03  0.7818609E-02  0.9916976E-01
        2   -1    0    0  501    0  0.00000000000E+00  0.00000000000E+00  0.11113472102E+04  0.11113472102E+04  0.25500000920E-02 0.  1.
       -2   -1    0    0    0  501  0.00000000000E+00  0.00000000000E+00 -0.79493005313E+02  0.79493005354E+02  0.25500000920E-02 0. -1.
    10030    2    1    2    0    0  0.00000000000E+00  0.00000000000E+00  0.10318542049E+04  0.11908402156E+04  0.59445548097E+03 0.  0.
        4    1    3    3  502    0  0.10501092532E+03  0.18328240440E+03  0.97047659713E+02  0.23246418080E+03  0.12699999809E+01 0. -1.
       -4    1    3    3    0  502 -0.10501092532E+03 -0.18328240440E+03  0.93480654520E+03  0.95837603478E+03  0.12699999809E+01 0.  1.
</event>
<event>
 5   0  0.3832191E-02  0.6025786E+03  0.7818609E-02  0.9900071E-01
        2   -1    0    0  501    0  0.00000000000E+00  0.00000000000E+00  0.41024217036E+03  0.41024217037E+03  0.25500000920E-02 0.  1.
       -2   -1    0    0    0  501  0.00000000000E+00  0.00000000000E+00 -0.22127230377E+03  0.22127230378E+03  0.25500000920E-02 0. -1.
    10030    2    1    2    0    0  0.00000000000E+00  0.00000000000E+00  0.18896986660E+03  0.63151447415E+03  0.60257855968E+03 0.  0.
        3    1    3    3  502    0 -0.11405191723E+03  0.80287298701E+02 -0.18539989024E+03  0.23200650779E+03  0.10100000352E+00 0. -1.
       -3    1    3    3    0  502  0.11405191723E+03 -0.80287298701E+02  0.37436975683E+03  0.39950796636E+03  0.10100000352E+00 0.  1.
</event>
<event>
 5   0  0.2295179E-02  0.5968356E+03  0.7818609E-02  0.9911993E-01
       -1   -1    0    0    0  501  0.00000000000E+00  0.00000000000E+00  0.22658601385E+03  0.22658601390E+03  0.50400001928E-02 0.  1.
        1   -1    0    0  501    0  0.00000000000E+00  0.00000000000E+00 -0.39302158485E+03  0.39302158489E+03  0.50400001928E-02 0. -1.
    10030    2    1    2    0    0  0.00000000000E+00  0.00000000000E+00 -0.16643557101E+03  0.61960759879E+03  0.59683563665E+03 0.  0.
        3    1    3    3  502    0  0.22467540886E+03  0.18107394870E+03 -0.16218832102E+03  0.33101642848E+03  0.10100000352E+00 0. -1.
       -3    1    3    3    0  502 -0.22467540886E+03 -0.18107394870E+03 -0.42472499871E+01  0.28859117031E+03  0.10100000352E+00 0.  1.
</event>
<event>
 5   0  0.1521750E-02  0.5979530E+03  0.7818609E-02  0.9909662E-01
       -4   -1    0    0    0  501  0.00000000000E+00  0.00000000000E+00  0.20692421623E+03  0.20692811351E+03  0.12699999809E+01 0. -1.
        4   -1    0    0  501    0  0.00000000000E+00  0.00000000000E+00 -0.43197026737E+03  0.43197213427E+03  0.12699999809E+01 0.  1.
    10030    2    1    2    0    0  0.00000000000E+00  0.00000000000E+00 -0.22504605114E+03  0.63890024778E+03  0.59795300943E+03 0.  0.
        1    1    3    3  502    0 -0.10986892666E+02  0.62032259732E+02  0.19975491247E+03  0.20945342714E+03  0.50400001928E-02 0. -1.
       -1    1    3    3    0  502  0.10986892666E+02 -0.62032259732E+02 -0.42480096361E+03  0.42944682065E+03  0.50400001928E-02 0.  1.
</event>
<event>
 5   0  0.3934634E-02  0.6009966E+03  0.7818609E-02  0.9903341E-01
       -2   -1    0    0    0  501  0.00000000000E+00  0.00000000000E+00  0.57390292668E+02  0.57390292725E+02  0.25500000920E-02 0.  1.
        2   -1    0    0  501    0  0.00000000000E+00  0.00000000000E+00 -0.15734231918E+04  0.15734231918E+04  0.25500000920E-02 0. -1.
    10030    2    1    2    0    0  0.00000000000E+00  0.00000000000E+00 -0.15160328991E+04  0.16308134845E+04  0.60099656410E+03 0.  0.
        1    1    3    3  502    0  0.12355355646E+03 -0.15266574792E+03 -0.14086670435E+03  0.24169348423E+03  0.50400001928E-02 0.  1.
       -1    1    3    3    0  502 -0.12355355646E+03  0.15266574792E+03 -0.13751661948E+04  0.13891200003E+04  0.50400001928E-02 0. -1.
</event>
<event>
 5   0  0.3724066E-02  0.6020613E+03  0.7818609E-02  0.9901139E-01
       -2   -1    0    0    0  501  0.00000000000E+00  0.00000000000E+00  0.97895507744E+02  0.97895507777E+02  0.25500000920E-02 0. -1.
        2   -1    0    0  501    0  0.00000000000E+00  0.00000000000E+00 -0.92567540246E+03  0.92567540246E+03  0.25500000920E-02 0.  1.
    10030    2    1    2    0    0  0.00000000000E+00  0.00000000000E+00 -0.82777989472E+03  0.10235709102E+04  0.60206133757E+03 0.  0.
        4    1    3    3  502    0 -0.18165673929E+03 -0.23955812048E+03 -0.43970626264E+03  0.53266356579E+03  0.12699999809E+01 0. -1.
       -4    1    3    3    0  502  0.18165673929E+03  0.23955812048E+03 -0.38807363208E+03  0.49090734445E+03  0.12699999809E+01 0.  1.
</event>
<event>
 5   0  0.3832191E-02  0.6030210E+03  0.7818609E-02  0.9899158E-01
        2   -1    0    0  501    0  0.00000000000E+00  0.00000000000E+00  0.80387176007E+03  0.80387176008E+03  0.25500000920E-02 0.  1.
       -2   -1    0    0    0  501  0.00000000000E+00  0.00000000000E+00 -0.11308840544E+03  0.11308840547E+03  0.25500000920E-02 0. -1.
    10030    2    1    2    0    0  0.00000000000E+00  0.00000000000E+00  0.69078335463E+03  0.91696016555E+03  0.60302097987E+03 0.  0.
        3    1    3    3  502    0  0.39615417721E+02  0.17852109040E+03 -0.19140941184E+02  0.18386284798E+03  0.10100000352E+00 0. -1.
       -3    1    3    3    0  502 -0.39615417721E+02 -0.17852109040E+03  0.70992429581E+03  0.73309731757E+03  0.10100000352E+00 0.  1.
</event>
<event>
 5   0  0.2276105E-02  0.6008801E+03  0.7818609E-02  0.9903582E-01
       -1   -1    0    0    0  501  0.00000000000E+00  0.00000000000E+00  0.13200171784E+03  0.13200171794E+03  0.50400001928E-02 0.  1.
        1   -1    0    0  501    0  0.00000000000E+00  0.00000000000E+00 -0.68381103526E+03  0.68381103527E+03  0.50400001928E-02 0. -1.
    10030    2    1    2    0    0  0.00000000000E+00  0.00000000000E+00 -0.55180931742E+03  0.81581275321E+03  0.60088012574E+03 0.  0.
        1    1    3    3  502    0  0.47616120627E+02  0.28384954256E+03 -0.39290605564E+03  0.48704519948E+03  0.50400001928E-02 0. -1.
       -1    1    3    3    0  502 -0.47616120627E+02 -0.28384954256E+03 -0.15890326178E+03  0.32876755373E+03  0.50400001928E-02 0.  1.
</event>
<event>
 5   0  0.3798925E-02  0.6034255E+03  0.7818609E-02  0.9898325E-01
       -2   -1    0    0    0  501  0.00000000000E+00  0.00000000000E+00  0.12215524072E+03  0.12215524075E+03  0.25500000920E-02 0.  1.
        2   -1    0    0  501    0  0.00000000000E+00  0.00000000000E+00 -0.74520397423E+03  0.74520397423E+03  0.25500000920E-02 0. -1.
    10030    2    1    2    0    0  0.00000000000E+00  0.00000000000E+00 -0.62304873351E+03  0.86735921498E+03  0.60342545810E+03 0.  0.
        2    1    3    3  502    0  0.23709458126E+03 -0.18356745988E+03 -0.26342606839E+03  0.39912923509E+03  0.25500000920E-02 0.  1.
       -2    1    3    3    0  502 -0.23709458126E+03  0.18356745988E+03 -0.35962266512E+03  0.46822997989E+03  0.25500000920E-02 0. -1.
</event>
<event>
 5   0  0.2309055E-02  0.5993635E+03  0.7818609E-02  0.9906728E-01
        1   -1    0    0  501    0  0.00000000000E+00  0.00000000000E+00  0.61224180992E+03  0.61224180994E+03  0.50400001928E-02 0.  1.
       -1   -1    0    0    0  501  0.00000000000E+00  0.00000000000E+00 -0.14668900950E+03  0.14668900959E+03  0.50400001928E-02 0. -1.
    10030    2    1    2    0    0  0.00000000000E+00  0.00000000000E+00  0.46555280042E+03  0.75893081953E+03  0.59936347808E+03 0.  0.
        4    1    3    3  502    0  0.48957772859E+02  0.28894573972E+03  0.31206520543E+03  0.42810373669E+03  0.12699999809E+01 0.  1.
       -4    1    3    3    0  502 -0.48957772859E+02 -0.28894573972E+03  0.15348759499E+03  0.33082708284E+03  0.12699999809E+01 0. -1.
</event>
<event>
 5   0  0.2225808E-02  0.6016778E+03  0.7818609E-02  0.9901931E-01
        1   -1    0    0  501    0  0.00000000000E+00  0.00000000000E+00  0.40955103786E+03  0.40955103789E+03  0.50400001928E-02 0. -1.
       -1   -1    0    0    0  501  0.00000000000E+00  0.00000000000E+00 -0.22098357281E+03  0.22098357287E+03  0.50400001928E-02 0.  1.
    10030    2    1    2    0    0  0.00000000000E+00  0.00000000000E+00  0.18856746505E+03  0.63053461076E+03  0.60167782616E+03 0.  0.
        2    1    3    3  502    0 -0.14857255005E+03  0.16961667225E+03  0.30298431071E+03  0.37768122892E+03  0.25500000920E-02 0. -1.
       -2    1    3    3    0  502  0.14857255005E+03 -0.16961667225E+03 -0.11441684566E+03  0.25285338184E+03  0.25500000920E-02 0.  1.
</event>
<event>
 5   0  0.3737642E-02  0.6016512E+03  0.7818609E-02  0.9901986E-01
       -2   -1    0    0    0  501  0.00000000000E+00  0.00000000000E+00  0.20461087946E+03  0.20461087948E+03  0.25500000920E-02 0.  1.
        2   -1    0    0  501    0  0.00000000000E+00  0.00000000000E+00 -0.44228368349E+03  0.44228368350E+03  0.25500000920E-02 0. -1.
    10030    2    1    2    0    0  0.00000000000E+00  0.00000000000E+00 -0.23767280403E+03  0.64689456297E+03  0.60165123937E+03 0.  0.
        5    1    3    3  502    0  0.15488910533E+03  0.67548865248E+01  0.15830153514E+03  0.22162520043E+03  0.46999998093E+01 0.  1.
       -5    1    3    3    0  502 -0.15488910533E+03 -0.67548865248E+01 -0.39597433917E+03  0.42526936254E+03  0.46999998093E+01 0. -1.
</event>
<event>
 5   0  0.2276105E-02  0.5891790E+03  0.7818609E-02  0.9928114E-01
        1   -1    0    0  501    0  0.00000000000E+00  0.00000000000E+00  0.11783069039E+04  0.11783069039E+04  0.50400001928E-02 0.  1.
       -1   -1    0    0    0  501  0.00000000000E+00  0.00000000000E+00 -0.73650569896E+02  0.73650570069E+02  0.50400001928E-02 0. -1.
    10030    2    1    2    0    0  0.00000000000E+00  0.00000000000E+00  0.11046563340E+04  0.12519574740E+04  0.58917900539E+03 0.  0.
        1    1    3    3  502    0  0.18991241099E+03 -0.21193943932E+03  0.39052812816E+03  0.48321555097E+03  0.50400001928E-02 0.  1.
       -1    1    3    3    0  502 -0.18991241099E+03  0.21193943932E+03  0.71412820583E+03  0.76874192300E+03  0.50400001928E-02 0. -1.
</event>
<event>
 5   0  0.3724066E-02  0.5955526E+03  0.7818609E-02  0.9914676E-01
       -2   -1    0    0    0  501  0.00000000000E+00  0.00000000000E+00  0.56394784792E+02  0.56394784849E+02  0.25500000920E-02 0.  1.
        2   -1    0    0  501    0  0.00000000000E+00  0.00000000000E+00 -0.15723211118E+04  0.15723211118E+04  0.25500000920E-02 0. -1.
    10030    2    1    2    0    0  0.00000000000E+00  0.00000000000E+00 -0.15159263270E+04  0.16287158967E+04  0.59555255275E+03 0.  0.
        4    1    3    3  502    0 -0.28474834553E+03 -0.28198138880E+02 -0.98335336655E+03  0.10241397423E+04  0.12699999809E+01 0. -1.
       -4    1    3    3    0  502  0.28474834553E+03  0.28198138880E+02 -0.53257296047E+03  0.60457615438E+03  0.12699999809E+01 0.  1.
</event>
<event>
 5   0  0.2382531E-02  0.6042794E+03  0.7818609E-02  0.9896567E-01
        1   -1    0    0  501    0  0.00000000000E+00  0.00000000000E+00  0.13801115149E+04  0.13801115149E+04  0.50400001928E-02 0.  1.
       -1   -1    0    0    0  501  0.00000000000E+00  0.00000000000E+00 -0.66145667592E+02  0.66145667784E+02  0.50400001928E-02 0. -1.
    10030    2    1    2    0    0  0.00000000000E+00  0.00000000000E+00  0.13139658473E+04  0.14462571827E+04  0.60427939779E+03 0.  0.
        5    1    3    3  502    0  0.12861869477E+03 -0.15707341008E+03  0.11924295856E+04  0.12095971360E+04  0.46999998093E+01 0.  1.
       -5    1    3    3    0  502 -0.12861869477E+03  0.15707341008E+03  0.12153626173E+03  0.23666004672E+03  0.46999998093E+01 0. -1.
</event>
<event>
 5   0  0.3832191E-02  0.6054898E+03  0.7818609E-02  0.9894081E-01
        2   -1    0    0  501    0  0.00000000000E+00  0.00000000000E+00  0.14624097779E+04  0.14624097779E+04  0.25500000920E-02 0. -1.
       -2   -1    0    0    0  501  0.00000000000E+00  0.00000000000E+00 -0.62673591733E+02  0.62673591785E+02  0.25500000920E-02 0.  1.
    10030    2    1    2    0    0  0.00000000000E+00  0.00000000000E+00  0.13997361862E+04  0.15250833697E+04  0.60548979648E+03 0.  0.
        3    1    3    3  502    0  0.13956982287E+03  0.19884365128E+03  0.11548925642E+04  0.11801675212E+04  0.10100000352E+00 0. -1.
       -3    1    3    3    0  502 -0.13956982287E+03 -0.19884365128E+03  0.24484362203E+03  0.34491584852E+03  0.10100000352E+00 0.  1.
</event>
<event>
 5   0  0.3832191E-02  0.6388789E+03  0.7818609E-02  0.9827874E-01
       -2   -1    0    0    0  501  0.00000000000E+00  0.00000000000E+00  0.67423198984E+02  0.67423199032E+02  0.25500000920E-02 0.  1.
        2   -1    0    0  501    0  0.00000000000E+00  0.00000000000E+00 -0.15134490335E+04  0.15134490335E+04  0.25500000920E-02 0. -1.
    10030    2    1    2    0    0  0.00000000000E+00  0.00000000000E+00 -0.14460258345E+04  0.15808722325E+04  0.63887894120E+03 0.  0.
        3    1    3    3  502    0  0.96980691659E+02  0.29433241161E+03 -0.91475850442E+03  0.96582604784E+03  0.10100000352E+00 0. -1.
       -3    1    3    3    0  502 -0.96980691659E+02 -0.29433241161E+03 -0.53126733009E+03  0.61504618469E+03  0.10100000352E+00 0.  1.
</event>
<event>
 5   0  0.2295179E-02  0.5856553E+03  0.7818609E-02  0.9935622E-01
        1   -1    0    0  501    0  0.00000000000E+00  0.00000000000E+00  0.23471738016E+04  0.23471738016E+04  0.50400001928E-02 0.  1.
       -1   -1    0    0    0  501  0.00000000000E+00  0.00000000000E+00 -0.36532460531E+02  0.36532460878E+02  0.50400001928E-02 0. -1.
    10030    2    1    2    0    0  0.00000000000E+00  0.00000000000E+00  0.23106413411E+04  0.23837062625E+04  0.58565530711E+03 0.  0.
        3    1    3    3  502    0  0.23648738397E+03  0.47262535304E+01  0.18579308621E+04  0.18729270458E+04  0.10100000352E+00 0.  1.
       -3    1    3    3    0  502 -0.23648738397E+03 -0.47262535304E+01  0.45271047894E+03  0.51077921668E+03  0.10100000352E+00 0. -1.
</event>
<event>
 5   0  0.3798925E-02  0.6071284E+03  0.7818609E-02  0.9890726E-01
        2   -1    0    0  501    0  0.00000000000E+00  0.00000000000E+00  0.29911847617E+03  0.29911847618E+03  0.25500000920E-02 0. -1.
       -2   -1    0    0    0  501  0.00000000000E+00  0.00000000000E+00 -0.30807601598E+03  0.30807601599E+03  0.25500000920E-02 0.  1.
    10030    2    1    2    0    0  0.00000000000E+00  0.00000000000E+00 -0.89575398033E+01  0.60719449217E+03  0.60712841624E+03 0.  0.
        2    1    3    3  502    0  0.25182888834E+03  0.11343737970E+03  0.12149286933E+03  0.30173886959E+03  0.25500000920E-02 0. -1.
       -2    1    3    3    0  502 -0.25182888834E+03 -0.11343737970E+03 -0.13045040913E+03  0.30545562258E+03  0.25500000920E-02 0.  1.
</event>
<event>
 5   0  0.3724066E-02  0.5934841E+03  0.7818609E-02  0.9919017E-01
        2   -1    0    0  501    0  0.00000000000E+00  0.00000000000E+00  0.53334847283E+03  0.53334847284E+03  0.25500000920E-02 0. -1.
       -2   -1    0    0    0  501  0.00000000000E+00  0.00000000000E+00 -0.16510001453E+03  0.16510001455E+03  0.25500000920E-02 0.  1.
    10030    2    1    2    0    0  0.00000000000E+00  0.00000000000E+00  0.36824845830E+03  0.69844848739E+03  0.59348408782E+03 0.  0.
        4    1    3    3  502    0  0.63972984328E+02  0.12064914335E+03 -0.12591892688E+03  0.18575776582E+03  0.12699999809E+01 0.  1.
       -4    1    3    3    0  502 -0.63972984328E+02 -0.12064914335E+03  0.49416738518E+03  0.51269072158E+03  0.12699999809E+01 0. -1.
</event>
<event>
 5   0  0.3724066E-02  0.5902738E+03  0.7818609E-02  0.9925793E-01
        2   -1    0    0  501    0  0.00000000000E+00  0.00000000000E+00  0.34731936257E+03  0.34731936258E+03  0.25500000920E-02 0.  1.
       -2   -1    0    0    0  501  0.00000000000E+00  0.00000000000E+00 -0.25079446974E+03  0.25079446976E+03  0.25500000920E-02 0. -1.
    10030    2    1    2    0    0  0.00000000000E+00  0.00000000000E+00  0.96524892829E+02  0.59811383234E+03  0.59027375132E+03 0.  0.
        4    1    3    3  502    0  0.25888985792E+03 -0.16141541398E+02  0.19091462737E+03  0.32207843103E+03  0.12699999809E+01 0.  1.
       -4    1    3    3    0  502 -0.25888985792E+03  0.16141541398E+02 -0.94389734538E+02  0.27603540131E+03  0.12699999809E+01 0. -1.
</event>
<event>
 5   0  0.2225808E-02  0.5997597E+03  0.7818609E-02  0.9905905E-01
       -1   -1    0    0    0  501  0.00000000000E+00  0.00000000000E+00  0.22285947187E+03  0.22285947193E+03  0.50400001928E-02 0. -1.
        1   -1    0    0  501    0  0.00000000000E+00  0.00000000000E+00 -0.40351850199E+03  0.40351850202E+03  0.50400001928E-02 0.  1.
    10030    2    1    2    0    0  0.00000000000E+00  0.00000000000E+00 -0.18065903012E+03  0.62637797395E+03  0.59975968611E+03 0.  0.
        2    1    3    3  502    0  0.39064179222E+02  0.28366913257E+03 -0.18335415728E+03  0.34001901986E+03  0.25500000920E-02 0.  1.
       -2    1    3    3    0  502 -0.39064179222E+02 -0.28366913257E+03  0.26951271677E+01  0.28635895409E+03  0.25500000920E-02 0. -1.
</event>
<event>
 5   0  0.2295179E-02  0.5987699E+03  0.7818609E-02  0.9907961E-01
       -1   -1    0    0    0  501  0.00000000000E+00  0.00000000000E+00  0.94606180435E+02  0.94606180569E+02  0.50400001928E-02 0.  1.
        1   -1    0    0  501    0  0.00000000000E+00  0.00000000000E+00 -0.94741533888E+03  0.94741533889E+03  0.50400001928E-02 0. -1.
    10030    2    1    2    0    0  0.00000000000E+00  0.00000000000E+00 -0.85280915845E+03  0.10420215195E+04  0.59876989428E+03 0.  0.
        3    1    3    3  502    0 -0.26325989177E+03  0.14254846874E+03 -0.43048580766E+03  0.52435091051E+03  0.10100000352E+00 0.  1.
       -3    1    3    3    0  502  0.26325989177E+03 -0.14254846874E+03 -0.42232335079E+03  0.51767060895E+03  0.10100000352E+00 0. -1.
</event>
<event>
 5   0  0.2276105E-02  0.5970408E+03  0.7818609E-02  0.9911564E-01
        1   -1    0    0  501    0  0.00000000000E+00  0.00000000000E+00  0.65998720754E+03  0.65998720756E+03  0.50400001928E-02 0. -1.
       -1   -1    0    0    0  501  0.00000000000E+00  0.00000000000E+00 -0.13502449581E+03  0.13502449591E+03  0.50400001928E-02 0.  1.
    10030    2    1    2    0    0  0.00000000000E+00  0.00000000000E+00  0.52496271172E+03  0.79501170347E+03  0.59704083608E+03 0.  0.
        1    1    3    3  502    0  0.23139731011E+03  0.47743201523E+02  0.19524916062E+02  0.23707667703E+03  0.50400001928E-02 0.  1.
       -1    1    3    3    0  502 -0.23139731011E+03 -0.47743201523E+02  0.50543779566E+03  0.55793502644E+03  0.50400001928E-02 0. -1.
</event>
<event>
 5   0  0.2225808E-02  0.6021350E+03  0.7818609E-02  0.9900986E-01
        1   -1    0    0  501    0  0.00000000000E+00  0.00000000000E+00  0.90238272457E+03  0.90238272458E+03  0.50400001928E-02 0.  1.
       -1   -1    0    0    0  501  0.00000000000E+00  0.00000000000E+00 -0.10044701510E+03  0.10044701523E+03  0.50400001928E-02 0. -1.
    10030    2    1    2    0    0  0.00000000000E+00  0.00000000000E+00  0.80193570947E+03  0.10028297398E+04  0.60213503877E+03 0.  0.
        2    1    3    3  502    0  0.11035279244E+03 -0.12228784945E+03 -0.18745679815E+02  0.16578135432E+03  0.25500000920E-02 0. -1.
       -2    1    3    3    0  502 -0.11035279244E+03  0.12228784945E+03  0.82068138928E+03  0.83704838549E+03  0.25500000920E-02 0.  1.
</event>
<event>
 5   0  0.2276105E-02  0.5839840E+03  0.7818609E-02  0.9939203E-01
       -1   -1    0    0    0  501  0.00000000000E+00  0.00000000000E+00  0.93804472207E+02  0.93804472343E+02  0.50400001928E-02 0. -1.
        1   -1    0    0  501    0  0.00000000000E+00  0.00000000000E+00 -0.90890459265E+03  0.90890459266E+03  0.50400001928E-02 0.  1.
    10030    2    1    2    0    0  0.00000000000E+00  0.00000000000E+00 -0.81510012044E+03  0.10027090650E+04  0.58398395757E+03 0.  0.
        1    1    3    3  502    0  0.28352702111E+03  0.62721897806E+02 -0.35497161789E+03  0.45861362572E+03  0.50400001928E-02 0. -1.
       -1    1    3    3    0  502 -0.28352702111E+03 -0.62721897806E+02 -0.46012850255E+03  0.54409543929E+03  0.50400001928E-02 0.  1.
</event>
<event>
 5   0  0.3798925E-02  0.6077999E+03  0.7818609E-02  0.9889355E-01
        2   -1    0    0  501    0  0.00000000000E+00  0.00000000000E+00  0.38061458902E+03  0.38061458903E+03  0.25500000920E-02 0. -1.
       -2   -1    0    0    0  501  0.00000000000E+00  0.00000000000E+00 -0.24264750097E+03  0.24264750098E+03  0.25500000920E-02 0.  1.
    10030    2    1    2    0    0  0.00000000000E+00  0.00000000000E+00  0.13796708805E+03  0.62326209001E+03  0.60779989755E+03 0.  0.
        2    1    3    3  502    0 -0.16962057669E+03 -0.17968777177E+03  0.25039173355E+03  0.35178808337E+03  0.25500000920E-02 0. -1.
       -2    1    3    3    0  502  0.16962057669E+03  0.17968777177E+03 -0.11242464550E+03  0.27147400664E+03  0.25500000920E-02 0.  1.
</event>
<event>
 5   0  0.2309055E-02  0.5972151E+03  0.7818609E-02  0.9911201E-01
        1   -1    0    0  501    0  0.00000000000E+00  0.00000000000E+00  0.81510487740E+03  0.81510487742E+03  0.50400001928E-02 0.  1.
       -1   -1    0    0    0  501  0.00000000000E+00  0.00000000000E+00 -0.10939262593E+03  0.10939262605E+03  0.50400001928E-02 0. -1.
    10030    2    1    2    0    0  0.00000000000E+00  0.00000000000E+00  0.70571225147E+03  0.92449750346E+03  0.59721508022E+03 0.  0.
        4    1    3    3  502    0 -0.12799133501E+03  0.22349644794E+03  0.11894503361E+03  0.28369345781E+03  0.12699999809E+01 0. -1.
       -4    1    3    3    0  502  0.12799133501E+03 -0.22349644794E+03  0.58676721786E+03  0.64080404566E+03  0.12699999809E+01 0.  1.
</event>
<event>
 5   0  0.3724066E-02  0.6027060E+03  0.7818609E-02  0.9899808E-01
        2   -1    0    0  501    0  0.00000000000E+00  0.00000000000E+00  0.16132859818E+04  0.16132859818E+04  0.25500000920E-02 0.  1.
       -2   -1    0    0    0  501  0.00000000000E+00  0.00000000000E+00 -0.56291098724E+02  0.56291098782E+02  0.25500000920E-02 0. -1.
    10030    2    1    2    0    0  0.00000000000E+00  0.00000000000E+00  0.15569948831E+04  0.16695770806E+04  0.60270603290E+03 0.  0.
        4    1    3    3  502    0  0.83691777799E+02  0.26761130276E+03  0.47262756115E+03  0.54954394500E+03  0.12699999809E+01 0. -1.
       -4    1    3    3    0  502 -0.83691777799E+02 -0.26761130276E+03  0.10843673220E+04  0.11200331356E+04  0.12699999809E+01 0.  1.
</event>
<event>
 5   0  0.2309055E-02  0.5980580E+03  0.7818609E-02  0.9909443E-01
       -1   -1    0    0    0  501  0.00000000000E+00  0.00000000000E+00  0.18644889936E+03  0.18644889943E+03  0.50400001928E-02 0. -1.
        1   -1    0    0  501    0  0.00000000000E+00  0.00000000000E+00 -0.47958635722E+03  0.47958635724E+03  0.50400001928E-02 0.  1.
    10030    2    1    2    0    0  0.00000000000E+00  0.00000000000E+00 -0.29313745786E+03  0.66603525667E+03  0.59805801886E+03 0.  0.
        4    1    3    3  502    0  0.26796462155E+03  0.10122206970E+02  0.79395599588E+00  0.26815991636E+03  0.12699999809E+01 0.  1.
       -4    1    3    3    0  502 -0.26796462155E+03 -0.10122206970E+02 -0.29393141385E+03  0.39787534031E+03  0.12699999809E+01 0. -1.
</event>
<event>
 5   0  0.2295179E-02  0.5980431E+03  0.7818609E-02  0.9909474E-01
       -1   -1    0    0    0  501  0.00000000000E+00  0.00000000000E+00  0.27960972747E+03  0.27960972752E+03  0.50400001928E-02 0.  1.
        1   -1    0    0  501    0  0.00000000000E+00  0.00000000000E+00 -0.31978108359E+03  0.31978108363E+03  0.50400001928E-02 0. -1.
    10030    2    1    2    0    0  0.00000000000E+00  0.00000000000E+00 -0.40171356113E+02  0.59939081114E+03  0.59804314780E+03 0.  0.
        3    1    3    3  502    0 -0.17170330095E+03  0.73521513045E+02  0.21394952814E+03  0.28401029423E+03  0.10100000352E+00 0.  1.
       -3    1    3    3    0  502  0.17170330095E+03 -0.73521513045E+02 -0.25412088425E+03  0.31538051692E+03  0.10100000352E+00 0. -1.
</event>
<event>
 5   0  0.3798925E-02  0.6006689E+03  0.7818609E-02  0.9904019E-01
        2   -1    0    0  501    0  0.00000000000E+00  0.00000000000E+00  0.12569226952E+04  0.12569226952E+04  0.25500000920E-02 0. -1.
       -2   -1    0    0    0  501  0.00000000000E+00  0.00000000000E+00 -0.71763195592E+02  0.71763195637E+02  0.25500000920E-02 0.  1.
    10030    2    1    2    0    0  0.00000000000E+00  0.00000000000E+00  0.11851594996E+04  0.13286858909E+04  0.60066892463E+03 0.  0.
        2    1    3    3  502    0  0.15091754800E+02 -0.24778689060E+03  0.21866044739E+03  0.33081489609E+03  0.25500000920E-02 0.  1.
       -2    1    3    3    0  502 -0.15091754800E+02  0.24778689060E+03  0.96649905224E+03  0.99787099477E+03  0.25500000920E-02 0. -1.
</event>
<event>
 5   0  0.3832191E-02  0.6062157E+03  0.7818609E-02  0.9892594E-01
        2   -1    0    0  501    0  0.00000000000E+00  0.00000000000E+00  0.22557580164E+03  0.22557580166E+03  0.25500000920E-02 0. -1.
       -2   -1    0    0    0  501  0.00000000000E+00  0.00000000000E+00 -0.40728827389E+03  0.40728827390E+03  0.25500000920E-02 0.  1.
    10030    2    1    2    0    0  0.00000000000E+00  0.00000000000E+00 -0.18171247224E+03  0.63286407555E+03  0.60621573351E+03 0.  0.
        3    1    3    3  502    0  0.10862845293E+03  0.23108711864E+02 -0.38528254962E+03  0.40096983252E+03  0.10100000352E+00 0.  1.
       -3    1    3    3    0  502 -0.10862845293E+03 -0.23108711864E+02  0.20357007737E+03  0.23189424303E+03  0.10100000352E+00 0. -1.
</event>
<event>
 5   0  0.3737642E-02  0.5928040E+03  0.7818609E-02  0.9920449E-01
        2   -1    0    0  501    0  0.00000000000E+00  0.00000000000E+00  0.15932641368E+04  0.15932641368E+04  0.25500000920E-02 0. -1.
       -2   -1    0    0    0  501  0.00000000000E+00  0.00000000000E+00 -0.55140985099E+02  0.55140985158E+02  0.25500000920E-02 0.  1.
    10030    2    1    2    0    0  0.00000000000E+00  0.00000000000E+00  0.15381231517E+04  0.16484051219E+04  0.59280402858E+03 0.  0.
        5    1    3    3  502    0  0.70279769522E+02 -0.21238965074E+03  0.22855169289E+03  0.31985399179E+03  0.46999998093E+01 0.  1.
       -5    1    3    3    0  502 -0.70279769522E+02  0.21238965074E+03  0.13095714588E+04  0.13285511301E+04  0.46999998093E+01 0. -1.
</event>
<event>
 5   0  0.2309055E-02  0.6003973E+03  0.7818609E-02  0.9904582E-01
        1   -1    0    0  501    0  0.00000000000E+00  0.00000000000E+00  0.16844343431E+03  0.16844343438E+03  0.50400001928E-02 0.  1.
       -1   -1    0    0    0  501  0.00000000000E+00  0.00000000000E+00 -0.53501180216E+03  0.53501180219E+03  0.50400001928E-02 0. -1.
    10030    2    1    2    0    0  0.00000000000E+00  0.00000000000E+00 -0.36656836785E+03  0.70345523657E+03  0.60039728642E+03 0.  0.
        4    1    3    3  502    0  0.11932766968E+03  0.15567094281E+03 -0.44954803683E+03  0.49047689600E+03  0.12699999809E+01 0. -1.
       -4    1    3    3    0  502 -0.11932766968E+03 -0.15567094281E+03  0.82979668978E+02  0.21297834057E+03  0.12699999809E+01 0.  1.
</event>
<event>
 5   0  0.2276105E-02  0.5999029E+03  0.7818609E-02  0.9905608E-01
       -1   -1    0    0    0  501  0.00000000000E+00  0.00000000000E+00  0.26652570813E+03  0.26652570818E+03  0.50400001928E-02 0. -1.
        1   -1    0    0  501    0  0.00000000000E+00  0.00000000000E+00 -0.33756916467E+03  0.33756916470E+03  0.50400001928E-02 0.  1.
    10030    2    1    2    0    0  0.00000000000E+00  0.00000000000E+00 -0.71043456537E+02  0.60409487288E+03  0.59990286107E+03 0.  0.
        1    1    3    3  502    0 -0.11233215917E+03  0.16277516039E+03 -0.26261164515E+03  0.32875392472E+03  0.50400001928E-02 0.  1.
       -1    1    3    3    0  502  0.11233215917E+03 -0.16277516039E+03  0.19156818861E+03  0.27534094816E+03  0.50400001928E-02 0. -1.
</event>
<event>
 5   0  0.2295179E-02  0.5926087E+03  0.7818609E-02  0.9920861E-01
        1   -1    0    0  501    0  0.00000000000E+00  0.00000000000E+00  0.19202072230E+03  0.19202072236E+03  0.50400001928E-02 0.  1.
       -1   -1    0    0    0  501  0.00000000000E+00  0.00000000000E+00 -0.45722281078E+03  0.45722281080E+03  0.50400001928E-02 0. -1.
    10030    2    1    2    0    0  0.00000000000E+00  0.00000000000E+00 -0.26520208848E+03  0.64924353317E+03  0.59260865470E+03 0.  0.
        3    1    3    3  502    0 -0.56106771237E+01  0.21816756763E+03 -0.35217357141E+03  0.41431244474E+03  0.10100000352E+00 0. -1.
       -3    1    3    3    0  502  0.56106771237E+01 -0.21816756763E+03  0.86971482931E+02  0.23493108843E+03  0.10100000352E+00 0.  1.
</event>
<event>
 5   0  0.3832191E-02  0.5999419E+03  0.7818609E-02  0.9905527E-01
       -2   -1    0    0    0  501  0.00000000000E+00  0.00000000000E+00  0.16419793069E+03  0.16419793071E+03  0.25500000920E-02 0.  1.
        2   -1    0    0  501    0  0.00000000000E+00  0.00000000000E+00 -0.54801287042E+03  0.54801287042E+03  0.25500000920E-02 0. -1.
    10030    2    1    2    0    0  0.00000000000E+00  0.00000000000E+00 -0.38381493973E+03  0.71221080113E+03  0.59994192827E+03 0.  0.
        3    1    3    3  502    0 -0.12709499552E+03 -0.12361696837E+02  0.13032120635E+03  0.18245431336E+03  0.10100000352E+00 0.  1.
       -3    1    3    3    0  502  0.12709499552E+03  0.12361696837E+02 -0.51413614608E+03  0.52975648778E+03  0.10100000352E+00 0. -1.
</event>
<event>
 5   0  0.3798925E-02  0.6045673E+03  0.7818609E-02  0.9895975E-01
       -2   -1    0    0    0  501  0.00000000000E+00  0.00000000000E+00  0.15330733373E+03  0.15330733375E+03  0.25500000920E-02 0. -1.
        2   -1    0    0  501    0  0.00000000000E+00  0.00000000000E+00 -0.59602761722E+03  0.59602761723E+03  0.25500000920E-02 0.  1.
    10030    2    1    2    0    0  0.00000000000E+00  0.00000000000E+00 -0.44272028349E+03  0.74933495098E+03  0.60456729927E+03 0.  0.
        2    1    3    3  502    0  0.18939198446E+03 -0.22556535651E+03 -0.30566461641E+03  0.42447604357E+03  0.25500000920E-02 0.  1.
       -2    1    3    3    0  502 -0.18939198446E+03  0.22556535651E+03 -0.13705566708E+03  0.32485890741E+03  0.25500000920E-02 0. -1.
</event>
<event>
 5   0  0.1521750E-02  0.5985036E+03  0.7818609E-02  0.9908516E-01
       -4   -1    0    0    0  501  0.00000000000E+00  0.00000000000E+00  0.45320175144E+02  0.45337966154E+02  0.12699999809E+01 0. -1.
        4   -1    0    0  501    0  0.00000000000E+00  0.00000000000E+00 -0.19755713022E+04  0.19755717104E+04  0.12699999809E+01 0.  1.
    10030    2    1    2    0    0  0.00000000000E+00  0.00000000000E+00 -0.19302511271E+04  0.20209096766E+04  0.59850355666E+03 0.  0.
        1    1    3    3  502    0 -0.82695559256E+02 -0.40031795053E+02 -0.34717049672E+01  0.91941029451E+02  0.50400001928E-02 0. -1.
       -1    1    3    3    0  502  0.82695559256E+02  0.40031795053E+02 -0.19267794221E+04  0.19289686471E+04  0.50400001928E-02 0.  1.
</event>
<event>
 5   0  0.2225808E-02  0.5939139E+03  0.7818609E-02  0.9918114E-01
        1   -1    0    0  501    0  0.00000000000E+00  0.00000000000E+00  0.60854884018E+03  0.60854884020E+03  0.50400001928E-02 0. -1.
       -1   -1    0    0    0  501  0.00000000000E+00  0.00000000000E+00 -0.14490774766E+03  0.14490774774E+03  0.50400001928E-02 0.  1.
    10030    2    1    2    0    0  0.00000000000E+00  0.00000000000E+00  0.46364109252E+03  0.75345658795E+03  0.59391393926E+03 0.  0.
        2    1    3    3  502    0  0.24609022271E+03 -0.12625931233E+03  0.94705080877E+02  0.29235400461E+03  0.25500000920E-02 0.  1.
       -2    1    3    3    0  502 -0.24609022271E+03  0.12625931233E+03  0.36893601165E+03  0.46110258334E+03  0.25500000920E-02 0. -1.
</event>
<event>
 5   0  0.3724066E-02  0.6001101E+03  0.7818609E-02  0.9905178E-01
       -2   -1    0    0    0  501  0.00000000000E+00  0.00000000000E+00  0.14613155058E+03  0.14613155060E+03  0.25500000920E-02 0.  1.
        2   -1    0    0  501    0  0.00000000000E+00  0.00000000000E+00 -0.61610939510E+03  0.61610939511E+03  0.25500000920E-02 0. -1.
    10030    2    1    2    0    0  0.00000000000E+00  0.00000000000E+00 -0.46997784452E+03  0.76224094571E+03  0.60011006071E+03 0.  0.
        4    1    3    3  502    0 -0.16356894003E+03  0.21660855297E+03 -0.39743819568E+03  0.48128244893E+03  0.12699999809E+01 0. -1.
       -4    1    3    3    0  502  0.16356894003E+03 -0.21660855297E+03 -0.72539648845E+02  0.28095849678E+03  0.12699999809E+01 0.  1.
</event>
<event>
 5   0  0.2295179E-02  0.6079421E+03  0.7818609E-02  0.9889064E-01
        1   -1    0    0  501    0  0.00000000000E+00  0.00000000000E+00  0.47727407730E+03  0.47727407733E+03  0.50400001928E-02 0. -1.
       -1   -1    0    0    0  501  0.00000000000E+00  0.00000000000E+00 -0.19359610075E+03  0.19359610081E+03  0.50400001928E-02 0.  1.
    10030    2    1    2    0    0  0.00000000000E+00  0.00000000000E+00  0.28367797656E+03  0.67087017814E+03  0.60794210377E+03 0.  0.
        3    1    3    3  502    0  0.18728139346E+03  0.85397240671E+02 -0.10499076594E+03  0.23106293554E+03  0.10100000352E+00 0.  1.
       -3    1    3    3    0  502 -0.18728139346E+03 -0.85397240671E+02  0.38866874249E+03  0.43980724260E+03  0.10100000352E+00 0. -1.
</event>
<event>
 5   0  0.3934634E-02  0.5986948E+03  0.7818609E-02  0.9908118E-01
       -2   -1    0    0    0  501  0.00000000000E+00  0.00000000000E+00  0.11201646103E+03  0.11201646105E+03  0.25500000920E-02 0.  1.
        2   -1    0    0  501    0  0.00000000000E+00  0.00000000000E+00 -0.79996155380E+03  0.79996155381E+03  0.25500000920E-02 0. -1.
    10030    2    1    2    0    0  0.00000000000E+00  0.00000000000E+00 -0.68794509278E+03  0.91197801486E+03  0.59869478778E+03 0.  0.
        1    1    3    3  502    0 -0.52406355552E+02  0.11347413277E+03 -0.75830965770E+03  0.76854169822E+03  0.50400001928E-02 0. -1.
       -1    1    3    3    0  502  0.52406355552E+02 -0.11347413277E+03  0.70364564925E+02  0.14343631664E+03  0.50400001928E-02 0.  1.
</event>
<event>
 5   0  0.1521750E-02  0.6096602E+03  0.7818609E-02  0.9885564E-01
       -4   -1    0    0    0  501  0.00000000000E+00  0.00000000000E+00  0.80081674308E+03  0.80081775011E+03  0.12699999809E+01 0.  1.
        4   -1    0    0  501    0  0.00000000000E+00  0.00000000000E+00 -0.11602872286E+03  0.11603567309E+03  0.12699999809E+01 0. -1.
    10030    2    1    2    0    0  0.00000000000E+00  0.00000000000E+00  0.68478802022E+03  0.91685342321E+03  0.60966020619E+03 0.  0.
        1    1    3    3  502    0 -0.16274401022E+02  0.69712794262E+02  0.78800004534E+03  0.79124509559E+03  0.50400001928E-02 0.  1.
       -1    1    3    3    0  502  0.16274401022E+02 -0.69712794262E+02 -0.10321202512E+03  0.12560832762E+03  0.50400001928E-02 0. -1.
</event>
<event>
 5   0  0.2225808E-02  0.5989998E+03  0.7818609E-02  0.9907483E-01
        1   -1    0    0  501    0  0.00000000000E+00  0.00000000000E+00  0.17548460089E+03  0.17548460097E+03  0.50400001928E-02 0.  1.
       -1   -1    0    0    0  501  0.00000000000E+00  0.00000000000E+00 -0.51115701312E+03  0.51115701314E+03  0.50400001928E-02 0. -1.
    10030    2    1    2    0    0  0.00000000000E+00  0.00000000000E+00 -0.33567241222E+03  0.68664161411E+03  0.59899978121E+03 0.  0.
        2    1    3    3  502    0  0.16385928786E+03 -0.17606167804E+03  0.36749800988E+02  0.24330665542E+03  0.25500000920E-02 0.  1.
       -2    1    3    3    0  502 -0.16385928786E+03  0.17606167804E+03 -0.37242221321E+03  0.44333495868E+03  0.25500000920E-02 0. -1.
</event>
<event>
 5   0  0.3724066E-02  0.6006273E+03  0.7818609E-02  0.9904106E-01
       -2   -1    0    0    0  501  0.00000000000E+00  0.00000000000E+00  0.24159809364E+03  0.24159809365E+03  0.25500000920E-02 0. -1.
        2   -1    0    0  501    0  0.00000000000E+00  0.00000000000E+00 -0.37329881577E+03  0.37329881578E+03  0.25500000920E-02 0.  1.
    10030    2    1    2    0    0  0.00000000000E+00  0.00000000000E+00 -0.13170072214E+03  0.61489690943E+03  0.60062727961E+03 0.  0.
        4    1    3    3  502    0 -0.20221463309E+03 -0.16386901555E+03 -0.21921891775E+03  0.34029745649E+03  0.12699999809E+01 0.  1.
       -4    1    3    3    0  502  0.20221463309E+03  0.16386901555E+03  0.87518195617E+02  0.27459945294E+03  0.12699999809E+01 0. -1.
</event>
<event>
 5   0  0.3798925E-02  0.5978489E+03  0.7818609E-02  0.9909879E-01
       -2   -1    0    0    0  501  0.00000000000E+00  0.00000000000E+00  0.35286470159E+03  0.35286470160E+03  0.25500000920E-02 0. -1.
        2   -1    0    0  501    0  0.00000000000E+00  0.00000000000E+00 -0.25322975179E+03  0.25322975180E+03  0.25500000920E-02 0.  1.
    10030    2    1    2    0    0  0.00000000000E+00  0.00000000000E+00  0.99634949801E+02  0.60609445340E+03  0.59784894683E+03 0.  0.
        2    1    3    3  502    0  0.41575779883E+02 -0.13815913815E+03  0.31522841793E+03  0.34667772989E+03  0.25500000920E-02 0. -1.
       -2    1    3    3    0  502 -0.41575779883E+02  0.13815913815E+03 -0.21559346813E+03  0.25941672350E+03  0.25500000920E-02 0.  1.
</event>
<event>
 5   0  0.2382531E-02  0.5997298E+03  0.7818609E-02  0.9905967E-01
        1   -1    0    0  501    0  0.00000000000E+00  0.00000000000E+00  0.30779623040E+03  0.30779623044E+03  0.50400001928E-02 0. -1.
       -1   -1    0    0    0  501  0.00000000000E+00  0.00000000000E+00 -0.29213791925E+03  0.29213791929E+03  0.50400001928E-02 0.  1.
    10030    2    1    2    0    0  0.00000000000E+00  0.00000000000E+00  0.15658311157E+02  0.59993414973E+03  0.59972977357E+03 0.  0.
        5    1    3    3  502    0 -0.29011629262E+03 -0.18256431534E+02 -0.65654027446E+02  0.29804916013E+03  0.46999998093E+01 0.  1.
       -5    1    3    3    0  502  0.29011629262E+03  0.18256431534E+02  0.81312338603E+02  0.30188498960E+03  0.46999998093E+01 0. -1.
</event>
<event>
 5   0  0.3737642E-02  0.6031802E+03  0.7818609E-02  0.9898830E-01
       -2   -1    0    0    0  501  0.00000000000E+00  0.00000000000E+00  0.66894861046E+03  0.66894861047E+03  0.25500000920E-02 0.  1.
        2   -1    0    0  501    0  0.00000000000E+00  0.00000000000E+00 -0.13596945474E+03  0.13596945477E+03  0.25500000920E-02 0. -1.
    10030    2    1    2    0    0  0.00000000000E+00  0.00000000000E+00  0.53297915572E+03  0.80491806524E+03  0.60318016488E+03 0.  0.
        5    1    3    3  502    0 -0.11556644190E+03  0.14557516834E+03 -0.50389216267E+02  0.19263669236E+03  0.46999998093E+01 0. -1.
       -5    1    3    3    0  502  0.11556644190E+03 -0.14557516834E+03  0.58336837199E+03  0.61228137287E+03  0.46999998093E+01 0.  1.
</event>
<event>
 5   0  0.3798925E-02  0.5997746E+03  0.7818609E-02  0.9905874E-01
        2   -1    0    0  501    0  0.00000000000E+00  0.00000000000E+00  0.73193001459E+02  0.73193001504E+02  0.25500000920E-02 0.  1.
       -2   -1    0    0    0  501  0.00000000000E+00  0.00000000000E+00 -0.12287019712E+04  0.12287019712E+04  0.25500000920E-02 0. -1.
    10030    2    1    2    0    0  0.00000000000E+00  0.00000000000E+00 -0.11555089698E+04  0.13018949727E+04  0.59977457500E+03 0.  0.
        2    1    3    3  502    0 -0.21799350624E+03  0.16672713468E+03 -0.84015321944E+03  0.88384191932E+03  0.25500000920E-02 0.  1.
       -2    1    3    3    0  502  0.21799350624E+03 -0.16672713468E+03 -0.31535575034E+03  0.41805305343E+03  0.25500000920E-02 0. -1.
</event>
<event>
 5   0  0.1521750E-02  0.5989539E+03  0.7818609E-02  0.9907579E-01
        4   -1    0    0  501    0  0.00000000000E+00  0.00000000000E+00  0.17562510415E+03  0.17562969597E+03  0.12699999809E+01 0.  1.
       -4   -1    0    0    0  501  0.00000000000E+00  0.00000000000E+00 -0.51065780543E+03  0.51065938466E+03  0.12699999809E+01 0. -1.
    10030    2    1    2    0    0  0.00000000000E+00  0.00000000000E+00 -0.33503270128E+03  0.68628908063E+03  0.59895391414E+03 0.  0.
        2    1    3    3  502    0  0.18469999956E+03 -0.17771435218E+03  0.99551031614E+01  0.25650650068E+03  0.25500000920E-02 0.  1.
       -2    1    3    3    0  502 -0.18469999956E+03  0.17771435218E+03 -0.34498780444E+03  0.42978257995E+03  0.25500000920E-02 0. -1.
</event>
<event>
 5   0  0.2295179E-02  0.5932057E+03  0.7818609E-02  0.9919603E-01
       -1   -1    0    0    0  501  0.00000000000E+00  0.00000000000E+00  0.62982243467E+03  0.62982243469E+03  0.50400001928E-02 0. -1.
        1   -1    0    0  501    0  0.00000000000E+00  0.00000000000E+00 -0.13967943371E+03  0.13967943380E+03  0.50400001928E-02 0.  1.
    10030    2    1    2    0    0  0.00000000000E+00  0.00000000000E+00  0.49014300097E+03  0.76950186849E+03  0.59320566772E+03 0.  0.
        3    1    3    3  502    0  0.21955825524E+03  0.17693564342E+03  0.12574967405E+03  0.30874753454E+03  0.10100000352E+00 0. -1.
       -3    1    3    3    0  502 -0.21955825524E+03 -0.17693564342E+03  0.36439332691E+03  0.46075433396E+03  0.10100000352E+00 0.  1.
</event>
<event>
 5   0  0.3934634E-02  0.5989630E+03  0.7818609E-02  0.9907560E-01
        2   -1    0    0  501    0  0.00000000000E+00  0.00000000000E+00  0.52865091264E+03  0.52865091265E+03  0.25500000920E-02 0.  1.
       -2   -1    0    0    0  501  0.00000000000E+00  0.00000000000E+00 -0.16965671966E+03  0.16965671968E+03  0.25500000920E-02 0. -1.
    10030    2    1    2    0    0  0.00000000000E+00  0.00000000000E+00  0.35899419298E+03  0.69830763233E+03  0.59896303623E+03 0.  0.
        1    1    3    3  502    0 -0.16650616670E+03  0.95526260321E+02  0.44749202014E+03  0.48692779555E+03  0.50400001928E-02 0.  1.
       -1    1    3    3    0  502  0.16650616670E+03 -0.95526260321E+02 -0.88497827159E+02  0.21137983678E+03  0.50400001928E-02 0. -1.
</event>
<event>
 5   0  0.2295179E-02  0.6029253E+03  0.7818609E-02  0.9899355E-01
        1   -1    0    0  501    0  0.00000000000E+00  0.00000000000E+00  0.82192976416E+03  0.82192976417E+03  0.50400001928E-02 0.  1.
       -1   -1    0    0    0  501  0.00000000000E+00  0.00000000000E+00 -0.11056873362E+03  0.11056873373E+03  0.50400001928E-02 0. -1.
    10030    2    1    2    0    0  0.00000000000E+00  0.00000000000E+00  0.71136103054E+03  0.93249849791E+03  0.60292531281E+03 0.  0.
        3    1    3    3  502    0  0.15230748683E+03  0.77980566526E+02  0.73954607778E+03  0.75908296692E+03  0.10100000352E+00 0.  1.
       -3    1    3    3    0  502 -0.15230748683E+03 -0.77980566526E+02 -0.28185047240E+02  0.17341553099E+03  0.10100000352E+00 0. -1.
</event>
<event>
 5   0  0.3798925E-02  0.6058461E+03  0.7818609E-02  0.9893351E-01
        2   -1    0    0  501    0  0.00000000000E+00  0.00000000000E+00  0.17361699433E+03  0.17361699435E+03  0.25500000920E-02 0.  1.
       -2   -1    0    0    0  501  0.00000000000E+00  0.00000000000E+00 -0.52853329442E+03  0.52853329442E+03  0.25500000920E-02 0. -1.
    10030    2    1    2    0    0  0.00000000000E+00  0.00000000000E+00 -0.35491630009E+03  0.70215028877E+03  0.60584605962E+03 0.  0.
        2    1    3    3  502    0 -0.17466614002E+03  0.23446192312E+03 -0.26931396776E+03  0.39750555606E+03  0.25500000920E-02 0.  1.
       -2    1    3    3    0  502  0.17466614002E+03 -0.23446192312E+03 -0.85602332324E+02  0.30464473271E+03  0.25500000920E-02 0. -1.
</event>
<event>
 5   0  0.3832191E-02  0.6023299E+03  0.7818609E-02  0.9900584E-01
       -2   -1    0    0    0  501  0.00000000000E+00  0.00000000000E+00  0.15570516891E+03  0.15570516893E+03  0.25500000920E-02 0.  1.
        2   -1    0    0  501    0  0.00000000000E+00  0.00000000000E+00 -0.58251321372E+03  0.58251321373E+03  0.25500000920E-02 0. -1.
    10030    2    1    2    0    0  0.00000000000E+00  0.00000000000E+00 -0.42680804482E+03  0.73821838265E+03  0.60232987089E+03 0.  0.
        3    1    3    3  502    0  0.27708565051E+03  0.99658640382E+02 -0.13596746506E+03  0.32433850231E+03  0.10100000352E+00 0. -1.
       -3    1    3    3    0  502 -0.27708565051E+03 -0.99658640382E+02 -0.29084057976E+03  0.41387988035E+03  0.10100000352E+00 0.  1.
</event>
<event>
 5   0  0.3934634E-02  0.6381521E+03  0.7818609E-02  0.9829268E-01
        2   -1    0    0  501    0  0.00000000000E+00  0.00000000000E+00  0.11218726922E+04  0.11218726922E+04  0.25500000920E-02 0.  1.
       -2   -1    0    0    0  501  0.00000000000E+00  0.00000000000E+00 -0.90749632166E+02  0.90749632201E+02  0.25500000920E-02 0. -1.
    10030    2    1    2    0    0  0.00000000000E+00  0.00000000000E+00  0.10311230600E+04  0.12126223244E+04  0.63815212662E+03 0.  0.
        1    1    3    3  502    0  0.28246566398E+03  0.11386680003E+03  0.69640146978E+03  0.76008388131E+03  0.50400001928E-02 0.  1.
       -1    1    3    3    0  502 -0.28246566398E+03 -0.11386680003E+03  0.33472159025E+03  0.45253844310E+03  0.50400001928E-02 0. -1.
</event>
<event>
 5   0  0.3737642E-02  0.5989349E+03  0.7818609E-02  0.9907618E-01
        2   -1    0    0  501    0  0.00000000000E+00  0.00000000000E+00  0.83722704043E+03  0.83722704043E+03  0.25500000920E-02 0. -1.
       -2   -1    0    0    0  501  0.00000000000E+00  0.00000000000E+00 -0.10711642623E+03  0.10711642626E+03  0.25500000920E-02 0.  1.
    10030    2    1    2    0    0  0.00000000000E+00  0.00000000000E+00  0.73011061420E+03  0.94434346670E+03  0.59893494983E+03 0.  0.
        5    1    3    3  502    0 -0.10522953535E+03  0.22212864483E+03  0.95423666592E+02  0.26370846802E+03  0.46999998093E+01 0.  1.
       -5    1    3    3    0  502  0.10522953535E+03 -0.22212864483E+03  0.63468694760E+03  0.68063499867E+03  0.46999998093E+01 0. -1.
</event>
<event>
 5   0  0.2309055E-02  0.6000495E+03  0.7818609E-02  0.9905303E-01
       -1   -1    0    0    0  501  0.00000000000E+00  0.00000000000E+00  0.36885476726E+03  0.36885476730E+03  0.50400001928E-02 0. -1.
        1   -1    0    0  501    0  0.00000000000E+00  0.00000000000E+00 -0.24403874056E+03  0.24403874061E+03  0.50400001928E-02 0.  1.
    10030    2    1    2    0    0  0.00000000000E+00  0.00000000000E+00  0.12481602671E+03  0.61289350791E+03  0.60004950755E+03 0.  0.
        4    1    3    3  502    0 -0.12044835449E+03 -0.16913344905E+03 -0.15878997112E+03  0.26139968920E+03  0.12699999809E+01 0.  1.
       -4    1    3    3    0  502  0.12044835449E+03  0.16913344905E+03  0.28360599783E+03  0.35149381871E+03  0.12699999809E+01 0. -1.
</event>
<event>
 5   0  0.2295179E-02  0.5892937E+03  0.7818609E-02  0.9927870E-01
       -1   -1    0    0    0  501  0.00000000000E+00  0.00000000000E+00  0.42980528935E+03  0.42980528938E+03  0.50400001928E-02 0.  1.
        1   -1    0    0  501    0  0.00000000000E+00  0.00000000000E+00 -0.20199094955E+03  0.20199094961E+03  0.50400001928E-02 0. -1.
    10030    2    1    2    0    0  0.00000000000E+00  0.00000000000E+00  0.22781433981E+03  0.63179623899E+03  0.58929374185E+03 0.  0.
        3    1    3    3  502    0 -0.17823476222E+03  0.14228825964E+03 -0.86104219876E+02  0.24377761623E+03  0.10100000352E+00 0.  1.
       -3    1    3    3    0  502  0.17823476222E+03 -0.14228825964E+03  0.31391855968E+03  0.38801862276E+03  0.10100000352E+00 0. -1.
</event>
<event>
 5   0  0.1521750E-02  0.5989413E+03  0.7818609E-02  0.9907605E-01
        3   -1    0    0  501    0  0.00000000000E+00  0.00000000000E+00  0.24166951939E+03  0.24166954050E+03  0.10100000352E+00 0.  1.
       -3   -1    0    0    0  501  0.00000000000E+00  0.00000000000E+00 -0.37109627280E+03  0.37109628654E+03  0.10100000352E+00 0. -1.
    10030    2    1    2    0    0  0.00000000000E+00  0.00000000000E+00 -0.12942675341E+03  0.61276582704E+03  0.59894129453E+03 0.  0.
        4    1    3    3  502    0 -0.19155532119E+03  0.20594319666E+03 -0.16992186080E+03  0.32860476717E+03  0.12699999809E+01 0. -1.
       -4    1    3    3    0  502  0.19155532119E+03 -0.20594319666E+03  0.40495107389E+02  0.28416105988E+03  0.12699999809E+01 0.  1.
</event>
<event>
 5   0  0.3724066E-02  0.6016293E+03  0.7818609E-02  0.9902032E-01
       -2   -1    0    0    0  501  0.00000000000E+00  0.00000000000E+00  0.17933846261E+03  0.17933846263E+03  0.25500000920E-02 0. -1.
        2   -1    0    0  501    0  0.00000000000E+00  0.00000000000E+00 -0.50457354411E+03  0.50457354412E+03  0.25500000920E-02 0.  1.
    10030    2    1    2    0    0  0.00000000000E+00  0.00000000000E+00 -0.32523508150E+03  0.68391200675E+03  0.60162926686E+03 0.  0.
        4    1    3    3  502    0  0.17069493418E+03  0.98626606030E+02  0.95665875737E+02  0.21912905023E+03  0.12699999809E+01 0. -1.
       -4    1    3    3    0  502 -0.17069493418E+03 -0.98626606030E+02 -0.42090095724E+03  0.46478295653E+03  0.12699999809E+01 0.  1.
</event>
<event>
 5   0  0.2309055E-02  0.5991876E+03  0.7818609E-02  0.9907093E-01
        1   -1    0    0  501    0  0.00000000000E+00  0.00000000000E+00  0.16871799781E+03  0.16871799788E+03  0.50400001928E-02 0. -1.
       -1   -1    0    0    0  501  0.00000000000E+00  0.00000000000E+00 -0.53199086355E+03  0.53199086357E+03  0.50400001928E-02 0.  1.
    10030    2    1    2    0    0  0.00000000000E+00  0.00000000000E+00 -0.36327286574E+03  0.70070886145E+03  0.59918756123E+03 0.  0.
        4    1    3    3  502    0 -0.67055773884E+02  0.62856965368E+01  0.15974713561E+03  0.17336881792E+03  0.12699999809E+01 0. -1.
       -4    1    3    3    0  502  0.67055773884E+02 -0.62856965368E+01 -0.52302000136E+03  0.52734004353E+03  0.12699999809E+01 0.  1.
</event>
<event>
 5   0  0.1521750E-02  0.5983214E+03  0.7818609E-02  0.9908895E-01
        3   -1    0    0  501    0  0.00000000000E+00  0.00000000000E+00  0.26936102674E+03  0.26936104567E+03  0.10100000352E+00 0.  1.
       -3   -1    0    0    0  501  0.00000000000E+00  0.00000000000E+00 -0.33225713862E+03  0.33225715397E+03  0.10100000352E+00 0. -1.
    10030    2    1    2    0    0  0.00000000000E+00  0.00000000000E+00 -0.62896111882E+02  0.60161819965E+03  0.59832143306E+03 0.  0.
        4    1    3    3  502    0 -0.24018500438E+03  0.14065652173E+03 -0.14169904580E+03  0.31233527805E+03  0.12699999809E+01 0. -1.
       -4    1    3    3    0  502  0.24018500438E+03 -0.14065652173E+03  0.78802933922E+02  0.28928292160E+03  0.12699999809E+01 0.  1.
</event>
<event>
 5   0  0.2276105E-02  0.6017541E+03  0.7818609E-02  0.9901774E-01
       -1   -1    0    0    0  501  0.00000000000E+00  0.00000000000E+00  0.15491708775E+03  0.15491708783E+03  0.50400001928E-02 0. -1.
        1   -1    0    0  501    0  0.00000000000E+00  0.00000000000E+00 -0.58435772091E+03  0.58435772093E+03  0.50400001928E-02 0.  1.
    10030    2    1    2    0    0  0.00000000000E+00  0.00000000000E+00 -0.42944063317E+03  0.73927480876E+03  0.60175409052E+03 0.  0.
        1    1    3    3  502    0  0.29412827539E+03 -0.59792393765E+02 -0.18893798744E+03  0.35466059248E+03  0.50400001928E-02 0. -1.
       -1    1    3    3    0  502 -0.29412827539E+03  0.59792393765E+02 -0.24050264572E+03  0.38461421628E+03  0.50400001928E-02 0.  1.
</event>
<event>
 5   0  0.3934634E-02  0.6022648E+03  0.7818609E-02  0.9900718E-01
       -2   -1    0    0    0  501  0.00000000000E+00  0.00000000000E+00  0.39821016729E+03  0.39821016730E+03  0.25500000920E-02 0. -1.
        2   -1    0    0  501    0  0.00000000000E+00  0.00000000000E+00 -0.22772078461E+03  0.22772078463E+03  0.25500000920E-02 0.  1.
    10030    2    1    2    0    0  0.00000000000E+00  0.00000000000E+00  0.17048938268E+03  0.62593095192E+03  0.60226483126E+03 0.  0.
        1    1    3    3  502    0  0.26384867541E+03  0.66210245071E+02 -0.48984666751E+02  0.27640444582E+03  0.50400001928E-02 0.  1.
       -1    1    3    3    0  502 -0.26384867541E+03 -0.66210245071E+02  0.21947404943E+03  0.34952650610E+03  0.50400001928E-02 0. -1.
</event>
<event>
 5   0  0.2382531E-02  0.6029472E+03  0.7818609E-02  0.9899310E-01
        1   -1    0    0  501    0  0.00000000000E+00  0.00000000000E+00  0.72799059055E+03  0.72799059057E+03  0.50400001928E-02 0.  1.
       -1   -1    0    0    0  501  0.00000000000E+00  0.00000000000E+00 -0.12484548997E+03  0.12484549007E+03  0.50400001928E-02 0. -1.
    10030    2    1    2    0    0  0.00000000000E+00  0.00000000000E+00  0.60314510058E+03  0.85283608064E+03  0.60294723492E+03 0.  0.
        5    1    3    3  502    0 -0.53036731893E+02  0.29607882619E+03  0.27368659147E+03  0.40669645511E+03  0.46999998093E+01 0. -1.
       -5    1    3    3    0  502  0.53036731893E+02 -0.29607882619E+03  0.32945850910E+03  0.44613962553E+03  0.46999998093E+01 0.  1.
</event>
<event>
 5   0  0.3724066E-02  0.5987165E+03  0.7818609E-02  0.9908073E-01
        2   -1    0    0  501    0  0.00000000000E+00  0.00000000000E+00  0.56115576496E+03  0.56115576497E+03  0.25500000920E-02 0. -1.
       -2   -1    0    0    0  501  0.00000000000E+00  0.00000000000E+00 -0.15969781054E+03  0.15969781056E+03  0.25500000920E-02 0.  1.
    10030    2    1    2    0    0  0.00000000000E+00  0.00000000000E+00  0.40145795443E+03  0.72085357553E+03  0.59871645057E+03 0.  0.
        4    1    3    3  502    0 -0.15289526551E+03  0.78237662886E+02  0.49593118652E+03  0.52483087635E+03  0.12699999809E+01 0. -1.
       -4    1    3    3    0  502  0.15289526551E+03 -0.78237662886E+02 -0.94473232095E+02  0.19602269918E+03  0.12699999809E+01 0.  1.
</event>
<event>
 5   0  0.3934634E-02  0.5955231E+03  0.7818609E-02  0.9914738E-01
       -2   -1    0    0    0  501  0.00000000000E+00  0.00000000000E+00  0.25744523425E+03  0.25744523426E+03  0.25500000920E-02 0. -1.
        2   -1    0    0  501    0  0.00000000000E+00  0.00000000000E+00 -0.34439146008E+03  0.34439146009E+03  0.25500000920E-02 0.  1.
    10030    2    1    2    0    0  0.00000000000E+00  0.00000000000E+00 -0.86946225832E+02  0.60183669435E+03  0.59552309819E+03 0.  0.
        1    1    3    3  502    0  0.20235316122E+03  0.45908680058E+01  0.17723190599E+03  0.26903350433E+03  0.50400001928E-02 0. -1.
       -1    1    3    3    0  502 -0.20235316122E+03 -0.45908680058E+01 -0.26417813183E+03  0.33280319002E+03  0.50400001928E-02 0.  1.
</event>
<event>
 5   0  0.3832191E-02  0.5848430E+03  0.7818609E-02  0.9937361E-01
       -2   -1    0    0    0  501  0.00000000000E+00  0.00000000000E+00  0.73586725462E+02  0.73586725506E+02  0.25500000920E-02 0. -1.
        2   -1    0    0  501    0  0.00000000000E+00  0.00000000000E+00 -0.11620349266E+04  0.11620349266E+04  0.25500000920E-02 0.  1.
    10030    2    1    2    0    0  0.00000000000E+00  0.00000000000E+00 -0.10884482011E+04  0.12356216521E+04  0.58484303927E+03 0.  0.
        3    1    3    3  502    0  0.12029936638E+03 -0.50847728563E+02  0.85429264562E+01  0.13088323363E+03  0.10100000352E+00 0. -1.
       -3    1    3    3    0  502 -0.12029936638E+03  0.50847728563E+02 -0.10969911276E+04  0.11047384184E+04  0.10100000352E+00 0.  1.
</event>
<event>
 5   0  0.3798925E-02  0.5989306E+03  0.7818609E-02  0.9907627E-01
        2   -1    0    0  501    0  0.00000000000E+00  0.00000000000E+00  0.18619146349E+04  0.18619146349E+04  0.25500000920E-02 0. -1.
       -2   -1    0    0    0  501  0.00000000000E+00  0.00000000000E+00 -0.48165192959E+02  0.48165193026E+02  0.25500000920E-02 0.  1.
    10030    2    1    2    0    0  0.00000000000E+00  0.00000000000E+00  0.18137494420E+04  0.19100798280E+04  0.59893063949E+03 0.  0.
        2    1    3    3  502    0 -0.39015682273E+02  0.29691163769E+03  0.90960636826E+03  0.95763379704E+03  0.25500000920E-02 0. -1.
       -2    1    3    3    0  502  0.39015682273E+02 -0.29691163769E+03  0.90414307372E+03  0.95244603092E+03  0.25500000920E-02 0.  1.
</event>
<event>
 5   0  0.3934634E-02  0.6015141E+03  0.7818609E-02  0.9902270E-01
        2   -1    0    0  501    0  0.00000000000E+00  0.00000000000E+00  0.77456474701E+03  0.77456474701E+03  0.25500000920E-02 0. -1.
       -2   -1    0    0    0  501  0.00000000000E+00  0.00000000000E+00 -0.11678146488E+03  0.11678146491E+03  0.25500000920E-02 0.  1.
    10030    2    1    2    0    0  0.00000000000E+00  0.00000000000E+00  0.65778328213E+03  0.89134621192E+03  0.60151410895E+03 0.  0.
        1    1    3    3  502    0 -0.84672060013E+02  0.19543650917E+03  0.14232166257E+02  0.21346508250E+03  0.50400001928E-02 0.  1.
       -1    1    3    3    0  502  0.84672060013E+02 -0.19543650917E+03  0.64355111587E+03  0.67788112942E+03  0.50400001928E-02 0. -1.
</event>
<event>
 5   0  0.3737642E-02  0.5998616E+03  0.7818609E-02  0.9905693E-01
       -2   -1    0    0    0  501  0.00000000000E+00  0.00000000000E+00  0.27897031342E+03  0.27897031343E+03  0.25500000920E-02 0.  1.
        2   -1    0    0  501    0  0.00000000000E+00  0.00000000000E+00 -0.32246618567E+03  0.32246618568E+03  0.25500000920E-02 0. -1.
    10030    2    1    2    0    0  0.00000000000E+00  0.00000000000E+00 -0.43495872246E+02  0.60143649911E+03  0.59986162701E+03 0.  0.
        5    1    3    3  502    0  0.10171499281E+03  0.27861857499E+03 -0.66160424973E+02  0.30393015962E+03  0.46999998093E+01 0.  1.
       -5    1    3    3    0  502 -0.10171499281E+03 -0.27861857499E+03  0.22664552727E+02  0.29750633950E+03  0.46999998093E+01 0. -1.
</event>
<event>
 5   0  0.1521750E-02  0.6034557E+03  0.7818609E-02  0.9898262E-01
        3   -1    0    0  501    0  0.00000000000E+00  0.00000000000E+00  0.35456326366E+03  0.35456327804E+03  0.10100000352E+00 0. -1.
       -3   -1    0    0    0  501  0.00000000000E+00  0.00000000000E+00 -0.25676568178E+03  0.25676570165E+03  0.10100000352E+00 0.  1.
    10030    2    1    2    0    0  0.00000000000E+00  0.00000000000E+00  0.97797581872E+02  0.61132897969E+03  0.60345567724E+03 0.  0.
        3    1    3    3  502    0  0.12225487626E+03 -0.98482041819E+02  0.30993235250E+03  0.34742343136E+03  0.10100000352E+00 0. -1.
       -3    1    3    3    0  502 -0.12225487626E+03  0.98482041819E+02 -0.21213477063E+03  0.26390554833E+03  0.10100000352E+00 0.  1.
</event>
<event>
 5   0  0.3798925E-02  0.5989545E+03  0.7818609E-02  0.9907578E-01
        2   -1    0    0  501    0  0.00000000000E+00  0.00000000000E+00  0.75190717778E+03  0.75190717778E+03  0.25500000920E-02 0.  1.
       -2   -1    0    0    0  501  0.00000000000E+00  0.00000000000E+00 -0.11927884829E+03  0.11927884832E+03  0.25500000920E-02 0. -1.
    10030    2    1    2    0    0  0.00000000000E+00  0.00000000000E+00  0.63262832948E+03  0.87118602610E+03  0.59895449644E+03 0.  0.
        2    1    3    3  502    0 -0.23561701729E+03 -0.17504356701E+03  0.22988396834E+03  0.37283007939E+03  0.25500000920E-02 0. -1.
       -2    1    3    3    0  502  0.23561701729E+03  0.17504356701E+03  0.40274436114E+03  0.49835594671E+03  0.25500000920E-02 0.  1.
</event>
<event>
 5   0  0.2295179E-02  0.5975061E+03  0.7818609E-02  0.9910594E-01
       -1   -1    0    0    0  501  0.00000000000E+00  0.00000000000E+00  0.11832139921E+03  0.11832139932E+03  0.50400001928E-02 0. -1.
        1   -1    0    0  501    0  0.00000000000E+00  0.00000000000E+00 -0.75432992009E+03  0.75432992010E+03  0.50400001928E-02 0.  1.
    10030    2    1    2    0    0  0.00000000000E+00  0.00000000000E+00 -0.63600852087E+03  0.87265131942E+03  0.59750605576E+03 0.  0.
        3    1    3    3  502    0  0.29868270867E+03 -0.60413030095E+01 -0.32143055335E+03  0.43882282145E+03  0.10100000352E+00 0.  1.
       -3    1    3    3    0  502 -0.29868270867E+03  0.60413030095E+01 -0.31457796753E+03  0.43382849797E+03  0.10100000352E+00 0. -1.
</event>
<event>
 5   0  0.2276105E-02  0.5949645E+03  0.7818609E-02  0.9915909E-01
        1   -1    0    0  501    0  0.00000000000E+00  0.00000000000E+00  0.85308046773E+02  0.85308046922E+02  0.50400001928E-02 0. -1.
       -1   -1    0    0    0  501  0.00000000000E+00  0.00000000000E+00 -0.10373662902E+04  0.10373662902E+04  0.50400001928E-02 0.  1.
    10030    2    1    2    0    0  0.00000000000E+00  0.00000000000E+00 -0.95205824343E+03  0.11226743371E+04  0.59496451019E+03 0.  0.
        1    1    3    3  502    0 -0.29707579358E+03  0.18427993751E+01 -0.44690206973E+03  0.53663663964E+03  0.50400001928E-02 0.  1.
       -1    1    3    3    0  502  0.29707579358E+03 -0.18427993751E+01 -0.50515617369E+03  0.58603769750E+03  0.50400001928E-02 0. -1.
</event>
<event>
 5   0  0.3798925E-02  0.5931510E+03  0.7818609E-02  0.9919718E-01
       -2   -1    0    0    0  501  0.00000000000E+00  0.00000000000E+00  0.21077517619E+03  0.21077517621E+03  0.25500000920E-02 0.  1.
        2   -1    0    0  501    0  0.00000000000E+00  0.00000000000E+00 -0.41730254241E+03  0.41730254242E+03  0.25500000920E-02 0. -1.
    10030    2    1    2    0    0  0.00000000000E+00  0.00000000000E+00 -0.20652736622E+03  0.62807771863E+03  0.59315096530E+03 0.  0.
        2    1    3    3  502    0  0.15136156574E+03  0.19722952852E+03 -0.27448616697E+03  0.37034101362E+03  0.25500000920E-02 0. -1.
       -2    1    3    3    0  502 -0.15136156574E+03 -0.19722952852E+03  0.67958800751E+02  0.25773670501E+03  0.25500000920E-02 0.  1.
</event>
<event>
 5   0  0.3737642E-02  0.6061199E+03  0.7818609E-02  0.9892790E-01
       -2   -1    0    0    0  501  0.00000000000E+00  0.00000000000E+00  0.45740925900E+02  0.45740925971E+02  0.25500000920E-02 0.  1.
        2   -1    0    0  501    0  0.00000000000E+00  0.00000000000E+00 -0.20079468471E+04  0.20079468471E+04  0.25500000920E-02 0. -1.
    10030    2    1    2    0    0  0.00000000000E+00  0.00000000000E+00 -0.19622059212E+04  0.20536877731E+04  0.60611994859E+03 0.  0.
        5    1    3    3  502    0 -0.20652438745E+03 -0.48989055322E+02 -0.24833882671E+03  0.32672084874E+03  0.46999998093E+01 0.  1.
       -5    1    3    3    0  502  0.20652438745E+03  0.48989055322E+02 -0.17138670945E+04  0.17269669243E+04  0.46999998093E+01 0. -1.
</event>
<event>
 5   0  0.3737642E-02  0.6271662E+03  0.7818609E-02  0.9850594E-01
       -2   -1    0    0    0  501  0.00000000000E+00  0.00000000000E+00  0.18075433843E+03  0.18075433845E+03  0.25500000920E-02 0.  1.
        2   -1    0    0  501    0  0.00000000000E+00  0.00000000000E+00 -0.54402206174E+03  0.54402206175E+03  0.25500000920E-02 0. -1.
    10030    2    1    2    0    0  0.00000000000E+00  0.00000000000E+00 -0.36326772331E+03  0.72477640020E+03  0.62716615939E+03 0.  0.
        5    1    3    3  502    0 -0.20225680296E+03  0.48009949586E+02  0.89632042282E+02  0.22642606432E+03  0.46999998093E+01 0.  1.
       -5    1    3    3    0  502  0.20225680296E+03 -0.48009949586E+02 -0.45289976559E+03  0.49835033588E+03  0.46999998093E+01 0. -1.
</event>
<event>
 5   0  0.2309055E-02  0.6035520E+03  0.7818609E-02  0.9898064E-01
        1   -1    0    0  501    0  0.00000000000E+00  0.00000000000E+00  0.13300669284E+03  0.13300669294E+03  0.50400001928E-02 0. -1.
       -1   -1    0    0    0  501  0.00000000000E+00  0.00000000000E+00 -0.68469304313E+03  0.68469304315E+03  0.50400001928E-02 0.  1.
    10030    2    1    2    0    0  0.00000000000E+00  0.00000000000E+00 -0.55168635028E+03  0.81769973608E+03  0.60355201044E+03 0.  0.
        4    1    3    3  502    0 -0.66037728592E+02  0.19587471064E+03 -0.57371481619E+03  0.60981815903E+03  0.12699999809E+01 0.  1.
       -4    1    3    3    0  502  0.66037728592E+02 -0.19587471064E+03  0.22028465908E+02  0.20788157705E+03  0.12699999809E+01 0. -1.
</event>
<event>
 5   0  0.2382531E-02  0.5993313E+03  0.7818609E-02  0.9906794E-01
       -1   -1    0    0    0  501  0.00000000000E+00  0.00000000000E+00  0.25097900960E+03  0.25097900965E+03  0.50400001928E-02 0. -1.
        1   -1    0    0  501    0  0.00000000000E+00  0.00000000000E+00 -0.35779686028E+03  0.35779686031E+03  0.50400001928E-02 0.  1.
    10030    2    1    2    0    0  0.00000000000E+00  0.00000000000E+00 -0.10681785068E+03  0.60877586997E+03  0.59933129956E+03 0.  0.
        5    1    3    3  502    0  0.69696930185E+02 -0.42555315134E+02 -0.34623784355E+03  0.35576867657E+03  0.46999998093E+01 0.  1.
       -5    1    3    3    0  502 -0.69696930185E+02  0.42555315134E+02  0.23941999288E+03  0.25300719340E+03  0.46999998093E+01 0. -1.
</event>
<event>
 5   0  0.3934634E-02  0.5965959E+03  0.7818609E-02  0.9912494E-01
       -2   -1    0    0    0  501  0.00000000000E+00  0.00000000000E+00  0.19602365351E+03  0.19602365352E+03  0.25500000920E-02 0.  1.
        2   -1    0    0  501    0  0.00000000000E+00  0.00000000000E+00 -0.45393328969E+03  0.45393328970E+03  0.25500000920E-02 0. -1.
    10030    2    1    2    0    0  0.00000000000E+00  0.00000000000E+00 -0.25790963618E+03  0.64995694322E+03  0.59659588299E+03 0.  0.
        1    1    3    3  502    0 -0.86253470414E+02  0.21519240197E+03 -0.33345172013E+03  0.40612495701E+03  0.50400001928E-02 0. -1.
       -1    1    3    3    0  502  0.86253470414E+02 -0.21519240197E+03  0.75542083943E+02  0.24383198621E+03  0.50400001928E-02 0.  1.
</event>
<event>
 5   0  0.3724066E-02  0.6011072E+03  0.7818609E-02  0.9903112E-01
        2   -1    0    0  501    0  0.00000000000E+00  0.00000000000E+00  0.21452477194E+03  0.21452477195E+03  0.25500000920E-02 0.  1.
       -2   -1    0    0    0  501  0.00000000000E+00  0.00000000000E+00 -0.42108169593E+03  0.42108169594E+03  0.25500000920E-02 0. -1.
    10030    2    1    2    0    0  0.00000000000E+00  0.00000000000E+00 -0.20655692400E+03  0.63560646789E+03  0.60110716114E+03 0.  0.
        4    1    3    3  502    0  0.18250729090E+03 -0.13746033512E+03  0.10318840641E+03  0.25070643207E+03  0.12699999809E+01 0.  1.
       -4    1    3    3    0  502 -0.18250729090E+03  0.13746033512E+03 -0.30974533041E+03  0.38490003582E+03  0.12699999809E+01 0. -1.
</event>
<event>
 5   0  0.3798925E-02  0.5990061E+03  0.7818609E-02  0.9907470E-01
       -2   -1    0    0    0  501  0.00000000000E+00  0.00000000000E+00  0.41944345572E+02  0.41944345649E+02  0.25500000920E-02 0.  1.
        2   -1    0    0  501    0  0.00000000000E+00  0.00000000000E+00 -0.21385977912E+04  0.21385977912E+04  0.25500000920E-02 0. -1.
    10030    2    1    2    0    0  0.00000000000E+00  0.00000000000E+00 -0.20966534456E+04  0.21805421369E+04  0.59900612644E+03 0.  0.
        2    1    3    3  502    0 -0.86833773320E+02 -0.40027008091E+02 -0.20815459060E+04  0.20837407767E+04  0.25500000920E-02 0. -1.
       -2    1    3    3    0  502  0.86833773320E+02  0.40027008091E+02 -0.15107539585E+02  0.96801360137E+02  0.25500000920E-02 0.  1.
</event>
<event>
 5   0  0.3798925E-02  0.5973015E+03  0.7818609E-02  0.9911021E-01
        2   -1    0    0  501    0  0.00000000000E+00  0.00000000000E+00  0.10306636463E+04  0.10306636463E+04  0.25500000920E-02 0.  1.
       -2   -1    0    0    0  501  0.00000000000E+00  0.00000000000E+00 -0.86538665780E+02  0.86538665818E+02  0.25500000920E-02 0. -1.
    10030    2    1    2    0    0  0.00000000000E+00  0.00000000000E+00  0.94412498053E+03  0.11172023121E+04  0.59730145435E+03 0.  0.
        2    1    3    3  502    0 -0.10638971483E+03  0.25306966237E+02  0.99186674085E+03  0.99787716958E+03  0.25500000920E-02 0.  1.
       -2    1    3    3    0  502  0.10638971483E+03 -0.25306966237E+02 -0.47741760316E+02  0.11932514255E+03  0.25500000920E-02 0. -1.
</event>
<event>
 5   0  0.1521750E-02  0.5978147E+03  0.7818609E-02  0.9909950E-01
        4   -1    0    0  501    0  0.00000000000E+00  0.00000000000E+00  0.48067697057E+03  0.48067864831E+03  0.12699999809E+01 0. -1.
       -4   -1    0    0    0  501  0.00000000000E+00  0.00000000000E+00 -0.18587034537E+03  0.18587468410E+03  0.12699999809E+01 0.  1.
    10030    2    1    2    0    0  0.00000000000E+00  0.00000000000E+00  0.29480662520E+03  0.66655333241E+03  0.59781468590E+03 0.  0.
        1    1    3    3  502    0  0.11545296316E+02 -0.25266603031E+03 -0.30198437505E+02  0.25472605362E+03  0.50400001928E-02 0.  1.
       -1    1    3    3    0  502 -0.11545296316E+02  0.25266603031E+03  0.32500506271E+03  0.41182727878E+03  0.50400001928E-02 0. -1.
</event>
<event>
 5   0  0.2276105E-02  0.5986584E+03  0.7818609E-02  0.9908193E-01
       -1   -1    0    0    0  501  0.00000000000E+00  0.00000000000E+00  0.48702851529E+03  0.48702851531E+03  0.50400001928E-02 0. -1.
        1   -1    0    0  501    0  0.00000000000E+00  0.00000000000E+00 -0.18396865263E+03  0.18396865269E+03  0.50400001928E-02 0.  1.
    10030    2    1    2    0    0  0.00000000000E+00  0.00000000000E+00  0.30305986266E+03  0.67099716801E+03  0.59865843276E+03 0.  0.
        1    1    3    3  502    0  0.30450507536E+02  0.68281427657E+02  0.47639492914E+03  0.48222579287E+03  0.50400001928E-02 0. -1.
       -1    1    3    3    0  502 -0.30450507536E+02 -0.68281427657E+02 -0.17333506648E+03  0.18877137513E+03  0.50400001928E-02 0.  1.
</event>
<event>
 5   0  0.3737642E-02  0.6027777E+03  0.7818609E-02  0.9899660E-01
        2   -1    0    0  501    0  0.00000000000E+00  0.00000000000E+00  0.63574955734E+03  0.63574955734E+03  0.25500000920E-02 0.  1.
       -2   -1    0    0    0  501  0.00000000000E+00  0.00000000000E+00 -0.14287896348E+03  0.14287896350E+03  0.25500000920E-02 0. -1.
    10030    2    1    2    0    0  0.00000000000E+00  0.00000000000E+00  0.49287059386E+03  0.77862852085E+03  0.60277769632E+03 0.  0.
        5    1    3    3  502    0 -0.62692742234E+01 -0.22564465636E+03 -0.11453632451E+02  0.22607098539E+03  0.46999998093E+01 0.  1.
       -5    1    3    3    0  502  0.62692742234E+01  0.22564465636E+03  0.50432422631E+03  0.55255753545E+03  0.46999998093E+01 0. -1.
</event>
<event>
 5   0  0.3934634E-02  0.5968461E+03  0.7818609E-02  0.9911971E-01
        2   -1    0    0  501    0  0.00000000000E+00  0.00000000000E+00  0.18239132868E+04  0.18239132868E+04  0.25500000920E-02 0. -1.
       -2   -1    0    0    0  501  0.00000000000E+00  0.00000000000E+00 -0.48827056484E+02  0.48827056550E+02  0.25500000920E-02 0.  1.
    10030    2    1    2    0    0  0.00000000000E+00  0.00000000000E+00  0.17750862303E+04  0.18727403433E+04  0.59684610123E+03 0.  0.
        1    1    3    3  502    0  0.14307800076E+03  0.14062089531E+03  0.15807662044E+04  0.15934451178E+04  0.50400001928E-02 0. -1.
       -1    1    3    3    0  502 -0.14307800076E+03 -0.14062089531E+03  0.19432002587E+03  0.27929522549E+03  0.50400001928E-02 0.  1.
</event>
<event>
 5   0  0.2309055E-02  0.6009829E+03  0.7818609E-02  0.9903369E-01
       -1   -1    0    0    0  501  0.00000000000E+00  0.00000000000E+00  0.27002964749E+03  0.27002964754E+03  0.50400001928E-02 0. -1.
        1   -1    0    0  501    0  0.00000000000E+00  0.00000000000E+00 -0.33438958249E+03  0.33438958253E+03  0.50400001928E-02 0.  1.
    10030    2    1    2    0    0  0.00000000000E+00  0.00000000000E+00 -0.64359934997E+02  0.60441923007E+03  0.60098286535E+03 0.  0.
        4    1    3    3  502    0 -0.17525878655E+03  0.18791397671E+03 -0.18884674854E+03  0.31889185038E+03  0.12699999809E+01 0.  1.
       -4    1    3    3    0  502  0.17525878655E+03 -0.18791397671E+03  0.12448681355E+03  0.28552737969E+03  0.12699999809E+01 0. -1.
</event>
<event>
 5   0  0.2295179E-02  0.5979432E+03  0.7818609E-02  0.9909683E-01
        1   -1    0    0  501    0  0.00000000000E+00  0.00000000000E+00  0.21442025210E+03  0.21442025216E+03  0.50400001928E-02 0. -1.
       -1   -1    0    0    0  501  0.00000000000E+00  0.00000000000E+00 -0.41686364827E+03  0.41686364830E+03  0.50400001928E-02 0.  1.
    10030    2    1    2    0    0  0.00000000000E+00  0.00000000000E+00 -0.20244339617E+03  0.63128390047E+03  0.59794316982E+03 0.  0.
        3    1    3    3  502    0 -0.23449329644E+02 -0.29564188511E+03 -0.61297767425E+02  0.30283893703E+03  0.10100000352E+00 0. -1.
       -3    1    3    3    0  502  0.23449329644E+02  0.29564188511E+03 -0.14114562874E+03  0.32844496343E+03  0.10100000352E+00 0.  1.
</event>
<event>
 5   0  0.3737642E-02  0.6073454E+03  0.7818609E-02  0.9890283E-01
        2   -1    0    0  501    0  0.00000000000E+00  0.00000000000E+00  0.79365048192E+03  0.79365048192E+03  0.25500000920E-02 0. -1.
       -2   -1    0    0    0  501  0.00000000000E+00  0.00000000000E+00 -0.11619360619E+03  0.11619360622E+03  0.25500000920E-02 0.  1.
    10030    2    1    2    0    0  0.00000000000E+00  0.00000000000E+00  0.67745687573E+03  0.90984408813E+03  0.60734540934E+03 0.  0.
        5    1    3    3  502    0  0.34031257052E+02  0.36037287676E+02 -0.11003753862E+03  0.12077732595E+03  0.46999998093E+01 0.  1.
       -5    1    3    3    0  502 -0.34031257052E+02 -0.36037287676E+02  0.78749441435E+03  0.78906676219E+03  0.46999998093E+01 0. -1.
</event>
<event>
 5   0  0.1521750E-02  0.5984118E+03  0.7818609E-02  0.9908707E-01
        4   -1    0    0  501    0  0.00000000000E+00  0.00000000000E+00  0.56657960866E+03  0.56658103203E+03  0.12699999809E+01 0. -1.
       -4   -1    0    0    0  501  0.00000000000E+00  0.00000000000E+00 -0.15800394427E+03  0.15800904817E+03  0.12699999809E+01 0.  1.
    10030    2    1    2    0    0  0.00000000000E+00  0.00000000000E+00  0.40857566439E+03  0.72459008020E+03  0.59841182374E+03 0.  0.
        2    1    3    3  502    0  0.53751764523E+02 -0.28223719553E+03  0.30542933696E+03  0.41932584778E+03  0.25500000920E-02 0.  1.
       -2    1    3    3    0  502 -0.53751764523E+02  0.28223719553E+03  0.10314632743E+03  0.30526423243E+03  0.25500000920E-02 0. -1.
</event>
<event>
 5   0  0.3798925E-02  0.6042405E+03  0.7818609E-02  0.9896647E-01
        2   -1    0    0  501    0  0.00000000000E+00  0.00000000000E+00  0.27137333846E+03  0.27137333847E+03  0.25500000920E-02 0.  1.
       -2   -1    0    0    0  501  0.00000000000E+00  0.00000000000E+00 -0.33635082159E+03  0.33635082160E+03  0.25500000920E-02 0. -1.
    10030    2    1    2    0    0  0.00000000000E+00  0.00000000000E+00 -0.64977483139E+02  0.60772416007E+03  0.60424049965E+03 0.  0.
        2    1    3    3  502    0  0.40318817866E+02 -0.59769987734E+02 -0.32757177242E+03  0.33541217121E+03  0.25500000920E-02 0. -1.
       -2    1    3    3    0  502 -0.40318817866E+02  0.59769987734E+02  0.26259428928E+03  0.27231198886E+03  0.25500000920E-02 0.  1.
</event>
<event>
 5   0  0.3724066E-02  0.6003810E+03  0.7818609E-02  0.9904616E-01
        2   -1    0    0  501    0  0.00000000000E+00  0.00000000000E+00  0.79363239676E+03  0.79363239676E+03  0.25500000920E-02 0.  1.
       -2   -1    0    0    0  501  0.00000000000E+00  0.00000000000E+00 -0.11354671408E+03  0.11354671411E+03  0.25500000920E-02 0. -1.
    10030    2    1    2    0    0  0.00000000000E+00  0.00000000000E+00  0.68008568268E+03  0.90717911087E+03  0.60038104851E+03 0.  0.
        4    1    3    3  502    0  0.84959381143E+01  0.18152961560E+03  0.70106743714E+03  0.72423915016E+03  0.12699999809E+01 0.  1.
       -4    1    3    3    0  502 -0.84959381143E+01 -0.18152961560E+03 -0.20981754459E+02  0.18293996071E+03  0.12699999809E+01 0. -1.
</event>
<event>
 5   0  0.2276105E-02  0.5928443E+03  0.7818609E-02  0.9920364E-01
       -1   -1    0    0    0  501  0.00000000000E+00  0.00000000000E+00  0.21060074947E+03  0.21060074953E+03  0.50400001928E-02 0. -1.
        1   -1    0    0  501    0  0.00000000000E+00  0.00000000000E+00 -0.41721639277E+03  0.41721639280E+03  0.50400001928E-02 0.  1.
    10030    2    1    2    0    0  0.00000000000E+00  0.00000000000E+00 -0.20661564330E+03  0.62781714233E+03  0.59284427985E+03 0.  0.
        1    1    3    3  502    0 -0.25149847643E+03 -0.15543020002E+03 -0.12592304113E+03  0.32135127670E+03  0.50400001928E-02 0.  1.
       -1    1    3    3    0  502  0.25149847643E+03  0.15543020002E+03 -0.80692602167E+02  0.30646586563E+03  0.50400001928E-02 0. -1.
</event>
<event>
 5   0  0.2276105E-02  0.6429116E+03  0.7818609E-02  0.9820172E-01
       -1   -1    0    0    0  501  0.00000000000E+00  0.00000000000E+00  0.92983301335E+03  0.92983301337E+03  0.50400001928E-02 0. -1.
        1   -1    0    0  501    0  0.00000000000E+00  0.00000000000E+00 -0.11113159411E+03  0.11113159422E+03  0.50400001928E-02 0.  1.
    10030    2    1    2    0    0  0.00000000000E+00  0.00000000000E+00  0.81870141924E+03  0.10409646076E+04  0.64291158054E+03 0.  0.
        1    1    3    3  502    0 -0.24084319152E+03 -0.15999744528E+03  0.18192505712E+03  0.34161579564E+03  0.50400001928E-02 0.  1.
       -1    1    3    3    0  502  0.24084319152E+03  0.15999744528E+03  0.63677636213E+03  0.69934881196E+03  0.50400001928E-02 0. -1.
</event>
<event>
 5   0  0.2295179E-02  0.6009660E+03  0.7818609E-02  0.9903404E-01
        1   -1    0    0  501    0  0.00000000000E+00  0.00000000000E+00  0.25539054564E+03  0.25539054569E+03  0.50400001928E-02 0. -1.
       -1   -1    0    0    0  501  0.00000000000E+00  0.00000000000E+00 -0.35353706053E+03  0.35353706057E+03  0.50400001928E-02 0.  1.
    10030    2    1    2    0    0  0.00000000000E+00  0.00000000000E+00 -0.98146514890E+02  0.60892760626E+03  0.60096596516E+03 0.  0.
        3    1    3    3  502    0 -0.17776184608E+03  0.13969665984E+03  0.15147713434E+03  0.27213923481E+03  0.10100000352E+00 0. -1.
       -3    1    3    3    0  502  0.17776184608E+03 -0.13969665984E+03 -0.24962364923E+03  0.33678837146E+03  0.10100000352E+00 0.  1.
</event>
<event>
 5   0  0.3934634E-02  0.5873990E+03  0.7818609E-02  0.9931900E-01
        2   -1    0    0  501    0  0.00000000000E+00  0.00000000000E+00  0.49938033157E+03  0.49938033157E+03  0.25500000920E-02 0. -1.
       -2   -1    0    0    0  501  0.00000000000E+00  0.00000000000E+00 -0.17273286591E+03  0.17273286593E+03  0.25500000920E-02 0.  1.
    10030    2    1    2    0    0  0.00000000000E+00  0.00000000000E+00  0.32664746566E+03  0.67211319750E+03  0.58739899850E+03 0.  0.
        1    1    3    3  502    0  0.85914690147E+02  0.20720042296E+03 -0.53613845500E+02  0.23062478990E+03  0.50400001928E-02 0.  1.
       -1    1    3    3    0  502 -0.85914690147E+02 -0.20720042296E+03  0.38026131116E+03  0.44148840761E+03  0.50400001928E-02 0. -1.
</event>
<event>
 5   0  0.2382531E-02  0.6051352E+03  0.7818609E-02  0.9894809E-01
        1   -1    0    0  501    0  0.00000000000E+00  0.00000000000E+00  0.63543204846E+03  0.63543204848E+03  0.50400001928E-02 0.  1.
       -1   -1    0    0    0  501  0.00000000000E+00  0.00000000000E+00 -0.14407072867E+03  0.14407072875E+03  0.50400001928E-02 0. -1.
    10030    2    1    2    0    0  0.00000000000E+00  0.00000000000E+00  0.49136131979E+03  0.77950277723E+03  0.60513521888E+03 0.  0.
        5    1    3    3  502    0 -0.15413618598E+03 -0.25857441867E+03  0.20689965413E+03  0.36530569486E+03  0.46999998093E+01 0. -1.
       -5    1    3    3    0  502  0.15413618598E+03  0.25857441867E+03  0.28446166567E+03  0.41419708238E+03  0.46999998093E+01 0.  1.
</event>
<event>
 5   0  0.3724066E-02  0.5981986E+03  0.7818609E-02  0.9909150E-01
       -2   -1    0    0    0  501  0.00000000000E+00  0.00000000000E+00  0.23384630004E+03  0.23384630005E+03  0.25500000920E-02 0.  1.
        2   -1    0    0  501    0  0.00000000000E+00  0.00000000000E+00 -0.38256069530E+03  0.38256069531E+03  0.25500000920E-02 0. -1.
    10030    2    1    2    0    0  0.00000000000E+00  0.00000000000E+00 -0.14871439526E+03  0.61640699536E+03  0.59819863973E+03 0.  0.
        4    1    3    3  502    0  0.21151738398E+03 -0.12076203026E+03  0.10452326659E+03  0.26504678424E+03  0.12699999809E+01 0.  1.
       -4    1    3    3    0  502 -0.21151738398E+03  0.12076203026E+03 -0.25323766185E+03  0.35136021112E+03  0.12699999809E+01 0. -1.
</event>
<event>
 5   0  0.2309055E-02  0.5981878E+03  0.7818609E-02  0.9909173E-01
        1   -1    0    0  501    0  0.00000000000E+00  0.00000000000E+00  0.71025813580E+03  0.71025813582E+03  0.50400001928E-02 0. -1.
       -1   -1    0    0    0  501  0.00000000000E+00  0.00000000000E+00 -0.12595021039E+03  0.12595021049E+03  0.50400001928E-02 0.  1.
    10030    2    1    2    0    0  0.00000000000E+00  0.00000000000E+00  0.58430792542E+03  0.83620834630E+03  0.59818780222E+03 0.  0.
        4    1    3    3  502    0 -0.25288356406E+00 -0.20299349108E+03 -0.14904928079E+02  0.20354407668E+03  0.12699999809E+01 0.  1.
       -4    1    3    3    0  502  0.25288356406E+00  0.20299349108E+03  0.59921285350E+03  0.63266426963E+03  0.12699999809E+01 0. -1.
</event>
<event>
 5   0  0.2382531E-02  0.6000544E+03  0.7818609E-02  0.9905293E-01
        1   -1    0    0  501    0  0.00000000000E+00  0.00000000000E+00  0.81465496902E+03  0.81465496904E+03  0.50400001928E-02 0.  1.
       -1   -1    0    0    0  501  0.00000000000E+00  0.00000000000E+00 -0.11049624075E+03  0.11049624086E+03  0.50400001928E-02 0. -1.
    10030    2    1    2    0    0  0.00000000000E+00  0.00000000000E+00  0.70415872827E+03  0.92515120990E+03  0.60005436969E+03 0.  0.
        5    1    3    3  502    0  0.58833951910E+02  0.27165400536E+03  0.17807753946E+03  0.33013789934E+03  0.46999998093E+01 0. -1.
       -5    1    3    3    0  502 -0.58833951910E+02 -0.27165400536E+03  0.52608118881E+03  0.59501331056E+03  0.46999998093E+01 0.  1.
</event>
<event>
 5   0  0.3934634E-02  0.6015416E+03  0.7818609E-02  0.9902213E-01
        2   -1    0    0  501    0  0.00000000000E+00  0.00000000000E+00  0.95191700027E+03  0.95191700028E+03  0.25500000920E-02 0. -1.
       -2   -1    0    0    0  501  0.00000000000E+00  0.00000000000E+00 -0.95032530136E+02  0.95032530171E+02  0.25500000920E-02 0.  1.
    10030    2    1    2    0    0  0.00000000000E+00  0.00000000000E+00  0.85688447014E+03  0.10469495304E+04  0.60154162295E+03 0.  0.
        1    1    3    3  502    0  0.73390755493E+01 -0.24085064276E+03  0.74172306505E+03  0.77988204198E+03  0.50400001928E-02 0. -1.
       -1    1    3    3    0  502 -0.73390755493E+01  0.24085064276E+03  0.11516140509E+03  0.26706748847E+03  0.50400001928E-02 0.  1.
</event>
<event>
 5   0  0.2295179E-02  0.6015361E+03  0.7818609E-02  0.9902224E-01
       -1   -1    0    0    0  501  0.00000000000E+00  0.00000000000E+00  0.25196360563E+03  0.25196360568E+03  0.50400001928E-02 0.  1.
        1   -1    0    0  501    0  0.00000000000E+00  0.00000000000E+00 -0.35902574012E+03  0.35902574015E+03  0.50400001928E-02 0. -1.
    10030    2    1    2    0    0  0.00000000000E+00  0.00000000000E+00 -0.10706213449E+03  0.61098934583E+03  0.60153610039E+03 0.  0.
        3    1    3    3  502    0 -0.17732695572E+02  0.20673021552E+03 -0.27469025795E+03  0.34424784460E+03  0.10100000352E+00 0. -1.
       -3    1    3    3    0  502  0.17732695572E+02 -0.20673021552E+03  0.16762812346E+03  0.26674150122E+03  0.10100000352E+00 0.  1.
</event>
<event>
 5   0  0.3798925E-02  0.6048042E+03  0.7818609E-02  0.9895489E-01
        2   -1    0    0  501    0  0.00000000000E+00  0.00000000000E+00  0.19084233138E+04  0.19084233138E+04  0.25500000920E-02 0.  1.
       -2   -1    0    0    0  501  0.00000000000E+00  0.00000000000E+00 -0.47917588402E+02  0.47917588470E+02  0.25500000920E-02 0. -1.
    10030    2    1    2    0    0  0.00000000000E+00  0.00000000000E+00  0.18605057253E+04  0.19563409022E+04  0.60480424242E+03 0.  0.
        2    1    3    3  502    0  0.11917517268E+03 -0.24376430685E+03  0.13620935592E+04  0.13888565884E+04  0.25500000920E-02 0.  1.
       -2    1    3    3    0  502 -0.11917517268E+03  0.24376430685E+03  0.49841216612E+03  0.56748431381E+03  0.25500000920E-02 0. -1.
</event>
<event>
 5   0  0.3798925E-02  0.6067087E+03  0.7818609E-02  0.9891584E-01
       -2   -1    0    0    0  501  0.00000000000E+00  0.00000000000E+00  0.77176059681E+02  0.77176059723E+02  0.25500000920E-02 0.  1.
        2   -1    0    0  501    0  0.00000000000E+00  0.00000000000E+00 -0.11923888835E+04  0.11923888835E+04  0.25500000920E-02 0. -1.
    10030    2    1    2    0    0  0.00000000000E+00  0.00000000000E+00 -0.11152128238E+04  0.12695649432E+04  0.60670874615E+03 0.  0.
        2    1    3    3  502    0 -0.58730402974E+01 -0.31193680042E+02 -0.11889043102E+04  0.11893279602E+04  0.25500000920E-02 0. -1.
       -2    1    3    3    0  502  0.58730402974E+01  0.31193680042E+02  0.73691486330E+02  0.80236983000E+02  0.25500000920E-02 0.  1.
</event>
<event>
 5   0  0.3724066E-02  0.6088032E+03  0.7818609E-02  0.9887309E-01
        2   -1    0    0  501    0  0.00000000000E+00  0.00000000000E+00  0.17763659972E+03  0.17763659974E+03  0.25500000920E-02 0. -1.
       -2   -1    0    0    0  501  0.00000000000E+00  0.00000000000E+00 -0.52162859280E+03  0.52162859280E+03  0.25500000920E-02 0.  1.
    10030    2    1    2    0    0  0.00000000000E+00  0.00000000000E+00 -0.34399199307E+03  0.69926519254E+03  0.60880318511E+03 0.  0.
        4    1    3    3  502    0  0.21975819178E+03  0.18770727486E+02 -0.41296105289E+03  0.46817138653E+03  0.12699999809E+01 0.  1.
       -4    1    3    3    0  502 -0.21975819178E+03 -0.18770727486E+02  0.68969059813E+02  0.23109380601E+03  0.12699999809E+01 0. -1.
</event>
<event>
 5   0  0.3737642E-02  0.5994278E+03  0.7818609E-02  0.9906594E-01
        2   -1    0    0  501    0  0.00000000000E+00  0.00000000000E+00  0.12104743220E+03  0.12104743222E+03  0.25500000920E-02 0. -1.
       -2   -1    0    0    0  501  0.00000000000E+00  0.00000000000E+00 -0.74209267284E+03  0.74209267284E+03  0.25500000920E-02 0.  1.
    10030    2    1    2    0    0  0.00000000000E+00  0.00000000000E+00 -0.62104524064E+03  0.86314010507E+03  0.59942776883E+03 0.  0.
        5    1    3    3  502    0  0.84063261103E+02 -0.95705450965E+02 -0.70111592461E+03  0.71260914599E+03  0.46999998093E+01 0.  1.
       -5    1    3    3    0  502 -0.84063261103E+02  0.95705450965E+02  0.80070683965E+02  0.15053095908E+03  0.46999998093E+01 0. -1.
</event>
<event>
 5   0  0.3934634E-02  0.6040115E+03  0.7818609E-02  0.9897118E-01
        2   -1    0    0  501    0  0.00000000000E+00  0.00000000000E+00  0.77613144409E+03  0.77613144410E+03  0.25500000920E-02 0.  1.
       -2   -1    0    0    0  501  0.00000000000E+00  0.00000000000E+00 -0.11751551437E+03  0.11751551439E+03  0.25500000920E-02 0. -1.
    10030    2    1    2    0    0  0.00000000000E+00  0.00000000000E+00  0.65861592973E+03  0.89364695849E+03  0.60401154255E+03 0.  0.
        1    1    3    3  502    0  0.14423455982E+03  0.68055960945E+02  0.70874711470E+03  0.72646933499E+03  0.50400001928E-02 0.  1.
       -1    1    3    3    0  502 -0.14423455982E+03 -0.68055960945E+02 -0.50131184971E+02  0.16717762350E+03  0.50400001928E-02 0. -1.
</event>
<event>
 5   0  0.3737642E-02  0.5964954E+03  0.7818609E-02  0.9912704E-01
       -2   -1    0    0    0  501  0.00000000000E+00  0.00000000000E+00  0.17552164519E+03  0.17552164521E+03  0.25500000920E-02 0.  1.
        2   -1    0    0  501    0  0.00000000000E+00  0.00000000000E+00 -0.50678480532E+03  0.50678480533E+03  0.25500000920E-02 0. -1.
    10030    2    1    2    0    0  0.00000000000E+00  0.00000000000E+00 -0.33126316013E+03  0.68230645053E+03  0.59649544104E+03 0.  0.
        5    1    3    3  502    0  0.38148883726E+02 -0.19493563483E+03  0.88795012203E+02  0.21762785495E+03  0.46999998093E+01 0.  1.
       -5    1    3    3    0  502 -0.38148883726E+02  0.19493563483E+03 -0.42005817233E+03  0.46467859559E+03  0.46999998093E+01 0. -1.
</event>
<event>
 5   0  0.2309055E-02  0.5908259E+03  0.7818609E-02  0.9924624E-01
       -1   -1    0    0    0  501  0.00000000000E+00  0.00000000000E+00  0.16110421364E+03  0.16110421372E+03  0.50400001928E-02 0.  1.
        1   -1    0    0  501    0  0.00000000000E+00  0.00000000000E+00 -0.54169174817E+03  0.54169174819E+03  0.50400001928E-02 0. -1.
    10030    2    1    2    0    0  0.00000000000E+00  0.00000000000E+00 -0.38058753453E+03  0.70279596191E+03  0.59082594107E+03 0.  0.
        4    1    3    3  502    0 -0.23178265754E+03  0.17191853161E+03 -0.11517493569E+03  0.31071861958E+03  0.12699999809E+01 0. -1.
       -4    1    3    3    0  502  0.23178265754E+03 -0.17191853161E+03 -0.26541259884E+03  0.39207734233E+03  0.12699999809E+01 0.  1.
</event>
<event>
 5   0  0.2295179E-02  0.6065545E+03  0.7818609E-02  0.9891900E-01
       -1   -1    0    0    0  501  0.00000000000E+00  0.00000000000E+00  0.10776491157E+03  0.10776491169E+03  0.50400001928E-02 0.  1.
        1   -1    0    0  501    0  0.00000000000E+00  0.00000000000E+00 -0.85349751007E+03  0.85349751009E+03  0.50400001928E-02 0. -1.
    10030    2    1    2    0    0  0.00000000000E+00  0.00000000000E+00 -0.74573259850E+03  0.96126242178E+03  0.60655447823E+03 0.  0.
        3    1    3    3  502    0 -0.13402274772E+03 -0.16563416166E+03 -0.71490346374E+03  0.74597838111E+03  0.10100000352E+00 0. -1.
       -3    1    3    3    0  502  0.13402274772E+03  0.16563416166E+03 -0.30829134758E+02  0.21528404067E+03  0.10100000352E+00 0.  1.
</event>
<event>
 5   0  0.3724066E-02  0.5999949E+03  0.7818609E-02  0.9905417E-01
        2   -1    0    0  501    0  0.00000000000E+00  0.00000000000E+00  0.20595845187E+03  0.20595845188E+03  0.25500000920E-02 0.  1.
       -2   -1    0    0    0  501  0.00000000000E+00  0.00000000000E+00 -0.43697386139E+03  0.43697386140E+03  0.25500000920E-02 0. -1.
    10030    2    1    2    0    0  0.00000000000E+00  0.00000000000E+00 -0.23101540953E+03  0.64293231328E+03  0.59999486666E+03 0.  0.
        4    1    3    3  502    0 -0.43673165642E+02 -0.78021366357E+02 -0.42236071383E+03  0.43172313407E+03  0.12699999809E+01 0. -1.
       -4    1    3    3    0  502  0.43673165642E+02  0.78021366357E+02  0.19134530430E+03  0.21120917921E+03  0.12699999809E+01 0.  1.
</event>
<event>
 5   0  0.3798925E-02  0.6044187E+03  0.7818609E-02  0.9896281E-01
       -2   -1    0    0    0  501  0.00000000000E+00  0.00000000000E+00  0.60031573202E+02  0.60031573256E+02  0.25500000920E-02 0.  1.
        2   -1    0    0  501    0  0.00000000000E+00  0.00000000000E+00 -0.15213740682E+04  0.15213740682E+04  0.25500000920E-02 0. -1.
    10030    2    1    2    0    0  0.00000000000E+00  0.00000000000E+00 -0.14613424950E+04  0.15814056414E+04  0.60441865883E+03 0.  0.
        2    1    3    3  502    0  0.26483598033E+03  0.12380905262E+03 -0.93102215852E+03  0.97584273202E+03  0.25500000920E-02 0. -1.
       -2    1    3    3    0  502 -0.26483598033E+03 -0.12380905262E+03 -0.53032033644E+03  0.60556290940E+03  0.25500000920E-02 0.  1.
</event>
<event>
 5   0  0.2382531E-02  0.5972414E+03  0.7818609E-02  0.9911146E-01
        1   -1    0    0  501    0  0.00000000000E+00  0.00000000000E+00  0.20982810637E+03  0.20982810643E+03  0.50400001928E-02 0.  1.
       -1   -1    0    0    0  501  0.00000000000E+00  0.00000000000E+00 -0.42498743778E+03  0.42498743781E+03  0.50400001928E-02 0. -1.
    10030    2    1    2    0    0  0.00000000000E+00  0.00000000000E+00 -0.21515933141E+03  0.63481554424E+03  0.59724135600E+03 0.  0.
        5    1    3    3  502    0  0.25190184321E+03 -0.25471499985E+02 -0.27580518022E+03  0.37442478999E+03  0.46999998093E+01 0. -1.
       -5    1    3    3    0  502 -0.25190184321E+03  0.25471499985E+02  0.60645848808E+02  0.26039075425E+03  0.46999998093E+01 0.  1.
</event>
<event>
 5   0  0.2225808E-02  0.5408067E+03  0.7818609E-02  0.1003644E+00
       -1   -1    0    0    0  501  0.00000000000E+00  0.00000000000E+00  0.11702612811E+03  0.11702612822E+03  0.50400001928E-02 0. -1.
        1   -1    0    0  501    0  0.00000000000E+00  0.00000000000E+00 -0.62480041914E+03  0.62480041916E+03  0.50400001928E-02 0.  1.
    10030    2    1    2    0    0  0.00000000000E+00  0.00000000000E+00 -0.50777429103E+03  0.74182654738E+03  0.54080670832E+03 0.  0.
        2    1    3    3  502    0 -0.13101510938E+03  0.13788813286E+03 -0.51752515785E+03  0.55137136767E+03  0.25500000920E-02 0.  1.
       -2    1    3    3    0  502  0.13101510938E+03 -0.13788813286E+03  0.97508668171E+01  0.19045517971E+03  0.25500000920E-02 0. -1.
</event>
<event>
 5   0  0.3737642E-02  0.6059572E+03  0.7818609E-02  0.9893123E-01
        2   -1    0    0  501    0  0.00000000000E+00  0.00000000000E+00  0.73088981609E+03  0.73088981610E+03  0.25500000920E-02 0.  1.
       -2   -1    0    0    0  501  0.00000000000E+00  0.00000000000E+00 -0.12559488518E+03  0.12559488521E+03  0.25500000920E-02 0. -1.
    10030    2    1    2    0    0  0.00000000000E+00  0.00000000000E+00  0.60529493091E+03  0.85648470130E+03  0.60595716860E+03 0.  0.
        5    1    3    3  502    0  0.17626669015E+02 -0.20079134703E+03 -0.17009232071E+02  0.20233454593E+03  0.46999998093E+01 0. -1.
       -5    1    3    3    0  502 -0.17626669015E+02  0.20079134703E+03  0.62230416298E+03  0.65415015537E+03  0.46999998093E+01 0.  1.
</event>
<event>
 5   0  0.2225808E-02  0.6003638E+03  0.7818609E-02  0.9904651E-01
       -1   -1    0    0    0  501  0.00000000000E+00  0.00000000000E+00  0.16904801853E+03  0.16904801861E+03  0.50400001928E-02 0.  1.
        1   -1    0    0  501    0  0.00000000000E+00  0.00000000000E+00 -0.53303900420E+03  0.53303900422E+03  0.50400001928E-02 0. -1.
    10030    2    1    2    0    0  0.00000000000E+00  0.00000000000E+00 -0.36399098567E+03  0.70208702283E+03  0.60036384800E+03 0.  0.
        2    1    3    3  502    0  0.17312061460E+02  0.29268833554E+03 -0.10672325347E+03  0.31201926555E+03  0.25500000920E-02 0. -1.
       -2    1    3    3    0  502 -0.17312061460E+02 -0.29268833554E+03 -0.25726773220E+03  0.39006775728E+03  0.25500000920E-02 0.  1.
</event>
<event>
 5   0  0.2276105E-02  0.6030466E+03  0.7818609E-02  0.9899105E-01
       -1   -1    0    0    0  501  0.00000000000E+00  0.00000000000E+00  0.19472851662E+03  0.19472851669E+03  0.50400001928E-02 0. -1.
        1   -1    0    0  501    0  0.00000000000E+00  0.00000000000E+00 -0.46688751192E+03  0.46688751195E+03  0.50400001928E-02 0.  1.
    10030    2    1    2    0    0  0.00000000000E+00  0.00000000000E+00 -0.27215899530E+03  0.66161602864E+03  0.60304664051E+03 0.  0.
        1    1    3    3  502    0  0.23730632747E+02 -0.60189207545E+01 -0.46579527460E+03  0.46643821478E+03  0.50400001928E-02 0.  1.
       -1    1    3    3    0  502 -0.23730632747E+02  0.60189207545E+01  0.19363627930E+03  0.19517781386E+03  0.50400001928E-02 0. -1.
</event>
<event>
 5   0  0.2276105E-02  0.5942180E+03  0.7818609E-02  0.9917475E-01
       -1   -1    0    0    0  501  0.00000000000E+00  0.00000000000E+00  0.22382295396E+03  0.22382295402E+03  0.50400001928E-02 0. -1.
        1   -1    0    0  501    0  0.00000000000E+00  0.00000000000E+00 -0.39439103944E+03  0.39439103948E+03  0.50400001928E-02 0.  1.
    10030    2    1    2    0    0  0.00000000000E+00  0.00000000000E+00 -0.17056808548E+03  0.61821399350E+03  0.59421803235E+03 0.  0.
        1    1    3    3  502    0  0.24220368337E+03  0.16641197098E+03 -0.39718153440E+02  0.29653515822E+03  0.50400001928E-02 0.  1.
       -1    1    3    3    0  502 -0.24220368337E+03 -0.16641197098E+03 -0.13084993204E+03  0.32167883528E+03  0.50400001928E-02 0. -1.
</event>
<event>
 5   0  0.3934634E-02  0.6003089E+03  0.7818609E-02  0.9904765E-01
        2   -1    0    0  501    0  0.00000000000E+00  0.00000000000E+00  0.25498296345E+03  0.25498296346E+03  0.25500000920E-02 0.  1.
       -2   -1    0    0    0  501  0.00000000000E+00  0.00000000000E+00 -0.35332826364E+03  0.35332826365E+03  0.25500000920E-02 0. -1.
    10030    2    1    2    0    0  0.00000000000E+00  0.00000000000E+00 -0.98345300194E+02  0.60831122711E+03  0.60030887962E+03 0.  0.
        1    1    3    3  502    0  0.61817244796E+02  0.26962815588E+02  0.24720582569E+03  0.25624028851E+03  0.50400001928E-02 0.  1.
       -1    1    3    3    0  502 -0.61817244796E+02 -0.26962815588E+02 -0.34555112588E+03  0.35207093859E+03  0.50400001928E-02 0. -1.
</event>
<event>
 5   0  0.1521750E-02  0.6005508E+03  0.7818609E-02  0.9904264E-01
       -3   -1    0    0    0  501  0.00000000000E+00  0.00000000000E+00  0.66907164270E+03  0.66907165032E+03  0.10100000352E+00 0.  1.
        3   -1    0    0  501    0  0.00000000000E+00  0.00000000000E+00 -0.13476177901E+03  0.13476181686E+03  0.10100000352E+00 0. -1.
    10030    2    1    2    0    0  0.00000000000E+00  0.00000000000E+00  0.53430986368E+03  0.80383346718E+03  0.60055075766E+03 0.  0.
        2    1    3    3  502    0  0.16685752238E+03  0.13275829741E+03  0.55014147073E+03  0.59001850490E+03  0.25500000920E-02 0.  1.
       -2    1    3    3    0  502 -0.16685752238E+03 -0.13275829741E+03 -0.15831607045E+02  0.21381496228E+03  0.25500000920E-02 0. -1.
</event>
<event>
 5   0  0.3832191E-02  0.5937323E+03  0.7818609E-02  0.9918496E-01
        2   -1    0    0  501    0  0.00000000000E+00  0.00000000000E+00  0.81721530598E+03  0.81721530598E+03  0.25500000920E-02 0.  1.
       -2   -1    0    0    0  501  0.00000000000E+00  0.00000000000E+00 -0.10784123817E+03  0.10784123820E+03  0.25500000920E-02 0. -1.
    10030    2    1    2    0    0  0.00000000000E+00  0.00000000000E+00  0.70937406781E+03  0.92505654418E+03  0.59373229814E+03 0.  0.
        3    1    3    3  502    0 -0.29114294318E+03  0.46540009424E+02  0.30073048880E+03  0.42115201879E+03  0.10100000352E+00 0.  1.
       -3    1    3    3    0  502  0.29114294318E+03 -0.46540009424E+02  0.40864357901E+03  0.50390452539E+03  0.10100000352E+00 0. -1.
</event>
<event>
 5   0  0.3737642E-02  0.6126463E+03  0.7818609E-02  0.9879511E-01
        2   -1    0    0  501    0  0.00000000000E+00  0.00000000000E+00  0.10667704356E+04  0.10667704356E+04  0.25500000920E-02 0. -1.
       -2   -1    0    0    0  501  0.00000000000E+00  0.00000000000E+00 -0.87960691081E+02  0.87960691117E+02  0.25500000920E-02 0.  1.
    10030    2    1    2    0    0  0.00000000000E+00  0.00000000000E+00  0.97880974448E+03  0.11547311267E+04  0.61264627563E+03 0.  0.
        5    1    3    3  502    0  0.17237674456E+03 -0.13387006994E+03  0.89443111765E+03  0.92068672843E+03  0.46999998093E+01 0. -1.
       -5    1    3    3    0  502 -0.17237674456E+03  0.13387006994E+03  0.84378626833E+02  0.23404439825E+03  0.46999998093E+01 0.  1.
</event>
<event>
 5   0  0.3724066E-02  0.5999912E+03  0.7818609E-02  0.9905424E-01
       -2   -1    0    0    0  501  0.00000000000E+00  0.00000000000E+00  0.11378705525E+03  0.11378705528E+03  0.25500000920E-02 0. -1.
        2   -1    0    0  501    0  0.00000000000E+00  0.00000000000E+00 -0.79092787622E+03  0.79092787622E+03  0.25500000920E-02 0.  1.
    10030    2    1    2    0    0  0.00000000000E+00  0.00000000000E+00 -0.67714082096E+03  0.90471493150E+03  0.59999117983E+03 0.  0.
        4    1    3    3  502    0  0.11125241227E+03 -0.85249635046E+02  0.61376610608E+02  0.15301405406E+03  0.12699999809E+01 0. -1.
       -4    1    3    3    0  502 -0.11125241227E+03  0.85249635046E+02 -0.73851743157E+03  0.75170087744E+03  0.12699999809E+01 0.  1.
</event>
<event>
 5   0  0.3934634E-02  0.5956139E+03  0.7818609E-02  0.9914548E-01
        2   -1    0    0  501    0  0.00000000000E+00  0.00000000000E+00  0.13313990976E+04  0.13313990976E+04  0.25500000920E-02 0.  1.
       -2   -1    0    0    0  501  0.00000000000E+00  0.00000000000E+00 -0.66613363635E+02  0.66613363683E+02  0.25500000920E-02 0. -1.
    10030    2    1    2    0    0  0.00000000000E+00  0.00000000000E+00  0.12647857339E+04  0.13980124613E+04  0.59561387581E+03 0.  0.
        1    1    3    3  502    0 -0.12382137697E+03 -0.36183180631E+02  0.23686407700E+01  0.12902157354E+03  0.50400001928E-02 0. -1.
       -1    1    3    3    0  502  0.12382137697E+03  0.36183180631E+02  0.12624170932E+04  0.12689908877E+04  0.50400001928E-02 0.  1.
</event>
<event>
 5   0  0.2225808E-02  0.6085493E+03  0.7818609E-02  0.9887826E-01
        1   -1    0    0  501    0  0.00000000000E+00  0.00000000000E+00  0.10883699924E+04  0.10883699924E+04  0.50400001928E-02 0.  1.
       -1   -1    0    0    0  501  0.00000000000E+00  0.00000000000E+00 -0.85065792093E+02  0.85065792243E+02  0.50400001928E-02 0. -1.
    10030    2    1    2    0    0  0.00000000000E+00  0.00000000000E+00  0.10033042003E+04  0.11734357846E+04  0.60854927685E+03 0.  0.
        2    1    3    3  502    0  0.17836065768E+03 -0.56966082941E+02  0.96413256073E+03  0.98214523034E+03  0.25500000920E-02 0.  1.
       -2    1    3    3    0  502 -0.17836065768E+03  0.56966082941E+02  0.39171639570E+02  0.19129055431E+03  0.25500000920E-02 0. -1.
</event>
<event>
 5   0  0.2295179E-02  0.5943694E+03  0.7818609E-02  0.9917157E-01
       -1   -1    0    0    0  501  0.00000000000E+00  0.00000000000E+00  0.67711386673E+03  0.67711386674E+03  0.50400001928E-02 0. -1.
        1   -1    0    0  501    0  0.00000000000E+00  0.00000000000E+00 -0.13043411824E+03  0.13043411834E+03  0.50400001928E-02 0.  1.
    10030    2    1    2    0    0  0.00000000000E+00  0.00000000000E+00  0.54667974848E+03  0.80754798508E+03  0.59436941443E+03 0.  0.
        3    1    3    3  502    0  0.26612381698E+02 -0.28492403934E+03  0.16440240553E+03  0.33002740522E+03  0.10100000352E+00 0.  1.
       -3    1    3    3    0  502 -0.26612381698E+02  0.28492403934E+03  0.38227734296E+03  0.47752057986E+03  0.10100000352E+00 0. -1.
</event>
<event>
 5   0  0.1521750E-02  0.6008232E+03  0.7818609E-02  0.9903700E-01
       -3   -1    0    0    0  501  0.00000000000E+00  0.00000000000E+00  0.59700350005E+03  0.59700350859E+03  0.10100000352E+00 0.  1.
        3   -1    0    0  501    0  0.00000000000E+00  0.00000000000E+00 -0.15116682724E+03  0.15116686098E+03  0.10100000352E+00 0. -1.
    10030    2    1    2    0    0  0.00000000000E+00  0.00000000000E+00  0.44583667281E+03  0.74817036957E+03  0.60082323780E+03 0.  0.
        4    1    3    3  502    0 -0.30030489879E+03  0.47134685381E+01  0.21501533065E+03  0.36937576306E+03  0.12699999809E+01 0.  1.
       -4    1    3    3    0  502  0.30030489879E+03 -0.47134685381E+01  0.23082134216E+03  0.37879460651E+03  0.12699999809E+01 0. -1.
</event>
<event>
 5   0  0.3832191E-02  0.6141557E+03  0.7818609E-02  0.9876465E-01
        2   -1    0    0  501    0  0.00000000000E+00  0.00000000000E+00  0.83011630806E+03  0.83011630806E+03  0.25500000920E-02 0.  1.
       -2   -1    0    0    0  501  0.00000000000E+00  0.00000000000E+00 -0.11359469140E+03  0.11359469142E+03  0.25500000920E-02 0. -1.
    10030    2    1    2    0    0  0.00000000000E+00  0.00000000000E+00  0.71652161666E+03  0.94371099949E+03  0.61415569964E+03 0.  0.
        3    1    3    3  502    0  0.10265299615E+03 -0.24998350305E+03  0.13417322462E+03  0.30171485516E+03  0.10100000352E+00 0. -1.
       -3    1    3    3    0  502 -0.10265299615E+03  0.24998350305E+03  0.58234839204E+03  0.64199614433E+03  0.10100000352E+00 0.  1.
</event>
<event>
 5   0  0.3832191E-02  0.5994036E+03  0.7818609E-02  0.9906644E-01
       -2   -1    0    0    0  501  0.00000000000E+00  0.00000000000E+00  0.44558858261E+02  0.44558858334E+02  0.25500000920E-02 0. -1.
        2   -1    0    0  501    0  0.00000000000E+00  0.00000000000E+00 -0.20157867085E+04  0.20157867085E+04  0.25500000920E-02 0.  1.
    10030    2    1    2    0    0  0.00000000000E+00  0.00000000000E+00 -0.19712278503E+04  0.20603455669E+04  0.59940355123E+03 0.  0.
        3    1    3    3  502    0  0.18253588106E+03 -0.19116005186E+03 -0.14712344207E+04  0.14947883610E+04  0.10100000352E+00 0.  1.
       -3    1    3    3    0  502 -0.18253588106E+03  0.19116005186E+03 -0.49999342956E+03  0.56555720587E+03  0.10100000352E+00 0. -1.
</event>
<event>
 5   0  0.2225808E-02  0.5997473E+03  0.7818609E-02  0.9905930E-01
        1   -1    0    0  501    0  0.00000000000E+00  0.00000000000E+00  0.76111957213E+03  0.76111957214E+03  0.50400001928E-02 0.  1.
       -1   -1    0    0    0  501  0.00000000000E+00  0.00000000000E+00 -0.11814727916E+03  0.11814727926E+03  0.50400001928E-02 0. -1.
    10030    2    1    2    0    0  0.00000000000E+00  0.00000000000E+00  0.64297229297E+03  0.87926685141E+03  0.59974730216E+03 0.  0.
        2    1    3    3  502    0 -0.26851152080E+03  0.36083693354E+02  0.13303163758E+03  0.30182426399E+03  0.25500000920E-02 0. -1.
       -2    1    3    3    0  502  0.26851152080E+03 -0.36083693354E+02  0.50994065540E+03  0.57744258742E+03  0.25500000920E-02 0.  1.
</event>
<event>
 5   0  0.2276105E-02  0.6026977E+03  0.7818609E-02  0.9899825E-01
        1   -1    0    0  501    0  0.00000000000E+00  0.00000000000E+00  0.39823462853E+03  0.39823462856E+03  0.50400001928E-02 0. -1.
       -1   -1    0    0    0  501  0.00000000000E+00  0.00000000000E+00 -0.22803426887E+03  0.22803426893E+03  0.50400001928E-02 0.  1.
    10030    2    1    2    0    0  0.00000000000E+00  0.00000000000E+00  0.17020035966E+03  0.62626889749E+03  0.60269774310E+03 0.  0.
        1    1    3    3  502    0 -0.20636626584E+02  0.15438365016E+03  0.35316414833E+03  0.38598587731E+03  0.50400001928E-02 0. -1.
       -1    1    3    3    0  502  0.20636626584E+02 -0.15438365016E+03 -0.18296378867E+03  0.24028302018E+03  0.50400001928E-02 0.  1.
</event>
<event>
 5   0  0.3737642E-02  0.6116972E+03  0.7818609E-02  0.9881431E-01
        2   -1    0    0  501    0  0.00000000000E+00  0.00000000000E+00  0.44294866835E+03  0.44294866835E+03  0.25500000920E-02 0.  1.
       -2   -1    0    0    0  501  0.00000000000E+00  0.00000000000E+00 -0.21118333377E+03  0.21118333379E+03  0.25500000920E-02 0. -1.
    10030    2    1    2    0    0  0.00000000000E+00  0.00000000000E+00  0.23176533457E+03  0.65413200214E+03  0.61169723386E+03 0.  0.
        5    1    3    3  502    0 -0.24965882078E+03  0.69482395250E+02  0.28951642843E+03  0.38858613250E+03  0.46999998093E+01 0.  1.
       -5    1    3    3    0  502  0.24965882078E+03 -0.69482395250E+02 -0.57751093861E+02  0.26554586964E+03  0.46999998093E+01 0. -1.
</event>
<event>
 5   0  0.1521750E-02  0.6053914E+03  0.7818609E-02  0.9894283E-01
        3   -1    0    0  501    0  0.00000000000E+00  0.00000000000E+00  0.54107869553E+03  0.54107870496E+03  0.10100000352E+00 0. -1.
       -3   -1    0    0    0  501  0.00000000000E+00  0.00000000000E+00 -0.16933705451E+03  0.16933708463E+03  0.10100000352E+00 0.  1.
    10030    2    1    2    0    0  0.00000000000E+00  0.00000000000E+00  0.37174164102E+03  0.71041578959E+03  0.60539139938E+03 0.  0.
        5    1    3    3  502    0  0.18105128525E+03  0.47909974324E+01 -0.98683575249E+02  0.20630816651E+03  0.46999998093E+01 0.  1.
       -5    1    3    3    0  502 -0.18105128525E+03 -0.47909974324E+01  0.47042521627E+03  0.50410762308E+03  0.46999998093E+01 0. -1.
</event>
<event>
 5   0  0.2309055E-02  0.6158907E+03  0.7818609E-02  0.9872976E-01
       -1   -1    0    0    0  501  0.00000000000E+00  0.00000000000E+00  0.19187693597E+03  0.19187693604E+03  0.50400001928E-02 0. -1.
        1   -1    0    0  501    0  0.00000000000E+00  0.00000000000E+00 -0.49422474920E+03  0.49422474923E+03  0.50400001928E-02 0.  1.
    10030    2    1    2    0    0  0.00000000000E+00  0.00000000000E+00 -0.30234781322E+03  0.68610168527E+03  0.61589067404E+03 0.  0.
        4    1    3    3  502    0  0.17218959690E+03  0.24171705111E+03 -0.24271405474E+03  0.38339029115E+03  0.12699999809E+01 0.  1.
       -4    1    3    3    0  502 -0.17218959690E+03 -0.24171705111E+03 -0.59633758484E+02  0.30271139412E+03  0.12699999809E+01 0. -1.
</event>
<event>
 5   0  0.2309055E-02  0.6032251E+03  0.7818609E-02  0.9898737E-01
        1   -1    0    0  501    0  0.00000000000E+00  0.00000000000E+00  0.81508990230E+03  0.81508990231E+03  0.50400001928E-02 0. -1.
       -1   -1    0    0    0  501  0.00000000000E+00  0.00000000000E+00 -0.11160748687E+03  0.11160748698E+03  0.50400001928E-02 0.  1.
    10030    2    1    2    0    0  0.00000000000E+00  0.00000000000E+00  0.70348241543E+03  0.92669738929E+03  0.60322511760E+03 0.  0.
        4    1    3    3  502    0 -0.10181243643E+03  0.18503001124E+03  0.20944360988E+02  0.21223137475E+03  0.12699999809E+01 0.  1.
       -4    1    3    3    0  502  0.10181243643E+03 -0.18503001124E+03  0.68253805444E+03  0.71446601454E+03  0.12699999809E+01 0. -1.
</event>
<event>
 5   0  0.3724066E-02  0.6004275E+03  0.7818609E-02  0.9904519E-01
       -2   -1    0    0    0  501  0.00000000000E+00  0.00000000000E+00  0.11140978158E+03  0.11140978161E+03  0.25500000920E-02 0. -1.
        2   -1    0    0  501    0  0.00000000000E+00  0.00000000000E+00 -0.80898020110E+03  0.80898020110E+03  0.25500000920E-02 0.  1.
    10030    2    1    2    0    0  0.00000000000E+00  0.00000000000E+00 -0.69757041951E+03  0.92038998271E+03  0.60042753942E+03 0.  0.
        4    1    3    3  502    0 -0.11504768450E+03 -0.75854710692E+02  0.60059521104E+02  0.15032852629E+03  0.12699999809E+01 0. -1.
       -4    1    3    3    0  502  0.11504768450E+03  0.75854710692E+02 -0.75762994062E+03  0.77006145642E+03  0.12699999809E+01 0.  1.
</event>
<event>
 5   0  0.2276105E-02  0.6042500E+03  0.7818609E-02  0.9896628E-01
        1   -1    0    0  501    0  0.00000000000E+00  0.00000000000E+00  0.18571081616E+04  0.18571081616E+04  0.50400001928E-02 0.  1.
       -1   -1    0    0    0  501  0.00000000000E+00  0.00000000000E+00 -0.49151430175E+02  0.49151430433E+02  0.50400001928E-02 0. -1.
    10030    2    1    2    0    0  0.00000000000E+00  0.00000000000E+00  0.18079567314E+04  0.19062595920E+04  0.60425002238E+03 0.  0.
        1    1    3    3  502    0  0.31823259452E+02  0.26166935517E+03  0.43822792008E+03  0.51139738095E+03  0.50400001928E-02 0.  1.
       -1    1    3    3    0  502 -0.31823259452E+02 -0.26166935517E+03  0.13697288114E+04  0.13948622111E+04  0.50400001928E-02 0. -1.
</event>
<event>
 5   0  0.2276105E-02  0.6019811E+03  0.7818609E-02  0.9901304E-01
       -1   -1    0    0    0  501  0.00000000000E+00  0.00000000000E+00  0.11367976152E+03  0.11367976163E+03  0.50400001928E-02 0. -1.
        1   -1    0    0  501    0  0.00000000000E+00  0.00000000000E+00 -0.79693444418E+03  0.79693444420E+03  0.50400001928E-02 0.  1.
    10030    2    1    2    0    0  0.00000000000E+00  0.00000000000E+00 -0.68325468267E+03  0.91061420582E+03  0.60198112135E+03 0.  0.
        1    1    3    3  502    0 -0.36761088484E+02 -0.27772801406E+03 -0.50810009688E+03  0.58021542197E+03  0.50400001928E-02 0.  1.
       -1    1    3    3    0  502  0.36761088484E+02  0.27772801406E+03 -0.17515458579E+03  0.33039878385E+03  0.50400001928E-02 0. -1.
</event>
<event>
 5   0  0.2276105E-02  0.6182224E+03  0.7818609E-02  0.9868305E-01
        1   -1    0    0  501    0  0.00000000000E+00  0.00000000000E+00  0.34333610964E+03  0.34333610967E+03  0.50400001928E-02 0. -1.
       -1   -1    0    0    0  501  0.00000000000E+00  0.00000000000E+00 -0.27829792639E+03  0.27829792644E+03  0.50400001928E-02 0.  1.
    10030    2    1    2    0    0  0.00000000000E+00  0.00000000000E+00  0.65038183246E+02  0.62163403611E+03  0.61822237873E+03 0.  0.
        1    1    3    3  502    0  0.32216437974E+01 -0.23153671395E+03 -0.17337932390E+03  0.28927498834E+03  0.50400001928E-02 0.  1.
       -1    1    3    3    0  502 -0.32216437974E+01  0.23153671395E+03  0.23841750715E+03  0.33235904777E+03  0.50400001928E-02 0. -1.
</event>
<event>
 5   0  0.2382531E-02  0.5923073E+03  0.7818609E-02  0.9921496E-01
       -1   -1    0    0    0  501  0.00000000000E+00  0.00000000000E+00  0.27279050176E+03  0.27279050180E+03  0.50400001928E-02 0.  1.
        1   -1    0    0  501    0  0.00000000000E+00  0.00000000000E+00 -0.32151773108E+03  0.32151773111E+03  0.50400001928E-02 0. -1.
    10030    2    1    2    0    0  0.00000000000E+00  0.00000000000E+00 -0.48727229319E+02  0.59430823292E+03  0.59230729595E+03 0.  0.
        5    1    3    3  502    0 -0.47616590427E+02 -0.24252952988E+03 -0.18800036004E+03  0.31057066494E+03  0.46999998093E+01 0. -1.
       -5    1    3    3    0  502  0.47616590427E+02  0.24252952988E+03  0.13927313072E+03  0.28373756798E+03  0.46999998093E+01 0.  1.
</event>
<event>
 5   0  0.2295179E-02  0.6123353E+03  0.7818609E-02  0.9880140E-01
        1   -1    0    0  501    0  0.00000000000E+00  0.00000000000E+00  0.10258141115E+04  0.10258141115E+04  0.50400001928E-02 0. -1.
       -1   -1    0    0    0  501  0.00000000000E+00  0.00000000000E+00 -0.91379745107E+02  0.91379745246E+02  0.50400001928E-02 0.  1.
    10030    2    1    2    0    0  0.00000000000E+00  0.00000000000E+00  0.93443436643E+03  0.11171938568E+04  0.61233530724E+03 0.  0.
        3    1    3    3  502    0 -0.19698694152E+03  0.22193378571E+03  0.60472252867E+03  0.67360805165E+03  0.10100000352E+00 0. -1.
       -3    1    3    3    0  502  0.19698694152E+03 -0.22193378571E+03  0.32971183775E+03  0.44358580514E+03  0.10100000352E+00 0.  1.
</event>
<event>
 5   0  0.2225808E-02  0.6023838E+03  0.7818609E-02  0.9900473E-01
       -1   -1    0    0    0  501  0.00000000000E+00  0.00000000000E+00  0.19275342188E+03  0.19275342194E+03  0.50400001928E-02 0. -1.
        1   -1    0    0  501    0  0.00000000000E+00  0.00000000000E+00 -0.47063534652E+03  0.47063534654E+03  0.50400001928E-02 0.  1.
    10030    2    1    2    0    0  0.00000000000E+00  0.00000000000E+00 -0.27788192464E+03  0.66338876849E+03  0.60238384284E+03 0.  0.
        2    1    3    3  502    0  0.17834197837E+03 -0.24206160012E+03 -0.11933664066E+03  0.32348247760E+03  0.25500000920E-02 0. -1.
       -2    1    3    3    0  502 -0.17834197837E+03  0.24206160012E+03 -0.15854528398E+03  0.33990629089E+03  0.25500000920E-02 0.  1.
</event>
<event>
 5   0  0.2225808E-02  0.6019102E+03  0.7818609E-02  0.9901451E-01
       -1   -1    0    0    0  501  0.00000000000E+00  0.00000000000E+00  0.84674939939E+02  0.84674940089E+02  0.50400001928E-02 0.  1.
        1   -1    0    0  501    0  0.00000000000E+00  0.00000000000E+00 -0.10696669423E+04  0.10696669423E+04  0.50400001928E-02 0. -1.
    10030    2    1    2    0    0  0.00000000000E+00  0.00000000000E+00 -0.98499200236E+03  0.11543418824E+04  0.60191023978E+03 0.  0.
        2    1    3    3  502    0 -0.11796690933E+03  0.24834395116E+03 -0.25774730453E+03  0.37686149017E+03  0.25500000920E-02 0.  1.
       -2    1    3    3    0  502  0.11796690933E+03 -0.24834395116E+03 -0.72724469784E+03  0.77748039223E+03  0.25500000920E-02 0. -1.
</event>
<event>
 5   0  0.2225808E-02  0.5990848E+03  0.7818609E-02  0.9907307E-01
       -1   -1    0    0    0  501  0.00000000000E+00  0.00000000000E+00  0.53727650607E+03  0.53727650610E+03  0.50400001928E-02 0.  1.
        1   -1    0    0  501    0  0.00000000000E+00  0.00000000000E+00 -0.16700085666E+03  0.16700085674E+03  0.50400001928E-02 0. -1.
    10030    2    1    2    0    0  0.00000000000E+00  0.00000000000E+00  0.37027564941E+03  0.70427736284E+03  0.59908475799E+03 0.  0.
        2    1    3    3  502    0 -0.18455960898E+03 -0.10738973714E+03 -0.61822118248E+02  0.22229885114E+03  0.25500000920E-02 0. -1.
       -2    1    3    3    0  502  0.18455960898E+03  0.10738973714E+03  0.43209776766E+03  0.48197851169E+03  0.25500000920E-02 0.  1.
</event>
<event>
 5   0  0.3737642E-02  0.6076455E+03  0.7818609E-02  0.9889670E-01
       -2   -1    0    0    0  501  0.00000000000E+00  0.00000000000E+00  0.13580676493E+03  0.13580676495E+03  0.25500000920E-02 0.  1.
        2   -1    0    0  501    0  0.00000000000E+00  0.00000000000E+00 -0.67970298364E+03  0.67970298364E+03  0.25500000920E-02 0. -1.
    10030    2    1    2    0    0  0.00000000000E+00  0.00000000000E+00 -0.54389621871E+03  0.81550974859E+03  0.60764549971E+03 0.  0.
        5    1    3    3  502    0 -0.13876602141E+03  0.11107156849E+03  0.58687133870E+02  0.18724094559E+03  0.46999998093E+01 0.  1.
       -5    1    3    3    0  502  0.13876602141E+03 -0.11107156849E+03 -0.60258335258E+03  0.62826880301E+03  0.46999998093E+01 0. -1.
</event>
<event>
 5   0  0.2276105E-02  0.5996182E+03  0.7818609E-02  0.9906198E-01
       -1   -1    0    0    0  501  0.00000000000E+00  0.00000000000E+00  0.49688309630E+03  0.49688309632E+03  0.50400001928E-02 0. -1.
        1   -1    0    0  501    0  0.00000000000E+00  0.00000000000E+00 -0.18089869561E+03  0.18089869568E+03  0.50400001928E-02 0.  1.
    10030    2    1    2    0    0  0.00000000000E+00  0.00000000000E+00  0.31598440068E+03  0.67778179201E+03  0.59961822529E+03 0.  0.
        1    1    3    3  502    0  0.16940489087E+03 -0.14767793260E+03  0.38230075867E+03  0.44346438294E+03  0.50400001928E-02 0. -1.
       -1    1    3    3    0  502 -0.16940489087E+03  0.14767793260E+03 -0.66316357988E+02  0.23431740907E+03  0.50400001928E-02 0.  1.
</event>
<event>
 5   0  0.2382531E-02  0.6048989E+03  0.7818609E-02  0.9895294E-01
       -1   -1    0    0    0  501  0.00000000000E+00  0.00000000000E+00  0.13372888438E+03  0.13372888448E+03  0.50400001928E-02 0.  1.
        1   -1    0    0  501    0  0.00000000000E+00  0.00000000000E+00 -0.68403829308E+03  0.68403829310E+03  0.50400001928E-02 0. -1.
    10030    2    1    2    0    0  0.00000000000E+00  0.00000000000E+00 -0.55030940869E+03  0.81776717757E+03  0.60489892662E+03 0.  0.
        5    1    3    3  502    0 -0.22092095081E+03 -0.16601134881E+02 -0.55343724021E+03  0.59615143465E+03  0.46999998093E+01 0. -1.
       -5    1    3    3    0  502  0.22092095081E+03  0.16601134881E+02  0.31278315138E+01  0.22161574293E+03  0.46999998093E+01 0.  1.
</event>
<event>
 5   0  0.3737642E-02  0.6203278E+03  0.7818609E-02  0.9864107E-01
       -2   -1    0    0    0  501  0.00000000000E+00  0.00000000000E+00  0.82541902810E+03  0.82541902810E+03  0.25500000920E-02 0.  1.
        2   -1    0    0  501    0  0.00000000000E+00  0.00000000000E+00 -0.11654886077E+03  0.11654886080E+03  0.25500000920E-02 0. -1.
    10030    2    1    2    0    0  0.00000000000E+00  0.00000000000E+00  0.70887016733E+03  0.94196788890E+03  0.62032780817E+03 0.  0.
        5    1    3    3  502    0  0.14355184110E+03  0.25755783251E+03  0.20849789992E+03  0.36116012022E+03  0.46999998093E+01 0. -1.
       -5    1    3    3    0  502 -0.14355184110E+03 -0.25755783251E+03  0.50037226740E+03  0.58080776868E+03  0.46999998093E+01 0.  1.
</event>
<event>
 5   0  0.2309055E-02  0.6041580E+03  0.7818609E-02  0.9896817E-01
        1   -1    0    0  501    0  0.00000000000E+00  0.00000000000E+00  0.46297239184E+03  0.46297239187E+03  0.50400001928E-02 0. -1.
       -1   -1    0    0    0  501  0.00000000000E+00  0.00000000000E+00 -0.19709969314E+03  0.19709969320E+03  0.50400001928E-02 0.  1.
    10030    2    1    2    0    0  0.00000000000E+00  0.00000000000E+00  0.26587269871E+03  0.66007208507E+03  0.60415798064E+03 0.  0.
        4    1    3    3  502    0  0.27654752817E+03 -0.10169017173E+03  0.60212660242E+02  0.30074341841E+03  0.12699999809E+01 0.  1.
       -4    1    3    3    0  502 -0.27654752817E+03  0.10169017173E+03  0.20566003846E+03  0.35932866666E+03  0.12699999809E+01 0. -1.
</event>
<event>
 5   0  0.3724066E-02  0.6002903E+03  0.7818609E-02  0.9904804E-01
       -2   -1    0    0    0  501  0.00000000000E+00  0.00000000000E+00  0.10047663536E+03  0.10047663540E+03  0.25500000920E-02 0. -1.
        2   -1    0    0  501    0  0.00000000000E+00  0.00000000000E+00 -0.89659774370E+03  0.89659774371E+03  0.25500000920E-02 0.  1.
    10030    2    1    2    0    0  0.00000000000E+00  0.00000000000E+00 -0.79612110834E+03  0.99707437910E+03  0.60029034501E+03 0.  0.
        4    1    3    3  502    0 -0.14421140886E+03  0.20534471239E+03 -0.12451598450E+03  0.28012358817E+03  0.12699999809E+01 0. -1.
       -4    1    3    3    0  502  0.14421140886E+03 -0.20534471239E+03 -0.67160512384E+03  0.71695079093E+03  0.12699999809E+01 0.  1.
</event>
<event>
 5   0  0.3934634E-02  0.5632402E+03  0.7818609E-02  0.9984750E-01
       -2   -1    0    0    0  501  0.00000000000E+00  0.00000000000E+00  0.37605371527E+02  0.37605371613E+02  0.25500000920E-02 0. -1.
        2   -1    0    0  501    0  0.00000000000E+00  0.00000000000E+00 -0.21090038063E+04  0.21090038063E+04  0.25500000920E-02 0.  1.
    10030    2    1    2    0    0  0.00000000000E+00  0.00000000000E+00 -0.20713984348E+04  0.21466091779E+04  0.56324016824E+03 0.  0.
        1    1    3    3  502    0  0.14737896468E+03 -0.20411388536E+03 -0.15166759786E+04  0.15374293680E+04  0.50400001928E-02 0.  1.
       -1    1    3    3    0  502 -0.14737896468E+03  0.20411388536E+03 -0.55472245614E+03  0.60917980990E+03  0.50400001928E-02 0. -1.
</event>
<event>
 5   0  0.2295179E-02  0.5925953E+03  0.7818609E-02  0.9920889E-01
       -1   -1    0    0    0  501  0.00000000000E+00  0.00000000000E+00  0.11359221015E+03  0.11359221026E+03  0.50400001928E-02 0. -1.
        1   -1    0    0  501    0  0.00000000000E+00  0.00000000000E+00 -0.77287264207E+03  0.77287264208E+03  0.50400001928E-02 0.  1.
    10030    2    1    2    0    0  0.00000000000E+00  0.00000000000E+00 -0.65928043192E+03  0.88646485235E+03  0.59259534806E+03 0.  0.
        3    1    3    3  502    0  0.24952666294E+03  0.15417817918E+03 -0.26692219664E+03  0.39658786632E+03  0.10100000352E+00 0. -1.
       -3    1    3    3    0  502 -0.24952666294E+03 -0.15417817918E+03 -0.39235823528E+03  0.48987698603E+03  0.10100000352E+00 0.  1.
</event>
<event>
 5   0  0.3832191E-02  0.6020356E+03  0.7818609E-02  0.9901192E-01
       -2   -1    0    0    0  501  0.00000000000E+00  0.00000000000E+00  0.15325099580E+03  0.15325099582E+03  0.25500000920E-02 0. -1.
        2   -1    0    0  501    0  0.00000000000E+00  0.00000000000E+00 -0.59126339168E+03  0.59126339168E+03  0.25500000920E-02 0.  1.
    10030    2    1    2    0    0  0.00000000000E+00  0.00000000000E+00 -0.43801239588E+03  0.74451438750E+03  0.60203555896E+03 0.  0.
        3    1    3    3  502    0  0.20894289264E+03 -0.20972776306E+03 -0.28638811322E+03  0.41189929422E+03  0.10100000352E+00 0.  1.
       -3    1    3    3    0  502 -0.20894289264E+03  0.20972776306E+03 -0.15162428266E+03  0.33261509328E+03  0.10100000352E+00 0. -1.
</event>
<event>
 5   0  0.2309055E-02  0.6006351E+03  0.7818609E-02  0.9904089E-01
       -1   -1    0    0    0  501  0.00000000000E+00  0.00000000000E+00  0.21973496785E+03  0.21973496791E+03  0.50400001928E-02 0. -1.
        1   -1    0    0  501    0  0.00000000000E+00  0.00000000000E+00 -0.41045191466E+03  0.41045191469E+03  0.50400001928E-02 0.  1.
    10030    2    1    2    0    0  0.00000000000E+00  0.00000000000E+00 -0.19071694680E+03  0.63018688260E+03  0.60063512485E+03 0.  0.
        4    1    3    3  502    0 -0.22053464353E+02 -0.92725087940E+02 -0.39415924846E+03  0.40552117487E+03  0.12699999809E+01 0.  1.
       -4    1    3    3    0  502  0.22053464353E+02  0.92725087940E+02  0.20344230166E+03  0.22466570772E+03  0.12699999809E+01 0. -1.
</event>
<event>
 5   0  0.3798925E-02  0.6028770E+03  0.7818609E-02  0.9899455E-01
       -2   -1    0    0    0  501  0.00000000000E+00  0.00000000000E+00  0.15323584995E+03  0.15323584997E+03  0.25500000920E-02 0. -1.
        2   -1    0    0  501    0  0.00000000000E+00  0.00000000000E+00 -0.59297585639E+03  0.59297585640E+03  0.25500000920E-02 0.  1.
    10030    2    1    2    0    0  0.00000000000E+00  0.00000000000E+00 -0.43974000644E+03  0.74621170637E+03  0.60287696710E+03 0.  0.
        2    1    3    3  502    0 -0.24117476155E+03  0.26945901018E+02  0.14550490948E+01  0.24267975681E+03  0.25500000920E-02 0. -1.
       -2    1    3    3    0  502  0.24117476155E+03 -0.26945901018E+02 -0.44119505553E+03  0.50353194956E+03  0.25500000920E-02 0.  1.
</event>
<event>
 5   0  0.2309055E-02  0.5987572E+03  0.7818609E-02  0.9907988E-01
        1   -1    0    0  501    0  0.00000000000E+00  0.00000000000E+00  0.59988705359E+03  0.59988705361E+03  0.50400001928E-02 0.  1.
       -1   -1    0    0    0  501  0.00000000000E+00  0.00000000000E+00 -0.14940739259E+03  0.14940739267E+03  0.50400001928E-02 0. -1.
    10030    2    1    2    0    0  0.00000000000E+00  0.00000000000E+00  0.45047966101E+03  0.74929444629E+03  0.59875724818E+03 0.  0.
        4    1    3    3  502    0  0.10438300390E+03 -0.60553084422E+01 -0.12581186607E+03  0.16359314413E+03  0.12699999809E+01 0. -1.
       -4    1    3    3    0  502 -0.10438300390E+03  0.60553084422E+01  0.57629152708E+03  0.58570130215E+03  0.12699999809E+01 0.  1.
</event>
<event>
 5   0  0.2309055E-02  0.6008631E+03  0.7818609E-02  0.9903617E-01
       -1   -1    0    0    0  501  0.00000000000E+00  0.00000000000E+00  0.46931932240E+02  0.46931932510E+02  0.50400001928E-02 0.  1.
        1   -1    0    0  501    0  0.00000000000E+00  0.00000000000E+00 -0.19231920057E+04  0.19231920057E+04  0.50400001928E-02 0. -1.
    10030    2    1    2    0    0  0.00000000000E+00  0.00000000000E+00 -0.18762600734E+04  0.19701239382E+04  0.60086310310E+03 0.  0.
        4    1    3    3  502    0 -0.79013944585E+01 -0.37248780418E+02  0.38979112535E+02  0.54505850980E+02  0.12699999809E+01 0.  1.
       -4    1    3    3    0  502  0.79013944585E+01  0.37248780418E+02 -0.19152391860E+04  0.19156180872E+04  0.12699999809E+01 0. -1.
</event>
<event>
 5   0  0.2225808E-02  0.5974799E+03  0.7818609E-02  0.9910648E-01
       -1   -1    0    0    0  501  0.00000000000E+00  0.00000000000E+00  0.11626045957E+03  0.11626045968E+03  0.50400001928E-02 0.  1.
        1   -1    0    0  501    0  0.00000000000E+00  0.00000000000E+00 -0.76763467456E+03  0.76763467458E+03  0.50400001928E-02 0. -1.
    10030    2    1    2    0    0  0.00000000000E+00  0.00000000000E+00 -0.65137421498E+03  0.88389513426E+03  0.59747990796E+03 0.  0.
        2    1    3    3  502    0 -0.10030364318E+03  0.24502428251E+03 -0.53039629540E+03  0.59280515351E+03  0.25500000920E-02 0. -1.
       -2    1    3    3    0  502  0.10030364318E+03 -0.24502428251E+03 -0.12097791959E+03  0.29108998075E+03  0.25500000920E-02 0.  1.
</event>
<event>
 5   0  0.3798925E-02  0.5966628E+03  0.7818609E-02  0.9912354E-01
        2   -1    0    0  501    0  0.00000000000E+00  0.00000000000E+00  0.34172183748E+03  0.34172183748E+03  0.25500000920E-02 0.  1.
       -2   -1    0    0    0  501  0.00000000000E+00  0.00000000000E+00 -0.26045053006E+03  0.26045053007E+03  0.25500000920E-02 0. -1.
    10030    2    1    2    0    0  0.00000000000E+00  0.00000000000E+00  0.81271307420E+02  0.60217236755E+03  0.59666283179E+03 0.  0.
        2    1    3    3  502    0 -0.74883732008E+02 -0.21047514094E+03  0.24018413276E+03  0.32801795059E+03  0.25500000920E-02 0.  1.
       -2    1    3    3    0  502  0.74883732008E+02  0.21047514094E+03 -0.15891282534E+03  0.27415441696E+03  0.25500000920E-02 0. -1.
</event>
<event>
 5   0  0.3934634E-02  0.6003643E+03  0.7818609E-02  0.9904650E-01
        2   -1    0    0  501    0  0.00000000000E+00  0.00000000000E+00  0.30721360494E+03  0.30721360495E+03  0.25500000920E-02 0.  1.
       -2   -1    0    0    0  501  0.00000000000E+00  0.00000000000E+00 -0.29331167764E+03  0.29331167765E+03  0.25500000920E-02 0. -1.
    10030    2    1    2    0    0  0.00000000000E+00  0.00000000000E+00  0.13901927300E+02  0.60052528261E+03  0.60036434893E+03 0.  0.
        1    1    3    3  502    0  0.85821493154E+02 -0.14907438457E+02 -0.28039208036E+03  0.29361076132E+03  0.50400001928E-02 0. -1.
       -1    1    3    3    0  502 -0.85821493154E+02  0.14907438457E+02  0.29429400766E+03  0.30691452129E+03  0.50400001928E-02 0.  1.
</event>
<event>
 5   0  0.1521750E-02  0.6014745E+03  0.7818609E-02  0.9902352E-01
        4   -1    0    0  501    0  0.00000000000E+00  0.00000000000E+00  0.11412608686E+03  0.11413315295E+03  0.12699999809E+01 0.  1.
       -4   -1    0    0    0  501  0.00000000000E+00  0.00000000000E+00 -0.79245018806E+03  0.79245120573E+03  0.12699999809E+01 0. -1.
    10030    2    1    2    0    0  0.00000000000E+00  0.00000000000E+00 -0.67832410120E+03  0.90658435867E+03  0.60147453239E+03 0.  0.
        2    1    3    3  502    0 -0.17819477661E+03 -0.31005793487E+02 -0.70130902193E+03  0.72425760741E+03  0.25500000920E-02 0. -1.
       -2    1    3    3    0  502  0.17819477661E+03  0.31005793487E+02  0.22984920728E+02  0.18232675127E+03  0.25500000920E-02 0.  1.
</event>
<event>
 5   0  0.3934634E-02  0.6054797E+03  0.7818609E-02  0.9894102E-01
        2   -1    0    0  501    0  0.00000000000E+00  0.00000000000E+00  0.62459949185E+03  0.62459949185E+03  0.25500000920E-02 0. -1.
       -2   -1    0    0    0  501  0.00000000000E+00  0.00000000000E+00 -0.14673628554E+03  0.14673628556E+03  0.25500000920E-02 0.  1.
    10030    2    1    2    0    0  0.00000000000E+00  0.00000000000E+00  0.47786320631E+03  0.77133577741E+03  0.60547967561E+03 0.  0.
        1    1    3    3  502    0 -0.86095448406E+02 -0.26029266187E+03  0.40250435099E+03  0.48700559407E+03  0.50400001928E-02 0. -1.
       -1    1    3    3    0  502  0.86095448406E+02  0.26029266187E+03  0.75358855316E+02  0.28433018334E+03  0.50400001928E-02 0.  1.
</event>
<event>
 5   0  0.2276105E-02  0.6011830E+03  0.7818609E-02  0.9902955E-01
        1   -1    0    0  501    0  0.00000000000E+00  0.00000000000E+00  0.76396609154E+03  0.76396609156E+03  0.50400001928E-02 0. -1.
       -1   -1    0    0    0  501  0.00000000000E+00  0.00000000000E+00 -0.11827128102E+03  0.11827128112E+03  0.50400001928E-02 0.  1.
    10030    2    1    2    0    0  0.00000000000E+00  0.00000000000E+00  0.64569481052E+03  0.88223737268E+03  0.60118299495E+03 0.  0.
        1    1    3    3  502    0  0.91057219966E+02 -0.24201393403E+03  0.97916669082E+02  0.27649563411E+03  0.50400001928E-02 0. -1.
       -1    1    3    3    0  502 -0.91057219966E+02  0.24201393403E+03  0.54777814144E+03  0.60574173857E+03  0.50400001928E-02 0.  1.
</event>
<event>
 5   0  0.3737642E-02  0.5972046E+03  0.7818609E-02  0.9911223E-01
       -2   -1    0    0    0  501  0.00000000000E+00  0.00000000000E+00  0.97812074401E+02  0.97812074434E+02  0.25500000920E-02 0.  1.
        2   -1    0    0  501    0  0.00000000000E+00  0.00000000000E+00 -0.91157791342E+03  0.91157791342E+03  0.25500000920E-02 0. -1.
    10030    2    1    2    0    0  0.00000000000E+00  0.00000000000E+00 -0.81376583901E+03  0.10093899879E+04  0.59720457703E+03 0.  0.
        5    1    3    3  502    0 -0.53863906989E+02  0.13679953913E+03  0.32325585777E+02  0.15060699810E+03  0.46999998093E+01 0.  1.
       -5    1    3    3    0  502  0.53863906989E+02 -0.13679953913E+03 -0.84609142479E+03  0.85878298975E+03  0.46999998093E+01 0. -1.
</event>
<event>
 5   0  0.2382531E-02  0.6001105E+03  0.7818609E-02  0.9905177E-01
       -1   -1    0    0    0  501  0.00000000000E+00  0.00000000000E+00  0.23179890408E+03  0.23179890413E+03  0.50400001928E-02 0.  1.
        1   -1    0    0  501    0  0.00000000000E+00  0.00000000000E+00 -0.38841057131E+03  0.38841057134E+03  0.50400001928E-02 0. -1.
    10030    2    1    2    0    0  0.00000000000E+00  0.00000000000E+00 -0.15661166723E+03  0.62020947547E+03  0.60011047246E+03 0.  0.
        5    1    3    3  502    0  0.69427571862E+02 -0.86382288728E+02  0.20983090764E+03  0.23734613403E+03  0.46999998093E+01 0.  1.
       -5    1    3    3    0  502 -0.69427571862E+02  0.86382288728E+02 -0.36644257487E+03  0.38286334144E+03  0.46999998093E+01 0. -1.
</event>
<event>
 5   0  0.3724066E-02  0.6021461E+03  0.7818609E-02  0.9900964E-01
       -2   -1    0    0    0  501  0.00000000000E+00  0.00000000000E+00  0.12189194306E+03  0.12189194309E+03  0.25500000920E-02 0. -1.
        2   -1    0    0  501    0  0.00000000000E+00  0.00000000000E+00 -0.74365037344E+03  0.74365037344E+03  0.25500000920E-02 0.  1.
    10030    2    1    2    0    0  0.00000000000E+00  0.00000000000E+00 -0.62175843037E+03  0.86554231653E+03  0.60214612509E+03 0.  0.
        4    1    3    3  502    0  0.16241833726E+03 -0.76775027577E+02  0.36399754571E+02  0.18330487220E+03  0.12699999809E+01 0. -1.
       -4    1    3    3    0  502 -0.16241833726E+03  0.76775027577E+02 -0.65815818495E+03  0.68223744433E+03  0.12699999809E+01 0.  1.
</event>
<event>
 5   0  0.3724066E-02  0.5936848E+03  0.7818609E-02  0.9918595E-01
       -2   -1    0    0    0  501  0.00000000000E+00  0.00000000000E+00  0.77770392396E+02  0.77770392438E+02  0.25500000920E-02 0.  1.
        2   -1    0    0  501    0  0.00000000000E+00  0.00000000000E+00 -0.11330198930E+04  0.11330198930E+04  0.25500000920E-02 0. -1.
    10030    2    1    2    0    0  0.00000000000E+00  0.00000000000E+00 -0.10552495006E+04  0.12107902854E+04  0.59368477055E+03 0.  0.
        4    1    3    3  502    0  0.13758707772E+03  0.25461601321E+03 -0.66220171530E+03  0.72268405461E+03  0.12699999809E+01 0.  1.
       -4    1    3    3    0  502 -0.13758707772E+03 -0.25461601321E+03 -0.39304778528E+03  0.48810623081E+03  0.12699999809E+01 0. -1.
</event>
<event>
 5   0  0.1521750E-02  0.6000781E+03  0.7818609E-02  0.9905244E-01
       -4   -1    0    0    0  501  0.00000000000E+00  0.00000000000E+00  0.27470954564E+03  0.27471248127E+03  0.12699999809E+01 0. -1.
        4   -1    0    0  501    0  0.00000000000E+00  0.00000000000E+00 -0.32769813667E+03  0.32770059762E+03  0.12699999809E+01 0.  1.
    10030    2    1    2    0    0  0.00000000000E+00  0.00000000000E+00 -0.52988591036E+02  0.60241307888E+03  0.60007810061E+03 0.  0.
        5    1    3    3  502    0 -0.19810737266E+03  0.21951720215E+03 -0.77357096554E+02  0.30568045984E+03  0.46999998093E+01 0.  1.
       -5    1    3    3    0  502  0.19810737266E+03 -0.21951720215E+03  0.24368505518E+02  0.29673261904E+03  0.46999998093E+01 0. -1.
</event>
<event>
 5   0  0.1521750E-02  0.5941134E+03  0.7818609E-02  0.9917695E-01
        3   -1    0    0  501    0  0.00000000000E+00  0.00000000000E+00  0.37322796389E+03  0.37322797756E+03  0.10100000352E+00 0. -1.
       -3   -1    0    0    0  501  0.00000000000E+00  0.00000000000E+00 -0.23643102556E+03  0.23643104713E+03  0.10100000352E+00 0.  1.
    10030    2    1    2    0    0  0.00000000000E+00  0.00000000000E+00  0.13679693833E+03  0.60965902469E+03  0.59411339326E+03 0.  0.
        3    1    3    3  502    0 -0.19620887866E+03  0.61276742764E+02  0.28846243352E+03  0.35420805894E+03  0.10100000352E+00 0. -1.
       -3    1    3    3    0  502  0.19620887866E+03 -0.61276742764E+02 -0.15166549519E+03  0.25545096575E+03  0.10100000352E+00 0.  1.
</event>
<event>
 5   0  0.2276105E-02  0.5993135E+03  0.7818609E-02  0.9906831E-01
        1   -1    0    0  501    0  0.00000000000E+00  0.00000000000E+00  0.54316397677E+03  0.54316397679E+03  0.50400001928E-02 0.  1.
       -1   -1    0    0    0  501  0.00000000000E+00  0.00000000000E+00 -0.16531689042E+03  0.16531689050E+03  0.50400001928E-02 0. -1.
    10030    2    1    2    0    0  0.00000000000E+00  0.00000000000E+00  0.37784708635E+03  0.70848086729E+03  0.59931353952E+03 0.  0.
        1    1    3    3  502    0 -0.14314578070E+03  0.24467519556E+03  0.30376609571E+03  0.41548827514E+03  0.50400001928E-02 0. -1.
       -1    1    3    3    0  502  0.14314578070E+03 -0.24467519556E+03  0.74080990639E+02  0.29299259215E+03  0.50400001928E-02 0.  1.
</event>
<event>
 5   0  0.2382531E-02  0.6029192E+03  0.7818609E-02  0.9899368E-01
       -1   -1    0    0    0  501  0.00000000000E+00  0.00000000000E+00  0.16692563914E+03  0.16692563922E+03  0.50400001928E-02 0. -1.
        1   -1    0    0  501    0  0.00000000000E+00  0.00000000000E+00 -0.54442142193E+03  0.54442142196E+03  0.50400001928E-02 0.  1.
    10030    2    1    2    0    0  0.00000000000E+00  0.00000000000E+00 -0.37749578279E+03  0.71134706118E+03  0.60291921135E+03 0.  0.
        5    1    3    3  502    0 -0.13441997896E+03  0.22454113567E+03 -0.12290681250E+02  0.26203168358E+03  0.46999998093E+01 0. -1.
       -5    1    3    3    0  502  0.13441997896E+03 -0.22454113567E+03 -0.36520510154E+03  0.44931537760E+03  0.46999998093E+01 0.  1.
</event>
<event>
 5   0  0.3724066E-02  0.5979293E+03  0.7818609E-02  0.9909712E-01
        2   -1    0    0  501    0  0.00000000000E+00  0.00000000000E+00  0.41026388101E+03  0.41026388102E+03  0.25500000920E-02 0.  1.
       -2   -1    0    0    0  501  0.00000000000E+00  0.00000000000E+00 -0.21785941432E+03  0.21785941433E+03  0.25500000920E-02 0. -1.
    10030    2    1    2    0    0  0.00000000000E+00  0.00000000000E+00  0.19240446670E+03  0.62812329535E+03  0.59792925615E+03 0.  0.
        4    1    3    3  502    0  0.14888181264E+03  0.19308099071E+03  0.27794796453E+03  0.36973334580E+03  0.12699999809E+01 0.  1.
       -4    1    3    3    0  502 -0.14888181264E+03 -0.19308099071E+03 -0.85543497835E+02  0.25838994955E+03  0.12699999809E+01 0. -1.
</event>
<event>
 5   0  0.3737642E-02  0.5881840E+03  0.7818609E-02  0.9930228E-01
        2   -1    0    0  501    0  0.00000000000E+00  0.00000000000E+00  0.21804420745E+03  0.21804420746E+03  0.25500000920E-02 0. -1.
       -2   -1    0    0    0  501  0.00000000000E+00  0.00000000000E+00 -0.39666320418E+03  0.39666320419E+03  0.25500000920E-02 0.  1.
    10030    2    1    2    0    0  0.00000000000E+00  0.00000000000E+00 -0.17861899673E+03  0.61470741165E+03  0.58818403238E+03 0.  0.
        5    1    3    3  502    0 -0.21904712584E+03  0.59417129708E+02 -0.28470564437E+03  0.36413106511E+03  0.46999998093E+01 0.  1.
       -5    1    3    3    0  502  0.21904712584E+03 -0.59417129708E+02  0.10608664764E+03  0.25057634654E+03  0.46999998093E+01 0. -1.
</event>
<event>
 5   0  0.3934634E-02  0.5995726E+03  0.7818609E-02  0.9906293E-01
       -2   -1    0    0    0  501  0.00000000000E+00  0.00000000000E+00  0.11396662720E+03  0.11396662723E+03  0.25500000920E-02 0. -1.
        2   -1    0    0  501    0  0.00000000000E+00  0.00000000000E+00 -0.78858029804E+03  0.78858029804E+03  0.25500000920E-02 0.  1.
    10030    2    1    2    0    0  0.00000000000E+00  0.00000000000E+00 -0.67461367084E+03  0.90254692528E+03  0.59957263734E+03 0.  0.
        1    1    3    3  502    0 -0.26701471840E+03  0.12770255422E+03 -0.26563359095E+03  0.39770090126E+03  0.50400001928E-02 0.  1.
       -1    1    3    3    0  502  0.26701471840E+03 -0.12770255422E+03 -0.40898007988E+03  0.50484602401E+03  0.50400001928E-02 0. -1.
</event>
<event>
 5   0  0.3934634E-02  0.5962477E+03  0.7818609E-02  0.9913222E-01
       -2   -1    0    0    0  501  0.00000000000E+00  0.00000000000E+00  0.16983859064E+03  0.16983859066E+03  0.25500000920E-02 0.  1.
        2   -1    0    0  501    0  0.00000000000E+00  0.00000000000E+00 -0.52330762024E+03  0.52330762025E+03  0.25500000920E-02 0. -1.
    10030    2    1    2    0    0  0.00000000000E+00  0.00000000000E+00 -0.35346902961E+03  0.69314621091E+03  0.59624769585E+03 0.  0.
        1    1    3    3  502    0  0.17551948146E+03  0.21857111727E+03 -0.29470193416E+03  0.40673044107E+03  0.50400001928E-02 0. -1.
       -1    1    3    3    0  502 -0.17551948146E+03 -0.21857111727E+03 -0.58767095450E+02  0.28641576983E+03  0.50400001928E-02 0.  1.
</event>
<event>
 5   0  0.2382531E-02  0.6051075E+03  0.7818609E-02  0.9894866E-01
        1   -1    0    0  501    0  0.00000000000E+00  0.00000000000E+00  0.88957259000E+03  0.88957259001E+03  0.50400001928E-02 0.  1.
       -1   -1    0    0    0  501  0.00000000000E+00  0.00000000000E+00 -0.10290195665E+03  0.10290195678E+03  0.50400001928E-02 0. -1.
    10030    2    1    2    0    0  0.00000000000E+00  0.00000000000E+00  0.78667063334E+03  0.99247454679E+03  0.60510746207E+03 0.  0.
        5    1    3    3  502    0  0.96732641812E+02 -0.28452930387E+03  0.45021234390E+03  0.54132002859E+03  0.46999998093E+01 0. -1.
       -5    1    3    3    0  502 -0.96732641812E+02  0.28452930387E+03  0.33645828945E+03  0.45115451820E+03  0.46999998093E+01 0.  1.
</event>
<event>
 5   0  0.2382531E-02  0.5930674E+03  0.7818609E-02  0.9919894E-01
        1   -1    0    0  501    0  0.00000000000E+00  0.00000000000E+00  0.43341586162E+03  0.43341586165E+03  0.50400001928E-02 0. -1.
       -1   -1    0    0    0  501  0.00000000000E+00  0.00000000000E+00 -0.20288190518E+03  0.20288190524E+03  0.50400001928E-02 0.  1.
    10030    2    1    2    0    0  0.00000000000E+00  0.00000000000E+00  0.23053395644E+03  0.63629776689E+03  0.59306740180E+03 0.  0.
        5    1    3    3  502    0 -0.10257989070E+03 -0.10315057147E+03 -0.16192059391E+03  0.21772239917E+03  0.46999998093E+01 0.  1.
       -5    1    3    3    0  502  0.10257989070E+03  0.10315057147E+03  0.39245455035E+03  0.41857536772E+03  0.46999998093E+01 0. -1.
</event>
<event>
 5   0  0.3724066E-02  0.6006832E+03  0.7818609E-02  0.9903990E-01
        2   -1    0    0  501    0  0.00000000000E+00  0.00000000000E+00  0.12389711133E+04  0.12389711133E+04  0.25500000920E-02 0. -1.
       -2   -1    0    0    0  501  0.00000000000E+00  0.00000000000E+00 -0.72806449418E+02  0.72806449462E+02  0.25500000920E-02 0.  1.
    10030    2    1    2    0    0  0.00000000000E+00  0.00000000000E+00  0.11661646639E+04  0.13117775628E+04  0.60068323674E+03 0.  0.
        4    1    3    3  502    0  0.32219923865E+02  0.27411535750E+03  0.32444959612E+03  0.42596538126E+03  0.12699999809E+01 0.  1.
       -4    1    3    3    0  502 -0.32219923865E+02 -0.27411535750E+03  0.84171506779E+03  0.88581218153E+03  0.12699999809E+01 0. -1.
</event>
<event>
 5   0  0.2309055E-02  0.5979875E+03  0.7818609E-02  0.9909590E-01
       -1   -1    0    0    0  501  0.00000000000E+00  0.00000000000E+00  0.12271437335E+03  0.12271437345E+03  0.50400001928E-02 0.  1.
        1   -1    0    0  501    0  0.00000000000E+00  0.00000000000E+00 -0.72849867305E+03  0.72849867306E+03  0.50400001928E-02 0. -1.
    10030    2    1    2    0    0  0.00000000000E+00  0.00000000000E+00 -0.60578429970E+03  0.85121304652E+03  0.59798748549E+03 0.  0.
        4    1    3    3  502    0  0.28658494808E+03  0.64857221965E+02 -0.38161175797E+03  0.48162904650E+03  0.12699999809E+01 0. -1.
       -4    1    3    3    0  502 -0.28658494808E+03 -0.64857221965E+02 -0.22417254172E+03  0.36958400002E+03  0.12699999809E+01 0.  1.
</event>
<event>
 5   0  0.3724066E-02  0.6289257E+03  0.7818609E-02  0.9847147E-01
        2   -1    0    0  501    0  0.00000000000E+00  0.00000000000E+00  0.80214456659E+02  0.80214456699E+02  0.25500000920E-02 0.  1.
       -2   -1    0    0    0  501  0.00000000000E+00  0.00000000000E+00 -0.12327812997E+04  0.12327812997E+04  0.25500000920E-02 0. -1.
    10030    2    1    2    0    0  0.00000000000E+00  0.00000000000E+00 -0.11525668430E+04  0.13129957564E+04  0.62892569405E+03 0.  0.
        4    1    3    3  502    0 -0.27245403812E+03 -0.10315127570E+03 -0.82342350703E+03  0.87344105319E+03  0.12699999809E+01 0. -1.
       -4    1    3    3    0  502  0.27245403812E+03  0.10315127570E+03 -0.32914333598E+03  0.43955470318E+03  0.12699999809E+01 0.  1.
</event>
<event>
 5   0  0.2295179E-02  0.5622653E+03  0.7818609E-02  0.9986942E-01
       -1   -1    0    0    0  501  0.00000000000E+00  0.00000000000E+00  0.32742896707E+03  0.32742896711E+03  0.50400001928E-02 0. -1.
        1   -1    0    0  501    0  0.00000000000E+00  0.00000000000E+00 -0.24138234542E+03  0.24138234548E+03  0.50400001928E-02 0.  1.
    10030    2    1    2    0    0  0.00000000000E+00  0.00000000000E+00  0.86046621643E+02  0.56881131258E+03  0.56226531835E+03 0.  0.
        3    1    3    3  502    0  0.62964003414E+01  0.26065332251E+03 -0.63347209191E+02  0.26831451379E+03  0.10100000352E+00 0.  1.
       -3    1    3    3    0  502 -0.62964003414E+01 -0.26065332251E+03  0.14939383083E+03  0.30049679880E+03  0.10100000352E+00 0. -1.
</event>
<event>
 5   0  0.2309055E-02  0.6011372E+03  0.7818609E-02  0.9903049E-01
       -1   -1    0    0    0  501  0.00000000000E+00  0.00000000000E+00  0.90521529390E+02  0.90521529531E+02  0.50400001928E-02 0.  1.
        1   -1    0    0  501    0  0.00000000000E+00  0.00000000000E+00 -0.99801117871E+03  0.99801117872E+03  0.50400001928E-02 0. -1.
    10030    2    1    2    0    0  0.00000000000E+00  0.00000000000E+00 -0.90748964932E+03  0.10885327083E+04  0.60113724998E+03 0.  0.
        4    1    3    3  502    0  0.28337479787E+02  0.28944006608E+03 -0.31629984771E+03  0.42968101095E+03  0.12699999809E+01 0.  1.
       -4    1    3    3    0  502 -0.28337479787E+02 -0.28944006608E+03 -0.59118980161E+03  0.65885169731E+03  0.12699999809E+01 0. -1.
</event>
<event>
 5   0  0.2225808E-02  0.6310182E+03  0.7818609E-02  0.9843064E-01
       -1   -1    0    0    0  501  0.00000000000E+00  0.00000000000E+00  0.64980095141E+03  0.64980095143E+03  0.50400001928E-02 0. -1.
        1   -1    0    0  501    0  0.00000000000E+00  0.00000000000E+00 -0.15319458937E+03  0.15319458945E+03  0.50400001928E-02 0.  1.
    10030    2    1    2    0    0  0.00000000000E+00  0.00000000000E+00  0.49660636204E+03  0.80299554088E+03  0.63101819297E+03 0.  0.
        2    1    3    3  502    0 -0.29781268482E+03  0.92198125965E+02  0.18657386408E+03  0.36332175332E+03  0.25500000920E-02 0.  1.
       -2    1    3    3    0  502  0.29781268482E+03 -0.92198125965E+02  0.31003249796E+03  0.43967378756E+03  0.25500000920E-02 0. -1.
</event>
<event>
 5   0  0.3934634E-02  0.5841379E+03  0.7818609E-02  0.9938873E-01
       -2   -1    0    0    0  501  0.00000000000E+00  0.00000000000E+00  0.53380577541E+03  0.53380577542E+03  0.25500000920E-02 0.  1.
        2   -1    0    0  501    0  0.00000000000E+00  0.00000000000E+00 -0.15980392665E+03  0.15980392667E+03  0.25500000920E-02 0. -1.
    10030    2    1    2    0    0  0.00000000000E+00  0.00000000000E+00  0.37400184877E+03  0.69360970208E+03  0.58413785697E+03 0.  0.
        1    1    3    3  502    0 -0.59488486012E+02 -0.39178145545E+02 -0.14933203257E+03  0.16545048514E+03  0.50400001928E-02 0. -1.
       -1    1    3    3    0  502  0.59488486012E+02  0.39178145545E+02  0.52333388134E+03  0.52815921694E+03  0.50400001928E-02 0.  1.
</event>
<event>
 5   0  0.2276105E-02  0.6033395E+03  0.7818609E-02  0.9898502E-01
       -1   -1    0    0    0  501  0.00000000000E+00  0.00000000000E+00  0.37047460616E+03  0.37047460619E+03  0.50400001928E-02 0. -1.
        1   -1    0    0  501    0  0.00000000000E+00  0.00000000000E+00 -0.24564338968E+03  0.24564338973E+03  0.50400001928E-02 0.  1.
    10030    2    1    2    0    0  0.00000000000E+00  0.00000000000E+00  0.12483121648E+03  0.61611799592E+03  0.60333950002E+03 0.  0.
        1    1    3    3  502    0  0.14955062095E+03  0.26198625832E+03  0.64014095618E+02  0.30838286632E+03  0.50400001928E-02 0.  1.
       -1    1    3    3    0  502 -0.14955062095E+03 -0.26198625832E+03  0.60817120861E+02  0.30773512960E+03  0.50400001928E-02 0. -1.
</event>
<event>
 5   0  0.3934634E-02  0.6058525E+03  0.7818609E-02  0.9893338E-01
        2   -1    0    0  501    0  0.00000000000E+00  0.00000000000E+00  0.18651604212E+04  0.18651604212E+04  0.25500000920E-02 0.  1.
       -2   -1    0    0    0  501  0.00000000000E+00  0.00000000000E+00 -0.49199151445E+02  0.49199151511E+02  0.25500000920E-02 0. -1.
    10030    2    1    2    0    0  0.00000000000E+00  0.00000000000E+00  0.18159612698E+04  0.19143595727E+04  0.60585249061E+03 0.  0.
        1    1    3    3  502    0  0.10527445222E+03  0.24564778952E+03  0.13586093760E+04  0.13846461582E+04  0.50400001928E-02 0.  1.
       -1    1    3    3    0  502 -0.10527445222E+03 -0.24564778952E+03  0.45735189376E+03  0.52971341454E+03  0.50400001928E-02 0. -1.
</event>
<event>
 5   0  0.3798925E-02  0.6014779E+03  0.7818609E-02  0.9902345E-01
       -2   -1    0    0    0  501  0.00000000000E+00  0.00000000000E+00  0.96613828286E+02  0.96613828320E+02  0.25500000920E-02 0. -1.
        2   -1    0    0  501    0  0.00000000000E+00  0.00000000000E+00 -0.93613832341E+03  0.93613832342E+03  0.25500000920E-02 0.  1.
    10030    2    1    2    0    0  0.00000000000E+00  0.00000000000E+00 -0.83952449513E+03  0.10327521517E+04  0.60147787075E+03 0.  0.
        2    1    3    3  502    0  0.20530001376E+03 -0.54219550284E+02 -0.54088252173E+02  0.21911958907E+03  0.25500000920E-02 0. -1.
       -2    1    3    3    0  502 -0.20530001376E+03  0.54219550284E+02 -0.78543624295E+03  0.81363256267E+03  0.25500000920E-02 0.  1.
</event>
<event>
 5   0  0.3724066E-02  0.6025508E+03  0.7818609E-02  0.9900128E-01
       -2   -1    0    0    0  501  0.00000000000E+00  0.00000000000E+00  0.53418224300E+02  0.53418224361E+02  0.25500000920E-02 0. -1.
        2   -1    0    0  501    0  0.00000000000E+00  0.00000000000E+00 -0.16991743483E+04  0.16991743483E+04  0.25500000920E-02 0.  1.
    10030    2    1    2    0    0  0.00000000000E+00  0.00000000000E+00 -0.16457561240E+04  0.17525925727E+04  0.60255083277E+03 0.  0.
        4    1    3    3  502    0  0.14484900498E+03 -0.13681297037E+03 -0.16559230872E+03  0.25907807455E+03  0.12699999809E+01 0. -1.
       -4    1    3    3    0  502 -0.14484900498E+03  0.13681297037E+03 -0.14801638153E+04  0.14935144981E+04  0.12699999809E+01 0.  1.
</event>
<event>
 5   0  0.2225808E-02  0.6042856E+03  0.7818609E-02  0.9896555E-01
       -1   -1    0    0    0  501  0.00000000000E+00  0.00000000000E+00  0.56463540283E+02  0.56463540508E+02  0.50400001928E-02 0.  1.
        1   -1    0    0  501    0  0.00000000000E+00  0.00000000000E+00 -0.16168001800E+04  0.16168001800E+04  0.50400001928E-02 0. -1.
    10030    2    1    2    0    0  0.00000000000E+00  0.00000000000E+00 -0.15603366397E+04  0.16732637205E+04  0.60428556920E+03 0.  0.
        2    1    3    3  502    0 -0.94806468556E+02  0.23443978819E+03 -0.12380162762E+04  0.12635800651E+04  0.25500000920E-02 0. -1.
       -2    1    3    3    0  502  0.94806468556E+02 -0.23443978819E+03 -0.32232036347E+03  0.40968365537E+03  0.25500000920E-02 0.  1.
</event>
<event>
 5   0  0.2276105E-02  0.6011902E+03  0.7818609E-02  0.9902940E-01
       -1   -1    0    0    0  501  0.00000000000E+00  0.00000000000E+00  0.56966088067E+02  0.56966088290E+02  0.50400001928E-02 0.  1.
        1   -1    0    0  501    0  0.00000000000E+00  0.00000000000E+00 -0.15861614725E+04  0.15861614725E+04  0.50400001928E-02 0. -1.
    10030    2    1    2    0    0  0.00000000000E+00  0.00000000000E+00 -0.15291953844E+04  0.16431275608E+04  0.60119020059E+03 0.  0.
        1    1    3    3  502    0  0.30956298027E+01 -0.30014356121E+03 -0.80880964559E+03  0.86271013851E+03  0.50400001928E-02 0. -1.
       -1    1    3    3    0  502 -0.30956298027E+01  0.30014356121E+03 -0.72038573884E+03  0.78041742229E+03  0.50400001928E-02 0.  1.
</event>
<event>
 5   0  0.3724066E-02  0.5948443E+03  0.7818609E-02  0.9916161E-01
        2   -1    0    0  501    0  0.00000000000E+00  0.00000000000E+00  0.12677303002E+04  0.12677303002E+04  0.25500000920E-02 0. -1.
       -2   -1    0    0    0  501  0.00000000000E+00  0.00000000000E+00 -0.69778191383E+02  0.69778191429E+02  0.25500000920E-02 0.  1.
    10030    2    1    2    0    0  0.00000000000E+00  0.00000000000E+00  0.11979521089E+04  0.13375084917E+04  0.59484427389E+03 0.  0.
        4    1    3    3  502    0  0.19389067835E+02 -0.64965310995E+01 -0.68189642115E+02  0.71200990580E+02  0.12699999809E+01 0.  1.
       -4    1    3    3    0  502 -0.19389067835E+02  0.64965310995E+01  0.12661417510E+04  0.12663075011E+04  0.12699999809E+01 0. -1.
</event>
<event>
 5   0  0.3737642E-02  0.6007822E+03  0.7818609E-02  0.9903784E-01
       -2   -1    0    0    0  501  0.00000000000E+00  0.00000000000E+00  0.79925129454E+02  0.79925129494E+02  0.25500000920E-02 0.  1.
        2   -1    0    0  501    0  0.00000000000E+00  0.00000000000E+00 -0.11289919343E+04  0.11289919343E+04  0.25500000920E-02 0. -1.
    10030    2    1    2    0    0  0.00000000000E+00  0.00000000000E+00 -0.10490668049E+04  0.12089170638E+04  0.60078224518E+03 0.  0.
        5    1    3    3  502    0 -0.55422411134E+02 -0.23300990634E+03 -0.88922891786E+03  0.92093182075E+03  0.46999998093E+01 0. -1.
       -5    1    3    3    0  502  0.55422411134E+02  0.23300990634E+03 -0.15983788702E+03  0.28798524308E+03  0.46999998093E+01 0.  1.
</event>
<event>
 5   0  0.1521750E-02  0.5937104E+03  0.7818609E-02  0.9918542E-01
        4   -1    0    0  501    0  0.00000000000E+00  0.00000000000E+00  0.42446771793E+03  0.42446961784E+03  0.12699999809E+01 0. -1.
       -4   -1    0    0    0  501  0.00000000000E+00  0.00000000000E+00 -0.20760396805E+03  0.20760785258E+03  0.12699999809E+01 0.  1.
    10030    2    1    2    0    0  0.00000000000E+00  0.00000000000E+00  0.21686374988E+03  0.63207747042E+03  0.59371040297E+03 0.  0.
        3    1    3    3  502    0  0.80118663489E+02 -0.73011828803E+02 -0.18578417038E+03  0.21509415508E+03  0.10100000352E+00 0.  1.
       -3    1    3    3    0  502 -0.80118663489E+02  0.73011828803E+02  0.40264792026E+03  0.41698331534E+03  0.10100000352E+00 0. -1.
</event>
<event>
 5   0  0.1521750E-02  0.5999328E+03  0.7818609E-02  0.9905545E-01
       -3   -1    0    0    0  501  0.00000000000E+00  0.00000000000E+00  0.70953239039E+02  0.70953310925E+02  0.10100000352E+00 0.  1.
        3   -1    0    0  501    0  0.00000000000E+00  0.00000000000E+00 -0.12681563345E+04  0.12681563385E+04  0.10100000352E+00 0. -1.
    10030    2    1    2    0    0  0.00000000000E+00  0.00000000000E+00 -0.11972030955E+04  0.13391096494E+04  0.59993283079E+03 0.  0.
        2    1    3    3  502    0 -0.28106431363E+03 -0.83952669775E+02 -0.73861398963E+03  0.79473003268E+03  0.25500000920E-02 0. -1.
       -2    1    3    3    0  502  0.28106431363E+03  0.83952669775E+02 -0.45858910582E+03  0.54437961676E+03  0.25500000920E-02 0.  1.
</event>
<event>
 5   0  0.2295179E-02  0.5986110E+03  0.7818609E-02  0.9908292E-01
       -1   -1    0    0    0  501  0.00000000000E+00  0.00000000000E+00  0.10357750503E+04  0.10357750504E+04  0.50400001928E-02 0. -1.
        1   -1    0    0  501    0  0.00000000000E+00  0.00000000000E+00 -0.86489607378E+02  0.86489607525E+02  0.50400001928E-02 0.  1.
    10030    2    1    2    0    0  0.00000000000E+00  0.00000000000E+00  0.94928544297E+03  0.11222646579E+04  0.59861098395E+03 0.  0.
        3    1    3    3  502    0 -0.18178948985E+03  0.22447567788E+03  0.62163105754E+03  0.68546475510E+03  0.10100000352E+00 0. -1.
       -3    1    3    3    0  502  0.18178948985E+03 -0.22447567788E+03  0.32765438543E+03  0.43679990278E+03  0.10100000352E+00 0.  1.
</event>
<event>
 5   0  0.3798925E-02  0.6037684E+03  0.7818609E-02  0.9897619E-01
        2   -1    0    0  501    0  0.00000000000E+00  0.00000000000E+00  0.58330873548E+03  0.58330873548E+03  0.25500000920E-02 0.  1.
       -2   -1    0    0    0  501  0.00000000000E+00  0.00000000000E+00 -0.15623640201E+03  0.15623640204E+03  0.25500000920E-02 0. -1.
    10030    2    1    2    0    0  0.00000000000E+00  0.00000000000E+00  0.42707233346E+03  0.73954513752E+03  0.60376835990E+03 0.  0.
        2    1    3    3  502    0  0.50561097669E+02 -0.27182600982E+03  0.65086433693E+02  0.28404585558E+03  0.25500000920E-02 0. -1.
       -2    1    3    3    0  502 -0.50561097669E+02  0.27182600982E+03  0.36198589977E+03  0.45549928194E+03  0.25500000920E-02 0.  1.
</event>
<event>
 5   0  0.3724066E-02  0.5977355E+03  0.7818609E-02  0.9910115E-01
        2   -1    0    0  501    0  0.00000000000E+00  0.00000000000E+00  0.22815037173E+03  0.22815037174E+03  0.25500000920E-02 0. -1.
       -2   -1    0    0    0  501  0.00000000000E+00  0.00000000000E+00 -0.39150467329E+03  0.39150467330E+03  0.25500000920E-02 0.  1.
    10030    2    1    2    0    0  0.00000000000E+00  0.00000000000E+00 -0.16335430156E+03  0.61965504504E+03  0.59773551593E+03 0.  0.
        4    1    3    3  502    0  0.29580761039E+03 -0.41279533880E+02 -0.92754578798E+02  0.31274776908E+03  0.12699999809E+01 0.  1.
       -4    1    3    3    0  502 -0.29580761039E+03  0.41279533880E+02 -0.70599722762E+02  0.30690727595E+03  0.12699999809E+01 0. -1.
</event>
<event>
 5   0  0.2276105E-02  0.5984581E+03  0.7818609E-02  0.9908610E-01
       -1   -1    0    0    0  501  0.00000000000E+00  0.00000000000E+00  0.14923427212E+03  0.14923427221E+03  0.50400001928E-02 0. -1.
        1   -1    0    0  501    0  0.00000000000E+00  0.00000000000E+00 -0.59998295031E+03  0.59998295033E+03  0.50400001928E-02 0.  1.
    10030    2    1    2    0    0  0.00000000000E+00  0.00000000000E+00 -0.45074867819E+03  0.74921722254E+03  0.59845808179E+03 0.  0.
        1    1    3    3  502    0  0.10975296793E+03  0.23060504990E+02  0.12192823890E+03  0.16566229603E+03  0.50400001928E-02 0. -1.
       -1    1    3    3    0  502 -0.10975296793E+03 -0.23060504990E+02 -0.57267691709E+03  0.58355492651E+03  0.50400001928E-02 0.  1.
</event>
<event>
 5   0  0.2276105E-02  0.5970258E+03  0.7818609E-02  0.9911596E-01
        1   -1    0    0  501    0  0.00000000000E+00  0.00000000000E+00  0.11828963345E+04  0.11828963345E+04  0.50400001928E-02 0.  1.
       -1   -1    0    0    0  501  0.00000000000E+00  0.00000000000E+00 -0.75331997465E+02  0.75331997634E+02  0.50400001928E-02 0. -1.
    10030    2    1    2    0    0  0.00000000000E+00  0.00000000000E+00  0.11075643371E+04  0.12582283322E+04  0.59702577427E+03 0.  0.
        1    1    3    3  502    0 -0.12048438108E+03  0.24996761698E+03  0.78569893215E+03  0.83326052806E+03  0.50400001928E-02 0.  1.
       -1    1    3    3    0  502  0.12048438108E+03 -0.24996761698E+03  0.32186540492E+03  0.42496780411E+03  0.50400001928E-02 0. -1.
</event>
<event>
 5   0  0.3832191E-02  0.6019481E+03  0.7818609E-02  0.9901373E-01
       -2   -1    0    0    0  501  0.00000000000E+00  0.00000000000E+00  0.87580777031E+02  0.87580777068E+02  0.25500000920E-02 0. -1.
        2   -1    0    0  501    0  0.00000000000E+00  0.00000000000E+00 -0.10343066907E+04  0.10343066907E+04  0.25500000920E-02 0.  1.
    10030    2    1    2    0    0  0.00000000000E+00  0.00000000000E+00 -0.94672591366E+03  0.11218874678E+04  0.60194811631E+03 0.  0.
        3    1    3    3  502    0 -0.15576196188E+03  0.15911450729E+03 -0.85077415224E+03  0.87942929422E+03  0.10100000352E+00 0.  1.
       -3    1    3    3    0  502  0.15576196188E+03 -0.15911450729E+03 -0.95951761415E+02  0.24245817354E+03  0.10100000352E+00 0. -1.
</event>
<event>
 5   0  0.2309055E-02  0.6021546E+03  0.7818609E-02  0.9900946E-01
        1   -1    0    0  501    0  0.00000000000E+00  0.00000000000E+00  0.51408441394E+03  0.51408441396E+03  0.50400001928E-02 0.  1.
       -1   -1    0    0    0  501  0.00000000000E+00  0.00000000000E+00 -0.17632811012E+03  0.17632811019E+03  0.50400001928E-02 0. -1.
    10030    2    1    2    0    0  0.00000000000E+00  0.00000000000E+00  0.33775630381E+03  0.69041252415E+03  0.60215457546E+03 0.  0.
        4    1    3    3  502    0 -0.73571573225E+02 -0.29186181936E+03  0.16078509563E+03  0.34124706279E+03  0.12699999809E+01 0. -1.
       -4    1    3    3    0  502  0.73571573225E+02  0.29186181936E+03  0.17697120819E+03  0.34916546137E+03  0.12699999809E+01 0.  1.
</event>
<event>
 5   0  0.2276105E-02  0.5991602E+03  0.7818609E-02  0.9907150E-01
       -1   -1    0    0    0  501  0.00000000000E+00  0.00000000000E+00  0.20580580585E+03  0.20580580591E+03  0.50400001928E-02 0. -1.
        1   -1    0    0  501    0  0.00000000000E+00  0.00000000000E+00 -0.43608221035E+03  0.43608221038E+03  0.50400001928E-02 0.  1.
    10030    2    1    2    0    0  0.00000000000E+00  0.00000000000E+00 -0.23027640450E+03  0.64188801629E+03  0.59916024817E+03 0.  0.
        1    1    3    3  502    0 -0.20244818861E+03  0.19624189271E+03 -0.22361146862E+03  0.35985863676E+03  0.50400001928E-02 0.  1.
       -1    1    3    3    0  502  0.20244818861E+03 -0.19624189271E+03 -0.66649358809E+01  0.28202937953E+03  0.50400001928E-02 0. -1.
</event>
<event>
 5   0  0.1521750E-02  0.5919891E+03  0.7818609E-02  0.9922167E-01
        3   -1    0    0  501    0  0.00000000000E+00  0.00000000000E+00  0.14387632434E+03  0.14387635979E+03  0.10100000352E+00 0.  1.
       -3   -1    0    0    0  501  0.00000000000E+00  0.00000000000E+00 -0.60894496454E+03  0.60894497291E+03  0.10100000352E+00 0. -1.
    10030    2    1    2    0    0  0.00000000000E+00  0.00000000000E+00 -0.46506864020E+03  0.75282133271E+03  0.59198912058E+03 0.  0.
        4    1    3    3  502    0  0.22310861872E+03  0.80185123181E+02 -0.71773106133E+01  0.23719240379E+03  0.12699999809E+01 0.  1.
       -4    1    3    3    0  502 -0.22310861872E+03 -0.80185123181E+02 -0.45789132959E+03  0.51562892892E+03  0.12699999809E+01 0. -1.
</event>
<event>
 5   0  0.2276105E-02  0.6018829E+03  0.7818609E-02  0.9901507E-01
        1   -1    0    0  501    0  0.00000000000E+00  0.00000000000E+00  0.85031128427E+03  0.85031128428E+03  0.50400001928E-02 0. -1.
       -1   -1    0    0    0  501  0.00000000000E+00  0.00000000000E+00 -0.10650893672E+03  0.10650893684E+03  0.50400001928E-02 0.  1.
    10030    2    1    2    0    0  0.00000000000E+00  0.00000000000E+00  0.74380234755E+03  0.95682022113E+03  0.60188288175E+03 0.  0.
        1    1    3    3  502    0 -0.20932052163E+03 -0.15556388470E+03  0.61062562384E+03  0.66398708987E+03  0.50400001928E-02 0. -1.
       -1    1    3    3    0  502  0.20932052163E+03  0.15556388470E+03  0.13317672371E+03  0.29283313126E+03  0.50400001928E-02 0.  1.
</event>
<event>
 5   0  0.2295179E-02  0.5971418E+03  0.7818609E-02  0.9911354E-01
        1   -1    0    0  501    0  0.00000000000E+00  0.00000000000E+00  0.73012601101E+03  0.73012601103E+03  0.50400001928E-02 0.  1.
       -1   -1    0    0    0  501  0.00000000000E+00  0.00000000000E+00 -0.12209479892E+03  0.12209479903E+03  0.50400001928E-02 0. -1.
    10030    2    1    2    0    0  0.00000000000E+00  0.00000000000E+00  0.60803121209E+03  0.85222081005E+03  0.59714182086E+03 0.  0.
        3    1    3    3  502    0  0.29996080457E+02  0.26259747495E+03  0.50221907966E+03  0.56752199329E+03  0.10100000352E+00 0.  1.
       -3    1    3    3    0  502 -0.29996080457E+02 -0.26259747495E+03  0.10581213243E+03  0.28469881676E+03  0.10100000352E+00 0. -1.
</event>
<event>
 5   0  0.3737642E-02  0.6008823E+03  0.7818609E-02  0.9903577E-01
       -2   -1    0    0    0  501  0.00000000000E+00  0.00000000000E+00  0.15356172824E+03  0.15356172826E+03  0.25500000920E-02 0.  1.
        2   -1    0    0  501    0  0.00000000000E+00  0.00000000000E+00 -0.58780837671E+03  0.58780837672E+03  0.25500000920E-02 0. -1.
    10030    2    1    2    0    0  0.00000000000E+00  0.00000000000E+00 -0.43424664847E+03  0.74137010497E+03  0.60088225206E+03 0.  0.
        5    1    3    3  502    0 -0.90046996128E+02 -0.19808363225E+03  0.38417406282E+02  0.22100582341E+03  0.46999998093E+01 0.  1.
       -5    1    3    3    0  502  0.90046996128E+02  0.19808363225E+03 -0.47266405476E+03  0.52036428157E+03  0.46999998093E+01 0. -1.
</event>
<event>
 5   0  0.2309055E-02  0.5964766E+03  0.7818609E-02  0.9912743E-01
        1   -1    0    0  501    0  0.00000000000E+00  0.00000000000E+00  0.46166344503E+03  0.46166344506E+03  0.50400001928E-02 0. -1.
       -1   -1    0    0    0  501  0.00000000000E+00  0.00000000000E+00 -0.19266432541E+03  0.19266432547E+03  0.50400001928E-02 0.  1.
    10030    2    1    2    0    0  0.00000000000E+00  0.00000000000E+00  0.26899911962E+03  0.65432777053E+03  0.59647657534E+03 0.  0.
        4    1    3    3  502    0  0.80907359482E+02  0.40403950768E+02 -0.17725743199E+03  0.19899821645E+03  0.12699999809E+01 0.  1.
       -4    1    3    3    0  502 -0.80907359482E+02 -0.40403950768E+02  0.44625655161E+03  0.45532955408E+03  0.12699999809E+01 0. -1.
</event>
<event>
 5   0  0.2276105E-02  0.6002580E+03  0.7818609E-02  0.9904871E-01
       -1   -1    0    0    0  501  0.00000000000E+00  0.00000000000E+00  0.50482881949E+02  0.50482882201E+02  0.50400001928E-02 0.  1.
        1   -1    0    0  501    0  0.00000000000E+00  0.00000000000E+00 -0.17843159051E+04  0.17843159051E+04  0.50400001928E-02 0. -1.
    10030    2    1    2    0    0  0.00000000000E+00  0.00000000000E+00 -0.17338330231E+04  0.18347987873E+04  0.60025797599E+03 0.  0.
        1    1    3    3  502    0 -0.81867631379E+02 -0.24012193343E+03 -0.37673500719E+03  0.45419171904E+03  0.50400001928E-02 0.  1.
       -1    1    3    3    0  502  0.81867631379E+02  0.24012193343E+03 -0.13570980160E+04  0.13806070683E+04  0.50400001928E-02 0. -1.
</event>
<event>
 5   0  0.2276105E-02  0.6127404E+03  0.7818609E-02  0.9879321E-01
        1   -1    0    0  501    0  0.00000000000E+00  0.00000000000E+00  0.11636540388E+04  0.11636540388E+04  0.50400001928E-02 0. -1.
       -1   -1    0    0    0  501  0.00000000000E+00  0.00000000000E+00 -0.80662044227E+02  0.80662044385E+02  0.50400001928E-02 0.  1.
    10030    2    1    2    0    0  0.00000000000E+00  0.00000000000E+00  0.10829919946E+04  0.12443160832E+04  0.61274044635E+03 0.  0.
        1    1    3    3  502    0  0.17851069709E+03  0.14755478220E+03  0.13421134914E+03  0.26767735987E+03  0.50400001928E-02 0.  1.
       -1    1    3    3    0  502 -0.17851069709E+03 -0.14755478220E+03  0.94878064544E+03  0.97663872333E+03  0.50400001928E-02 0. -1.
</event>
<event>
 5   0  0.3737642E-02  0.5769815E+03  0.7818609E-02  0.9954347E-01
       -2   -1    0    0    0  501  0.00000000000E+00  0.00000000000E+00  0.60301309299E+02  0.60301309353E+02  0.25500000920E-02 0.  1.
        2   -1    0    0  501    0  0.00000000000E+00  0.00000000000E+00 -0.13801842796E+04  0.13801842796E+04  0.25500000920E-02 0. -1.
    10030    2    1    2    0    0  0.00000000000E+00  0.00000000000E+00 -0.13198829703E+04  0.14404855889E+04  0.57698152197E+03 0.  0.
        5    1    3    3  502    0  0.12053100669E+03 -0.25627960892E+03 -0.79663667769E+03  0.84549337534E+03  0.46999998093E+01 0. -1.
       -5    1    3    3    0  502 -0.12053100669E+03  0.25627960892E+03 -0.52324629258E+03  0.59499221358E+03  0.46999998093E+01 0.  1.
</event>
<event>
 5   0  0.1521750E-02  0.5915109E+03  0.7818609E-02  0.9923176E-01
        3   -1    0    0  501    0  0.00000000000E+00  0.00000000000E+00  0.17740385445E+03  0.17740388320E+03  0.10100000352E+00 0.  1.
       -3   -1    0    0    0  501  0.00000000000E+00  0.00000000000E+00 -0.49306295693E+03  0.49306296728E+03  0.10100000352E+00 0. -1.
    10030    2    1    2    0    0  0.00000000000E+00  0.00000000000E+00 -0.31565910248E+03  0.67046685048E+03  0.59151088630E+03 0.  0.
        5    1    3    3  502    0 -0.74288158923E+02 -0.21180199386E+03  0.60407291285E+02  0.23248644261E+03  0.46999998093E+01 0.  1.
       -5    1    3    3    0  502  0.74288158923E+02  0.21180199386E+03 -0.37606639377E+03  0.43798040787E+03  0.46999998093E+01 0. -1.
</event>
<event>
 5   0  0.3724066E-02  0.5980743E+03  0.7818609E-02  0.9909409E-01
       -2   -1    0    0    0  501  0.00000000000E+00  0.00000000000E+00  0.96076339270E+03  0.96076339270E+03  0.25500000920E-02 0. -1.
        2   -1    0    0  501    0  0.00000000000E+00  0.00000000000E+00 -0.93075161488E+02  0.93075161523E+02  0.25500000920E-02 0.  1.
    10030    2    1    2    0    0  0.00000000000E+00  0.00000000000E+00  0.86768823121E+03  0.10538385542E+04  0.59807426946E+03 0.  0.
        4    1    3    3  502    0 -0.67865357992E+02 -0.12623890401E+03  0.89629366324E+03  0.90768161344E+03  0.12699999809E+01 0. -1.
       -4    1    3    3    0  502  0.67865357992E+02  0.12623890401E+03 -0.28605432031E+02  0.14615694079E+03  0.12699999809E+01 0.  1.
</event>
<event>
 5   0  0.2382531E-02  0.6003607E+03  0.7818609E-02  0.9904658E-01
       -1   -1    0    0    0  501  0.00000000000E+00  0.00000000000E+00  0.82747502207E+03  0.82747502209E+03  0.50400001928E-02 0.  1.
        1   -1    0    0  501    0  0.00000000000E+00  0.00000000000E+00 -0.10889543315E+03  0.10889543327E+03  0.50400001928E-02 0. -1.
    10030    2    1    2    0    0  0.00000000000E+00  0.00000000000E+00  0.71857958892E+03  0.93637045535E+03  0.60036072826E+03 0.  0.
        5    1    3    3  502    0 -0.14102813685E+03 -0.26477434629E+03  0.37423110105E+03  0.47965132839E+03  0.46999998093E+01 0. -1.
       -5    1    3    3    0  502  0.14102813685E+03  0.26477434629E+03  0.34434848787E+03  0.45671912696E+03  0.46999998093E+01 0.  1.
</event>
<event>
 5   0  0.3724066E-02  0.6033978E+03  0.7818609E-02  0.9898382E-01
       -2   -1    0    0    0  501  0.00000000000E+00  0.00000000000E+00  0.96949892847E+02  0.96949892880E+02  0.25500000920E-02 0.  1.
        2   -1    0    0  501    0  0.00000000000E+00  0.00000000000E+00 -0.93885832666E+03  0.93885832666E+03  0.25500000920E-02 0. -1.
    10030    2    1    2    0    0  0.00000000000E+00  0.00000000000E+00 -0.84190843381E+03  0.10358082195E+04  0.60339775998E+03 0.  0.
        4    1    3    3  502    0  0.92543285196E+02 -0.61132593474E+02 -0.90258679014E+03  0.90937669876E+03  0.12699999809E+01 0. -1.
       -4    1    3    3    0  502 -0.92543285196E+02  0.61132593474E+02  0.60678356328E+02  0.12643152078E+03  0.12699999809E+01 0.  1.
</event>
<event>
 5   0  0.2295179E-02  0.5976750E+03  0.7818609E-02  0.9910242E-01
        1   -1    0    0  501    0  0.00000000000E+00  0.00000000000E+00  0.57667868853E+03  0.57667868856E+03  0.50400001928E-02 0.  1.
       -1   -1    0    0    0  501  0.00000000000E+00  0.00000000000E+00 -0.15485892080E+03  0.15485892088E+03  0.50400001928E-02 0. -1.
    10030    2    1    2    0    0  0.00000000000E+00  0.00000000000E+00  0.42181976773E+03  0.73153760944E+03  0.59767495980E+03 0.  0.
        3    1    3    3  502    0  0.19738700815E+02 -0.12516690486E+03  0.54216903060E+03  0.55677970359E+03  0.10100000352E+00 0.  1.
       -3    1    3    3    0  502 -0.19738700815E+02  0.12516690486E+03 -0.12034926287E+03  0.17475790585E+03  0.10100000352E+00 0. -1.
</event>
<event>
 5   0  0.3798925E-02  0.5960550E+03  0.7818609E-02  0.9913625E-01
       -2   -1    0    0    0  501  0.00000000000E+00  0.00000000000E+00  0.17135970486E+03  0.17135970488E+03  0.25500000920E-02 0. -1.
        2   -1    0    0  501    0  0.00000000000E+00  0.00000000000E+00 -0.51832708883E+03  0.51832708884E+03  0.25500000920E-02 0.  1.
    10030    2    1    2    0    0  0.00000000000E+00  0.00000000000E+00 -0.34696738397E+03  0.68968679372E+03  0.59605495375E+03 0.  0.
        2    1    3    3  502    0  0.16158676637E+03  0.64626748713E+02 -0.45342550486E+03  0.48567642333E+03  0.25500000920E-02 0.  1.
       -2    1    3    3    0  502 -0.16158676637E+03 -0.64626748713E+02  0.10645812089E+03  0.20401037039E+03  0.25500000920E-02 0. -1.
</event>
<event>
 5   0  0.3934634E-02  0.6221764E+03  0.7818609E-02  0.9860436E-01
        2   -1    0    0  501    0  0.00000000000E+00  0.00000000000E+00  0.80246150439E+03  0.80246150439E+03  0.25500000920E-02 0. -1.
       -2   -1    0    0    0  501  0.00000000000E+00  0.00000000000E+00 -0.12059877554E+03  0.12059877556E+03  0.25500000920E-02 0.  1.
    10030    2    1    2    0    0  0.00000000000E+00  0.00000000000E+00  0.68186272885E+03  0.92306027995E+03  0.62217642147E+03 0.  0.
        1    1    3    3  502    0 -0.20726066747E+03 -0.77338254937E+02  0.66542156915E+03  0.70123038631E+03  0.50400001928E-02 0. -1.
       -1    1    3    3    0  502  0.20726066747E+03  0.77338254937E+02  0.16441159697E+02  0.22182989365E+03  0.50400001928E-02 0.  1.
</event>
<event>
 5   0  0.1521750E-02  0.5999420E+03  0.7818609E-02  0.9905526E-01
       -3   -1    0    0    0  501  0.00000000000E+00  0.00000000000E+00  0.53368773979E+03  0.53368774935E+03  0.10100000352E+00 0.  1.
        3   -1    0    0  501    0  0.00000000000E+00  0.00000000000E+00 -0.16860529992E+03  0.16860533017E+03  0.10100000352E+00 0. -1.
    10030    2    1    2    0    0  0.00000000000E+00  0.00000000000E+00  0.36508243987E+03  0.70229307952E+03  0.59994198189E+03 0.  0.
        3    1    3    3  502    0  0.28411585475E+03 -0.66953398741E+02  0.10162555587E+03  0.30908306381E+03  0.10100000352E+00 0. -1.
       -3    1    3    3    0  502 -0.28411585475E+03  0.66953398741E+02  0.26345688400E+03  0.39321001571E+03  0.10100000352E+00 0.  1.
</event>
<event>
 5   0  0.2309055E-02  0.6052234E+03  0.7818609E-02  0.9894628E-01
       -1   -1    0    0    0  501  0.00000000000E+00  0.00000000000E+00  0.18090077066E+03  0.18090077073E+03  0.50400001928E-02 0.  1.
        1   -1    0    0  501    0  0.00000000000E+00  0.00000000000E+00 -0.50621039225E+03  0.50621039227E+03  0.50400001928E-02 0. -1.
    10030    2    1    2    0    0  0.00000000000E+00  0.00000000000E+00 -0.32530962159E+03  0.68711116301E+03  0.60522343017E+03 0.  0.
        4    1    3    3  502    0  0.16138569694E+03 -0.19788118049E+03 -0.34701442056E+03  0.43083979128E+03  0.12699999809E+01 0. -1.
       -4    1    3    3    0  502 -0.16138569694E+03  0.19788118049E+03  0.21704798977E+02  0.25627137173E+03  0.12699999809E+01 0.  1.
</event>
<event>
 5   0  0.3934634E-02  0.5809249E+03  0.7818609E-02  0.9945791E-01
        2   -1    0    0  501    0  0.00000000000E+00  0.00000000000E+00  0.11105020969E+03  0.11105020972E+03  0.25500000920E-02 0. -1.
       -2   -1    0    0    0  501  0.00000000000E+00  0.00000000000E+00 -0.75973235000E+03  0.75973235001E+03  0.25500000920E-02 0.  1.
    10030    2    1    2    0    0  0.00000000000E+00  0.00000000000E+00 -0.64868214031E+03  0.87078255973E+03  0.58092490665E+03 0.  0.
        1    1    3    3  502    0  0.22939966184E+03 -0.73323558852E+02 -0.80937247224E+02  0.25406965019E+03  0.50400001928E-02 0. -1.
       -1    1    3    3    0  502 -0.22939966184E+03  0.73323558852E+02 -0.56774489309E+03  0.61671290954E+03  0.50400001928E-02 0.  1.
</event>
<event>
 5   0  0.1521750E-02  0.6257852E+03  0.7818609E-02  0.9853308E-01
       -4   -1    0    0    0  501  0.00000000000E+00  0.00000000000E+00  0.26988152655E+03  0.26988451470E+03  0.12699999809E+01 0. -1.
        4   -1    0    0  501    0  0.00000000000E+00  0.00000000000E+00 -0.36275227013E+03  0.36275449326E+03  0.12699999809E+01 0.  1.
    10030    2    1    2    0    0  0.00000000000E+00  0.00000000000E+00 -0.92870743575E+02  0.63263900796E+03  0.62578521826E+03 0.  0.
        1    1    3    3  502    0  0.10271964581E+03 -0.21170255109E+03  0.16205743004E+03  0.28571297911E+03  0.50400001928E-02 0. -1.
       -1    1    3    3    0  502 -0.10271964581E+03  0.21170255109E+03 -0.25492817361E+03  0.34692602886E+03  0.50400001928E-02 0.  1.
</event>
<event>
 5   0  0.3724066E-02  0.6019317E+03  0.7818609E-02  0.9901406E-01
        2   -1    0    0  501    0  0.00000000000E+00  0.00000000000E+00  0.23806451495E+03  0.23806451497E+03  0.25500000920E-02 0. -1.
       -2   -1    0    0    0  501  0.00000000000E+00  0.00000000000E+00 -0.38048697672E+03  0.38048697673E+03  0.25500000920E-02 0.  1.
    10030    2    1    2    0    0  0.00000000000E+00  0.00000000000E+00 -0.14242246177E+03  0.61855149170E+03  0.60193171562E+03 0.  0.
        4    1    3    3  502    0  0.40399191970E+02  0.21984520108E+03  0.13588440084E+03  0.26159164826E+03  0.12699999809E+01 0. -1.
       -4    1    3    3    0  502 -0.40399191970E+02 -0.21984520108E+03 -0.27830686261E+03  0.35695984344E+03  0.12699999809E+01 0.  1.
</event>
<event>
 5   0  0.3832191E-02  0.6024179E+03  0.7818609E-02  0.9900402E-01
       -2   -1    0    0    0  501  0.00000000000E+00  0.00000000000E+00  0.25269550115E+03  0.25269550116E+03  0.25500000920E-02 0. -1.
        2   -1    0    0  501    0  0.00000000000E+00  0.00000000000E+00 -0.35903624899E+03  0.35903624900E+03  0.25500000920E-02 0.  1.
    10030    2    1    2    0    0  0.00000000000E+00  0.00000000000E+00 -0.10634074784E+03  0.61173175016E+03  0.60241794421E+03 0.  0.
        3    1    3    3  502    0  0.12862193871E+03  0.15689038939E+03 -0.27925269955E+03  0.34516702885E+03  0.10100000352E+00 0.  1.
       -3    1    3    3    0  502 -0.12862193871E+03 -0.15689038939E+03  0.17291195171E+03  0.26656472131E+03  0.10100000352E+00 0. -1.
</event>
<event>
 5   0  0.2225808E-02  0.5996713E+03  0.7818609E-02  0.9906088E-01
       -1   -1    0    0    0  501  0.00000000000E+00  0.00000000000E+00  0.21030684602E+03  0.21030684608E+03  0.50400001928E-02 0.  1.
        1   -1    0    0  501    0  0.00000000000E+00  0.00000000000E+00 -0.42747739446E+03  0.42747739449E+03  0.50400001928E-02 0. -1.
    10030    2    1    2    0    0  0.00000000000E+00  0.00000000000E+00 -0.21717054844E+03  0.63778424058E+03  0.59967131866E+03 0.  0.
        2    1    3    3  502    0  0.24220740692E+03  0.16165366189E+03 -0.32594279036E+02  0.29301658896E+03  0.25500000920E-02 0.  1.
       -2    1    3    3    0  502 -0.24220740692E+03 -0.16165366189E+03 -0.18457626940E+03  0.34476765162E+03  0.25500000920E-02 0. -1.
</event>
<event>
 5   0  0.2309055E-02  0.5998309E+03  0.7818609E-02  0.9905757E-01
       -1   -1    0    0    0  501  0.00000000000E+00  0.00000000000E+00  0.48014816364E+03  0.48014816367E+03  0.50400001928E-02 0. -1.
        1   -1    0    0  501    0  0.00000000000E+00  0.00000000000E+00 -0.18733652198E+03  0.18733652205E+03  0.50400001928E-02 0.  1.
    10030    2    1    2    0    0  0.00000000000E+00  0.00000000000E+00  0.29281164166E+03  0.66748468572E+03  0.59983093299E+03 0.  0.
        4    1    3    3  502    0  0.12416025925E+03  0.82182139335E+02 -0.14329973425E+03  0.20665454444E+03  0.12699999809E+01 0.  1.
       -4    1    3    3    0  502 -0.12416025925E+03 -0.82182139335E+02  0.43611137592E+03  0.46083014127E+03  0.12699999809E+01 0. -1.
</event>
<event>
 5   0  0.2295179E-02  0.6075079E+03  0.7818609E-02  0.9889951E-01
        1   -1    0    0  501    0  0.00000000000E+00  0.00000000000E+00  0.29365674405E+03  0.29365674409E+03  0.50400001928E-02 0.  1.
       -1   -1    0    0    0  501  0.00000000000E+00  0.00000000000E+00 -0.31419838291E+03  0.31419838295E+03  0.50400001928E-02 0. -1.
    10030    2    1    2    0    0  0.00000000000E+00  0.00000000000E+00 -0.20541638862E+02  0.60785512704E+03  0.60750793949E+03 0.  0.
        3    1    3    3  502    0 -0.21833388096E+03  0.18281103808E+03 -0.11605211951E+03  0.30750229896E+03  0.10100000352E+00 0. -1.
       -3    1    3    3    0  502  0.21833388096E+03 -0.18281103808E+03  0.95510480650E+02  0.30035282808E+03  0.10100000352E+00 0.  1.
</event>
<event>
 5   0  0.2295179E-02  0.5975577E+03  0.7818609E-02  0.9910486E-01
       -1   -1    0    0    0  501  0.00000000000E+00  0.00000000000E+00  0.11052609786E+04  0.11052609786E+04  0.50400001928E-02 0. -1.
        1   -1    0    0  501    0  0.00000000000E+00  0.00000000000E+00 -0.80767162338E+02  0.80767162495E+02  0.50400001928E-02 0.  1.
    10030    2    1    2    0    0  0.00000000000E+00  0.00000000000E+00  0.10244938162E+04  0.11860281411E+04  0.59755767247E+03 0.  0.
        3    1    3    3  502    0 -0.24694067991E+03  0.16167651523E+03  0.42022039547E+03  0.51352135879E+03  0.10100000352E+00 0.  1.
       -3    1    3    3    0  502  0.24694067991E+03 -0.16167651523E+03  0.60427342075E+03  0.67250678227E+03  0.10100000352E+00 0. -1.
</event>
<event>
 5   0  0.3832191E-02  0.5991787E+03  0.7818609E-02  0.9907111E-01
       -2   -1    0    0    0  501  0.00000000000E+00  0.00000000000E+00  0.12781761318E+03  0.12781761320E+03  0.25500000920E-02 0. -1.
        2   -1    0    0  501    0  0.00000000000E+00  0.00000000000E+00 -0.70220199672E+03  0.70220199673E+03  0.25500000920E-02 0.  1.
    10030    2    1    2    0    0  0.00000000000E+00  0.00000000000E+00 -0.57438438355E+03  0.83001960993E+03  0.59917871525E+03 0.  0.
        3    1    3    3  502    0 -0.22830935514E+03 -0.13029277303E+03 -0.88116933174E+02  0.27724713247E+03  0.10100000352E+00 0. -1.
       -3    1    3    3    0  502  0.22830935514E+03  0.13029277303E+03 -0.48626745037E+03  0.55277247746E+03  0.10100000352E+00 0.  1.
</event>
<event>
 5   0  0.3737642E-02  0.5994498E+03  0.7818609E-02  0.9906548E-01
       -2   -1    0    0    0  501  0.00000000000E+00  0.00000000000E+00  0.82968413633E+02  0.82968413672E+02  0.25500000920E-02 0. -1.
        2   -1    0    0  501    0  0.00000000000E+00  0.00000000000E+00 -0.10827617961E+04  0.10827617961E+04  0.25500000920E-02 0.  1.
    10030    2    1    2    0    0  0.00000000000E+00  0.00000000000E+00 -0.99979338249E+03  0.11657302098E+04  0.59944984308E+03 0.  0.
        5    1    3    3  502    0  0.44069920370E+02 -0.13184573590E+03 -0.10161955925E+04  0.10256710136E+04  0.46999998093E+01 0.  1.
       -5    1    3    3    0  502 -0.44069920370E+02  0.13184573590E+03  0.16402209971E+02  0.14005919622E+03  0.46999998093E+01 0. -1.
</event>
<event>
 5   0  0.3798925E-02  0.6021362E+03  0.7818609E-02  0.9900984E-01
       -2   -1    0    0    0  501  0.00000000000E+00  0.00000000000E+00  0.59533610319E+03  0.59533610320E+03  0.25500000920E-02 0.  1.
        2   -1    0    0  501    0  0.00000000000E+00  0.00000000000E+00 -0.15225351031E+03  0.15225351033E+03  0.25500000920E-02 0. -1.
    10030    2    1    2    0    0  0.00000000000E+00  0.00000000000E+00  0.44308259288E+03  0.74758961353E+03  0.60213623554E+03 0.  0.
        2    1    3    3  502    0 -0.25775996856E+03  0.15548205926E+03  0.21507331901E+03  0.36996135569E+03  0.25500000920E-02 0. -1.
       -2    1    3    3    0  502  0.25775996856E+03 -0.15548205926E+03  0.22800927387E+03  0.37762825784E+03  0.25500000920E-02 0.  1.
</event>
<event>
 5   0  0.2276105E-02  0.5878739E+03  0.7818609E-02  0.9930888E-01
        1   -1    0    0  501    0  0.00000000000E+00  0.00000000000E+00  0.70047163700E+03  0.70047163702E+03  0.50400001928E-02 0.  1.
       -1   -1    0    0    0  501  0.00000000000E+00  0.00000000000E+00 -0.12334394728E+03  0.12334394738E+03  0.50400001928E-02 0. -1.
    10030    2    1    2    0    0  0.00000000000E+00  0.00000000000E+00  0.57712768972E+03  0.82381558440E+03  0.58787392089E+03 0.  0.
        1    1    3    3  502    0  0.30665184632E+02  0.20625354578E+03  0.57887641459E+03  0.61528756049E+03  0.50400001928E-02 0.  1.
       -1    1    3    3    0  502 -0.30665184632E+02 -0.20625354578E+03 -0.17487248711E+01  0.20852802392E+03  0.50400001928E-02 0. -1.
</event>
<event>
 5   0  0.3798925E-02  0.6011519E+03  0.7818609E-02  0.9903019E-01
        2   -1    0    0  501    0  0.00000000000E+00  0.00000000000E+00  0.38163742866E+03  0.38163742867E+03  0.25500000920E-02 0. -1.
       -2   -1    0    0    0  501  0.00000000000E+00  0.00000000000E+00 -0.23673231177E+03  0.23673231178E+03  0.25500000920E-02 0.  1.
    10030    2    1    2    0    0  0.00000000000E+00  0.00000000000E+00  0.14490511689E+03  0.61836974045E+03  0.60115193005E+03 0.  0.
        2    1    3    3  502    0  0.16610520245E+03 -0.41640415622E+02 -0.18164694458E+03  0.24964069175E+03  0.25500000920E-02 0.  1.
       -2    1    3    3    0  502 -0.16610520245E+03  0.41640415622E+02  0.32655206147E+03  0.36872904870E+03  0.25500000920E-02 0. -1.
</event>
<event>
 5   0  0.2276105E-02  0.5949184E+03  0.7818609E-02  0.9916005E-01
        1   -1    0    0  501    0  0.00000000000E+00  0.00000000000E+00  0.24562222996E+03  0.24562223001E+03  0.50400001928E-02 0.  1.
       -1   -1    0    0    0  501  0.00000000000E+00  0.00000000000E+00 -0.36023602088E+03  0.36023602092E+03  0.50400001928E-02 0. -1.
    10030    2    1    2    0    0  0.00000000000E+00  0.00000000000E+00 -0.11461379092E+03  0.60585825093E+03  0.59491839706E+03 0.  0.
        1    1    3    3  502    0  0.66221567854E+02 -0.28799621952E+03 -0.22698808538E+02  0.29638210885E+03  0.50400001928E-02 0. -1.
       -1    1    3    3    0  502 -0.66221567854E+02  0.28799621952E+03 -0.91914982384E+02  0.30947614209E+03  0.50400001928E-02 0.  1.
</event>
<event>
 5   0  0.2382531E-02  0.6098061E+03  0.7818609E-02  0.9885268E-01
       -1   -1    0    0    0  501  0.00000000000E+00  0.00000000000E+00  0.80680072035E+02  0.80680072192E+02  0.50400001928E-02 0.  1.
        1   -1    0    0  501    0  0.00000000000E+00  0.00000000000E+00 -0.11522780192E+04  0.11522780192E+04  0.50400001928E-02 0. -1.
    10030    2    1    2    0    0  0.00000000000E+00  0.00000000000E+00 -0.10715979471E+04  0.12329580914E+04  0.60980611244E+03 0.  0.
        5    1    3    3  502    0 -0.96780317564E+02  0.26424647726E+03 -0.77289599616E+03  0.82254661964E+03  0.46999998093E+01 0. -1.
       -5    1    3    3    0  502  0.96780317564E+02 -0.26424647726E+03 -0.29870195097E+03  0.41041147172E+03  0.46999998093E+01 0.  1.
</event>
<event>
 5   0  0.3724066E-02  0.5941607E+03  0.7818609E-02  0.9917595E-01
        2   -1    0    0  501    0  0.00000000000E+00  0.00000000000E+00  0.54572370728E+03  0.54572370729E+03  0.25500000920E-02 0. -1.
       -2   -1    0    0    0  501  0.00000000000E+00  0.00000000000E+00 -0.16172421471E+03  0.16172421473E+03  0.25500000920E-02 0.  1.
    10030    2    1    2    0    0  0.00000000000E+00  0.00000000000E+00  0.38399949257E+03  0.70744792202E+03  0.59416071233E+03 0.  0.
        4    1    3    3  502    0  0.94482782646E+01  0.29147472176E+02 -0.15983453754E+03  0.16274992285E+03  0.12699999809E+01 0.  1.
       -4    1    3    3    0  502 -0.94482782646E+01 -0.29147472176E+02  0.54383403011E+03  0.54469799917E+03  0.12699999809E+01 0. -1.
</event>
<event>
 5   0  0.2276105E-02  0.6204752E+03  0.7818609E-02  0.9863814E-01
       -1   -1    0    0    0  501  0.00000000000E+00  0.00000000000E+00  0.94699443688E+03  0.94699443689E+03  0.50400001928E-02 0. -1.
        1   -1    0    0  501    0  0.00000000000E+00  0.00000000000E+00 -0.10163457635E+03  0.10163457647E+03  0.50400001928E-02 0.  1.
    10030    2    1    2    0    0  0.00000000000E+00  0.00000000000E+00  0.84535986053E+03  0.10486290134E+04  0.62047523229E+03 0.  0.
        1    1    3    3  502    0  0.22235400712E+03  0.39227607334E+02  0.78225499330E+03  0.81418854341E+03  0.50400001928E-02 0. -1.
       -1    1    3    3    0  502 -0.22235400712E+03 -0.39227607334E+02  0.63104867230E+02  0.23444046995E+03  0.50400001928E-02 0.  1.
</event>
<event>
 5   0  0.2382531E-02  0.6027127E+03  0.7818609E-02  0.9899794E-01
        1   -1    0    0  501    0  0.00000000000E+00  0.00000000000E+00  0.10487930657E+04  0.10487930657E+04  0.50400001928E-02 0.  1.
       -1   -1    0    0    0  501  0.00000000000E+00  0.00000000000E+00 -0.86590639296E+02  0.86590639443E+02  0.50400001928E-02 0. -1.
    10030    2    1    2    0    0  0.00000000000E+00  0.00000000000E+00  0.96220242642E+03  0.11353837052E+04  0.60271274133E+03 0.  0.
        5    1    3    3  502    0  0.75553619452E+02  0.21802320417E+03  0.11605853158E+03  0.25832951771E+03  0.46999998093E+01 0. -1.
       -5    1    3    3    0  502 -0.75553619452E+02 -0.21802320417E+03  0.84614389485E+03  0.87705418747E+03  0.46999998093E+01 0.  1.
</event>
<event>
 5   0  0.2276105E-02  0.5995698E+03  0.7818609E-02  0.9906299E-01
       -1   -1    0    0    0  501  0.00000000000E+00  0.00000000000E+00  0.57064535508E+02  0.57064535731E+02  0.50400001928E-02 0.  1.
        1   -1    0    0  501    0  0.00000000000E+00  0.00000000000E+00 -0.15749009413E+04  0.15749009413E+04  0.50400001928E-02 0. -1.
    10030    2    1    2    0    0  0.00000000000E+00  0.00000000000E+00 -0.15178364058E+04  0.16319654770E+04  0.59956981537E+03 0.  0.
        1    1    3    3  502    0 -0.28374685990E+03 -0.40546198136E+02 -0.51984484420E+03  0.59362861854E+03  0.50400001928E-02 0.  1.
       -1    1    3    3    0  502  0.28374685990E+03  0.40546198136E+02 -0.99799156159E+03  0.10383368585E+04  0.50400001928E-02 0. -1.
</event>
<event>
 5   0  0.2225808E-02  0.5638183E+03  0.7818609E-02  0.9983452E-01
       -1   -1    0    0    0  501  0.00000000000E+00  0.00000000000E+00  0.11139032936E+03  0.11139032947E+03  0.50400001928E-02 0. -1.
        1   -1    0    0  501    0  0.00000000000E+00  0.00000000000E+00 -0.71346208787E+03  0.71346208789E+03  0.50400001928E-02 0.  1.
    10030    2    1    2    0    0  0.00000000000E+00  0.00000000000E+00 -0.60207175851E+03  0.82485241736E+03  0.56381832892E+03 0.  0.
        2    1    3    3  502    0 -0.39517379742E+02 -0.82487433278E+02 -0.69115134646E+03  0.69717715372E+03  0.25500000920E-02 0.  1.
       -2    1    3    3    0  502  0.39517379742E+02  0.82487433278E+02  0.89079587948E+02  0.12767526364E+03  0.25500000920E-02 0. -1.
</event>
<event>
 5   0  0.2225808E-02  0.6014780E+03  0.7818609E-02  0.9902344E-01
       -1   -1    0    0    0  501  0.00000000000E+00  0.00000000000E+00  0.26475166950E+03  0.26475166955E+03  0.50400001928E-02 0.  1.
        1   -1    0    0  501    0  0.00000000000E+00  0.00000000000E+00 -0.34161804348E+03  0.34161804352E+03  0.50400001928E-02 0. -1.
    10030    2    1    2    0    0  0.00000000000E+00  0.00000000000E+00 -0.76866373982E+02  0.60636971306E+03  0.60147800415E+03 0.  0.
        2    1    3    3  502    0  0.90176372332E+00 -0.10552173957E+03 -0.32234081567E+03  0.33917436836E+03  0.25500000920E-02 0. -1.
       -2    1    3    3    0  502 -0.90176372332E+00  0.10552173957E+03  0.24547444169E+03  0.26719534470E+03  0.25500000920E-02 0.  1.
</event>
<event>
 5   0  0.1521750E-02  0.5975681E+03  0.7818609E-02  0.9910464E-01
       -3   -1    0    0    0  501  0.00000000000E+00  0.00000000000E+00  0.10856892683E+03  0.10856897381E+03  0.10100000352E+00 0.  1.
        3   -1    0    0  501    0  0.00000000000E+00  0.00000000000E+00 -0.82226003807E+03  0.82226004427E+03  0.10100000352E+00 0. -1.
    10030    2    1    2    0    0  0.00000000000E+00  0.00000000000E+00 -0.71369111123E+03  0.93082901808E+03  0.59756812052E+03 0.  0.
        3    1    3    3  502    0  0.23373831560E+03 -0.14717580876E+03 -0.17939414975E+03  0.32935784495E+03  0.10100000352E+00 0. -1.
       -3    1    3    3    0  502 -0.23373831560E+03  0.14717580876E+03 -0.53429696148E+03  0.60147117313E+03  0.10100000352E+00 0.  1.
</event>
<event>
 5   0  0.1521750E-02  0.5984373E+03  0.7818609E-02  0.9908654E-01
       -3   -1    0    0    0  501  0.00000000000E+00  0.00000000000E+00  0.57735370223E+02  0.57735458565E+02  0.10100000352E+00 0.  1.
        3   -1    0    0  501    0  0.00000000000E+00  0.00000000000E+00 -0.15507255187E+04  0.15507255220E+04  0.10100000352E+00 0. -1.
    10030    2    1    2    0    0  0.00000000000E+00  0.00000000000E+00 -0.14929901485E+04  0.16084609806E+04  0.59843725028E+03 0.  0.
        5    1    3    3  502    0  0.14897675035E+03  0.25369095791E+03 -0.60035059242E+03  0.66857766796E+03  0.46999998093E+01 0.  1.
       -5    1    3    3    0  502 -0.14897675035E+03 -0.25369095791E+03 -0.89263955608E+03  0.93988331262E+03  0.46999998093E+01 0. -1.
</event>
<event>
 5   0  0.2382531E-02  0.5970764E+03  0.7818609E-02  0.9911490E-01
        1   -1    0    0  501    0  0.00000000000E+00  0.00000000000E+00  0.11450588415E+03  0.11450588427E+03  0.50400001928E-02 0.  1.
       -1   -1    0    0    0  501  0.00000000000E+00  0.00000000000E+00 -0.77834472153E+03  0.77834472154E+03  0.50400001928E-02 0. -1.
    10030    2    1    2    0    0  0.00000000000E+00  0.00000000000E+00 -0.66383883737E+03  0.89285060581E+03  0.59707637894E+03 0.  0.
        5    1    3    3  502    0  0.23402028238E+02 -0.28193549611E+03 -0.18952366446E+03  0.34055335600E+03  0.46999998093E+01 0.  1.
       -5    1    3    3    0  502 -0.23402028238E+02  0.28193549611E+03 -0.47431517291E+03  0.55229724981E+03  0.46999998093E+01 0. -1.
</event>
<event>
 5   0  0.3934634E-02  0.5898515E+03  0.7818609E-02  0.9926687E-01
        2   -1    0    0  501    0  0.00000000000E+00  0.00000000000E+00  0.48093467130E+03  0.48093467131E+03  0.25500000920E-02 0. -1.
       -2   -1    0    0    0  501  0.00000000000E+00  0.00000000000E+00 -0.18085867200E+03  0.18085867202E+03  0.25500000920E-02 0.  1.
    10030    2    1    2    0    0  0.00000000000E+00  0.00000000000E+00  0.30007599930E+03  0.66179334332E+03  0.58985152700E+03 0.  0.
        1    1    3    3  502    0  0.18292777831E+03 -0.19468918720E+03  0.98382418467E+01  0.26732609808E+03  0.50400001928E-02 0.  1.
       -1    1    3    3    0  502 -0.18292777831E+03  0.19468918720E+03  0.29023775745E+03  0.39446724524E+03  0.50400001928E-02 0. -1.
</event>
<event>
 5   0  0.2225808E-02  0.5930947E+03  0.7818609E-02  0.9919837E-01
       -1   -1    0    0    0  501  0.00000000000E+00  0.00000000000E+00  0.29392797956E+03  0.29392797960E+03  0.50400001928E-02 0. -1.
        1   -1    0    0  501    0  0.00000000000E+00  0.00000000000E+00 -0.29919003131E+03  0.29919003136E+03  0.50400001928E-02 0.  1.
    10030    2    1    2    0    0  0.00000000000E+00  0.00000000000E+00 -0.52620517522E+01  0.59311801096E+03  0.59309466845E+03 0.  0.
        2    1    3    3  502    0  0.20489098334E+03 -0.18635789142E+03 -0.10861039516E+03  0.29749923814E+03  0.25500000920E-02 0.  1.
       -2    1    3    3    0  502 -0.20489098334E+03  0.18635789142E+03  0.10334834341E+03  0.29561877282E+03  0.25500000920E-02 0. -1.
</event>
<event>
 5   0  0.3832191E-02  0.6020601E+03  0.7818609E-02  0.9901141E-01
       -2   -1    0    0    0  501  0.00000000000E+00  0.00000000000E+00  0.91451959880E+02  0.91451959915E+02  0.25500000920E-02 0.  1.
        2   -1    0    0  501    0  0.00000000000E+00  0.00000000000E+00 -0.99089293377E+03  0.99089293378E+03  0.25500000920E-02 0. -1.
    10030    2    1    2    0    0  0.00000000000E+00  0.00000000000E+00 -0.89944097389E+03  0.10823448937E+04  0.60206013270E+03 0.  0.
        3    1    3    3  502    0  0.57290320987E+01  0.30018487416E+03 -0.48891401431E+03  0.57374271592E+03  0.10100000352E+00 0. -1.
       -3    1    3    3    0  502 -0.57290320987E+01 -0.30018487416E+03 -0.41052695959E+03  0.50860217777E+03  0.10100000352E+00 0.  1.
</event>
<event>
 5   0  0.2309055E-02  0.5906557E+03  0.7818609E-02  0.9924984E-01
        1   -1    0    0  501    0  0.00000000000E+00  0.00000000000E+00  0.36450176941E+03  0.36450176944E+03  0.50400001928E-02 0.  1.
       -1   -1    0    0    0  501  0.00000000000E+00  0.00000000000E+00 -0.23928151995E+03  0.23928152000E+03  0.50400001928E-02 0. -1.
    10030    2    1    2    0    0  0.00000000000E+00  0.00000000000E+00  0.12522024946E+03  0.60378328944E+03  0.59065569475E+03 0.  0.
        4    1    3    3  502    0 -0.41370822924E+02 -0.12185175828E+03 -0.20911257126E+03  0.24553833987E+03  0.12699999809E+01 0. -1.
       -4    1    3    3    0  502  0.41370822924E+02  0.12185175828E+03  0.33433282072E+03  0.35824494958E+03  0.12699999809E+01 0.  1.
</event>
<event>
 5   0  0.3934634E-02  0.5980562E+03  0.7818609E-02  0.9909447E-01
        2   -1    0    0  501    0  0.00000000000E+00  0.00000000000E+00  0.13894019347E+04  0.13894019347E+04  0.25500000920E-02 0. -1.
       -2   -1    0    0    0  501  0.00000000000E+00  0.00000000000E+00 -0.64357044478E+02  0.64357044528E+02  0.25500000920E-02 0.  1.
    10030    2    1    2    0    0  0.00000000000E+00  0.00000000000E+00  0.13250448903E+04  0.14537589793E+04  0.59805619184E+03 0.  0.
        1    1    3    3  502    0 -0.88269025163E+02  0.28570144938E+03  0.66502882184E+03  0.72916395473E+03  0.50400001928E-02 0. -1.
       -1    1    3    3    0  502  0.88269025163E+02 -0.28570144938E+03  0.66001606842E+03  0.72459502453E+03  0.50400001928E-02 0.  1.
</event>
<event>
 5   0  0.2276105E-02  0.6058785E+03  0.7818609E-02  0.9893285E-01
        1   -1    0    0  501    0  0.00000000000E+00  0.00000000000E+00  0.41103253594E+03  0.41103253598E+03  0.50400001928E-02 0. -1.
       -1   -1    0    0    0  501  0.00000000000E+00  0.00000000000E+00 -0.22327231956E+03  0.22327231962E+03  0.50400001928E-02 0.  1.
    10030    2    1    2    0    0  0.00000000000E+00  0.00000000000E+00  0.18776021638E+03  0.63430485560E+03  0.60587849523E+03 0.  0.
        1    1    3    3  502    0 -0.53501120158E+02 -0.29327412758E+03  0.15025935640E+03  0.33384121671E+03  0.50400001928E-02 0. -1.
       -1    1    3    3    0  502  0.53501120158E+02  0.29327412758E+03  0.37500859978E+02  0.30046363888E+03  0.50400001928E-02 0.  1.
</event>
<event>
 5   0  0.3724066E-02  0.5964635E+03  0.7818609E-02  0.9912770E-01
       -2   -1    0    0    0  501  0.00000000000E+00  0.00000000000E+00  0.14356523153E+03  0.14356523155E+03  0.25500000920E-02 0.  1.
        2   -1    0    0  501    0  0.00000000000E+00  0.00000000000E+00 -0.61952445623E+03  0.61952445623E+03  0.25500000920E-02 0. -1.
    10030    2    1    2    0    0  0.00000000000E+00  0.00000000000E+00 -0.47595922470E+03  0.76308968778E+03  0.59646348423E+03 0.  0.
        4    1    3    3  502    0  0.16032644733E+03  0.10035158864E+03  0.57010100462E+02  0.19755195649E+03  0.12699999809E+01 0.  1.
       -4    1    3    3    0  502 -0.16032644733E+03 -0.10035158864E+03 -0.53296932516E+03  0.56553773130E+03  0.12699999809E+01 0. -1.
</event>
<event>
 5   0  0.1521750E-02  0.6010240E+03  0.7818609E-02  0.9903284E-01
       -3   -1    0    0    0  501  0.00000000000E+00  0.00000000000E+00  0.20530550742E+03  0.20530553226E+03  0.10100000352E+00 0. -1.
        3   -1    0    0  501    0  0.00000000000E+00  0.00000000000E+00 -0.43986857985E+03  0.43986859145E+03  0.10100000352E+00 0.  1.
    10030    2    1    2    0    0  0.00000000000E+00  0.00000000000E+00 -0.23456307244E+03  0.64517412371E+03  0.60102397203E+03 0.  0.
        2    1    3    3  502    0 -0.17369750149E+03 -0.62044987723E+02 -0.37195834242E+03  0.41517876996E+03  0.25500000920E-02 0.  1.
       -2    1    3    3    0  502  0.17369750149E+03  0.62044987723E+02  0.13739526998E+03  0.22999535375E+03  0.25500000920E-02 0. -1.
</event>
<event>
 5   0  0.3724066E-02  0.6008208E+03  0.7818609E-02  0.9903705E-01
       -2   -1    0    0    0  501  0.00000000000E+00  0.00000000000E+00  0.24196519208E+03  0.24196519209E+03  0.25500000920E-02 0. -1.
        2   -1    0    0  501    0  0.00000000000E+00  0.00000000000E+00 -0.37297274992E+03  0.37297274993E+03  0.25500000920E-02 0.  1.
    10030    2    1    2    0    0  0.00000000000E+00  0.00000000000E+00 -0.13100755785E+03  0.61493794202E+03  0.60082084878E+03 0.  0.
        4    1    3    3  502    0 -0.26593545144E+03  0.11972122309E+03 -0.13923796854E+03  0.32317744410E+03  0.12699999809E+01 0. -1.
       -4    1    3    3    0  502  0.26593545144E+03 -0.11972122309E+03  0.82304106926E+01  0.29176049793E+03  0.12699999809E+01 0.  1.
</event>
<event>
 5   0  0.3737642E-02  0.6056661E+03  0.7818609E-02  0.9893720E-01
       -2   -1    0    0    0  501  0.00000000000E+00  0.00000000000E+00  0.24274983011E+03  0.24274983012E+03  0.25500000920E-02 0. -1.
        2   -1    0    0  501    0  0.00000000000E+00  0.00000000000E+00 -0.37778749716E+03  0.37778749717E+03  0.25500000920E-02 0.  1.
    10030    2    1    2    0    0  0.00000000000E+00  0.00000000000E+00 -0.13503766705E+03  0.62053732729E+03  0.60566608212E+03 0.  0.
        5    1    3    3  502    0 -0.13587660765E+03  0.19607982629E+03 -0.25858092755E+03  0.35184646775E+03  0.46999998093E+01 0.  1.
       -5    1    3    3    0  502  0.13587660765E+03 -0.19607982629E+03  0.12354326050E+03  0.26869085953E+03  0.46999998093E+01 0. -1.
</event>
<event>
 5   0  0.3798925E-02  0.6017793E+03  0.7818609E-02  0.9901721E-01
       -2   -1    0    0    0  501  0.00000000000E+00  0.00000000000E+00  0.99843761933E+02  0.99843761965E+02  0.25500000920E-02 0.  1.
        2   -1    0    0  501    0  0.00000000000E+00  0.00000000000E+00 -0.90676261717E+03  0.90676261718E+03  0.25500000920E-02 0. -1.
    10030    2    1    2    0    0  0.00000000000E+00  0.00000000000E+00 -0.80691885524E+03  0.10066063791E+04  0.60177933131E+03 0.  0.
        2    1    3    3  502    0  0.27143463731E+03 -0.94014927032E+02 -0.55324952904E+03  0.62337838447E+03  0.25500000920E-02 0.  1.
       -2    1    3    3    0  502 -0.27143463731E+03  0.94014927032E+02 -0.25366932620E+03  0.38322799467E+03  0.25500000920E-02 0. -1.
</event>
<event>
 5   0  0.3832191E-02  0.5996021E+03  0.7818609E-02  0.9906232E-01
        2   -1    0    0  501    0  0.00000000000E+00  0.00000000000E+00  0.10835437265E+04  0.10835437265E+04  0.25500000920E-02 0. -1.
       -2   -1    0    0    0  501  0.00000000000E+00  0.00000000000E+00 -0.82950650395E+02  0.82950650434E+02  0.25500000920E-02 0.  1.
    10030    2    1    2    0    0  0.00000000000E+00  0.00000000000E+00  0.10005930761E+04  0.11664943769E+04  0.59960205759E+03 0.  0.
        3    1    3    3  502    0 -0.24717602035E+03 -0.92436509800E+02  0.77707126673E+03  0.82065842904E+03  0.10100000352E+00 0. -1.
       -3    1    3    3    0  502  0.24717602035E+03  0.92436509800E+02  0.22352180933E+03  0.34583594785E+03  0.10100000352E+00 0.  1.
</event>
<event>
 5   0  0.3832191E-02  0.6024350E+03  0.7818609E-02  0.9900367E-01
       -2   -1    0    0    0  501  0.00000000000E+00  0.00000000000E+00  0.72284031455E+02  0.72284031500E+02  0.25500000920E-02 0. -1.
        2   -1    0    0  501    0  0.00000000000E+00  0.00000000000E+00 -0.12552145864E+04  0.12552145864E+04  0.25500000920E-02 0.  1.
    10030    2    1    2    0    0  0.00000000000E+00  0.00000000000E+00 -0.11829305549E+04  0.13274986179E+04  0.60243496139E+03 0.  0.
        3    1    3    3  502    0 -0.16638466555E+03 -0.68925788710E+02 -0.59420387167E+02  0.18964549531E+03  0.10100000352E+00 0. -1.
       -3    1    3    3    0  502  0.16638466555E+03  0.68925788710E+02 -0.11235101677E+04  0.11378531226E+04  0.10100000352E+00 0.  1.
</event>
<event>
 5   0  0.3798925E-02  0.6016225E+03  0.7818609E-02  0.9902046E-01
        2   -1    0    0  501    0  0.00000000000E+00  0.00000000000E+00  0.15028073720E+04  0.15028073720E+04  0.25500000920E-02 0.  1.
       -2   -1    0    0    0  501  0.00000000000E+00  0.00000000000E+00 -0.60212240211E+02  0.60212240265E+02  0.25500000920E-02 0. -1.
    10030    2    1    2    0    0  0.00000000000E+00  0.00000000000E+00  0.14425951318E+04  0.15630196123E+04  0.60162246806E+03 0.  0.
        2    1    3    3  502    0 -0.49183667592E+02 -0.68053535885E+01 -0.49492530892E+02  0.70106038370E+02  0.25500000920E-02 0. -1.
       -2    1    3    3    0  502  0.49183667592E+02  0.68053535885E+01  0.14920876627E+04  0.14929135739E+04  0.25500000920E-02 0.  1.
</event>
<event>
 5   0  0.2382531E-02  0.5969629E+03  0.7818609E-02  0.9911727E-01
       -1   -1    0    0    0  501  0.00000000000E+00  0.00000000000E+00  0.67552885862E+02  0.67552886050E+02  0.50400001928E-02 0. -1.
        1   -1    0    0  501    0  0.00000000000E+00  0.00000000000E+00 -0.13188357880E+04  0.13188357880E+04  0.50400001928E-02 0.  1.
    10030    2    1    2    0    0  0.00000000000E+00  0.00000000000E+00 -0.12512829021E+04  0.13863886741E+04  0.59696285846E+03 0.  0.
        5    1    3    3  502    0 -0.33576768151E+02  0.24144513947E+03 -0.22577023045E+03  0.33229120014E+03  0.46999998093E+01 0. -1.
       -5    1    3    3    0  502  0.33576768151E+02 -0.24144513947E+03 -0.10255126717E+04  0.10540974739E+04  0.46999998093E+01 0.  1.
</event>
<event>
 5   0  0.1521750E-02  0.5983153E+03  0.7818609E-02  0.9908907E-01
       -4   -1    0    0    0  501  0.00000000000E+00  0.00000000000E+00  0.52989394527E+03  0.52989546718E+03  0.12699999809E+01 0. -1.
        4   -1    0    0  501    0  0.00000000000E+00  0.00000000000E+00 -0.16888871389E+03  0.16889348886E+03  0.12699999809E+01 0.  1.
    10030    2    1    2    0    0  0.00000000000E+00  0.00000000000E+00  0.36100523138E+03  0.69878895604E+03  0.59831532489E+03 0.  0.
        2    1    3    3  502    0 -0.16861720771E+03 -0.19806019498E+03  0.35308620593E+03  0.43855384207E+03  0.25500000920E-02 0. -1.
       -2    1    3    3    0  502  0.16861720771E+03  0.19806019498E+03  0.79190254497E+01  0.26023511397E+03  0.25500000920E-02 0.  1.
</event>
<event>
 5   0  0.3832191E-02  0.5949330E+03  0.7818609E-02  0.9915975E-01
       -2   -1    0    0    0  501  0.00000000000E+00  0.00000000000E+00  0.63654004424E+02  0.63654004475E+02  0.25500000920E-02 0.  1.
        2   -1    0    0  501    0  0.00000000000E+00  0.00000000000E+00 -0.13901138120E+04  0.13901138120E+04  0.25500000920E-02 0. -1.
    10030    2    1    2    0    0  0.00000000000E+00  0.00000000000E+00 -0.13264598076E+04  0.14537678165E+04  0.59493297362E+03 0.  0.
        3    1    3    3  502    0 -0.13835082992E+03  0.71854074271E+02 -0.44166993330E+02  0.16203300167E+03  0.10100000352E+00 0.  1.
       -3    1    3    3    0  502  0.13835082992E+03 -0.71854074271E+02 -0.12822928142E+04  0.12917348148E+04  0.10100000352E+00 0. -1.
</event>
<event>
 5   0  0.2309055E-02  0.6013000E+03  0.7818609E-02  0.9902713E-01
        1   -1    0    0  501    0  0.00000000000E+00  0.00000000000E+00  0.99667927287E+03  0.99667927288E+03  0.50400001928E-02 0. -1.
       -1   -1    0    0    0  501  0.00000000000E+00  0.00000000000E+00 -0.90691596837E+02  0.90691596977E+02  0.50400001928E-02 0.  1.
    10030    2    1    2    0    0  0.00000000000E+00  0.00000000000E+00  0.90598767603E+03  0.10873708699E+04  0.60130004116E+03 0.  0.
        4    1    3    3  502    0  0.43289620480E+01  0.27533275350E+03  0.67121473245E+03  0.72550513094E+03  0.12699999809E+01 0. -1.
       -4    1    3    3    0  502 -0.43289620480E+01 -0.27533275350E+03  0.23477294358E+03  0.36186573892E+03  0.12699999809E+01 0.  1.
</event>
<event>
 5   0  0.3934634E-02  0.6068083E+03  0.7818609E-02  0.9891381E-01
       -2   -1    0    0    0  501  0.00000000000E+00  0.00000000000E+00  0.15102060052E+03  0.15102060055E+03  0.25500000920E-02 0.  1.
        2   -1    0    0  501    0  0.00000000000E+00  0.00000000000E+00 -0.60954641502E+03  0.60954641503E+03  0.25500000920E-02 0. -1.
    10030    2    1    2    0    0  0.00000000000E+00  0.00000000000E+00 -0.45852581450E+03  0.76056701558E+03  0.60680825853E+03 0.  0.
        1    1    3    3  502    0 -0.15387115936E+03 -0.22582110447E+03 -0.39451344510E+03  0.47990870308E+03  0.50400001928E-02 0.  1.
       -1    1    3    3    0  502  0.15387115936E+03  0.22582110447E+03 -0.64012369402E+02  0.28065831249E+03  0.50400001928E-02 0. -1.
</event>
<event>
 5   0  0.3798925E-02  0.5981908E+03  0.7818609E-02  0.9909167E-01
       -2   -1    0    0    0  501  0.00000000000E+00  0.00000000000E+00  0.41159249798E+03  0.41159249799E+03  0.25500000920E-02 0.  1.
        2   -1    0    0  501    0  0.00000000000E+00  0.00000000000E+00 -0.21734615532E+03  0.21734615533E+03  0.25500000920E-02 0. -1.
    10030    2    1    2    0    0  0.00000000000E+00  0.00000000000E+00  0.19424634267E+03  0.62893865332E+03  0.59819076222E+03 0.  0.
        2    1    3    3  502    0  0.20309219120E+03  0.11820363536E+03  0.29167367139E+03  0.37455582779E+03  0.25500000920E-02 0.  1.
       -2    1    3    3    0  502 -0.20309219120E+03 -0.11820363536E+03 -0.97427328726E+02  0.25438282554E+03  0.25500000920E-02 0. -1.
</event>
<event>
 5   0  0.2225808E-02  0.5940078E+03  0.7818609E-02  0.9917917E-01
       -1   -1    0    0    0  501  0.00000000000E+00  0.00000000000E+00  0.33761606910E+03  0.33761606914E+03  0.50400001928E-02 0. -1.
        1   -1    0    0  501    0  0.00000000000E+00  0.00000000000E+00 -0.26127698570E+03  0.26127698575E+03  0.50400001928E-02 0.  1.
    10030    2    1    2    0    0  0.00000000000E+00  0.00000000000E+00  0.76339083396E+02  0.59889305489E+03  0.59400777397E+03 0.  0.
        2    1    3    3  502    0 -0.15851272097E+03  0.42250995441E+02 -0.21145481496E+03  0.26762766692E+03  0.25500000920E-02 0.  1.
       -2    1    3    3    0  502  0.15851272097E+03 -0.42250995441E+02  0.28779389836E+03  0.33126538796E+03  0.25500000920E-02 0. -1.
</event>
<event>
 5   0  0.3737642E-02  0.5959881E+03  0.7818609E-02  0.9913765E-01
       -2   -1    0    0    0  501  0.00000000000E+00  0.00000000000E+00  0.71356805911E+03  0.71356805911E+03  0.25500000920E-02 0.  1.
        2   -1    0    0  501    0  0.00000000000E+00  0.00000000000E+00 -0.12444566392E+03  0.12444566394E+03  0.25500000920E-02 0. -1.
    10030    2    1    2    0    0  0.00000000000E+00  0.00000000000E+00  0.58912239519E+03  0.83801372305E+03  0.59598809007E+03 0.  0.
        5    1    3    3  502    0 -0.13525444680E+03 -0.76052175680E+02 -0.63096776189E+02  0.16757384035E+03  0.46999998093E+01 0. -1.
       -5    1    3    3    0  502  0.13525444680E+03  0.76052175680E+02  0.65221917138E+03  0.67043988270E+03  0.46999998093E+01 0.  1.
</event>
<event>
 5   0  0.2295179E-02  0.6123098E+03  0.7818609E-02  0.9880191E-01
        1   -1    0    0  501    0  0.00000000000E+00  0.00000000000E+00  0.12597573510E+04  0.12597573510E+04  0.50400001928E-02 0.  1.
       -1   -1    0    0    0  501  0.00000000000E+00  0.00000000000E+00 -0.74403867548E+02  0.74403867719E+02  0.50400001928E-02 0. -1.
    10030    2    1    2    0    0  0.00000000000E+00  0.00000000000E+00  0.11853534834E+04  0.13341612187E+04  0.61230978828E+03 0.  0.
        3    1    3    3  502    0 -0.21412678463E+03 -0.17385206487E+03  0.88219978216E+03  0.92431124963E+03  0.10100000352E+00 0.  1.
       -3    1    3    3    0  502  0.21412678463E+03  0.17385206487E+03  0.30315370126E+03  0.40984996907E+03  0.10100000352E+00 0. -1.
</event>
<event>
 5   0  0.2295179E-02  0.5948705E+03  0.7818609E-02  0.9916106E-01
        1   -1    0    0  501    0  0.00000000000E+00  0.00000000000E+00  0.24849392173E+03  0.24849392178E+03  0.50400001928E-02 0.  1.
       -1   -1    0    0    0  501  0.00000000000E+00  0.00000000000E+00 -0.35601571672E+03  0.35601571675E+03  0.50400001928E-02 0. -1.
    10030    2    1    2    0    0  0.00000000000E+00  0.00000000000E+00 -0.10752179499E+03  0.60450963853E+03  0.59487054615E+03 0.  0.
        3    1    3    3  502    0  0.41666500020E+02 -0.16342092616E+03 -0.30273128691E+03  0.34653822099E+03  0.10100000352E+00 0. -1.
       -3    1    3    3    0  502 -0.41666500020E+02  0.16342092616E+03  0.19520949193E+03  0.25797141754E+03  0.10100000352E+00 0.  1.
</event>
<event>
 5   0  0.2309055E-02  0.6015420E+03  0.7818609E-02  0.9902212E-01
        1   -1    0    0  501    0  0.00000000000E+00  0.00000000000E+00  0.13760677677E+03  0.13760677687E+03  0.50400001928E-02 0.  1.
       -1   -1    0    0    0  501  0.00000000000E+00  0.00000000000E+00 -0.65740363994E+03  0.65740363995E+03  0.50400001928E-02 0. -1.
    10030    2    1    2    0    0  0.00000000000E+00  0.00000000000E+00 -0.51979686316E+03  0.79501041682E+03  0.60154200510E+03 0.  0.
        4    1    3    3  502    0  0.21867378070E+03  0.12075221365E+03 -0.48129363626E+03  0.54225869903E+03  0.12699999809E+01 0. -1.
       -4    1    3    3    0  502 -0.21867378070E+03 -0.12075221365E+03 -0.38503226904E+02  0.25275171780E+03  0.12699999809E+01 0.  1.
</event>
<event>
 5   0  0.3724066E-02  0.6079568E+03  0.7818609E-02  0.9889034E-01
        2   -1    0    0  501    0  0.00000000000E+00  0.00000000000E+00  0.71279855147E+03  0.71279855148E+03  0.25500000920E-02 0.  1.
       -2   -1    0    0    0  501  0.00000000000E+00  0.00000000000E+00 -0.12963390044E+03  0.12963390046E+03  0.25500000920E-02 0. -1.
    10030    2    1    2    0    0  0.00000000000E+00  0.00000000000E+00  0.58316465103E+03  0.84243245194E+03  0.60795676316E+03 0.  0.
        4    1    3    3  502    0  0.43712799585E+02  0.12968870613E+03 -0.84524733766E+02  0.16086022773E+03  0.12699999809E+01 0. -1.
       -4    1    3    3    0  502 -0.43712799585E+02 -0.12968870613E+03  0.66768938480E+03  0.68157222421E+03  0.12699999809E+01 0.  1.
</event>
<event>
 5   0  0.3798925E-02  0.6120996E+03  0.7818609E-02  0.9880616E-01
       -2   -1    0    0    0  501  0.00000000000E+00  0.00000000000E+00  0.55249895490E+02  0.55249895549E+02  0.25500000920E-02 0. -1.
        2   -1    0    0  501    0  0.00000000000E+00  0.00000000000E+00 -0.16953241619E+04  0.16953241619E+04  0.25500000920E-02 0.  1.
    10030    2    1    2    0    0  0.00000000000E+00  0.00000000000E+00 -0.16400742664E+04  0.17505740574E+04  0.61209960894E+03 0.  0.
        2    1    3    3  502    0 -0.11632193043E+03 -0.27090238018E+03 -0.10549640530E+04  0.10953848841E+04  0.25500000920E-02 0.  1.
       -2    1    3    3    0  502  0.11632193043E+03  0.27090238018E+03 -0.58511021336E+03  0.65518917334E+03  0.25500000920E-02 0. -1.
</event>
<event>
 5   0  0.3724066E-02  0.5985258E+03  0.7818609E-02  0.9908469E-01
        2   -1    0    0  501    0  0.00000000000E+00  0.00000000000E+00  0.26035581155E+04  0.26035581155E+04  0.25500000920E-02 0.  1.
       -2   -1    0    0    0  501  0.00000000000E+00  0.00000000000E+00 -0.34398422982E+02  0.34398423076E+02  0.25500000920E-02 0. -1.
    10030    2    1    2    0    0  0.00000000000E+00  0.00000000000E+00  0.25691596925E+04  0.26379565386E+04  0.59852583383E+03 0.  0.
        4    1    3    3  502    0 -0.22704793758E+02  0.75530620818E+02  0.12243779272E+02  0.79824215445E+02  0.12699999809E+01 0. -1.
       -4    1    3    3    0  502  0.22704793758E+02 -0.75530620818E+02  0.25569159133E+04  0.25581323231E+04  0.12699999809E+01 0.  1.
</event>
<event>
 5   0  0.3934634E-02  0.5985419E+03  0.7818609E-02  0.9908436E-01
        2   -1    0    0  501    0  0.00000000000E+00  0.00000000000E+00  0.14033073153E+03  0.14033073155E+03  0.25500000920E-02 0.  1.
       -2   -1    0    0    0  501  0.00000000000E+00  0.00000000000E+00 -0.63822874739E+03  0.63822874739E+03  0.25500000920E-02 0. -1.
    10030    2    1    2    0    0  0.00000000000E+00  0.00000000000E+00 -0.49789801585E+03  0.77855947895E+03  0.59854191839E+03 0.  0.
        1    1    3    3  502    0  0.37686195295E+02  0.26808605493E+03 -0.41487994494E+03  0.49539454064E+03  0.50400001928E-02 0. -1.
       -1    1    3    3    0  502 -0.37686195295E+02 -0.26808605493E+03 -0.83018070919E+02  0.28316493831E+03  0.50400001928E-02 0.  1.
</event>
<event>
 5   0  0.3832191E-02  0.5979946E+03  0.7818609E-02  0.9909575E-01
        2   -1    0    0  501    0  0.00000000000E+00  0.00000000000E+00  0.52623527768E+03  0.52623527768E+03  0.25500000920E-02 0.  1.
       -2   -1    0    0    0  501  0.00000000000E+00  0.00000000000E+00 -0.16988481916E+03  0.16988481918E+03  0.25500000920E-02 0. -1.
    10030    2    1    2    0    0  0.00000000000E+00  0.00000000000E+00  0.35635045852E+03  0.69612009686E+03  0.59799459861E+03 0.  0.
        3    1    3    3  502    0 -0.22044604630E+03  0.15268984311E+03  0.24230078479E+02  0.26925407039E+03  0.10100000352E+00 0.  1.
       -3    1    3    3    0  502  0.22044604630E+03 -0.15268984311E+03  0.33212038004E+03  0.42686602647E+03  0.10100000352E+00 0. -1.
</event>
<event>
 5   0  0.2276105E-02  0.6024585E+03  0.7818609E-02  0.9900319E-01
       -1   -1    0    0    0  501  0.00000000000E+00  0.00000000000E+00  0.32886301227E+03  0.32886301231E+03  0.50400001928E-02 0. -1.
        1   -1    0    0  501    0  0.00000000000E+00  0.00000000000E+00 -0.27591750032E+03  0.27591750037E+03  0.50400001928E-02 0.  1.
    10030    2    1    2    0    0  0.00000000000E+00  0.00000000000E+00  0.52945511955E+02  0.60478051268E+03  0.60245849756E+03 0.  0.
        1    1    3    3  502    0 -0.54203787023E+02 -0.51810177081E+02  0.31934491061E+03  0.32802975007E+03  0.50400001928E-02 0. -1.
       -1    1    3    3    0  502  0.54203787023E+02  0.51810177081E+02 -0.26639939865E+03  0.27675076261E+03  0.50400001928E-02 0.  1.
</event>
<event>
 5   0  0.3798925E-02  0.5972133E+03  0.7818609E-02  0.9911205E-01
       -2   -1    0    0    0  501  0.00000000000E+00  0.00000000000E+00  0.81259337037E+02  0.81259337077E+02  0.25500000920E-02 0. -1.
        2   -1    0    0  501    0  0.00000000000E+00  0.00000000000E+00 -0.10973006297E+04  0.10973006297E+04  0.25500000920E-02 0.  1.
    10030    2    1    2    0    0  0.00000000000E+00  0.00000000000E+00 -0.10160412926E+04  0.11785599668E+04  0.59721326751E+03 0.  0.
        2    1    3    3  502    0 -0.20804259828E+03 -0.12522575373E+03 -0.16505928749E+03  0.29361161504E+03  0.25500000920E-02 0. -1.
       -2    1    3    3    0  502  0.20804259828E+03  0.12522575373E+03 -0.85098200515E+03  0.88494835171E+03  0.25500000920E-02 0.  1.
</event>
<event>
 5   0  0.2225808E-02  0.5950431E+03  0.7818609E-02  0.9915744E-01
       -1   -1    0    0    0  501  0.00000000000E+00  0.00000000000E+00  0.25553524731E+03  0.25553524736E+03  0.50400001928E-02 0. -1.
        1   -1    0    0  501    0  0.00000000000E+00  0.00000000000E+00 -0.34640655202E+03  0.34640655205E+03  0.50400001928E-02 0.  1.
    10030    2    1    2    0    0  0.00000000000E+00  0.00000000000E+00 -0.90871304703E+02  0.60194179942E+03  0.59504313782E+03 0.  0.
        2    1    3    3  502    0  0.12337789286E+03 -0.20487361874E+02 -0.31852328446E+03  0.34219719343E+03  0.25500000920E-02 0.  1.
       -2    1    3    3    0  502 -0.12337789286E+03  0.20487361874E+02  0.22765197976E+03  0.25974460598E+03  0.25500000920E-02 0. -1.
</event>
<event>
 5   0  0.3724066E-02  0.6016839E+03  0.7818609E-02  0.9901919E-01
       -2   -1    0    0    0  501  0.00000000000E+00  0.00000000000E+00  0.10774407262E+03  0.10774407265E+03  0.25500000920E-02 0. -1.
        2   -1    0    0  501    0  0.00000000000E+00  0.00000000000E+00 -0.84000806527E+03  0.84000806527E+03  0.25500000920E-02 0.  1.
    10030    2    1    2    0    0  0.00000000000E+00  0.00000000000E+00 -0.73226399265E+03  0.94775213793E+03  0.60168393698E+03 0.  0.
        4    1    3    3  502    0 -0.24870581777E+03 -0.14333022221E+02 -0.63179046097E+03  0.67913240152E+03  0.12699999809E+01 0.  1.
       -4    1    3    3    0  502  0.24870581777E+03  0.14333022221E+02 -0.10047353168E+03  0.26861973641E+03  0.12699999809E+01 0. -1.
</event>
<event>
 5   0  0.3724066E-02  0.5430655E+03  0.7818609E-02  0.1003112E+00
       -2   -1    0    0    0  501  0.00000000000E+00  0.00000000000E+00  0.10940775634E+03  0.10940775637E+03  0.25500000920E-02 0. -1.
        2   -1    0    0  501    0  0.00000000000E+00  0.00000000000E+00 -0.67390146713E+03  0.67390146713E+03  0.25500000920E-02 0.  1.
    10030    2    1    2    0    0  0.00000000000E+00  0.00000000000E+00 -0.56449371078E+03  0.78330922351E+03  0.54306554864E+03 0.  0.
        4    1    3    3  502    0 -0.77755137609E+02  0.21751576698E+03 -0.76387413132E+02  0.24330150040E+03  0.12699999809E+01 0. -1.
       -4    1    3    3    0  502  0.77755137609E+02 -0.21751576698E+03 -0.48810629765E+03  0.54000772311E+03  0.12699999809E+01 0.  1.
</event>
<event>
 5   0  0.2309055E-02  0.5954927E+03  0.7818609E-02  0.9914802E-01
       -1   -1    0    0    0  501  0.00000000000E+00  0.00000000000E+00  0.10408509419E+03  0.10408509431E+03  0.50400001928E-02 0. -1.
        1   -1    0    0  501    0  0.00000000000E+00  0.00000000000E+00 -0.85173469393E+03  0.85173469395E+03  0.50400001928E-02 0.  1.
    10030    2    1    2    0    0  0.00000000000E+00  0.00000000000E+00 -0.74764959974E+03  0.95581978826E+03  0.59549268982E+03 0.  0.
        4    1    3    3  502    0  0.24501354534E+03  0.46766605118E+02 -0.11286784870E+03  0.27378735713E+03  0.12699999809E+01 0. -1.
       -4    1    3    3    0  502 -0.24501354534E+03 -0.46766605118E+02 -0.63478175105E+03  0.68203243113E+03  0.12699999809E+01 0.  1.
</event>
<event>
 5   0  0.2295179E-02  0.6051715E+03  0.7818609E-02  0.9894735E-01
       -1   -1    0    0    0  501  0.00000000000E+00  0.00000000000E+00  0.49327891692E+03  0.49327891694E+03  0.50400001928E-02 0. -1.
        1   -1    0    0  501    0  0.00000000000E+00  0.00000000000E+00 -0.18561128770E+03  0.18561128777E+03  0.50400001928E-02 0.  1.
    10030    2    1    2    0    0  0.00000000000E+00  0.00000000000E+00  0.30766762921E+03  0.67889020471E+03  0.60517149635E+03 0.  0.
        3    1    3    3  502    0  0.75873602989E+00  0.27204050615E+02  0.49190318316E+03  0.49265544537E+03  0.10100000352E+00 0. -1.
       -3    1    3    3    0  502 -0.75873602989E+00 -0.27204050615E+02 -0.18423555394E+03  0.18623475934E+03  0.10100000352E+00 0.  1.
</event>
<event>
 5   0  0.3832191E-02  0.6011218E+03  0.7818609E-02  0.9903081E-01
       -2   -1    0    0    0  501  0.00000000000E+00  0.00000000000E+00  0.32915781322E+03  0.32915781323E+03  0.25500000920E-02 0.  1.
        2   -1    0    0  501    0  0.00000000000E+00  0.00000000000E+00 -0.27444842341E+03  0.27444842342E+03  0.25500000920E-02 0. -1.
    10030    2    1    2    0    0  0.00000000000E+00  0.00000000000E+00  0.54709389808E+02  0.60360623665E+03  0.60112176104E+03 0.  0.
        3    1    3    3  502    0  0.13576577509E+03  0.36551474725E+01  0.29658808147E+03  0.32620577257E+03  0.10100000352E+00 0.  1.
       -3    1    3    3    0  502 -0.13576577509E+03 -0.36551474725E+01 -0.24187869166E+03  0.27740046408E+03  0.10100000352E+00 0. -1.
</event>
<event>
 5   0  0.2382531E-02  0.6004118E+03  0.7818609E-02  0.9904552E-01
        1   -1    0    0  501    0  0.00000000000E+00  0.00000000000E+00  0.44717461423E+03  0.44717461426E+03  0.50400001928E-02 0. -1.
       -1   -1    0    0    0  501  0.00000000000E+00  0.00000000000E+00 -0.20154004189E+03  0.20154004195E+03  0.50400001928E-02 0.  1.
    10030    2    1    2    0    0  0.00000000000E+00  0.00000000000E+00  0.24563457234E+03  0.64871465621E+03  0.60041182705E+03 0.  0.
        5    1    3    3  502    0 -0.16234284499E+03  0.14020148502E+03  0.34968555467E+03  0.41026056704E+03  0.46999998093E+01 0. -1.
       -5    1    3    3    0  502  0.16234284499E+03 -0.14020148502E+03 -0.10405098233E+03  0.23845408917E+03  0.46999998093E+01 0.  1.
</event>
<event>
 5   0  0.2309055E-02  0.5979718E+03  0.7818609E-02  0.9909623E-01
       -1   -1    0    0    0  501  0.00000000000E+00  0.00000000000E+00  0.34300082715E+03  0.34300082718E+03  0.50400001928E-02 0. -1.
        1   -1    0    0  501    0  0.00000000000E+00  0.00000000000E+00 -0.26061909100E+03  0.26061909105E+03  0.50400001928E-02 0.  1.
    10030    2    1    2    0    0  0.00000000000E+00  0.00000000000E+00  0.82381736146E+02  0.60361991823E+03  0.59797178465E+03 0.  0.
        4    1    3    3  502    0 -0.26981970061E+03 -0.80847801141E+02 -0.60015358602E+02  0.28799738532E+03  0.12699999809E+01 0.  1.
       -4    1    3    3    0  502  0.26981970061E+03  0.80847801141E+02  0.14239709475E+03  0.31562253291E+03  0.12699999809E+01 0. -1.
</event>
<event>
 5   0  0.3724066E-02  0.5991941E+03  0.7818609E-02  0.9907079E-01
       -2   -1    0    0    0  501  0.00000000000E+00  0.00000000000E+00  0.35669385526E+03  0.35669385527E+03  0.25500000920E-02 0.  1.
        2   -1    0    0  501    0  0.00000000000E+00  0.00000000000E+00 -0.25163988358E+03  0.25163988360E+03  0.25500000920E-02 0. -1.
    10030    2    1    2    0    0  0.00000000000E+00  0.00000000000E+00  0.10505397168E+03  0.60833373887E+03  0.59919412621E+03 0.  0.
        4    1    3    3  502    0  0.47705861291E+02 -0.25360540816E+03  0.20704983668E+03  0.33085162841E+03  0.12699999809E+01 0. -1.
       -4    1    3    3    0  502 -0.47705861291E+02  0.25360540816E+03 -0.10199586500E+03  0.27748211046E+03  0.12699999809E+01 0.  1.
</event>
<event>
 5   0  0.3934634E-02  0.5997402E+03  0.7818609E-02  0.9905945E-01
        2   -1    0    0  501    0  0.00000000000E+00  0.00000000000E+00  0.11280625797E+04  0.11280625797E+04  0.25500000920E-02 0. -1.
       -2   -1    0    0    0  501  0.00000000000E+00  0.00000000000E+00 -0.79713717846E+02  0.79713717887E+02  0.25500000920E-02 0.  1.
    10030    2    1    2    0    0  0.00000000000E+00  0.00000000000E+00  0.10483488618E+04  0.12077762976E+04  0.59974015112E+03 0.  0.
        1    1    3    3  502    0 -0.38630262565E+02 -0.79388230892E+02 -0.52946839531E+02  0.10294734689E+03  0.50400001928E-02 0.  1.
       -1    1    3    3    0  502  0.38630262565E+02  0.79388230892E+02  0.11012957014E+04  0.11048289507E+04  0.50400001928E-02 0. -1.
</event>
<event>
 5   0  0.2225808E-02  0.5942368E+03  0.7818609E-02  0.9917436E-01
       -1   -1    0    0    0  501  0.00000000000E+00  0.00000000000E+00  0.26799566547E+03  0.26799566552E+03  0.50400001928E-02 0. -1.
        1   -1    0    0  501    0  0.00000000000E+00  0.00000000000E+00 -0.32940583108E+03  0.32940583112E+03  0.50400001928E-02 0.  1.
    10030    2    1    2    0    0  0.00000000000E+00  0.00000000000E+00 -0.61410165611E+02  0.59740149664E+03  0.59423677078E+03 0.  0.
        2    1    3    3  502    0 -0.94676100181E+02  0.16978950173E+03 -0.25659551707E+03  0.32192126092E+03  0.25500000920E-02 0.  1.
       -2    1    3    3    0  502  0.94676100181E+02 -0.16978950173E+03  0.19518535146E+03  0.27548023572E+03  0.25500000920E-02 0. -1.
</event>
<event>
 5   0  0.3798925E-02  0.6018873E+03  0.7818609E-02  0.9901498E-01
       -2   -1    0    0    0  501  0.00000000000E+00  0.00000000000E+00  0.39329818896E+03  0.39329818897E+03  0.25500000920E-02 0.  1.
        2   -1    0    0  501    0  0.00000000000E+00  0.00000000000E+00 -0.23027586346E+03  0.23027586348E+03  0.25500000920E-02 0. -1.
    10030    2    1    2    0    0  0.00000000000E+00  0.00000000000E+00  0.16302232550E+03  0.62357405245E+03  0.60188729865E+03 0.  0.
        2    1    3    3  502    0 -0.24759190787E+02 -0.43620224194E+02 -0.22591500973E+03  0.23141593099E+03  0.25500000920E-02 0. -1.
       -2    1    3    3    0  502  0.24759190787E+02  0.43620224194E+02  0.38893733523E+03  0.39215812146E+03  0.25500000920E-02 0.  1.
</event>
<event>
 5   0  0.1521750E-02  0.6290307E+03  0.7818609E-02  0.9846942E-01
        3   -1    0    0  501    0  0.00000000000E+00  0.00000000000E+00  0.43198283861E+03  0.43198285042E+03  0.10100000352E+00 0.  1.
       -3   -1    0    0    0  501  0.00000000000E+00  0.00000000000E+00 -0.22899029766E+03  0.22899031994E+03  0.10100000352E+00 0. -1.
    10030    2    1    2    0    0  0.00000000000E+00  0.00000000000E+00  0.20299254095E+03  0.66097317036E+03  0.62903065128E+03 0.  0.
        4    1    3    3  502    0 -0.30335600832E+03  0.59485868944E+02  0.40634023864E+02  0.31179508204E+03  0.12699999809E+01 0. -1.
       -4    1    3    3    0  502  0.30335600832E+03 -0.59485868944E+02  0.16235851709E+03  0.34917808832E+03  0.12699999809E+01 0.  1.
</event>
<event>
 5   0  0.3934634E-02  0.5967395E+03  0.7818609E-02  0.9912194E-01
       -2   -1    0    0    0  501  0.00000000000E+00  0.00000000000E+00  0.68686319663E+02  0.68686319710E+02  0.25500000920E-02 0. -1.
        2   -1    0    0  501    0  0.00000000000E+00  0.00000000000E+00 -0.12961023086E+04  0.12961023086E+04  0.25500000920E-02 0.  1.
    10030    2    1    2    0    0  0.00000000000E+00  0.00000000000E+00 -0.12274159889E+04  0.13647886283E+04  0.59673946582E+03 0.  0.
        1    1    3    3  502    0  0.22540761252E+03  0.16770215012E+03 -0.84346406026E+03  0.88902431008E+03  0.50400001928E-02 0.  1.
       -1    1    3    3    0  502 -0.22540761252E+03 -0.16770215012E+03 -0.38395192865E+03  0.47576431821E+03  0.50400001928E-02 0. -1.
</event>
<event>
 5   0  0.3832191E-02  0.5891413E+03  0.7818609E-02  0.9928194E-01
       -2   -1    0    0    0  501  0.00000000000E+00  0.00000000000E+00  0.42975283350E+02  0.42975283425E+02  0.25500000920E-02 0.  1.
        2   -1    0    0  501    0  0.00000000000E+00  0.00000000000E+00 -0.20191111461E+04  0.20191111461E+04  0.25500000920E-02 0. -1.
    10030    2    1    2    0    0  0.00000000000E+00  0.00000000000E+00 -0.19761358628E+04  0.20620864295E+04  0.58914131988E+03 0.  0.
        3    1    3    3  502    0 -0.17721513408E+02  0.21286730612E+03 -0.16980503765E+04  0.17114326260E+04  0.10100000352E+00 0. -1.
       -3    1    3    3    0  502  0.17721513408E+02 -0.21286730612E+03 -0.27808548622E+03  0.35065380349E+03  0.10100000352E+00 0.  1.
</event>
<event>
 5   0  0.3798925E-02  0.6042289E+03  0.7818609E-02  0.9896671E-01
       -2   -1    0    0    0  501  0.00000000000E+00  0.00000000000E+00  0.12603778317E+03  0.12603778320E+03  0.25500000920E-02 0. -1.
        2   -1    0    0  501    0  0.00000000000E+00  0.00000000000E+00 -0.72417274815E+03  0.72417274816E+03  0.25500000920E-02 0.  1.
    10030    2    1    2    0    0  0.00000000000E+00  0.00000000000E+00 -0.59813496498E+03  0.85021053135E+03  0.60422885672E+03 0.  0.
        2    1    3    3  502    0  0.23070135520E+01  0.25194727069E+03 -0.53363736323E+03  0.59012844785E+03  0.25500000920E-02 0.  1.
       -2    1    3    3    0  502 -0.23070135520E+01 -0.25194727069E+03 -0.64497601750E+02  0.26008208350E+03  0.25500000920E-02 0. -1.
</event>
<event>
 5   0  0.2382531E-02  0.5949276E+03  0.7818609E-02  0.9915986E-01
        1   -1    0    0  501    0  0.00000000000E+00  0.00000000000E+00  0.37534896020E+03  0.37534896023E+03  0.50400001928E-02 0. -1.
       -1   -1    0    0    0  501  0.00000000000E+00  0.00000000000E+00 -0.23573985110E+03  0.23573985116E+03  0.50400001928E-02 0.  1.
    10030    2    1    2    0    0  0.00000000000E+00  0.00000000000E+00  0.13960910910E+03  0.61108881139E+03  0.59492758556E+03 0.  0.
        5    1    3    3  502    0  0.25660758570E+03  0.12535362471E+03  0.15513739061E+03  0.32503951180E+03  0.46999998093E+01 0.  1.
       -5    1    3    3    0  502 -0.25660758570E+03 -0.12535362471E+03 -0.15528281512E+02  0.28604929959E+03  0.46999998093E+01 0. -1.
</event>
<event>
 5   0  0.3724066E-02  0.5975538E+03  0.7818609E-02  0.9910494E-01
       -2   -1    0    0    0  501  0.00000000000E+00  0.00000000000E+00  0.39578220422E+03  0.39578220423E+03  0.25500000920E-02 0.  1.
        2   -1    0    0  501    0  0.00000000000E+00  0.00000000000E+00 -0.22554735887E+03  0.22554735889E+03  0.25500000920E-02 0. -1.
    10030    2    1    2    0    0  0.00000000000E+00  0.00000000000E+00  0.17023484535E+03  0.62132956311E+03  0.59755378288E+03 0.  0.
        4    1    3    3  502    0 -0.79624510146E+01 -0.49226372530E+02  0.39142186355E+03  0.39458753724E+03  0.12699999809E+01 0.  1.
       -4    1    3    3    0  502  0.79624510146E+01  0.49226372530E+02 -0.22118701820E+03  0.22674202588E+03  0.12699999809E+01 0. -1.
</event>
<event>
 5   0  0.2295179E-02  0.5994984E+03  0.7818609E-02  0.9906447E-01
       -1   -1    0    0    0  501  0.00000000000E+00  0.00000000000E+00  0.58278246552E+02  0.58278246770E+02  0.50400001928E-02 0.  1.
        1   -1    0    0  501    0  0.00000000000E+00  0.00000000000E+00 -0.15417342371E+04  0.15417342371E+04  0.50400001928E-02 0. -1.
    10030    2    1    2    0    0  0.00000000000E+00  0.00000000000E+00 -0.14834559905E+04  0.16000124838E+04  0.59949835084E+03 0.  0.
        3    1    3    3  502    0  0.10792194532E+03 -0.10587040099E+03 -0.14325289214E+04  0.14404842272E+04  0.10100000352E+00 0. -1.
       -3    1    3    3    0  502 -0.10792194532E+03  0.10587040099E+03 -0.50927069130E+02  0.15952825662E+03  0.10100000352E+00 0.  1.
</event>
<event>
 5   0  0.2276105E-02  0.5957405E+03  0.7818609E-02  0.9914283E-01
       -1   -1    0    0    0  501  0.00000000000E+00  0.00000000000E+00  0.15547847076E+03  0.15547847085E+03  0.50400001928E-02 0. -1.
        1   -1    0    0  501    0  0.00000000000E+00  0.00000000000E+00 -0.57066869710E+03  0.57066869713E+03  0.50400001928E-02 0.  1.
    10030    2    1    2    0    0  0.00000000000E+00  0.00000000000E+00 -0.41519022634E+03  0.72614716797E+03  0.59574053539E+03 0.  0.
        1    1    3    3  502    0 -0.51423904138E+02 -0.81466027679E+02  0.13596467390E+03  0.16663590297E+03  0.50400001928E-02 0. -1.
       -1    1    3    3    0  502  0.51423904138E+02  0.81466027679E+02 -0.55115490024E+03  0.55951126501E+03  0.50400001928E-02 0.  1.
</event>
<event>
 5   0  0.3832191E-02  0.6029794E+03  0.7818609E-02  0.9899244E-01
       -2   -1    0    0    0  501  0.00000000000E+00  0.00000000000E+00  0.68858183017E+02  0.68858183064E+02  0.25500000920E-02 0. -1.
        2   -1    0    0  501    0  0.00000000000E+00  0.00000000000E+00 -0.13200470841E+04  0.13200470841E+04  0.25500000920E-02 0.  1.
    10030    2    1    2    0    0  0.00000000000E+00  0.00000000000E+00 -0.12511889011E+04  0.13889052672E+04  0.60297941505E+03 0.  0.
        3    1    3    3  502    0  0.18220932114E+03  0.22273351566E+03 -0.41847271820E+03  0.50786797673E+03  0.10100000352E+00 0. -1.
       -3    1    3    3    0  502 -0.18220932114E+03 -0.22273351566E+03 -0.83271618288E+03  0.88103729043E+03  0.10100000352E+00 0.  1.
</event>
<event>
 5   0  0.2382531E-02  0.5882568E+03  0.7818609E-02  0.9930074E-01
       -1   -1    0    0    0  501  0.00000000000E+00  0.00000000000E+00  0.19138471907E+03  0.19138471913E+03  0.50400001928E-02 0. -1.
        1   -1    0    0  501    0  0.00000000000E+00  0.00000000000E+00 -0.45202932789E+03  0.45202932791E+03  0.50400001928E-02 0.  1.
    10030    2    1    2    0    0  0.00000000000E+00  0.00000000000E+00 -0.26064460882E+03  0.64341404705E+03  0.58825676692E+03 0.  0.
        5    1    3    3  502    0 -0.93445594895E+02  0.10138663149E+02  0.17447213819E+03  0.19823594199E+03  0.46999998093E+01 0.  1.
       -5    1    3    3    0  502  0.93445594895E+02 -0.10138663149E+02 -0.43511674701E+03  0.44517810505E+03  0.46999998093E+01 0. -1.
</event>
<event>
 5   0  0.2295179E-02  0.6250566E+03  0.7818609E-02  0.9854743E-01
        1   -1    0    0  501    0  0.00000000000E+00  0.00000000000E+00  0.59189696640E+03  0.59189696642E+03  0.50400001928E-02 0. -1.
       -1   -1    0    0    0  501  0.00000000000E+00  0.00000000000E+00 -0.16501847671E+03  0.16501847679E+03  0.50400001928E-02 0.  1.
    10030    2    1    2    0    0  0.00000000000E+00  0.00000000000E+00  0.42687848968E+03  0.75691544320E+03  0.62505659200E+03 0.  0.
        3    1    3    3  502    0  0.42295495653E+02  0.25311177298E+01 -0.16152416616E+03  0.16698916720E+03  0.10100000352E+00 0.  1.
       -3    1    3    3    0  502 -0.42295495653E+02 -0.25311177298E+01  0.58840265584E+03  0.58992627600E+03  0.10100000352E+00 0. -1.
</event>
<event>
 5   0  0.2309055E-02  0.5973667E+03  0.7818609E-02  0.9910884E-01
        1   -1    0    0  501    0  0.00000000000E+00  0.00000000000E+00  0.51335121574E+03  0.51335121576E+03  0.50400001928E-02 0.  1.
       -1   -1    0    0    0  501  0.00000000000E+00  0.00000000000E+00 -0.17378307132E+03  0.17378307139E+03  0.50400001928E-02 0. -1.
    10030    2    1    2    0    0  0.00000000000E+00  0.00000000000E+00  0.33956814442E+03  0.68713428715E+03  0.59736672478E+03 0.  0.
        4    1    3    3  502    0 -0.23580188482E+03 -0.59961418594E+02 -0.29489533670E+02  0.24509007753E+03  0.12699999809E+01 0. -1.
       -4    1    3    3    0  502  0.23580188482E+03  0.59961418594E+02  0.36905767809E+03  0.44204420963E+03  0.12699999809E+01 0.  1.
</event>
<event>
 5   0  0.2382531E-02  0.6064746E+03  0.7818609E-02  0.9892064E-01
        1   -1    0    0  501    0  0.00000000000E+00  0.00000000000E+00  0.46039216626E+03  0.46039216629E+03  0.50400001928E-02 0.  1.
       -1   -1    0    0    0  501  0.00000000000E+00  0.00000000000E+00 -0.19972722209E+03  0.19972722216E+03  0.50400001928E-02 0. -1.
    10030    2    1    2    0    0  0.00000000000E+00  0.00000000000E+00  0.26066494417E+03  0.66011938844E+03  0.60647456161E+03 0.  0.
        5    1    3    3  502    0  0.26529921271E+03 -0.70417723407E+02 -0.98560790805E+01  0.27470267623E+03  0.46999998093E+01 0. -1.
       -5    1    3    3    0  502 -0.26529921271E+03  0.70417723407E+02  0.27052102325E+03  0.38541671221E+03  0.46999998093E+01 0.  1.
</event>
<event>
 5   0  0.2309055E-02  0.6001091E+03  0.7818609E-02  0.9905180E-01
       -1   -1    0    0    0  501  0.00000000000E+00  0.00000000000E+00  0.24359510238E+03  0.24359510243E+03  0.50400001928E-02 0. -1.
        1   -1    0    0  501    0  0.00000000000E+00  0.00000000000E+00 -0.36959989493E+03  0.36959989496E+03  0.50400001928E-02 0.  1.
    10030    2    1    2    0    0  0.00000000000E+00  0.00000000000E+00 -0.12600479255E+03  0.61319499739E+03  0.60010907099E+03 0.  0.
        4    1    3    3  502    0 -0.38985494230E+02 -0.22093582769E+03 -0.26659219914E+03  0.34843295232E+03  0.12699999809E+01 0.  1.
       -4    1    3    3    0  502  0.38985494230E+02  0.22093582769E+03  0.14058740660E+03  0.26476204507E+03  0.12699999809E+01 0. -1.
</event>
<event>
 5   0  0.3832191E-02  0.5815453E+03  0.7818609E-02  0.9944451E-01
        2   -1    0    0  501    0  0.00000000000E+00  0.00000000000E+00  0.37190465329E+03  0.37190465330E+03  0.25500000920E-02 0. -1.
       -2   -1    0    0    0  501  0.00000000000E+00  0.00000000000E+00 -0.22733983762E+03  0.22733983764E+03  0.25500000920E-02 0.  1.
    10030    2    1    2    0    0  0.00000000000E+00  0.00000000000E+00  0.14456481566E+03  0.59924449093E+03  0.58154533270E+03 0.  0.
        3    1    3    3  502    0 -0.31743949364E+02 -0.22954724945E+03  0.25326709523E+03  0.34328392007E+03  0.10100000352E+00 0. -1.
       -3    1    3    3    0  502  0.31743949364E+02  0.22954724945E+03 -0.10870227957E+03  0.25596057086E+03  0.10100000352E+00 0.  1.
</event>
<event>
 5   0  0.2309055E-02  0.6047332E+03  0.7818609E-02  0.9895635E-01
        1   -1    0    0  501    0  0.00000000000E+00  0.00000000000E+00  0.15205092494E+04  0.15205092494E+04  0.50400001928E-02 0. -1.
       -1   -1    0    0    0  501  0.00000000000E+00  0.00000000000E+00 -0.60128250274E+02  0.60128250485E+02  0.50400001928E-02 0.  1.
    10030    2    1    2    0    0  0.00000000000E+00  0.00000000000E+00  0.14603809991E+04  0.15806374999E+04  0.60473320023E+03 0.  0.
        4    1    3    3  502    0  0.19115346799E+03 -0.12823438470E+03  0.21772866539E+03  0.31684553078E+03  0.12699999809E+01 0.  1.
       -4    1    3    3    0  502 -0.19115346799E+03  0.12823438470E+03  0.12426523337E+04  0.12637919691E+04  0.12699999809E+01 0. -1.
</event>
<event>
 5   0  0.3832191E-02  0.5876132E+03  0.7818609E-02  0.9931443E-01
       -2   -1    0    0    0  501  0.00000000000E+00  0.00000000000E+00  0.67403514695E+02  0.67403514743E+02  0.25500000920E-02 0.  1.
        2   -1    0    0  501    0  0.00000000000E+00  0.00000000000E+00 -0.12806799235E+04  0.12806799235E+04  0.25500000920E-02 0. -1.
    10030    2    1    2    0    0  0.00000000000E+00  0.00000000000E+00 -0.12132764088E+04  0.13480834382E+04  0.58761323360E+03 0.  0.
        3    1    3    3  502    0 -0.57468670544E+02 -0.28409725629E+03 -0.49641259675E+03  0.57483856476E+03  0.10100000352E+00 0. -1.
       -3    1    3    3    0  502  0.57468670544E+02  0.28409725629E+03 -0.71686381202E+03  0.77324487344E+03  0.10100000352E+00 0.  1.
</event>
<event>
 5   0  0.3724066E-02  0.5975795E+03  0.7818609E-02  0.9910441E-01
        2   -1    0    0  501    0  0.00000000000E+00  0.00000000000E+00  0.22107734460E+04  0.22107734460E+04  0.25500000920E-02 0.  1.
       -2   -1    0    0    0  501  0.00000000000E+00  0.00000000000E+00 -0.40381932593E+02  0.40381932674E+02  0.25500000920E-02 0. -1.
    10030    2    1    2    0    0  0.00000000000E+00  0.00000000000E+00  0.21703915134E+04  0.22511553787E+04  0.59757946541E+03 0.  0.
        4    1    3    3  502    0  0.15840129875E+03  0.19015191669E+03  0.45455450763E+03  0.51756172209E+03  0.12699999809E+01 0. -1.
       -4    1    3    3    0  502 -0.15840129875E+03 -0.19015191669E+03  0.17158370058E+04  0.17335936566E+04  0.12699999809E+01 0.  1.
</event>
<event>
 5   0  0.2309055E-02  0.6020419E+03  0.7818609E-02  0.9901179E-01
       -1   -1    0    0    0  501  0.00000000000E+00  0.00000000000E+00  0.18278746149E+03  0.18278746156E+03  0.50400001928E-02 0. -1.
        1   -1    0    0  501    0  0.00000000000E+00  0.00000000000E+00 -0.49573209835E+03  0.49573209838E+03  0.50400001928E-02 0.  1.
    10030    2    1    2    0    0  0.00000000000E+00  0.00000000000E+00 -0.31294463686E+03  0.67851955994E+03  0.60204189844E+03 0.  0.
        4    1    3    3  502    0  0.46669164170E+02  0.14331638106E+03  0.13719298805E+03  0.20381639982E+03  0.12699999809E+01 0. -1.
       -4    1    3    3    0  502 -0.46669164170E+02 -0.14331638106E+03 -0.45013762491E+03  0.47470316012E+03  0.12699999809E+01 0.  1.
</event>
<event>
 5   0  0.2276105E-02  0.5974564E+03  0.7818609E-02  0.9910697E-01
        1   -1    0    0  501    0  0.00000000000E+00  0.00000000000E+00  0.54337310480E+03  0.54337310482E+03  0.50400001928E-02 0. -1.
       -1   -1    0    0    0  501  0.00000000000E+00  0.00000000000E+00 -0.16423066214E+03  0.16423066221E+03  0.50400001928E-02 0.  1.
    10030    2    1    2    0    0  0.00000000000E+00  0.00000000000E+00  0.37914244267E+03  0.70760376704E+03  0.59745635765E+03 0.  0.
        1    1    3    3  502    0 -0.21336345771E+03 -0.16931996092E+03  0.33484409502E+03  0.43164080235E+03  0.50400001928E-02 0. -1.
       -1    1    3    3    0  502  0.21336345771E+03  0.16931996092E+03  0.44298347642E+02  0.27596296469E+03  0.50400001928E-02 0.  1.
</event>
<event>
 5   0  0.3798925E-02  0.6049862E+03  0.7818609E-02  0.9895115E-01
        2   -1    0    0  501    0  0.00000000000E+00  0.00000000000E+00  0.12800437232E+03  0.12800437234E+03  0.25500000920E-02 0. -1.
       -2   -1    0    0    0  501  0.00000000000E+00  0.00000000000E+00 -0.71483545791E+03  0.71483545791E+03  0.25500000920E-02 0.  1.
    10030    2    1    2    0    0  0.00000000000E+00  0.00000000000E+00 -0.58683108559E+03  0.84283983026E+03  0.60498616220E+03 0.  0.
        2    1    3    3  502    0 -0.10163648649E+02  0.12860185171E+03 -0.67459147656E+03  0.68681540189E+03  0.25500000920E-02 0.  1.
       -2    1    3    3    0  502  0.10163648649E+02 -0.12860185171E+03  0.87760390971E+02  0.15602442837E+03  0.25500000920E-02 0. -1.
</event>
<event>
 5   0  0.3832191E-02  0.6006285E+03  0.7818609E-02  0.9904103E-01
        2   -1    0    0  501    0  0.00000000000E+00  0.00000000000E+00  0.92638520831E+03  0.92638520831E+03  0.25500000920E-02 0. -1.
       -2   -1    0    0    0  501  0.00000000000E+00  0.00000000000E+00 -0.97355450302E+02  0.97355450335E+02  0.25500000920E-02 0.  1.
    10030    2    1    2    0    0  0.00000000000E+00  0.00000000000E+00  0.82902975800E+03  0.10237406586E+04  0.60062850124E+03 0.  0.
        3    1    3    3  502    0  0.32774575417E+02  0.94330189613E+02  0.89725709333E+03  0.90279713070E+03  0.10100000352E+00 0. -1.
       -3    1    3    3    0  502 -0.32774575417E+02 -0.94330189613E+02 -0.68227335323E+02  0.12094352795E+03  0.10100000352E+00 0.  1.
</event>
<event>
 5   0  0.2309055E-02  0.6069102E+03  0.7818609E-02  0.9891172E-01
        1   -1    0    0  501    0  0.00000000000E+00  0.00000000000E+00  0.92755358723E+02  0.92755358860E+02  0.50400001928E-02 0.  1.
       -1   -1    0    0    0  501  0.00000000000E+00  0.00000000000E+00 -0.99277292159E+03  0.99277292160E+03  0.50400001928E-02 0. -1.
    10030    2    1    2    0    0  0.00000000000E+00  0.00000000000E+00 -0.90001756287E+03  0.10855282805E+04  0.60691023572E+03 0.  0.
        4    1    3    3  502    0  0.30023560153E+03  0.24023637881E+02 -0.38393058269E+03  0.48797833643E+03  0.12699999809E+01 0. -1.
       -4    1    3    3    0  502 -0.30023560153E+03 -0.24023637881E+02 -0.51608698018E+03  0.59754994403E+03  0.12699999809E+01 0.  1.
</event>
<event>
 5   0  0.2225808E-02  0.6002660E+03  0.7818609E-02  0.9904854E-01
        1   -1    0    0  501    0  0.00000000000E+00  0.00000000000E+00  0.63752888440E+03  0.63752888442E+03  0.50400001928E-02 0.  1.
       -1   -1    0    0    0  501  0.00000000000E+00  0.00000000000E+00 -0.14129526238E+03  0.14129526247E+03  0.50400001928E-02 0. -1.
    10030    2    1    2    0    0  0.00000000000E+00  0.00000000000E+00  0.49623362202E+03  0.77882414689E+03  0.60026597784E+03 0.  0.
        2    1    3    3  502    0  0.29369815065E+03  0.62454094186E+01  0.32791040939E+03  0.44025316061E+03  0.25500000920E-02 0.  1.
       -2    1    3    3    0  502 -0.29369815065E+03 -0.62454094186E+01  0.16832321262E+03  0.33857098627E+03  0.25500000920E-02 0. -1.
</event>
<event>
 5   0  0.2276105E-02  0.5893923E+03  0.7818609E-02  0.9927661E-01
        1   -1    0    0  501    0  0.00000000000E+00  0.00000000000E+00  0.36976119362E+03  0.36976119365E+03  0.50400001928E-02 0. -1.
       -1   -1    0    0    0  501  0.00000000000E+00  0.00000000000E+00 -0.23487003917E+03  0.23487003922E+03  0.50400001928E-02 0.  1.
    10030    2    1    2    0    0  0.00000000000E+00  0.00000000000E+00  0.13489115445E+03  0.60463123287E+03  0.58939231774E+03 0.  0.
        1    1    3    3  502    0  0.85148654530E+02  0.27488555671E+03  0.22939652595E+01  0.28778051525E+03  0.50400001928E-02 0.  1.
       -1    1    3    3    0  502 -0.85148654530E+02 -0.27488555671E+03  0.13259718919E+03  0.31685071763E+03  0.50400001928E-02 0. -1.
</event>
<event>
 5   0  0.3798925E-02  0.5979504E+03  0.7818609E-02  0.9909668E-01
       -2   -1    0    0    0  501  0.00000000000E+00  0.00000000000E+00  0.86515898559E+02  0.86515898596E+02  0.25500000920E-02 0.  1.
        2   -1    0    0  501    0  0.00000000000E+00  0.00000000000E+00 -0.10331760697E+04  0.10331760697E+04  0.25500000920E-02 0. -1.
    10030    2    1    2    0    0  0.00000000000E+00  0.00000000000E+00 -0.94666017116E+03  0.11196919683E+04  0.59795035267E+03 0.  0.
        2    1    3    3  502    0 -0.14621598168E+03  0.10919750681E+03 -0.91678436562E+03  0.93477097829E+03  0.25500000920E-02 0. -1.
       -2    1    3    3    0  502  0.14621598168E+03 -0.10919750681E+03 -0.29875805541E+02  0.18492099003E+03  0.25500000920E-02 0.  1.
</event>
<event>
 5   0  0.1521750E-02  0.5984993E+03  0.7818609E-02  0.9908524E-01
       -3   -1    0    0    0  501  0.00000000000E+00  0.00000000000E+00  0.17916374494E+03  0.17916377341E+03  0.10100000352E+00 0.  1.
        3   -1    0    0  501    0  0.00000000000E+00  0.00000000000E+00 -0.49982396051E+03  0.49982397071E+03  0.10100000352E+00 0. -1.
    10030    2    1    2    0    0  0.00000000000E+00  0.00000000000E+00 -0.32066021556E+03  0.67898774413E+03  0.59849927554E+03 0.  0.
        1    1    3    3  502    0 -0.29520965032E+03  0.33087202150E+02 -0.11931816315E+03  0.32012548269E+03  0.50400001928E-02 0. -1.
       -1    1    3    3    0  502  0.29520965032E+03 -0.33087202150E+02 -0.20134205242E+03  0.35886226143E+03  0.50400001928E-02 0.  1.
</event>
<event>
 5   0  0.2295179E-02  0.6025677E+03  0.7818609E-02  0.9900093E-01
       -1   -1    0    0    0  501  0.00000000000E+00  0.00000000000E+00  0.82006034965E+02  0.82006035120E+02  0.50400001928E-02 0.  1.
        1   -1    0    0  501    0  0.00000000000E+00  0.00000000000E+00 -0.11068936235E+04  0.11068936235E+04  0.50400001928E-02 0. -1.
    10030    2    1    2    0    0  0.00000000000E+00  0.00000000000E+00 -0.10248875885E+04  0.11888996586E+04  0.60256769674E+03 0.  0.
        3    1    3    3  502    0 -0.18265217284E+03  0.13491090363E+03 -0.12175295287E+03  0.25765589435E+03  0.10100000352E+00 0.  1.
       -3    1    3    3    0  502  0.18265217284E+03 -0.13491090363E+03 -0.90313463563E+03  0.93124376424E+03  0.10100000352E+00 0. -1.
</event>
<event>
 5   0  0.2276105E-02  0.5996665E+03  0.7818609E-02  0.9906098E-01
       -1   -1    0    0    0  501  0.00000000000E+00  0.00000000000E+00  0.11379622018E+03  0.11379622029E+03  0.50400001928E-02 0.  1.
        1   -1    0    0  501    0  0.00000000000E+00  0.00000000000E+00 -0.79000852109E+03  0.79000852111E+03  0.50400001928E-02 0. -1.
    10030    2    1    2    0    0  0.00000000000E+00  0.00000000000E+00 -0.67621230091E+03  0.90380474140E+03  0.59966651956E+03 0.  0.
        1    1    3    3  502    0  0.25504550928E+03  0.74880024861E+02 -0.54719024290E+03  0.60833575588E+03  0.50400001928E-02 0. -1.
       -1    1    3    3    0  502 -0.25504550928E+03 -0.74880024861E+02 -0.12902205801E+03  0.29546898552E+03  0.50400001928E-02 0.  1.
</event>
<event>
 5   0  0.3832191E-02  0.6254176E+03  0.7818609E-02  0.9854032E-01
       -2   -1    0    0    0  501  0.00000000000E+00  0.00000000000E+00  0.14717694478E+03  0.14717694481E+03  0.25500000920E-02 0. -1.
        2   -1    0    0  501    0  0.00000000000E+00  0.00000000000E+00 -0.66441644946E+03  0.66441644947E+03  0.25500000920E-02 0.  1.
    10030    2    1    2    0    0  0.00000000000E+00  0.00000000000E+00 -0.51723950468E+03  0.81159339428E+03  0.62541756646E+03 0.  0.
        3    1    3    3  502    0 -0.16533840301E+03  0.21545598264E+03 -0.57463465427E+02  0.27759706055E+03  0.10100000352E+00 0. -1.
       -3    1    3    3    0  502  0.16533840301E+03 -0.21545598264E+03 -0.45977603925E+03  0.53399633373E+03  0.10100000352E+00 0.  1.
</event>
<event>
 5   0  0.3832191E-02  0.5961526E+03  0.7818609E-02  0.9913421E-01
        2   -1    0    0  501    0  0.00000000000E+00  0.00000000000E+00  0.16939149357E+04  0.16939149357E+04  0.25500000920E-02 0. -1.
       -2   -1    0    0    0  501  0.00000000000E+00  0.00000000000E+00 -0.52452147301E+02  0.52452147363E+02  0.25500000920E-02 0.  1.
    10030    2    1    2    0    0  0.00000000000E+00  0.00000000000E+00  0.16414627884E+04  0.17463670831E+04  0.59615258376E+03 0.  0.
        3    1    3    3  502    0  0.25351169204E+03  0.10917378917E+03  0.49109464009E+03  0.56334807177E+03  0.10100000352E+00 0.  1.
       -3    1    3    3    0  502 -0.25351169204E+03 -0.10917378917E+03  0.11503681483E+04  0.11830190113E+04  0.10100000352E+00 0. -1.
</event>
<event>
 5   0  0.2276105E-02  0.6220916E+03  0.7818609E-02  0.9860604E-01
        1   -1    0    0  501    0  0.00000000000E+00  0.00000000000E+00  0.12222522152E+03  0.12222522162E+03  0.50400001928E-02 0. -1.
       -1   -1    0    0    0  501  0.00000000000E+00  0.00000000000E+00 -0.79156729633E+03  0.79156729634E+03  0.50400001928E-02 0.  1.
    10030    2    1    2    0    0  0.00000000000E+00  0.00000000000E+00 -0.66934207481E+03  0.91379251797E+03  0.62209159517E+03 0.  0.
        1    1    3    3  502    0 -0.18939569513E+03  0.83460679337E+02 -0.67573851617E+03  0.70672410217E+03  0.50400001928E-02 0.  1.
       -1    1    3    3    0  502  0.18939569513E+03 -0.83460679337E+02  0.63964413614E+01  0.20706841579E+03  0.50400001928E-02 0. -1.
</event>
<event>
 5   0  0.1521750E-02  0.6009324E+03  0.7818609E-02  0.9903473E-01
       -3   -1    0    0    0  501  0.00000000000E+00  0.00000000000E+00  0.32075877498E+03  0.32075879088E+03  0.10100000352E+00 0. -1.
        3   -1    0    0  501    0  0.00000000000E+00  0.00000000000E+00 -0.28145742631E+03  0.28145744443E+03  0.10100000352E+00 0.  1.
    10030    2    1    2    0    0  0.00000000000E+00  0.00000000000E+00  0.39301348671E+02  0.60221623531E+03  0.60093244052E+03 0.  0.
        5    1    3    3  502    0  0.15194231843E+01  0.39253415962E+02  0.31813714697E+03  0.32058770032E+03  0.46999998093E+01 0. -1.
       -5    1    3    3    0  502 -0.15194231843E+01 -0.39253415962E+02 -0.27883579830E+03  0.28162853500E+03  0.46999998093E+01 0.  1.
</event>
<event>
 5   0  0.3934634E-02  0.6033742E+03  0.7818609E-02  0.9898430E-01
        2   -1    0    0  501    0  0.00000000000E+00  0.00000000000E+00  0.72033486159E+02  0.72033486204E+02  0.25500000920E-02 0. -1.
       -2   -1    0    0    0  501  0.00000000000E+00  0.00000000000E+00 -0.12635109960E+04  0.12635109960E+04  0.25500000920E-02 0.  1.
    10030    2    1    2    0    0  0.00000000000E+00  0.00000000000E+00 -0.11914775098E+04  0.13355444822E+04  0.60337418531E+03 0.  0.
        1    1    3    3  502    0  0.27564742140E+03  0.12249853952E+03 -0.58408730378E+03  0.65737764761E+03  0.50400001928E-02 0. -1.
       -1    1    3    3    0  502 -0.27564742140E+03 -0.12249853952E+03 -0.60739020607E+03  0.67816683461E+03  0.50400001928E-02 0.  1.
</event>
<event>
 5   0  0.2225808E-02  0.5996932E+03  0.7818609E-02  0.9906043E-01
        1   -1    0    0  501    0  0.00000000000E+00  0.00000000000E+00  0.47263866923E+03  0.47263866926E+03  0.50400001928E-02 0.  1.
       -1   -1    0    0    0  501  0.00000000000E+00  0.00000000000E+00 -0.19022561957E+03  0.19022561964E+03  0.50400001928E-02 0. -1.
    10030    2    1    2    0    0  0.00000000000E+00  0.00000000000E+00  0.28241304966E+03  0.66286428889E+03  0.59969320062E+03 0.  0.
        2    1    3    3  502    0 -0.15318034583E+03  0.51991904247E+02 -0.13785733450E+03  0.21253710532E+03  0.25500000920E-02 0. -1.
       -2    1    3    3    0  502  0.15318034583E+03 -0.51991904247E+02  0.42027038416E+03  0.45032718357E+03  0.25500000920E-02 0.  1.
</event>
<event>
 5   0  0.2276105E-02  0.5991155E+03  0.7818609E-02  0.9907243E-01
        1   -1    0    0  501    0  0.00000000000E+00  0.00000000000E+00  0.15937689758E+04  0.15937689758E+04  0.50400001928E-02 0. -1.
       -1   -1    0    0    0  501  0.00000000000E+00  0.00000000000E+00 -0.56303540576E+02  0.56303540801E+02  0.50400001928E-02 0.  1.
    10030    2    1    2    0    0  0.00000000000E+00  0.00000000000E+00  0.15374654353E+04  0.16500725166E+04  0.59911546931E+03 0.  0.
        1    1    3    3  502    0 -0.11267017828E+01 -0.10659308394E+03  0.15397631598E+04  0.15434487174E+04  0.50400001928E-02 0. -1.
       -1    1    3    3    0  502  0.11267017828E+01  0.10659308394E+03 -0.22977245281E+01  0.10662379924E+03  0.50400001928E-02 0.  1.
</event>
<event>
 5   0  0.1521750E-02  0.5974964E+03  0.7818609E-02  0.9910614E-01
       -4   -1    0    0    0  501  0.00000000000E+00  0.00000000000E+00  0.55915638880E+03  0.55915783106E+03  0.12699999809E+01 0. -1.
        4   -1    0    0  501    0  0.00000000000E+00  0.00000000000E+00 -0.15961213885E+03  0.15961719133E+03  0.12699999809E+01 0.  1.
    10030    2    1    2    0    0  0.00000000000E+00  0.00000000000E+00  0.39954424995E+03  0.71877502239E+03  0.59749638086E+03 0.  0.
        4    1    3    3  502    0 -0.21023759935E+02 -0.11179832153E+03 -0.13253736827E+03  0.17466719803E+03  0.12699999809E+01 0.  1.
       -4    1    3    3    0  502  0.21023759935E+02  0.11179832153E+03  0.53208161822E+03  0.54410782436E+03  0.12699999809E+01 0. -1.
</event>
<event>
 5   0  0.3934634E-02  0.5968577E+03  0.7818609E-02  0.9911947E-01
        2   -1    0    0  501    0  0.00000000000E+00  0.00000000000E+00  0.10724848591E+04  0.10724848591E+04  0.25500000920E-02 0.  1.
       -2   -1    0    0    0  501  0.00000000000E+00  0.00000000000E+00 -0.83040603643E+02  0.83040603682E+02  0.25500000920E-02 0. -1.
    10030    2    1    2    0    0  0.00000000000E+00  0.00000000000E+00  0.98944425546E+03  0.11555254628E+04  0.59685773890E+03 0.  0.
        1    1    3    3  502    0 -0.20191622507E+03 -0.20088308361E+03  0.66718633706E+03  0.72543902819E+03  0.50400001928E-02 0. -1.
       -1    1    3    3    0  502  0.20191622507E+03  0.20088308361E+03  0.32225791839E+03  0.43008643459E+03  0.50400001928E-02 0.  1.
</event>
<event>
 5   0  0.2225808E-02  0.5988215E+03  0.7818609E-02  0.9907854E-01
       -1   -1    0    0    0  501  0.00000000000E+00  0.00000000000E+00  0.13797369170E+03  0.13797369179E+03  0.50400001928E-02 0.  1.
        1   -1    0    0  501    0  0.00000000000E+00  0.00000000000E+00 -0.64973844046E+03  0.64973844048E+03  0.50400001928E-02 0. -1.
    10030    2    1    2    0    0  0.00000000000E+00  0.00000000000E+00 -0.51176474876E+03  0.78771213227E+03  0.59882154708E+03 0.  0.
        2    1    3    3  502    0 -0.29291780499E+03 -0.10303066804E+02 -0.17543806483E+03  0.34159260569E+03  0.25500000920E-02 0.  1.
       -2    1    3    3    0  502  0.29291780499E+03  0.10303066804E+02 -0.33632668393E+03  0.44611952658E+03  0.25500000920E-02 0. -1.
</event>
<event>
 5   0  0.2225808E-02  0.6105742E+03  0.7818609E-02  0.9883708E-01
        1   -1    0    0  501    0  0.00000000000E+00  0.00000000000E+00  0.15562881255E+03  0.15562881264E+03  0.50400001928E-02 0.  1.
       -1   -1    0    0    0  501  0.00000000000E+00  0.00000000000E+00 -0.59886223925E+03  0.59886223927E+03  0.50400001928E-02 0. -1.
    10030    2    1    2    0    0  0.00000000000E+00  0.00000000000E+00 -0.44323342670E+03  0.75449105191E+03  0.61057421897E+03 0.  0.
        2    1    3    3  502    0  0.88070525021E+02  0.29119810729E+03 -0.19017374839E+03  0.35877403704E+03  0.25500000920E-02 0.  1.
       -2    1    3    3    0  502 -0.88070525021E+02 -0.29119810729E+03 -0.25305967830E+03  0.39571701487E+03  0.25500000920E-02 0. -1.
</event>
<event>
 5   0  0.3798925E-02  0.5987699E+03  0.7818609E-02  0.9907961E-01
        2   -1    0    0  501    0  0.00000000000E+00  0.00000000000E+00  0.13407272354E+04  0.13407272354E+04  0.25500000920E-02 0.  1.
       -2   -1    0    0    0  501  0.00000000000E+00  0.00000000000E+00 -0.66852779123E+02  0.66852779172E+02  0.25500000920E-02 0. -1.
    10030    2    1    2    0    0  0.00000000000E+00  0.00000000000E+00  0.12738744563E+04  0.14075800146E+04  0.59876987823E+03 0.  0.
        2    1    3    3  502    0 -0.14042994322E+03 -0.18441059206E+03  0.10823693980E+04  0.11069107232E+04  0.25500000920E-02 0.  1.
       -2    1    3    3    0  502  0.14042994322E+03  0.18441059206E+03  0.19150505825E+03  0.30066929135E+03  0.25500000920E-02 0. -1.
</event>
<event>
 5   0  0.1521750E-02  0.5923422E+03  0.7818609E-02  0.9921422E-01
        3   -1    0    0  501    0  0.00000000000E+00  0.00000000000E+00  0.86088596390E+03  0.86088596982E+03  0.10100000352E+00 0.  1.
       -3   -1    0    0    0  501  0.00000000000E+00  0.00000000000E+00 -0.10189187792E+03  0.10189192797E+03  0.10100000352E+00 0. -1.
    10030    2    1    2    0    0  0.00000000000E+00  0.00000000000E+00  0.75899408598E+03  0.96277789779E+03  0.59234217976E+03 0.  0.
        2    1    3    3  502    0 -0.52534620918E+02  0.28319370401E+03  0.26737265535E+03  0.39299707024E+03  0.25500000920E-02 0. -1.
       -2    1    3    3    0  502  0.52534620918E+02 -0.28319370401E+03  0.49162143063E+03  0.56978082755E+03  0.25500000920E-02 0.  1.
</event>
<event>
 5   0  0.2276105E-02  0.5815528E+03  0.7818609E-02  0.9944435E-01
        1   -1    0    0  501    0  0.00000000000E+00  0.00000000000E+00  0.68650400858E+03  0.68650400860E+03  0.50400001928E-02 0.  1.
       -1   -1    0    0    0  501  0.00000000000E+00  0.00000000000E+00 -0.12316159219E+03  0.12316159229E+03  0.50400001928E-02 0. -1.
    10030    2    1    2    0    0  0.00000000000E+00  0.00000000000E+00  0.56334241639E+03  0.80966560089E+03  0.58155284124E+03 0.  0.
        1    1    3    3  502    0 -0.27473866323E+03 -0.87274924652E+02  0.22860700254E+03  0.36791222755E+03  0.50400001928E-02 0. -1.
       -1    1    3    3    0  502  0.27473866323E+03  0.87274924652E+02  0.33473541385E+03  0.44175337334E+03  0.50400001928E-02 0.  1.
</event>
<event>
 5   0  0.3737642E-02  0.5993720E+03  0.7818609E-02  0.9906710E-01
       -2   -1    0    0    0  501  0.00000000000E+00  0.00000000000E+00  0.80602630032E+02  0.80602630072E+02  0.25500000920E-02 0.  1.
        2   -1    0    0  501    0  0.00000000000E+00  0.00000000000E+00 -0.11142527678E+04  0.11142527678E+04  0.25500000920E-02 0. -1.
    10030    2    1    2    0    0  0.00000000000E+00  0.00000000000E+00 -0.10336501378E+04  0.11948553979E+04  0.59937201680E+03 0.  0.
        5    1    3    3  502    0 -0.70666662626E+02 -0.29052722347E+03 -0.47746802702E+03  0.56338055665E+03  0.46999998093E+01 0. -1.
       -5    1    3    3    0  502  0.70666662626E+02  0.29052722347E+03 -0.55618211076E+03  0.63147484123E+03  0.46999998093E+01 0.  1.
</event>
<event>
 5   0  0.2295179E-02  0.5938460E+03  0.7818609E-02  0.9918257E-01
       -1   -1    0    0    0  501  0.00000000000E+00  0.00000000000E+00  0.22378701155E+03  0.22378701161E+03  0.50400001928E-02 0.  1.
        1   -1    0    0  501    0  0.00000000000E+00  0.00000000000E+00 -0.39396062810E+03  0.39396062813E+03  0.50400001928E-02 0. -1.
    10030    2    1    2    0    0  0.00000000000E+00  0.00000000000E+00 -0.17017361654E+03  0.61774763974E+03  0.59384601256E+03 0.  0.
        3    1    3    3  502    0 -0.25581446398E+03 -0.11261419031E+03  0.19147299004E+02  0.28015999911E+03  0.10100000352E+00 0. -1.
       -3    1    3    3    0  502  0.25581446398E+03  0.11261419031E+03 -0.18932091555E+03  0.33758764063E+03  0.10100000352E+00 0.  1.
</event>
<event>
 5   0  0.3798925E-02  0.6005832E+03  0.7818609E-02  0.9904197E-01
       -2   -1    0    0    0  501  0.00000000000E+00  0.00000000000E+00  0.67397451382E+02  0.67397451430E+02  0.25500000920E-02 0.  1.
        2   -1    0    0  501    0  0.00000000000E+00  0.00000000000E+00 -0.13379592868E+04  0.13379592868E+04  0.25500000920E-02 0. -1.
    10030    2    1    2    0    0  0.00000000000E+00  0.00000000000E+00 -0.12705618354E+04  0.14053567382E+04  0.60058320328E+03 0.  0.
        2    1    3    3  502    0  0.18735231118E+03 -0.21599001582E+03 -0.42053092911E+03  0.50852614267E+03  0.25500000920E-02 0.  1.
       -2    1    3    3    0  502 -0.18735231118E+03  0.21599001582E+03 -0.85003090629E+03  0.89683059554E+03  0.25500000920E-02 0. -1.
</event>
<event>
 5   0  0.3798925E-02  0.5999202E+03  0.7818609E-02  0.9905572E-01
       -2   -1    0    0    0  501  0.00000000000E+00  0.00000000000E+00  0.40351833866E+02  0.40351833947E+02  0.25500000920E-02 0.  1.
        2   -1    0    0  501    0  0.00000000000E+00  0.00000000000E+00 -0.22297885349E+04  0.22297885349E+04  0.25500000920E-02 0. -1.
    10030    2    1    2    0    0  0.00000000000E+00  0.00000000000E+00 -0.21894367010E+04  0.22701403688E+04  0.59992018339E+03 0.  0.
        2    1    3    3  502    0  0.17153451783E+03  0.93771733225E+02 -0.19556158661E+04  0.19653627260E+04  0.25500000920E-02 0. -1.
       -2    1    3    3    0  502 -0.17153451783E+03 -0.93771733225E+02 -0.23382083490E+03  0.30477764288E+03  0.25500000920E-02 0.  1.
</event>
<event>
 5   0  0.2276105E-02  0.6007561E+03  0.7818609E-02  0.9903839E-01
        1   -1    0    0  501    0  0.00000000000E+00  0.00000000000E+00  0.58519166979E+03  0.58519166981E+03  0.50400001928E-02 0. -1.
       -1   -1    0    0    0  501  0.00000000000E+00  0.00000000000E+00 -0.15418363211E+03  0.15418363220E+03  0.50400001928E-02 0.  1.
    10030    2    1    2    0    0  0.00000000000E+00  0.00000000000E+00  0.43100803768E+03  0.73937530201E+03  0.60075611414E+03 0.  0.
        1    1    3    3  502    0 -0.17943821248E+03  0.77877614837E+02 -0.65050941964E+02  0.20614223261E+03  0.50400001928E-02 0.  1.
       -1    1    3    3    0  502  0.17943821248E+03 -0.77877614837E+02  0.49605897964E+03  0.53323306940E+03  0.50400001928E-02 0. -1.
</event>
<event>
 5   0  0.3832191E-02  0.6021905E+03  0.7818609E-02  0.9900872E-01
        2   -1    0    0  501    0  0.00000000000E+00  0.00000000000E+00  0.17136884156E+04  0.17136884156E+04  0.25500000920E-02 0.  1.
       -2   -1    0    0    0  501  0.00000000000E+00  0.00000000000E+00 -0.52902477683E+02  0.52902477744E+02  0.25500000920E-02 0. -1.
    10030    2    1    2    0    0  0.00000000000E+00  0.00000000000E+00  0.16607859379E+04  0.17665908933E+04  0.60219054531E+03 0.  0.
        3    1    3    3  502    0 -0.47432224190E+02 -0.17562269793E+03  0.15342461584E+04  0.15449933439E+04  0.10100000352E+00 0.  1.
       -3    1    3    3    0  502  0.47432224190E+02  0.17562269793E+03  0.12653977950E+03  0.22159754944E+03  0.10100000352E+00 0. -1.
</event>
<event>
 5   0  0.3798925E-02  0.6202667E+03  0.7818609E-02  0.9864229E-01
        2   -1    0    0  501    0  0.00000000000E+00  0.00000000000E+00  0.21596158347E+03  0.21596158348E+03  0.25500000920E-02 0.  1.
       -2   -1    0    0    0  501  0.00000000000E+00  0.00000000000E+00 -0.44536952636E+03  0.44536952637E+03  0.25500000920E-02 0. -1.
    10030    2    1    2    0    0  0.00000000000E+00  0.00000000000E+00 -0.22940794289E+03  0.66133110985E+03  0.62026674310E+03 0.  0.
        2    1    3    3  502    0  0.15535304399E+03 -0.14423365517E+01 -0.40088811875E+03  0.42993945199E+03  0.25500000920E-02 0. -1.
       -2    1    3    3    0  502 -0.15535304399E+03  0.14423365517E+01  0.17148017586E+03  0.23139165787E+03  0.25500000920E-02 0.  1.
</event>
<event>
 5   0  0.2295179E-02  0.6015326E+03  0.7818609E-02  0.9902231E-01
        1   -1    0    0  501    0  0.00000000000E+00  0.00000000000E+00  0.16622499405E+04  0.16622499405E+04  0.50400001928E-02 0. -1.
       -1   -1    0    0    0  501  0.00000000000E+00  0.00000000000E+00 -0.54420444839E+02  0.54420445072E+02  0.50400001928E-02 0.  1.
    10030    2    1    2    0    0  0.00000000000E+00  0.00000000000E+00  0.16078294956E+04  0.17166703855E+04  0.60153264716E+03 0.  0.
        3    1    3    3  502    0  0.26701797532E+03 -0.13816413796E+03  0.77962483035E+03  0.83558531250E+03  0.10100000352E+00 0.  1.
       -3    1    3    3    0  502 -0.26701797532E+03  0.13816413796E+03  0.82820466527E+03  0.88108507304E+03  0.10100000352E+00 0. -1.
</event>
<event>
 5   0  0.2295179E-02  0.6004767E+03  0.7818609E-02  0.9904418E-01
        1   -1    0    0  501    0  0.00000000000E+00  0.00000000000E+00  0.44872852334E+03  0.44872852337E+03  0.50400001928E-02 0.  1.
       -1   -1    0    0    0  501  0.00000000000E+00  0.00000000000E+00 -0.20088551594E+03  0.20088551600E+03  0.50400001928E-02 0. -1.
    10030    2    1    2    0    0  0.00000000000E+00  0.00000000000E+00  0.24784300740E+03  0.64961403937E+03  0.60047668050E+03 0.  0.
        3    1    3    3  502    0 -0.77554245365E+02 -0.13998607835E+02 -0.18949665240E+03  0.20523063482E+03  0.10100000352E+00 0. -1.
       -3    1    3    3    0  502  0.77554245365E+02  0.13998607835E+02  0.43733965981E+03  0.44438340455E+03  0.10100000352E+00 0.  1.
</event>
<event>
 5   0  0.2309055E-02  0.6011495E+03  0.7818609E-02  0.9903024E-01
       -1   -1    0    0    0  501  0.00000000000E+00  0.00000000000E+00  0.31393288536E+03  0.31393288540E+03  0.50400001928E-02 0. -1.
        1   -1    0    0  501    0  0.00000000000E+00  0.00000000000E+00 -0.28778505190E+03  0.28778505194E+03  0.50400001928E-02 0.  1.
    10030    2    1    2    0    0  0.00000000000E+00  0.00000000000E+00  0.26147833461E+02  0.60171793734E+03  0.60114953790E+03 0.  0.
        4    1    3    3  502    0 -0.48588014976E+02 -0.29609519823E+03  0.30709236565E+02  0.30162531678E+03  0.12699999809E+01 0. -1.
       -4    1    3    3    0  502  0.48588014976E+02  0.29609519823E+03 -0.45614031046E+01  0.30009262056E+03  0.12699999809E+01 0.  1.
</event>
<event>
 5   0  0.3832191E-02  0.6030589E+03  0.7818609E-02  0.9899080E-01
        2   -1    0    0  501    0  0.00000000000E+00  0.00000000000E+00  0.66965393471E+03  0.66965393471E+03  0.25500000920E-02 0. -1.
       -2   -1    0    0    0  501  0.00000000000E+00  0.00000000000E+00 -0.13577161205E+03  0.13577161208E+03  0.25500000920E-02 0.  1.
    10030    2    1    2    0    0  0.00000000000E+00  0.00000000000E+00  0.53388232265E+03  0.80542554679E+03  0.60305885035E+03 0.  0.
        3    1    3    3  502    0  0.17762536016E+03 -0.20933257696E+03  0.43348100845E+03  0.51310495148E+03  0.10100000352E+00 0. -1.
       -3    1    3    3    0  502 -0.17762536016E+03  0.20933257696E+03  0.10040131420E+03  0.29232059531E+03  0.10100000352E+00 0.  1.
</event>
<event>
 5   0  0.3798925E-02  0.6006072E+03  0.7818609E-02  0.9904147E-01
       -2   -1    0    0    0  501  0.00000000000E+00  0.00000000000E+00  0.93389425274E+02  0.93389425309E+02  0.25500000920E-02 0. -1.
        2   -1    0    0  501    0  0.00000000000E+00  0.00000000000E+00 -0.96565811907E+03  0.96565811907E+03  0.25500000920E-02 0.  1.
    10030    2    1    2    0    0  0.00000000000E+00  0.00000000000E+00 -0.87226869379E+03  0.10590475444E+04  0.60060721531E+03 0.  0.
        2    1    3    3  502    0 -0.97864871447E+02 -0.27881509535E+03 -0.53054665880E+03  0.60728506291E+03  0.25500000920E-02 0.  1.
       -2    1    3    3    0  502  0.97864871447E+02  0.27881509535E+03 -0.34172203499E+03  0.45176248147E+03  0.25500000920E-02 0. -1.
</event>
<event>
 5   0  0.3724066E-02  0.5950580E+03  0.7818609E-02  0.9915713E-01
       -2   -1    0    0    0  501  0.00000000000E+00  0.00000000000E+00  0.25760233757E+03  0.25760233758E+03  0.25500000920E-02 0.  1.
        2   -1    0    0  501    0  0.00000000000E+00  0.00000000000E+00 -0.34364399023E+03  0.34364399024E+03  0.25500000920E-02 0. -1.
    10030    2    1    2    0    0  0.00000000000E+00  0.00000000000E+00 -0.86041652660E+02  0.60124632782E+03  0.59505796417E+03 0.  0.
        4    1    3    3  502    0 -0.11595770422E+03 -0.12770780951E+02  0.23352722384E+03  0.26104761862E+03  0.12699999809E+01 0.  1.
       -4    1    3    3    0  502  0.11595770422E+03  0.12770780951E+02 -0.31956887650E+03  0.34019870920E+03  0.12699999809E+01 0. -1.
</event>
<event>
 5   0  0.2225808E-02  0.5956705E+03  0.7818609E-02  0.9914429E-01
        1   -1    0    0  501    0  0.00000000000E+00  0.00000000000E+00  0.18297590952E+04  0.18297590952E+04  0.50400001928E-02 0.  1.
       -1   -1    0    0    0  501  0.00000000000E+00  0.00000000000E+00 -0.48479515276E+02  0.48479515537E+02  0.50400001928E-02 0. -1.
    10030    2    1    2    0    0  0.00000000000E+00  0.00000000000E+00  0.17812795800E+04  0.18782386108E+04  0.59567049368E+03 0.  0.
        2    1    3    3  502    0  0.24333390393E+03 -0.57030364212E+02  0.37984906692E+03  0.45469678346E+03  0.25500000920E-02 0. -1.
       -2    1    3    3    0  502 -0.24333390393E+03  0.57030364212E+02  0.14014305130E+04  0.14235418273E+04  0.25500000920E-02 0.  1.
</event>
<event>
 5   0  0.2382531E-02  0.6009009E+03  0.7818609E-02  0.9903539E-01
       -1   -1    0    0    0  501  0.00000000000E+00  0.00000000000E+00  0.13599188688E+03  0.13599188697E+03  0.50400001928E-02 0. -1.
        1   -1    0    0  501    0  0.00000000000E+00  0.00000000000E+00 -0.66379307779E+03  0.66379307781E+03  0.50400001928E-02 0.  1.
    10030    2    1    2    0    0  0.00000000000E+00  0.00000000000E+00 -0.52780119091E+03  0.79978496477E+03  0.60090090094E+03 0.  0.
        5    1    3    3  502    0  0.90887535720E+02 -0.35900857986E+02 -0.64199858605E+03  0.64941026342E+03  0.46999998093E+01 0.  1.
       -5    1    3    3    0  502 -0.90887535720E+02  0.35900857986E+02  0.11419739513E+03  0.15037470135E+03  0.46999998093E+01 0. -1.
</event>
<event>
 5   0  0.3832191E-02  0.5989301E+03  0.7818609E-02  0.9907628E-01
       -2   -1    0    0    0  501  0.00000000000E+00  0.00000000000E+00  0.10503885531E+03  0.10503885535E+03  0.25500000920E-02 0.  1.
        2   -1    0    0  501    0  0.00000000000E+00  0.00000000000E+00 -0.85377269993E+03  0.85377269993E+03  0.25500000920E-02 0. -1.
    10030    2    1    2    0    0  0.00000000000E+00  0.00000000000E+00 -0.74873384461E+03  0.95881155528E+03  0.59893006976E+03 0.  0.
        3    1    3    3  502    0  0.16826675027E+02  0.50166306563E+02 -0.84622978927E+03  0.84788245751E+03  0.10100000352E+00 0. -1.
       -3    1    3    3    0  502 -0.16826675027E+02 -0.50166306563E+02  0.97495944654E+02  0.11092909777E+03  0.10100000352E+00 0.  1.
</event>
<event>
 5   0  0.3798925E-02  0.5982061E+03  0.7818609E-02  0.9909135E-01
        2   -1    0    0  501    0  0.00000000000E+00  0.00000000000E+00  0.10355666747E+04  0.10355666747E+04  0.25500000920E-02 0. -1.
       -2   -1    0    0    0  501  0.00000000000E+00  0.00000000000E+00 -0.86390020604E+02  0.86390020642E+02  0.25500000920E-02 0.  1.
    10030    2    1    2    0    0  0.00000000000E+00  0.00000000000E+00  0.94917665408E+03  0.11219566953E+04  0.59820607281E+03 0.  0.
        2    1    3    3  502    0  0.11381884297E+03 -0.52937588772E+01  0.99326755704E+03  0.99978157253E+03  0.25500000920E-02 0. -1.
       -2    1    3    3    0  502 -0.11381884297E+03  0.52937588772E+01 -0.44090902967E+02  0.12217512279E+03  0.25500000920E-02 0.  1.
</event>
<event>
 5   0  0.2276105E-02  0.6027549E+03  0.7818609E-02  0.9899707E-01
        1   -1    0    0  501    0  0.00000000000E+00  0.00000000000E+00  0.84354256470E+03  0.84354256471E+03  0.50400001928E-02 0.  1.
       -1   -1    0    0    0  501  0.00000000000E+00  0.00000000000E+00 -0.10767489974E+03  0.10767489986E+03  0.50400001928E-02 0. -1.
    10030    2    1    2    0    0  0.00000000000E+00  0.00000000000E+00  0.73586766496E+03  0.95121746457E+03  0.60275487935E+03 0.  0.
        1    1    3    3  502    0  0.10215621958E+03  0.26439174141E+03  0.20630607151E+03  0.35057250504E+03  0.50400001928E-02 0. -1.
       -1    1    3    3    0  502 -0.10215621958E+03 -0.26439174141E+03  0.52956159345E+03  0.60064495953E+03  0.50400001928E-02 0.  1.
</event>
<event>
 5   0  0.2295179E-02  0.6029197E+03  0.7818609E-02  0.9899367E-01
       -1   -1    0    0    0  501  0.00000000000E+00  0.00000000000E+00  0.67976982010E+02  0.67976982197E+02  0.50400001928E-02 0. -1.
        1   -1    0    0  501    0  0.00000000000E+00  0.00000000000E+00 -0.13368942886E+04  0.13368942886E+04  0.50400001928E-02 0.  1.
    10030    2    1    2    0    0  0.00000000000E+00  0.00000000000E+00 -0.12689173066E+04  0.14048712708E+04  0.60291969331E+03 0.  0.
        3    1    3    3  502    0  0.24829337744E+03  0.16894752689E+03 -0.69545071618E+03  0.75752529790E+03  0.10100000352E+00 0.  1.
       -3    1    3    3    0  502 -0.24829337744E+03 -0.16894752689E+03 -0.57346659042E+03  0.64734597292E+03  0.10100000352E+00 0. -1.
</event>
<event>
 5   0  0.2309055E-02  0.6009438E+03  0.7818609E-02  0.9903450E-01
        1   -1    0    0  501    0  0.00000000000E+00  0.00000000000E+00  0.57730146837E+03  0.57730146839E+03  0.50400001928E-02 0. -1.
       -1   -1    0    0    0  501  0.00000000000E+00  0.00000000000E+00 -0.15638861135E+03  0.15638861143E+03  0.50400001928E-02 0.  1.
    10030    2    1    2    0    0  0.00000000000E+00  0.00000000000E+00  0.42091285702E+03  0.73369007982E+03  0.60094384098E+03 0.  0.
        4    1    3    3  502    0 -0.25776925901E+03  0.12743663970E+03  0.31686840396E+03  0.42789284448E+03  0.12699999809E+01 0.  1.
       -4    1    3    3    0  502  0.25776925901E+03 -0.12743663970E+03  0.10404445306E+03  0.30579723534E+03  0.12699999809E+01 0. -1.
</event>
<event>
 5   0  0.1521750E-02  0.6004944E+03  0.7818609E-02  0.9904381E-01
        3   -1    0    0  501    0  0.00000000000E+00  0.00000000000E+00  0.35431160340E+03  0.35431161779E+03  0.10100000352E+00 0.  1.
       -3   -1    0    0    0  501  0.00000000000E+00  0.00000000000E+00 -0.25443245728E+03  0.25443247733E+03  0.10100000352E+00 0. -1.
    10030    2    1    2    0    0  0.00000000000E+00  0.00000000000E+00  0.99879146119E+02  0.60874409512E+03  0.60049440423E+03 0.  0.
        2    1    3    3  502    0  0.42892943615E+02  0.20339511201E+03 -0.16969097326E+03  0.26833636096E+03  0.25500000920E-02 0. -1.
       -2    1    3    3    0  502 -0.42892943615E+02 -0.20339511201E+03  0.26957011938E+03  0.34040773415E+03  0.25500000920E-02 0.  1.
</event>
<event>
 5   0  0.2276105E-02  0.5993945E+03  0.7818609E-02  0.9906663E-01
        1   -1    0    0  501    0  0.00000000000E+00  0.00000000000E+00  0.45625328436E+03  0.45625328439E+03  0.50400001928E-02 0.  1.
       -1   -1    0    0    0  501  0.00000000000E+00  0.00000000000E+00 -0.19686093131E+03  0.19686093138E+03  0.50400001928E-02 0. -1.
    10030    2    1    2    0    0  0.00000000000E+00  0.00000000000E+00  0.25939235305E+03  0.65311421577E+03  0.59939451617E+03 0.  0.
        1    1    3    3  502    0 -0.25947523465E+03  0.13909222108E+03  0.19079677729E+03  0.35082396385E+03  0.50400001928E-02 0. -1.
       -1    1    3    3    0  502  0.25947523465E+03 -0.13909222108E+03  0.68595575760E+02  0.30229025192E+03  0.50400001928E-02 0.  1.
</event>
<event>
 5   0  0.3832191E-02  0.5616384E+03  0.7818609E-02  0.9988354E-01
        2   -1    0    0  501    0  0.00000000000E+00  0.00000000000E+00  0.10769242655E+04  0.10769242655E+04  0.25500000920E-02 0. -1.
       -2   -1    0    0    0  501  0.00000000000E+00  0.00000000000E+00 -0.73226518379E+02  0.73226518424E+02  0.25500000920E-02 0.  1.
    10030    2    1    2    0    0  0.00000000000E+00  0.00000000000E+00  0.10036977471E+04  0.11501507839E+04  0.56163836958E+03 0.  0.
        3    1    3    3  502    0 -0.44054097156E+02 -0.90271313450E+01 -0.65805043186E+02  0.79702989193E+02  0.10100000352E+00 0.  1.
       -3    1    3    3    0  502  0.44054097156E+02  0.90271313450E+01  0.10695027903E+04  0.10704477947E+04  0.10100000352E+00 0. -1.
</event>
<event>
 5   0  0.2225808E-02  0.5766653E+03  0.7818609E-02  0.9955037E-01
        1   -1    0    0  501    0  0.00000000000E+00  0.00000000000E+00  0.47148467683E+03  0.47148467686E+03  0.50400001928E-02 0.  1.
       -1   -1    0    0    0  501  0.00000000000E+00  0.00000000000E+00 -0.17632752912E+03  0.17632752920E+03  0.50400001928E-02 0. -1.
    10030    2    1    2    0    0  0.00000000000E+00  0.00000000000E+00  0.29515714771E+03  0.64781220606E+03  0.57666533836E+03 0.  0.
        2    1    3    3  502    0  0.11377502576E+03 -0.53542045908E+02  0.43906004108E+03  0.45671131675E+03  0.25500000920E-02 0.  1.
       -2    1    3    3    0  502 -0.11377502576E+03  0.53542045908E+02 -0.14390289337E+03  0.19110088931E+03  0.25500000920E-02 0. -1.
</event>
<event>
 5   0  0.1521750E-02  0.6052162E+03  0.7818609E-02  0.9894643E-01
       -3   -1    0    0    0  501  0.00000000000E+00  0.00000000000E+00  0.11448300116E+04  0.11448300160E+04  0.10100000352E+00 0. -1.
        3   -1    0    0  501    0  0.00000000000E+00  0.00000000000E+00 -0.79987102243E+02  0.79987166010E+02  0.10100000352E+00 0.  1.
    10030    2    1    2    0    0  0.00000000000E+00  0.00000000000E+00  0.10648429093E+04  0.12248171821E+04  0.60521624885E+03 0.  0.
        5    1    3    3  502    0 -0.22213708982E+03 -0.13216550208E+03  0.21412336452E+03  0.33568364846E+03  0.46999998093E+01 0.  1.
       -5    1    3    3    0  502  0.22213708982E+03  0.13216550208E+03  0.85071954483E+03  0.88913353359E+03  0.46999998093E+01 0. -1.
</event>
<event>
 5   0  0.3934634E-02  0.6037818E+03  0.7818609E-02  0.9897591E-01
        2   -1    0    0  501    0  0.00000000000E+00  0.00000000000E+00  0.93683898799E+02  0.93683898834E+02  0.25500000920E-02 0. -1.
       -2   -1    0    0    0  501  0.00000000000E+00  0.00000000000E+00 -0.97282575222E+03  0.97282575223E+03  0.25500000920E-02 0.  1.
    10030    2    1    2    0    0  0.00000000000E+00  0.00000000000E+00 -0.87914185342E+03  0.10665096511E+04  0.60378177959E+03 0.  0.
        1    1    3    3  502    0 -0.14301087567E+03 -0.70855796679E+02 -0.89221127584E+03  0.90637388270E+03  0.50400001928E-02 0.  1.
       -1    1    3    3    0  502  0.14301087567E+03  0.70855796679E+02  0.13069422412E+02  0.16013576836E+03  0.50400001928E-02 0. -1.
</event>
<event>
 5   0  0.2225808E-02  0.6037175E+03  0.7818609E-02  0.9897723E-01
       -1   -1    0    0    0  501  0.00000000000E+00  0.00000000000E+00  0.61395245332E+02  0.61395245539E+02  0.50400001928E-02 0.  1.
        1   -1    0    0  501    0  0.00000000000E+00  0.00000000000E+00 -0.14841329490E+04  0.14841329490E+04  0.50400001928E-02 0. -1.
    10030    2    1    2    0    0  0.00000000000E+00  0.00000000000E+00 -0.14227377036E+04  0.15455281945E+04  0.60371750571E+03 0.  0.
        2    1    3    3  502    0  0.23496786821E+03  0.11590770991E+03 -0.10951515430E+04  0.11260556818E+04  0.25500000920E-02 0. -1.
       -2    1    3    3    0  502 -0.23496786821E+03 -0.11590770991E+03 -0.32758616067E+03  0.41947251277E+03  0.25500000920E-02 0.  1.
</event>
<event>
 5   0  0.2295179E-02  0.6047852E+03  0.7818609E-02  0.9895528E-01
        1   -1    0    0  501    0  0.00000000000E+00  0.00000000000E+00  0.32258812977E+03  0.32258812981E+03  0.50400001928E-02 0.  1.
       -1   -1    0    0    0  501  0.00000000000E+00  0.00000000000E+00 -0.28346140823E+03  0.28346140828E+03  0.50400001928E-02 0. -1.
    10030    2    1    2    0    0  0.00000000000E+00  0.00000000000E+00  0.39126721534E+02  0.60604953808E+03  0.60478520342E+03 0.  0.
        3    1    3    3  502    0  0.32670642412E+02 -0.15941369485E+03  0.27497101860E+03  0.31951395627E+03  0.10100000352E+00 0.  1.
       -3    1    3    3    0  502 -0.32670642412E+02  0.15941369485E+03 -0.23584429707E+03  0.28653558181E+03  0.10100000352E+00 0. -1.
</event>
<event>
 5   0  0.3724066E-02  0.5981933E+03  0.7818609E-02  0.9909162E-01
       -2   -1    0    0    0  501  0.00000000000E+00  0.00000000000E+00  0.63818995001E+02  0.63818995052E+02  0.25500000920E-02 0.  1.
        2   -1    0    0  501    0  0.00000000000E+00  0.00000000000E+00 -0.14017581183E+04  0.14017581183E+04  0.25500000920E-02 0. -1.
    10030    2    1    2    0    0  0.00000000000E+00  0.00000000000E+00 -0.13379391233E+04  0.14655771134E+04  0.59819326102E+03 0.  0.
        4    1    3    3  502    0  0.40628238347E+01  0.29086835032E+03 -0.49858792933E+03  0.57724556294E+03  0.12699999809E+01 0.  1.
       -4    1    3    3    0  502 -0.40628238347E+01 -0.29086835032E+03 -0.83935119396E+03  0.88833155041E+03  0.12699999809E+01 0. -1.
</event>
<event>
 5   0  0.2309055E-02  0.5889515E+03  0.7818609E-02  0.9928597E-01
        1   -1    0    0  501    0  0.00000000000E+00  0.00000000000E+00  0.31876664064E+03  0.31876664068E+03  0.50400001928E-02 0. -1.
       -1   -1    0    0    0  501  0.00000000000E+00  0.00000000000E+00 -0.27203591786E+03  0.27203591791E+03  0.50400001928E-02 0.  1.
    10030    2    1    2    0    0  0.00000000000E+00  0.00000000000E+00  0.46730722784E+02  0.59080255859E+03  0.58895152839E+03 0.  0.
        4    1    3    3  502    0  0.15823356580E+03 -0.19534173631E+03  0.17720349415E+03  0.30756941742E+03  0.12699999809E+01 0. -1.
       -4    1    3    3    0  502 -0.15823356580E+03  0.19534173631E+03 -0.13047277137E+03  0.28323314117E+03  0.12699999809E+01 0.  1.
</event>
<event>
 5   0  0.3798925E-02  0.5963886E+03  0.7818609E-02  0.9912927E-01
        2   -1    0    0  501    0  0.00000000000E+00  0.00000000000E+00  0.11524703766E+03  0.11524703769E+03  0.25500000920E-02 0.  1.
       -2   -1    0    0    0  501  0.00000000000E+00  0.00000000000E+00 -0.77155847969E+03  0.77155847970E+03  0.25500000920E-02 0. -1.
    10030    2    1    2    0    0  0.00000000000E+00  0.00000000000E+00 -0.65631144203E+03  0.88680551739E+03  0.59638856187E+03 0.  0.
        2    1    3    3  502    0  0.15158767928E+03 -0.25596623491E+03 -0.35871232765E+03  0.46601724425E+03  0.25500000920E-02 0. -1.
       -2    1    3    3    0  502 -0.15158767928E+03  0.25596623491E+03 -0.29759911438E+03  0.42078827314E+03  0.25500000920E-02 0.  1.
</event>
<event>
 5   0  0.2295179E-02  0.5964625E+03  0.7818609E-02  0.9912773E-01
       -1   -1    0    0    0  501  0.00000000000E+00  0.00000000000E+00  0.19396229806E+03  0.19396229813E+03  0.50400001928E-02 0. -1.
        1   -1    0    0  501    0  0.00000000000E+00  0.00000000000E+00 -0.45855235291E+03  0.45855235294E+03  0.50400001928E-02 0.  1.
    10030    2    1    2    0    0  0.00000000000E+00  0.00000000000E+00 -0.26459005485E+03  0.65251465107E+03  0.59646246548E+03 0.  0.
        3    1    3    3  502    0  0.37131058741E+02 -0.12050320928E+03  0.16336582866E+03  0.20636894908E+03  0.10100000352E+00 0. -1.
       -3    1    3    3    0  502 -0.37131058741E+02  0.12050320928E+03 -0.42795588351E+03  0.44614570199E+03  0.10100000352E+00 0.  1.
</event>
<event>
 5   0  0.3832191E-02  0.6012388E+03  0.7818609E-02  0.9902839E-01
       -2   -1    0    0    0  501  0.00000000000E+00  0.00000000000E+00  0.24967046752E+03  0.24967046753E+03  0.25500000920E-02 0. -1.
        2   -1    0    0  501    0  0.00000000000E+00  0.00000000000E+00 -0.36196515220E+03  0.36196515221E+03  0.25500000920E-02 0.  1.
    10030    2    1    2    0    0  0.00000000000E+00  0.00000000000E+00 -0.11229468468E+03  0.61163561974E+03  0.60123875052E+03 0.  0.
        3    1    3    3  502    0 -0.89937187144E+02  0.22023963399E+03 -0.24311285950E+03  0.34014418511E+03  0.10100000352E+00 0.  1.
       -3    1    3    3    0  502  0.89937187144E+02 -0.22023963399E+03  0.13081817482E+03  0.27149143463E+03  0.10100000352E+00 0. -1.
</event>
<event>
 5   0  0.2225808E-02  0.6036074E+03  0.7818609E-02  0.9897950E-01
       -1   -1    0    0    0  501  0.00000000000E+00  0.00000000000E+00  0.77834817329E+03  0.77834817331E+03  0.50400001928E-02 0. -1.
        1   -1    0    0  501    0  0.00000000000E+00  0.00000000000E+00 -0.11702406321E+03  0.11702406332E+03  0.50400001928E-02 0.  1.
    10030    2    1    2    0    0  0.00000000000E+00  0.00000000000E+00  0.66132411008E+03  0.89537223663E+03  0.60360737533E+03 0.  0.
        2    1    3    3  502    0 -0.55504394439E+02  0.29618901798E+03  0.30598307578E+03  0.42945816425E+03  0.25500000920E-02 0.  1.
       -2    1    3    3    0  502  0.55504394439E+02 -0.29618901798E+03  0.35534103430E+03  0.46591407238E+03  0.25500000920E-02 0. -1.
</event>
<event>
 5   0  0.3798925E-02  0.5990910E+03  0.7818609E-02  0.9907294E-01
       -2   -1    0    0    0  501  0.00000000000E+00  0.00000000000E+00  0.49876001543E+03  0.49876001543E+03  0.25500000920E-02 0.  1.
        2   -1    0    0  501    0  0.00000000000E+00  0.00000000000E+00 -0.17990116642E+03  0.17990116644E+03  0.25500000920E-02 0. -1.
    10030    2    1    2    0    0  0.00000000000E+00  0.00000000000E+00  0.31885884901E+03  0.67866118187E+03  0.59909100660E+03 0.  0.
        2    1    3    3  502    0  0.17080720258E+03 -0.19866998657E+03 -0.50542320690E+01  0.26205039455E+03  0.25500000920E-02 0. -1.
       -2    1    3    3    0  502 -0.17080720258E+03  0.19866998657E+03  0.32391308108E+03  0.41661078732E+03  0.25500000920E-02 0.  1.
</event>
<event>
 5   0  0.3934634E-02  0.5989562E+03  0.7818609E-02  0.9907574E-01
        2   -1    0    0  501    0  0.00000000000E+00  0.00000000000E+00  0.19152082351E+04  0.19152082351E+04  0.25500000920E-02 0.  1.
       -2   -1    0    0    0  501  0.00000000000E+00  0.00000000000E+00 -0.46828920475E+02  0.46828920545E+02  0.25500000920E-02 0. -1.
    10030    2    1    2    0    0  0.00000000000E+00  0.00000000000E+00  0.18683793146E+04  0.19620371556E+04  0.59895620609E+03 0.  0.
        1    1    3    3  502    0  0.14186757416E+03 -0.12108635579E+03  0.16666265512E+03  0.25012947606E+03  0.50400001928E-02 0. -1.
       -1    1    3    3    0  502 -0.14186757416E+03  0.12108635579E+03  0.17017166595E+04  0.17119076796E+04  0.50400001928E-02 0.  1.
</event>
<event>
 5   0  0.2276105E-02  0.5967770E+03  0.7818609E-02  0.9912115E-01
       -1   -1    0    0    0  501  0.00000000000E+00  0.00000000000E+00  0.12727923751E+03  0.12727923760E+03  0.50400001928E-02 0.  1.
        1   -1    0    0  501    0  0.00000000000E+00  0.00000000000E+00 -0.69953037061E+03  0.69953037063E+03  0.50400001928E-02 0. -1.
    10030    2    1    2    0    0  0.00000000000E+00  0.00000000000E+00 -0.57225113310E+03  0.82680960823E+03  0.59677698425E+03 0.  0.
        1    1    3    3  502    0  0.15979912167E+03 -0.25198307798E+03 -0.28905191161E+03  0.41543018488E+03  0.50400001928E-02 0. -1.
       -1    1    3    3    0  502 -0.15979912167E+03  0.25198307798E+03 -0.28319922149E+03  0.41137942335E+03  0.50400001928E-02 0.  1.
</event>
<event>
 5   0  0.2225808E-02  0.5989022E+03  0.7818609E-02  0.9907686E-01
       -1   -1    0    0    0  501  0.00000000000E+00  0.00000000000E+00  0.38267263597E+03  0.38267263600E+03  0.50400001928E-02 0.  1.
        1   -1    0    0  501    0  0.00000000000E+00  0.00000000000E+00 -0.23432816019E+03  0.23432816025E+03  0.50400001928E-02 0. -1.
    10030    2    1    2    0    0  0.00000000000E+00  0.00000000000E+00  0.14834447578E+03  0.61700079625E+03  0.59890224501E+03 0.  0.
        2    1    3    3  502    0  0.13462104728E+03 -0.14808517626E+03 -0.15531232490E+03  0.25332580617E+03  0.25500000920E-02 0. -1.
       -2    1    3    3    0  502 -0.13462104728E+03  0.14808517626E+03  0.30365680068E+03  0.36367499007E+03  0.25500000920E-02 0.  1.
</event>
<event>
 5   0  0.3798925E-02  0.6004977E+03  0.7818609E-02  0.9904374E-01
       -2   -1    0    0    0  501  0.00000000000E+00  0.00000000000E+00  0.62826697101E+02  0.62826697153E+02  0.25500000920E-02 0.  1.
        2   -1    0    0  501    0  0.00000000000E+00  0.00000000000E+00 -0.14348895970E+04  0.14348895970E+04  0.25500000920E-02 0. -1.
    10030    2    1    2    0    0  0.00000000000E+00  0.00000000000E+00 -0.13720628999E+04  0.14977162941E+04  0.60049770732E+03 0.  0.
        2    1    3    3  502    0 -0.46492667712E+02  0.26929028415E+02  0.50739270467E+02  0.73900029068E+02  0.25500000920E-02 0.  1.
       -2    1    3    3    0  502  0.46492667712E+02 -0.26929028415E+02 -0.14228021703E+04  0.14238162651E+04  0.25500000920E-02 0. -1.
</event>
<event>
 5   0  0.3724066E-02  0.6116728E+03  0.7818609E-02  0.9881480E-01
        2   -1    0    0  501    0  0.00000000000E+00  0.00000000000E+00  0.10176317985E+04  0.10176317985E+04  0.25500000920E-02 0. -1.
       -2   -1    0    0    0  501  0.00000000000E+00  0.00000000000E+00 -0.91915281187E+02  0.91915281223E+02  0.25500000920E-02 0.  1.
    10030    2    1    2    0    0  0.00000000000E+00  0.00000000000E+00  0.92571651734E+03  0.11095470797E+04  0.61167283061E+03 0.  0.
        4    1    3    3  502    0  0.19497287459E+03  0.13075018754E+03  0.81843171899E+03  0.85143533220E+03  0.12699999809E+01 0. -1.
       -4    1    3    3    0  502 -0.19497287459E+03 -0.13075018754E+03  0.10728479835E+03  0.25811174755E+03  0.12699999809E+01 0.  1.
</event>
<event>
 5   0  0.3832191E-02  0.5981716E+03  0.7818609E-02  0.9909207E-01
        2   -1    0    0  501    0  0.00000000000E+00  0.00000000000E+00  0.15005157977E+04  0.15005157977E+04  0.25500000920E-02 0.  1.
       -2   -1    0    0    0  501  0.00000000000E+00  0.00000000000E+00 -0.59614387676E+02  0.59614387730E+02  0.25500000920E-02 0. -1.
    10030    2    1    2    0    0  0.00000000000E+00  0.00000000000E+00  0.14409014100E+04  0.15601301854E+04  0.59817164935E+03 0.  0.
        3    1    3    3  502    0 -0.24520509137E+03  0.11156107710E+03  0.38158085086E+03  0.46709246055E+03  0.10100000352E+00 0. -1.
       -3    1    3    3    0  502  0.24520509137E+03 -0.11156107710E+03  0.10593205592E+04  0.10930377249E+04  0.10100000352E+00 0.  1.
</event>
<event>
 5   0  0.3737642E-02  0.5751623E+03  0.7818609E-02  0.9958320E-01
       -2   -1    0    0    0  501  0.00000000000E+00  0.00000000000E+00  0.34271044149E+03  0.34271044150E+03  0.25500000920E-02 0. -1.
        2   -1    0    0  501    0  0.00000000000E+00  0.00000000000E+00 -0.24132007221E+03  0.24132007222E+03  0.25500000920E-02 0.  1.
    10030    2    1    2    0    0  0.00000000000E+00  0.00000000000E+00  0.10139036928E+03  0.58403051372E+03  0.57516226751E+03 0.  0.
        5    1    3    3  502    0 -0.10765390215E+02 -0.27891987147E+03 -0.19424825774E+02  0.27984210223E+03  0.46999998093E+01 0. -1.
       -5    1    3    3    0  502  0.10765390215E+02  0.27891987147E+03  0.12081519505E+03  0.30418841148E+03  0.46999998093E+01 0.  1.
</event>
<event>
 5   0  0.2309055E-02  0.6058799E+03  0.7818609E-02  0.9893282E-01
       -1   -1    0    0    0  501  0.00000000000E+00  0.00000000000E+00  0.43265665867E+03  0.43265665870E+03  0.50400001928E-02 0. -1.
        1   -1    0    0  501    0  0.00000000000E+00  0.00000000000E+00 -0.21211418549E+03  0.21211418555E+03  0.50400001928E-02 0.  1.
    10030    2    1    2    0    0  0.00000000000E+00  0.00000000000E+00  0.22054247319E+03  0.64477084425E+03  0.60587990487E+03 0.  0.
        4    1    3    3  502    0  0.73739187571E+02  0.28996228889E+03  0.59731715397E+02  0.30509848818E+03  0.12699999809E+01 0. -1.
       -4    1    3    3    0  502 -0.73739187571E+02 -0.28996228889E+03  0.16081075779E+03  0.33967235608E+03  0.12699999809E+01 0.  1.
</event>
<event>
 5   0  0.2295179E-02  0.6001930E+03  0.7818609E-02  0.9905006E-01
       -1   -1    0    0    0  501  0.00000000000E+00  0.00000000000E+00  0.55303630288E+03  0.55303630290E+03  0.50400001928E-02 0.  1.
        1   -1    0    0  501    0  0.00000000000E+00  0.00000000000E+00 -0.16284267292E+03  0.16284267299E+03  0.50400001928E-02 0. -1.
    10030    2    1    2    0    0  0.00000000000E+00  0.00000000000E+00  0.39019362997E+03  0.71587897590E+03  0.60019300168E+03 0.  0.
        3    1    3    3  502    0  0.11696975704E+03  0.19952291208E+03  0.42317874074E+03  0.48225675041E+03  0.10100000352E+00 0.  1.
       -3    1    3    3    0  502 -0.11696975704E+03 -0.19952291208E+03 -0.32985110771E+02  0.23362222548E+03  0.10100000352E+00 0. -1.
</event>
<event>
 5   0  0.2309055E-02  0.5996750E+03  0.7818609E-02  0.9906081E-01
       -1   -1    0    0    0  501  0.00000000000E+00  0.00000000000E+00  0.25995119893E+03  0.25995119898E+03  0.50400001928E-02 0. -1.
        1   -1    0    0  501    0  0.00000000000E+00  0.00000000000E+00 -0.34584380489E+03  0.34584380493E+03  0.50400001928E-02 0.  1.
    10030    2    1    2    0    0  0.00000000000E+00  0.00000000000E+00 -0.85892605967E+02  0.60579500391E+03  0.59967495112E+03 0.  0.
        4    1    3    3  502    0  0.61746666449E+02 -0.29147856452E+03 -0.90103934391E+01  0.29808590118E+03  0.12699999809E+01 0.  1.
       -4    1    3    3    0  502 -0.61746666449E+02  0.29147856452E+03 -0.76882212528E+02  0.30770910272E+03  0.12699999809E+01 0. -1.
</event>
<event>
 5   0  0.3724066E-02  0.5963715E+03  0.7818609E-02  0.9912963E-01
       -2   -1    0    0    0  501  0.00000000000E+00  0.00000000000E+00  0.40649449107E+02  0.40649449187E+02  0.25500000920E-02 0.  1.
        2   -1    0    0  501    0  0.00000000000E+00  0.00000000000E+00 -0.21873539064E+04  0.21873539064E+04  0.25500000920E-02 0. -1.
    10030    2    1    2    0    0  0.00000000000E+00  0.00000000000E+00 -0.21467044573E+04  0.22280033556E+04  0.59637146608E+03 0.  0.
        4    1    3    3  502    0  0.14732029244E+03 -0.94465769690E+02 -0.19752999483E+04  0.19830377073E+04  0.12699999809E+01 0. -1.
       -4    1    3    3    0  502 -0.14732029244E+03  0.94465769690E+02 -0.17140450903E+03  0.24496564826E+03  0.12699999809E+01 0.  1.
</event>
<event>
 5   0  0.3724066E-02  0.5991869E+03  0.7818609E-02  0.9907094E-01
        2   -1    0    0  501    0  0.00000000000E+00  0.00000000000E+00  0.74289153745E+03  0.74289153745E+03  0.25500000920E-02 0. -1.
       -2   -1    0    0    0  501  0.00000000000E+00  0.00000000000E+00 -0.12082009770E+03  0.12082009773E+03  0.25500000920E-02 0.  1.
    10030    2    1    2    0    0  0.00000000000E+00  0.00000000000E+00  0.62207143975E+03  0.86371163518E+03  0.59918687618E+03 0.  0.
        4    1    3    3  502    0 -0.10715578466E+03  0.27973911748E+03  0.30487281836E+03  0.42741710811E+03  0.12699999809E+01 0. -1.
       -4    1    3    3    0  502  0.10715578466E+03 -0.27973911748E+03  0.31719862139E+03  0.43629452707E+03  0.12699999809E+01 0.  1.
</event>
<event>
 5   0  0.2382531E-02  0.6004987E+03  0.7818609E-02  0.9904372E-01
       -1   -1    0    0    0  501  0.00000000000E+00  0.00000000000E+00  0.81791962443E+02  0.81791962599E+02  0.50400001928E-02 0. -1.
        1   -1    0    0  501    0  0.00000000000E+00  0.00000000000E+00 -0.11021824789E+04  0.11021824789E+04  0.50400001928E-02 0.  1.
    10030    2    1    2    0    0  0.00000000000E+00  0.00000000000E+00 -0.10203905164E+04  0.11839744415E+04  0.60049868615E+03 0.  0.
        5    1    3    3  502    0 -0.14439354171E+03  0.16645656690E+03 -0.91219133646E+03  0.93844147813E+03  0.46999998093E+01 0.  1.
       -5    1    3    3    0  502  0.14439354171E+03 -0.16645656690E+03 -0.10819917997E+03  0.24553296336E+03  0.46999998093E+01 0. -1.
</event>
<event>
 5   0  0.3798925E-02  0.6041117E+03  0.7818609E-02  0.9896912E-01
       -2   -1    0    0    0  501  0.00000000000E+00  0.00000000000E+00  0.29036458698E+03  0.29036458700E+03  0.25500000920E-02 0. -1.
        2   -1    0    0  501    0  0.00000000000E+00  0.00000000000E+00 -0.31421788957E+03  0.31421788958E+03  0.25500000920E-02 0.  1.
    10030    2    1    2    0    0  0.00000000000E+00  0.00000000000E+00 -0.23853302589E+02  0.60458247658E+03  0.60411173713E+03 0.  0.
        2    1    3    3  502    0 -0.23730584590E+02  0.30015105112E+03 -0.36110613232E+02  0.30324539655E+03  0.25500000920E-02 0.  1.
       -2    1    3    3    0  502  0.23730584590E+02 -0.30015105112E+03  0.12257310643E+02  0.30133708003E+03  0.25500000920E-02 0. -1.
</event>
<event>
 5   0  0.2225808E-02  0.5987793E+03  0.7818609E-02  0.9907942E-01
        1   -1    0    0  501    0  0.00000000000E+00  0.00000000000E+00  0.77217742108E+02  0.77217742272E+02  0.50400001928E-02 0. -1.
       -1   -1    0    0    0  501  0.00000000000E+00  0.00000000000E+00 -0.11607976180E+04  0.11607976180E+04  0.50400001928E-02 0.  1.
    10030    2    1    2    0    0  0.00000000000E+00  0.00000000000E+00 -0.10835798759E+04  0.12380153603E+04  0.59877932901E+03 0.  0.
        2    1    3    3  502    0 -0.87692058798E+01  0.30394532445E+02  0.73752567342E+02  0.80250655888E+02  0.25500000920E-02 0. -1.
       -2    1    3    3    0  502  0.87692058798E+01 -0.30394532445E+02 -0.11573324432E+04  0.11577647044E+04  0.25500000920E-02 0.  1.
</event>
<event>
 5   0  0.2295179E-02  0.5983069E+03  0.7818609E-02  0.9908925E-01
       -1   -1    0    0    0  501  0.00000000000E+00  0.00000000000E+00  0.20254395141E+03  0.20254395148E+03  0.50400001928E-02 0. -1.
        1   -1    0    0  501    0  0.00000000000E+00  0.00000000000E+00 -0.44184376712E+03  0.44184376714E+03  0.50400001928E-02 0.  1.
    10030    2    1    2    0    0  0.00000000000E+00  0.00000000000E+00 -0.23929981570E+03  0.64438771862E+03  0.59830688624E+03 0.  0.
        3    1    3    3  502    0 -0.27040083560E+03 -0.39703719093E+02  0.11374079396E+02  0.27353679293E+03  0.10100000352E+00 0. -1.
       -3    1    3    3    0  502  0.27040083560E+03  0.39703719093E+02 -0.25067389510E+03  0.37085092569E+03  0.10100000352E+00 0.  1.
</event>
<event>
 5   0  0.3737642E-02  0.6108175E+03  0.7818609E-02  0.9883214E-01
       -2   -1    0    0    0  501  0.00000000000E+00  0.00000000000E+00  0.14076777689E+03  0.14076777691E+03  0.25500000920E-02 0. -1.
        2   -1    0    0  501    0  0.00000000000E+00  0.00000000000E+00 -0.66261263585E+03  0.66261263585E+03  0.25500000920E-02 0.  1.
    10030    2    1    2    0    0  0.00000000000E+00  0.00000000000E+00 -0.52184485896E+03  0.80338041277E+03  0.61081751022E+03 0.  0.
        5    1    3    3  502    0 -0.33780850884E+02  0.30331340438E+03 -0.24698752559E+03  0.39263863151E+03  0.46999998093E+01 0.  1.
       -5    1    3    3    0  502  0.33780850884E+02 -0.30331340438E+03 -0.27485733337E+03  0.41074178125E+03  0.46999998093E+01 0. -1.
</event>
<event>
 5   0  0.3934634E-02  0.6001495E+03  0.7818609E-02  0.9905096E-01
       -2   -1    0    0    0  501  0.00000000000E+00  0.00000000000E+00  0.10510238526E+03  0.10510238529E+03  0.25500000920E-02 0. -1.
        2   -1    0    0  501    0  0.00000000000E+00  0.00000000000E+00 -0.85673454674E+03  0.85673454675E+03  0.25500000920E-02 0.  1.
    10030    2    1    2    0    0  0.00000000000E+00  0.00000000000E+00 -0.75163216149E+03  0.96183693204E+03  0.60014946276E+03 0.  0.
        1    1    3    3  502    0 -0.16001896153E+03  0.19081891504E+03 -0.10751050461E+03  0.27124976500E+03  0.50400001928E-02 0. -1.
       -1    1    3    3    0  502  0.16001896153E+03 -0.19081891504E+03 -0.64412165688E+03  0.69058716704E+03  0.50400001928E-02 0.  1.
</event>
<event>
 5   0  0.2309055E-02  0.5989738E+03  0.7818609E-02  0.9907537E-01
       -1   -1    0    0    0  501  0.00000000000E+00  0.00000000000E+00  0.41506863588E+03  0.41506863591E+03  0.50400001928E-02 0. -1.
        1   -1    0    0  501    0  0.00000000000E+00  0.00000000000E+00 -0.21609054554E+03  0.21609054560E+03  0.50400001928E-02 0.  1.
    10030    2    1    2    0    0  0.00000000000E+00  0.00000000000E+00  0.19897809034E+03  0.63115918150E+03  0.59897381576E+03 0.  0.
        4    1    3    3  502    0 -0.22176514847E+02 -0.25873318981E+03  0.25669027100E+03  0.36513856198E+03  0.12699999809E+01 0. -1.
       -4    1    3    3    0  502  0.22176514847E+02  0.25873318981E+03 -0.57712180658E+02  0.26602061953E+03  0.12699999809E+01 0.  1.
</event>
<event>
 5   0  0.2309055E-02  0.6030974E+03  0.7818609E-02  0.9899001E-01
        1   -1    0    0  501    0  0.00000000000E+00  0.00000000000E+00  0.16124138553E+03  0.16124138561E+03  0.50400001928E-02 0.  1.
       -1   -1    0    0    0  501  0.00000000000E+00  0.00000000000E+00 -0.56394719582E+03  0.56394719585E+03  0.50400001928E-02 0. -1.
    10030    2    1    2    0    0  0.00000000000E+00  0.00000000000E+00 -0.40270581029E+03  0.72518858145E+03  0.60309742913E+03 0.  0.
        4    1    3    3  502    0 -0.24877477715E+03  0.19948626246E+02 -0.40485743130E+03  0.47560276493E+03  0.12699999809E+01 0. -1.
       -4    1    3    3    0  502  0.24877477715E+03 -0.19948626246E+02  0.21516210070E+01  0.24958581652E+03  0.12699999809E+01 0.  1.
</event>
<event>
 5   0  0.2295179E-02  0.6027135E+03  0.7818609E-02  0.9899792E-01
       -1   -1    0    0    0  501  0.00000000000E+00  0.00000000000E+00  0.58087106365E+02  0.58087106584E+02  0.50400001928E-02 0.  1.
        1   -1    0    0  501    0  0.00000000000E+00  0.00000000000E+00 -0.15634432451E+04  0.15634432451E+04  0.50400001928E-02 0. -1.
    10030    2    1    2    0    0  0.00000000000E+00  0.00000000000E+00 -0.15053561387E+04  0.16215303517E+04  0.60271351157E+03 0.  0.
        3    1    3    3  502    0 -0.18349512057E+03 -0.23195458974E+03 -0.90822069054E+03  0.95516397749E+03  0.10100000352E+00 0. -1.
       -3    1    3    3    0  502  0.18349512057E+03  0.23195458974E+03 -0.59713544819E+03  0.66636637419E+03  0.10100000352E+00 0.  1.
</event>
<event>
 5   0  0.3724066E-02  0.6022886E+03  0.7818609E-02  0.9900669E-01
        2   -1    0    0  501    0  0.00000000000E+00  0.00000000000E+00  0.23726839902E+03  0.23726839903E+03  0.25500000920E-02 0. -1.
       -2   -1    0    0    0  501  0.00000000000E+00  0.00000000000E+00 -0.38221642238E+03  0.38221642239E+03  0.25500000920E-02 0.  1.
    10030    2    1    2    0    0  0.00000000000E+00  0.00000000000E+00 -0.14494802336E+03  0.61948482143E+03  0.60228856415E+03 0.  0.
        4    1    3    3  502    0 -0.20981011738E+03  0.92117156217E+02  0.12850298219E+03  0.26271750067E+03  0.12699999809E+01 0. -1.
       -4    1    3    3    0  502  0.20981011738E+03 -0.92117156217E+02 -0.27345100555E+03  0.35676732076E+03  0.12699999809E+01 0.  1.
</event>
<event>
 5   0  0.2382531E-02  0.6009978E+03  0.7818609E-02  0.9903338E-01
       -1   -1    0    0    0  501  0.00000000000E+00  0.00000000000E+00  0.16632173886E+03  0.16632173894E+03  0.50400001928E-02 0. -1.
        1   -1    0    0  501    0  0.00000000000E+00  0.00000000000E+00 -0.54292118021E+03  0.54292118024E+03  0.50400001928E-02 0.  1.
    10030    2    1    2    0    0  0.00000000000E+00  0.00000000000E+00 -0.37659944135E+03  0.70924291918E+03  0.60099781961E+03 0.  0.
        5    1    3    3  502    0 -0.34218319100E+02  0.58555836800E+02  0.15712731830E+03  0.17120386544E+03  0.46999998093E+01 0. -1.
       -5    1    3    3    0  502  0.34218319100E+02 -0.58555836800E+02 -0.53372675965E+03  0.53803905374E+03  0.46999998093E+01 0.  1.
</event>
<event>
 5   0  0.3832191E-02  0.5977274E+03  0.7818609E-02  0.9910132E-01
        2   -1    0    0  501    0  0.00000000000E+00  0.00000000000E+00  0.46889475234E+03  0.46889475235E+03  0.25500000920E-02 0. -1.
       -2   -1    0    0    0  501  0.00000000000E+00  0.00000000000E+00 -0.19048944924E+03  0.19048944926E+03  0.25500000920E-02 0.  1.
    10030    2    1    2    0    0  0.00000000000E+00  0.00000000000E+00  0.27840530310E+03  0.65938420161E+03  0.59772737309E+03 0.  0.
        3    1    3    3  502    0  0.25060824806E+03 -0.80303559341E+02 -0.17065129960E+02  0.26371269309E+03  0.10100000352E+00 0. -1.
       -3    1    3    3    0  502 -0.25060824806E+03  0.80303559341E+02  0.29547043306E+03  0.39567150852E+03  0.10100000352E+00 0.  1.
</event>
<event>
 5   0  0.3832191E-02  0.5897645E+03  0.7818609E-02  0.9926872E-01
       -2   -1    0    0    0  501  0.00000000000E+00  0.00000000000E+00  0.15844752509E+03  0.15844752511E+03  0.25500000920E-02 0. -1.
        2   -1    0    0  501    0  0.00000000000E+00  0.00000000000E+00 -0.54879707394E+03  0.54879707395E+03  0.25500000920E-02 0.  1.
    10030    2    1    2    0    0  0.00000000000E+00  0.00000000000E+00 -0.39034954885E+03  0.70724459905E+03  0.58976448910E+03 0.  0.
        3    1    3    3  502    0 -0.10623371090E+03 -0.13844292983E+03 -0.48022974972E+03  0.51095270707E+03  0.10100000352E+00 0.  1.
       -3    1    3    3    0  502  0.10623371090E+03  0.13844292983E+03  0.89880200862E+02  0.19629189198E+03  0.10100000352E+00 0. -1.
</event>
<event>
 5   0  0.2382531E-02  0.6121539E+03  0.7818609E-02  0.9880507E-01
       -1   -1    0    0    0  501  0.00000000000E+00  0.00000000000E+00  0.61195318338E+02  0.61195318545E+02  0.50400001928E-02 0.  1.
        1   -1    0    0  501    0  0.00000000000E+00  0.00000000000E+00 -0.15308865686E+04  0.15308865686E+04  0.50400001928E-02 0. -1.
    10030    2    1    2    0    0  0.00000000000E+00  0.00000000000E+00 -0.14696912503E+04  0.15920818872E+04  0.61215387307E+03 0.  0.
        5    1    3    3  502    0 -0.18682443643E+03 -0.23650785109E+01 -0.13652457142E+04  0.13779792864E+04  0.46999998093E+01 0.  1.
       -5    1    3    3    0  502  0.18682443643E+03  0.23650785109E+01 -0.10444553607E+03  0.21410260074E+03  0.46999998093E+01 0. -1.
</event>
<event>
 5   0  0.1521750E-02  0.5987659E+03  0.7818609E-02  0.9907970E-01
        3   -1    0    0  501    0  0.00000000000E+00  0.00000000000E+00  0.32219523111E+03  0.32219524694E+03  0.10100000352E+00 0.  1.
       -3   -1    0    0    0  501  0.00000000000E+00  0.00000000000E+00 -0.27818580467E+03  0.27818582300E+03  0.10100000352E+00 0. -1.
    10030    2    1    2    0    0  0.00000000000E+00  0.00000000000E+00  0.44009426448E+02  0.60038106994E+03  0.59876589710E+03 0.  0.
        3    1    3    3  502    0 -0.17684322788E+03 -0.10559763190E+03 -0.19585021876E+03  0.28422122633E+03  0.10100000352E+00 0. -1.
       -3    1    3    3    0  502  0.17684322788E+03  0.10559763190E+03  0.23985964521E+03  0.31615984361E+03  0.10100000352E+00 0.  1.
</event>
<event>
 5   0  0.1521750E-02  0.5803850E+03  0.7818609E-02  0.9946958E-01
        3   -1    0    0  501    0  0.00000000000E+00  0.00000000000E+00  0.23039080959E+03  0.23039083173E+03  0.10100000352E+00 0.  1.
       -3   -1    0    0    0  501  0.00000000000E+00  0.00000000000E+00 -0.36551661996E+03  0.36551663391E+03  0.10100000352E+00 0. -1.
    10030    2    1    2    0    0  0.00000000000E+00  0.00000000000E+00 -0.13512581037E+03  0.59590746564E+03  0.58038497825E+03 0.  0.
        1    1    3    3  502    0 -0.14176170997E+02  0.26794338536E+03  0.45924064869E+02  0.27221984009E+03  0.50400001928E-02 0. -1.
       -1    1    3    3    0  502  0.14176170997E+02 -0.26794338536E+03 -0.18104987524E+03  0.32368762554E+03  0.50400001928E-02 0.  1.
</event>
<event>
 5   0  0.2382531E-02  0.6006074E+03  0.7818609E-02  0.9904147E-01
       -1   -1    0    0    0  501  0.00000000000E+00  0.00000000000E+00  0.80733112218E+02  0.80733112376E+02  0.50400001928E-02 0.  1.
        1   -1    0    0  501    0  0.00000000000E+00  0.00000000000E+00 -0.11170425211E+04  0.11170425211E+04  0.50400001928E-02 0. -1.
    10030    2    1    2    0    0  0.00000000000E+00  0.00000000000E+00 -0.10363094088E+04  0.11977756335E+04  0.60060742355E+03 0.  0.
        5    1    3    3  502    0  0.24994194949E+03  0.10672109554E+03 -0.77276543400E+03  0.81917572982E+03  0.46999998093E+01 0. -1.
       -5    1    3    3    0  502 -0.24994194949E+03 -0.10672109554E+03 -0.26354397485E+03  0.37859990363E+03  0.46999998093E+01 0.  1.
</event>
<event>
 5   0  0.3832191E-02  0.6000601E+03  0.7818609E-02  0.9905281E-01
       -2   -1    0    0    0  501  0.00000000000E+00  0.00000000000E+00  0.67222188633E+02  0.67222188681E+02  0.25500000920E-02 0. -1.
        2   -1    0    0  501    0  0.00000000000E+00  0.00000000000E+00 -0.13391116811E+04  0.13391116811E+04  0.25500000920E-02 0.  1.
    10030    2    1    2    0    0  0.00000000000E+00  0.00000000000E+00 -0.12718894925E+04  0.14063338698E+04  0.60006005721E+03 0.  0.
        3    1    3    3  502    0 -0.58859275645E+02 -0.27456435161E+03 -0.88361943236E+03  0.92716412191E+03  0.10100000352E+00 0.  1.
       -3    1    3    3    0  502  0.58859275645E+02  0.27456435161E+03 -0.38827006012E+03  0.47916974789E+03  0.10100000352E+00 0. -1.
</event>
<event>
 5   0  0.2382531E-02  0.5879868E+03  0.7818609E-02  0.9930648E-01
       -1   -1    0    0    0  501  0.00000000000E+00  0.00000000000E+00  0.13317467992E+03  0.13317468001E+03  0.50400001928E-02 0.  1.
        1   -1    0    0  501    0  0.00000000000E+00  0.00000000000E+00 -0.64901322779E+03  0.64901322781E+03  0.50400001928E-02 0. -1.
    10030    2    1    2    0    0  0.00000000000E+00  0.00000000000E+00 -0.51583854788E+03  0.78218790783E+03  0.58798683291E+03 0.  0.
        5    1    3    3  502    0 -0.41106676748E+02  0.87884988526E+02 -0.62704899447E+03  0.63452821966E+03  0.46999998093E+01 0. -1.
       -5    1    3    3    0  502  0.41106676748E+02 -0.87884988526E+02  0.11121044659E+03  0.14765968817E+03  0.46999998093E+01 0.  1.
</event>
<event>
 5   0  0.3798925E-02  0.6011527E+03  0.7818609E-02  0.9903017E-01
       -2   -1    0    0    0  501  0.00000000000E+00  0.00000000000E+00  0.91121826037E+02  0.91121826073E+02  0.25500000920E-02 0.  1.
        2   -1    0    0  501    0  0.00000000000E+00  0.00000000000E+00 -0.99148752693E+03  0.99148752694E+03  0.25500000920E-02 0. -1.
    10030    2    1    2    0    0  0.00000000000E+00  0.00000000000E+00 -0.90036570090E+03  0.10826093530E+04  0.60115273922E+03 0.  0.
        2    1    3    3  502    0  0.68481480005E+02  0.11843136109E+03  0.31804671445E+02  0.14045368462E+03  0.25500000920E-02 0.  1.
       -2    1    3    3    0  502 -0.68481480005E+02 -0.11843136109E+03 -0.93217037234E+03  0.94215566839E+03  0.25500000920E-02 0. -1.
</event>
<event>
 5   0  0.3934634E-02  0.6026939E+03  0.7818609E-02  0.9899833E-01
       -2   -1    0    0    0  501  0.00000000000E+00  0.00000000000E+00  0.20532292513E+03  0.20532292514E+03  0.25500000920E-02 0.  1.
        2   -1    0    0  501    0  0.00000000000E+00  0.00000000000E+00 -0.44227888895E+03  0.44227888896E+03  0.25500000920E-02 0. -1.
    10030    2    1    2    0    0  0.00000000000E+00  0.00000000000E+00 -0.23695596383E+03  0.64760181410E+03  0.60269393628E+03 0.  0.
        1    1    3    3  502    0  0.12008705555E+03  0.14736539616E+03 -0.36972206193E+03  0.41573051849E+03  0.50400001928E-02 0. -1.
       -1    1    3    3    0  502 -0.12008705555E+03 -0.14736539616E+03  0.13276609811E+03  0.23187129561E+03  0.50400001928E-02 0.  1.
</event>
<event>
 5   0  0.2276105E-02  0.6021239E+03  0.7818609E-02  0.9901009E-01
        1   -1    0    0  501    0  0.00000000000E+00  0.00000000000E+00  0.98636732622E+03  0.98636732623E+03  0.50400001928E-02 0. -1.
       -1   -1    0    0    0  501  0.00000000000E+00  0.00000000000E+00 -0.91891025493E+02  0.91891025631E+02  0.50400001928E-02 0.  1.
    10030    2    1    2    0    0  0.00000000000E+00  0.00000000000E+00  0.89447630072E+03  0.10782583519E+04  0.60212392479E+03 0.  0.
        1    1    3    3  502    0  0.27146589831E+03  0.46206149010E+02  0.66516365938E+03  0.71991071386E+03  0.50400001928E-02 0. -1.
       -1    1    3    3    0  502 -0.27146589831E+03 -0.46206149010E+02  0.22931264135E+03  0.35834763800E+03  0.50400001928E-02 0.  1.
</event>
<event>
 5   0  0.3724066E-02  0.5982265E+03  0.7818609E-02  0.9909092E-01
       -2   -1    0    0    0  501  0.00000000000E+00  0.00000000000E+00  0.11355682613E+03  0.11355682616E+03  0.25500000920E-02 0. -1.
        2   -1    0    0  501    0  0.00000000000E+00  0.00000000000E+00 -0.78787622061E+03  0.78787622062E+03  0.25500000920E-02 0.  1.
    10030    2    1    2    0    0  0.00000000000E+00  0.00000000000E+00 -0.67431939448E+03  0.90143304678E+03  0.59822645550E+03 0.  0.
        4    1    3    3  502    0  0.93607511456E+02  0.15734720797E+03  0.19254265860E+02  0.18410010785E+03  0.12699999809E+01 0. -1.
       -4    1    3    3    0  502 -0.93607511456E+02 -0.15734720797E+03 -0.69357366034E+03  0.71733293893E+03  0.12699999809E+01 0.  1.
</event>
<event>
 5   0  0.3724066E-02  0.6046320E+03  0.7818609E-02  0.9895842E-01
        2   -1    0    0  501    0  0.00000000000E+00  0.00000000000E+00  0.21993711577E+03  0.21993711578E+03  0.25500000920E-02 0. -1.
       -2   -1    0    0    0  501  0.00000000000E+00  0.00000000000E+00 -0.41555044148E+03  0.41555044149E+03  0.25500000920E-02 0.  1.
    10030    2    1    2    0    0  0.00000000000E+00  0.00000000000E+00 -0.19561332571E+03  0.63548755727E+03  0.60463200564E+03 0.  0.
        4    1    3    3  502    0  0.15558828116E+03 -0.13590681554E+03 -0.32978486041E+03  0.38915041154E+03  0.12699999809E+01 0.  1.
       -4    1    3    3    0  502 -0.15558828116E+03  0.13590681554E+03  0.13417153470E+03  0.24633714573E+03  0.12699999809E+01 0. -1.
</event>
<event>
 5   0  0.3737642E-02  0.5986083E+03  0.7818609E-02  0.9908298E-01
       -2   -1    0    0    0  501  0.00000000000E+00  0.00000000000E+00  0.22288986542E+03  0.22288986544E+03  0.25500000920E-02 0.  1.
        2   -1    0    0  501    0  0.00000000000E+00  0.00000000000E+00 -0.40191592818E+03  0.40191592819E+03  0.25500000920E-02 0. -1.
    10030    2    1    2    0    0  0.00000000000E+00  0.00000000000E+00 -0.17902606275E+03  0.62480579363E+03  0.59860834325E+03 0.  0.
        5    1    3    3  502    0  0.20836800377E+03 -0.20886358577E+03 -0.14190618252E+03  0.32741514487E+03  0.46999998093E+01 0. -1.
       -5    1    3    3    0  502 -0.20836800377E+03  0.20886358577E+03 -0.37119880235E+02  0.29739064875E+03  0.46999998093E+01 0.  1.
</event>
<event>
 5   0  0.1521750E-02  0.5936599E+03  0.7818609E-02  0.9918648E-01
        3   -1    0    0  501    0  0.00000000000E+00  0.00000000000E+00  0.40800928044E+03  0.40800929294E+03  0.10100000352E+00 0.  1.
       -3   -1    0    0    0  501  0.00000000000E+00  0.00000000000E+00 -0.21594610006E+03  0.21594612368E+03  0.10100000352E+00 0. -1.
    10030    2    1    2    0    0  0.00000000000E+00  0.00000000000E+00  0.19206318038E+03  0.62395541662E+03  0.59365991667E+03 0.  0.
        5    1    3    3  502    0 -0.17647119612E+03 -0.15192509293E+03  0.28944032915E+03  0.37151192586E+03  0.46999998093E+01 0.  1.
       -5    1    3    3    0  502  0.17647119612E+03  0.15192509293E+03 -0.97377148768E+02  0.25244349075E+03  0.46999998093E+01 0. -1.
</event>
<event>
 5   0  0.2309055E-02  0.6090035E+03  0.7818609E-02  0.9886901E-01
        1   -1    0    0  501    0  0.00000000000E+00  0.00000000000E+00  0.11722954609E+03  0.11722954620E+03  0.50400001928E-02 0.  1.
       -1   -1    0    0    0  501  0.00000000000E+00  0.00000000000E+00 -0.79093811797E+03  0.79093811798E+03  0.50400001928E-02 0. -1.
    10030    2    1    2    0    0  0.00000000000E+00  0.00000000000E+00 -0.67370857188E+03  0.90816766418E+03  0.60900350281E+03 0.  0.
        4    1    3    3  502    0  0.29147659344E+03  0.87612826063E+02 -0.32309834379E+03  0.44387922284E+03  0.12699999809E+01 0. -1.
       -4    1    3    3    0  502 -0.29147659344E+03 -0.87612826063E+02 -0.35061022809E+03  0.46428844134E+03  0.12699999809E+01 0.  1.
</event>
<event>
 5   0  0.2225808E-02  0.6006905E+03  0.7818609E-02  0.9903974E-01
        1   -1    0    0  501    0  0.00000000000E+00  0.00000000000E+00  0.41139328527E+03  0.41139328531E+03  0.50400001928E-02 0.  1.
       -1   -1    0    0    0  501  0.00000000000E+00  0.00000000000E+00 -0.21927260107E+03  0.21927260112E+03  0.50400001928E-02 0. -1.
    10030    2    1    2    0    0  0.00000000000E+00  0.00000000000E+00  0.19212068421E+03  0.63066588643E+03  0.60069052182E+03 0.  0.
        2    1    3    3  502    0  0.76009242514E+02  0.29562807531E+02  0.39954528619E+03  0.40778401177E+03  0.25500000920E-02 0.  1.
       -2    1    3    3    0  502 -0.76009242514E+02 -0.29562807531E+02 -0.20742460198E+03  0.22288187465E+03  0.25500000920E-02 0. -1.
</event>
<event>
 5   0  0.3832191E-02  0.6010554E+03  0.7818609E-02  0.9903219E-01
       -2   -1    0    0    0  501  0.00000000000E+00  0.00000000000E+00  0.10760926368E+03  0.10760926371E+03  0.25500000920E-02 0.  1.
        2   -1    0    0  501    0  0.00000000000E+00  0.00000000000E+00 -0.83930423412E+03  0.83930423412E+03  0.25500000920E-02 0. -1.
    10030    2    1    2    0    0  0.00000000000E+00  0.00000000000E+00 -0.73169497043E+03  0.94691349784E+03  0.60105544056E+03 0.  0.
        3    1    3    3  502    0 -0.14178260702E+03  0.17654846149E+03 -0.54547007515E+02  0.23290996788E+03  0.10100000352E+00 0.  1.
       -3    1    3    3    0  502  0.14178260702E+03 -0.17654846149E+03 -0.67714796292E+03  0.71400352996E+03  0.10100000352E+00 0. -1.
</event>
<event>
 5   0  0.3724066E-02  0.5941486E+03  0.7818609E-02  0.9917621E-01
        2   -1    0    0  501    0  0.00000000000E+00  0.00000000000E+00  0.10266871545E+04  0.10266871545E+04  0.25500000920E-02 0.  1.
       -2   -1    0    0    0  501  0.00000000000E+00  0.00000000000E+00 -0.85959133192E+02  0.85959133230E+02  0.25500000920E-02 0. -1.
    10030    2    1    2    0    0  0.00000000000E+00  0.00000000000E+00  0.94072802129E+03  0.11126462877E+04  0.59414859381E+03 0.  0.
        4    1    3    3  502    0 -0.60322173504E+02 -0.13905146257E+03 -0.80937946221E+01  0.15179326820E+03  0.12699999809E+01 0. -1.
       -4    1    3    3    0  502  0.60322173504E+02  0.13905146257E+03  0.94882181591E+03  0.96085301951E+03  0.12699999809E+01 0.  1.
</event>
<event>
 5   0  0.3724066E-02  0.5533592E+03  0.7818609E-02  0.1000719E+00
       -2   -1    0    0    0  501  0.00000000000E+00  0.00000000000E+00  0.23631691241E+03  0.23631691242E+03  0.25500000920E-02 0.  1.
        2   -1    0    0  501    0  0.00000000000E+00  0.00000000000E+00 -0.32393613622E+03  0.32393613623E+03  0.25500000920E-02 0. -1.
    10030    2    1    2    0    0  0.00000000000E+00  0.00000000000E+00 -0.87619223816E+02  0.56025304865E+03  0.55335915113E+03 0.  0.
        4    1    3    3  502    0 -0.22404633814E+03  0.13096262684E+03  0.53312546651E+02  0.26493737334E+03  0.12699999809E+01 0.  1.
       -4    1    3    3    0  502  0.22404633814E+03 -0.13096262684E+03 -0.14093177047E+03  0.29531567532E+03  0.12699999809E+01 0. -1.
</event>
<event>
 5   0  0.2295179E-02  0.6018717E+03  0.7818609E-02  0.9901531E-01
        1   -1    0    0  501    0  0.00000000000E+00  0.00000000000E+00  0.67510309206E+03  0.67510309208E+03  0.50400001928E-02 0. -1.
       -1   -1    0    0    0  501  0.00000000000E+00  0.00000000000E+00 -0.13414599662E+03  0.13414599672E+03  0.50400001928E-02 0.  1.
    10030    2    1    2    0    0  0.00000000000E+00  0.00000000000E+00  0.54095709544E+03  0.80924908880E+03  0.60187167121E+03 0.  0.
        3    1    3    3  502    0  0.24840364397E+03  0.56139681868E+02  0.54903555626E+02  0.26051956710E+03  0.10100000352E+00 0.  1.
       -3    1    3    3    0  502 -0.24840364397E+03 -0.56139681868E+02  0.48605353982E+03  0.54872952170E+03  0.10100000352E+00 0. -1.
</event>
<event>
 5   0  0.2276105E-02  0.6005769E+03  0.7818609E-02  0.9904210E-01
       -1   -1    0    0    0  501  0.00000000000E+00  0.00000000000E+00  0.16333832540E+03  0.16333832548E+03  0.50400001928E-02 0. -1.
        1   -1    0    0  501    0  0.00000000000E+00  0.00000000000E+00 -0.55206361436E+03  0.55206361438E+03  0.50400001928E-02 0.  1.
    10030    2    1    2    0    0  0.00000000000E+00  0.00000000000E+00 -0.38872528896E+03  0.71540193986E+03  0.60057687708E+03 0.  0.
        1    1    3    3  502    0  0.92383204007E+02  0.27355107658E+03 -0.96074576682E+02  0.30429454841E+03  0.50400001928E-02 0. -1.
       -1    1    3    3    0  502 -0.92383204007E+02 -0.27355107658E+03 -0.29265071228E+03  0.41110739145E+03  0.50400001928E-02 0.  1.
</event>
<event>
 5   0  0.2225808E-02  0.6004060E+03  0.7818609E-02  0.9904564E-01
       -1   -1    0    0    0  501  0.00000000000E+00  0.00000000000E+00  0.55296462471E+02  0.55296462701E+02  0.50400001928E-02 0.  1.
        1   -1    0    0  501    0  0.00000000000E+00  0.00000000000E+00 -0.16297940055E+04  0.16297940055E+04  0.50400001928E-02 0. -1.
    10030    2    1    2    0    0  0.00000000000E+00  0.00000000000E+00 -0.15744975431E+04  0.16850904682E+04  0.60040600684E+03 0.  0.
        2    1    3    3  502    0 -0.21183473534E+03 -0.18679034361E+03 -0.10728766160E+04  0.11094272490E+04  0.25500000920E-02 0. -1.
       -2    1    3    3    0  502  0.21183473534E+03  0.18679034361E+03 -0.50162092704E+03  0.57566321927E+03  0.25500000920E-02 0.  1.
</event>
<event>
 5   0  0.3934634E-02  0.5981540E+03  0.7818609E-02  0.9909243E-01
        2   -1    0    0  501    0  0.00000000000E+00  0.00000000000E+00  0.10490416012E+04  0.10490416012E+04  0.25500000920E-02 0.  1.
       -2   -1    0    0    0  501  0.00000000000E+00  0.00000000000E+00 -0.85265508018E+02  0.85265508056E+02  0.25500000920E-02 0. -1.
    10030    2    1    2    0    0  0.00000000000E+00  0.00000000000E+00  0.96377609321E+03  0.11343071093E+04  0.59815404399E+03 0.  0.
        1    1    3    3  502    0  0.11549145990E+03  0.13712982798E+03  0.93584098362E+03  0.95285949315E+03  0.50400001928E-02 0.  1.
       -1    1    3    3    0  502 -0.11549145990E+03 -0.13712982798E+03  0.27935109596E+02  0.18144761615E+03  0.50400001928E-02 0. -1.
</event>
<event>
 5   0  0.3724066E-02  0.5992959E+03  0.7818609E-02  0.9906868E-01
       -2   -1    0    0    0  501  0.00000000000E+00  0.00000000000E+00  0.85932499131E+02  0.85932499169E+02  0.25500000920E-02 0.  1.
        2   -1    0    0  501    0  0.00000000000E+00  0.00000000000E+00 -0.10448769865E+04  0.10448769865E+04  0.25500000920E-02 0. -1.
    10030    2    1    2    0    0  0.00000000000E+00  0.00000000000E+00 -0.95894448736E+03  0.11308094857E+04  0.59929588938E+03 0.  0.
        4    1    3    3  502    0 -0.87581667535E+02 -0.52454238211E+02 -0.10110458713E+04  0.10161876610E+04  0.12699999809E+01 0. -1.
       -4    1    3    3    0  502  0.87581667535E+02  0.52454238211E+02  0.52101383899E+02  0.11462182470E+03  0.12699999809E+01 0.  1.
</event>
<event>
 5   0  0.2382531E-02  0.6037128E+03  0.7818609E-02  0.9897733E-01
        1   -1    0    0  501    0  0.00000000000E+00  0.00000000000E+00  0.19429709089E+03  0.19429709095E+03  0.50400001928E-02 0. -1.
       -1   -1    0    0    0  501  0.00000000000E+00  0.00000000000E+00 -0.46895850553E+03  0.46895850556E+03  0.50400001928E-02 0.  1.
    10030    2    1    2    0    0  0.00000000000E+00  0.00000000000E+00 -0.27466141464E+03  0.66325559651E+03  0.60371275754E+03 0.  0.
        5    1    3    3  502    0 -0.62750737567E+02 -0.18672721313E+03 -0.38855513664E+03  0.43566258894E+03  0.46999998093E+01 0.  1.
       -5    1    3    3    0  502  0.62750737567E+02  0.18672721313E+03  0.11389372200E+03  0.22759300758E+03  0.46999998093E+01 0. -1.
</event>
<event>
 5   0  0.3934634E-02  0.6019294E+03  0.7818609E-02  0.9901411E-01
        2   -1    0    0  501    0  0.00000000000E+00  0.00000000000E+00  0.89468827117E+03  0.89468827117E+03  0.25500000920E-02 0. -1.
       -2   -1    0    0    0  501  0.00000000000E+00  0.00000000000E+00 -0.10124168455E+03  0.10124168458E+03  0.25500000920E-02 0.  1.
    10030    2    1    2    0    0  0.00000000000E+00  0.00000000000E+00  0.79344658662E+03  0.99592995575E+03  0.60192939034E+03 0.  0.
        1    1    3    3  502    0 -0.12700445270E+03  0.12345633648E+03  0.79932349753E+03  0.81871219104E+03  0.50400001928E-02 0. -1.
       -1    1    3    3    0  502  0.12700445270E+03 -0.12345633648E+03 -0.58769109154E+01  0.17721776471E+03  0.50400001928E-02 0.  1.
</event>
<event>
 5   0  0.2276105E-02  0.5930963E+03  0.7818609E-02  0.9919833E-01
       -1   -1    0    0    0  501  0.00000000000E+00  0.00000000000E+00  0.27963473190E+03  0.27963473194E+03  0.50400001928E-02 0. -1.
        1   -1    0    0  501    0  0.00000000000E+00  0.00000000000E+00 -0.31448458427E+03  0.31448458431E+03  0.50400001928E-02 0.  1.
    10030    2    1    2    0    0  0.00000000000E+00  0.00000000000E+00 -0.34849852371E+02  0.59411931625E+03  0.59309632416E+03 0.  0.
        1    1    3    3  502    0 -0.19553875374E+03 -0.19630861623E+03 -0.12328755244E+03  0.30326934833E+03  0.50400001928E-02 0.  1.
       -1    1    3    3    0  502  0.19553875374E+03  0.19630861623E+03  0.88437700073E+02  0.29084996792E+03  0.50400001928E-02 0. -1.
</event>
<event>
 5   0  0.2382531E-02  0.5916476E+03  0.7818609E-02  0.9922888E-01
        1   -1    0    0  501    0  0.00000000000E+00  0.00000000000E+00  0.49452954567E+03  0.49452954570E+03  0.50400001928E-02 0.  1.
       -1   -1    0    0    0  501  0.00000000000E+00  0.00000000000E+00 -0.17695955825E+03  0.17695955832E+03  0.50400001928E-02 0. -1.
    10030    2    1    2    0    0  0.00000000000E+00  0.00000000000E+00  0.31756998742E+03  0.67148910402E+03  0.59164763154E+03 0.  0.
        5    1    3    3  502    0 -0.15848765994E+02 -0.10990396844E+03 -0.15236370964E+03  0.18859176991E+03  0.46999998093E+01 0. -1.
       -5    1    3    3    0  502  0.15848765994E+02  0.10990396844E+03  0.46993369706E+03  0.48289733411E+03  0.46999998093E+01 0.  1.
</event>
<event>
 5   0  0.2382531E-02  0.6015052E+03  0.7818609E-02  0.9902288E-01
       -1   -1    0    0    0  501  0.00000000000E+00  0.00000000000E+00  0.31774945924E+03  0.31774945928E+03  0.50400001928E-02 0.  1.
        1   -1    0    0  501    0  0.00000000000E+00  0.00000000000E+00 -0.28466495842E+03  0.28466495847E+03  0.50400001928E-02 0. -1.
    10030    2    1    2    0    0  0.00000000000E+00  0.00000000000E+00  0.33084500818E+02  0.60241441775E+03  0.60150523399E+03 0.  0.
        5    1    3    3  502    0 -0.92345748668E+02  0.12206014163E+03  0.27578410300E+03  0.31544472881E+03  0.46999998093E+01 0.  1.
       -5    1    3    3    0  502  0.92345748668E+02 -0.12206014163E+03 -0.24269960218E+03  0.28696968894E+03  0.46999998093E+01 0. -1.
</event>
<event>
 5   0  0.1521750E-02  0.5998233E+03  0.7818609E-02  0.9905773E-01
        4   -1    0    0  501    0  0.00000000000E+00  0.00000000000E+00  0.15679326877E+03  0.15679841209E+03  0.12699999809E+01 0.  1.
       -4   -1    0    0    0  501  0.00000000000E+00  0.00000000000E+00 -0.57365088272E+03  0.57365228854E+03  0.12699999809E+01 0. -1.
    10030    2    1    2    0    0  0.00000000000E+00  0.00000000000E+00 -0.41685761395E+03  0.73045070062E+03  0.59982327042E+03 0.  0.
        2    1    3    3  502    0 -0.23695145351E+03 -0.42323148420E+02 -0.42630447514E+03  0.48956383214E+03  0.25500000920E-02 0. -1.
       -2    1    3    3    0  502  0.23695145351E+03  0.42323148420E+02  0.94468611909E+01  0.24088686848E+03  0.25500000920E-02 0.  1.
</event>
<event>
 5   0  0.3737642E-02  0.5990846E+03  0.7818609E-02  0.9907307E-01
       -2   -1    0    0    0  501  0.00000000000E+00  0.00000000000E+00  0.26073908438E+03  0.26073908439E+03  0.25500000920E-02 0. -1.
        2   -1    0    0  501    0  0.00000000000E+00  0.00000000000E+00 -0.34412018820E+03  0.34412018821E+03  0.25500000920E-02 0.  1.
    10030    2    1    2    0    0  0.00000000000E+00  0.00000000000E+00 -0.83381103825E+02  0.60485927260E+03  0.59908457765E+03 0.  0.
        5    1    3    3  502    0  0.44370946899E+02 -0.29535229830E+03 -0.19075270344E+02  0.29931207288E+03  0.46999998093E+01 0. -1.
       -5    1    3    3    0  502 -0.44370946899E+02  0.29535229830E+03 -0.64305833481E+02  0.30554719972E+03  0.46999998093E+01 0.  1.
</event>
<event>
 5   0  0.3724066E-02  0.6146678E+03  0.7818609E-02  0.9875434E-01
        2   -1    0    0  501    0  0.00000000000E+00  0.00000000000E+00  0.29235125219E+03  0.29235125221E+03  0.25500000920E-02 0. -1.
       -2   -1    0    0    0  501  0.00000000000E+00  0.00000000000E+00 -0.32308442676E+03  0.32308442677E+03  0.25500000920E-02 0.  1.
    10030    2    1    2    0    0  0.00000000000E+00  0.00000000000E+00 -0.30733174561E+02  0.61543567897E+03  0.61466783463E+03 0.  0.
        4    1    3    3  502    0  0.25026978326E+03  0.10361546892E+03  0.13000912169E+03  0.30045817419E+03  0.12699999809E+01 0. -1.
       -4    1    3    3    0  502 -0.25026978326E+03 -0.10361546892E+03 -0.16074229625E+03  0.31497750478E+03  0.12699999809E+01 0.  1.
</event>
<event>
 5   0  0.2276105E-02  0.6005467E+03  0.7818609E-02  0.9904273E-01
        1   -1    0    0  501    0  0.00000000000E+00  0.00000000000E+00  0.74868687321E+03  0.74868687323E+03  0.50400001928E-02 0.  1.
       -1   -1    0    0    0  501  0.00000000000E+00  0.00000000000E+00 -0.12042961535E+03  0.12042961545E+03  0.50400001928E-02 0. -1.
    10030    2    1    2    0    0  0.00000000000E+00  0.00000000000E+00  0.62825725786E+03  0.86911648868E+03  0.60054665834E+03 0.  0.
        1    1    3    3  502    0  0.92213963169E+02  0.60975907001E+02  0.71816333097E+03  0.72662235461E+03  0.50400001928E-02 0.  1.
       -1    1    3    3    0  502 -0.92213963169E+02 -0.60975907001E+02 -0.89906073110E+02  0.14249413407E+03  0.50400001928E-02 0. -1.
</event>
<event>
 5   0  0.3737642E-02  0.5962590E+03  0.7818609E-02  0.9913198E-01
        2   -1    0    0  501    0  0.00000000000E+00  0.00000000000E+00  0.48447376960E+03  0.48447376960E+03  0.25500000920E-02 0.  1.
       -2   -1    0    0    0  501  0.00000000000E+00  0.00000000000E+00 -0.18345925908E+03  0.18345925910E+03  0.25500000920E-02 0. -1.
    10030    2    1    2    0    0  0.00000000000E+00  0.00000000000E+00  0.30101451052E+03  0.66793302870E+03  0.59625900017E+03 0.  0.
        5    1    3    3  502    0  0.17040374978E+03 -0.19498201925E+03  0.31591768963E+03  0.40851132468E+03  0.46999998093E+01 0.  1.
       -5    1    3    3    0  502 -0.17040374978E+03  0.19498201925E+03 -0.14903179110E+02  0.25942170402E+03  0.46999998093E+01 0. -1.
</event>
<event>
 5   0  0.2295179E-02  0.5979362E+03  0.7818609E-02  0.9909697E-01
       -1   -1    0    0    0  501  0.00000000000E+00  0.00000000000E+00  0.79063969006E+03  0.79063969008E+03  0.50400001928E-02 0.  1.
        1   -1    0    0  501    0  0.00000000000E+00  0.00000000000E+00 -0.11305014368E+03  0.11305014379E+03  0.50400001928E-02 0. -1.
    10030    2    1    2    0    0  0.00000000000E+00  0.00000000000E+00  0.67758954638E+03  0.90368983387E+03  0.59793621941E+03 0.  0.
        3    1    3    3  502    0 -0.11833628893E+03  0.20093833166E+03  0.56038406397E+02  0.23983328293E+03  0.10100000352E+00 0. -1.
       -3    1    3    3    0  502  0.11833628893E+03 -0.20093833166E+03  0.62155113999E+03  0.66385655094E+03  0.10100000352E+00 0.  1.
</event>
<event>
 5   0  0.3832191E-02  0.5968854E+03  0.7818609E-02  0.9911889E-01
        2   -1    0    0  501    0  0.00000000000E+00  0.00000000000E+00  0.17777288381E+04  0.17777288381E+04  0.25500000920E-02 0. -1.
       -2   -1    0    0    0  501  0.00000000000E+00  0.00000000000E+00 -0.50102160627E+02  0.50102160692E+02  0.25500000920E-02 0.  1.
    10030    2    1    2    0    0  0.00000000000E+00  0.00000000000E+00  0.17276266774E+04  0.18278309988E+04  0.59688543576E+03 0.  0.
        3    1    3    3  502    0 -0.16820587681E+03  0.18658785419E+03  0.37041720889E+03  0.44756805423E+03  0.10100000352E+00 0.  1.
       -3    1    3    3    0  502  0.16820587681E+03 -0.18658785419E+03  0.13572094685E+04  0.13802629445E+04  0.10100000352E+00 0. -1.
</event>
<event>
 5   0  0.3737642E-02  0.5985522E+03  0.7818609E-02  0.9908414E-01
        2   -1    0    0  501    0  0.00000000000E+00  0.00000000000E+00  0.28272767164E+03  0.28272767165E+03  0.25500000920E-02 0.  1.
       -2   -1    0    0    0  501  0.00000000000E+00  0.00000000000E+00 -0.31679314510E+03  0.31679314511E+03  0.25500000920E-02 0. -1.
    10030    2    1    2    0    0  0.00000000000E+00  0.00000000000E+00 -0.34065473463E+02  0.59952081676E+03  0.59855221430E+03 0.  0.
        5    1    3    3  502    0 -0.16066464093E+03  0.11629119201E+03  0.20739978509E+03  0.28700789020E+03  0.46999998093E+01 0.  1.
       -5    1    3    3    0  502  0.16066464093E+03 -0.11629119201E+03 -0.24146525855E+03  0.31251292656E+03  0.46999998093E+01 0. -1.
</event>
<event>
 5   0  0.2309055E-02  0.5811748E+03  0.7818609E-02  0.9945251E-01
        1   -1    0    0  501    0  0.00000000000E+00  0.00000000000E+00  0.99648610394E+03  0.99648610396E+03  0.50400001928E-02 0. -1.
       -1   -1    0    0    0  501  0.00000000000E+00  0.00000000000E+00 -0.84738802129E+02  0.84738802278E+02  0.50400001928E-02 0.  1.
    10030    2    1    2    0    0  0.00000000000E+00  0.00000000000E+00  0.91174730181E+03  0.10812249062E+04  0.58117480631E+03 0.  0.
        4    1    3    3  502    0  0.21399634470E+03  0.92522603729E+01  0.90552920605E+02  0.23255426076E+03  0.12699999809E+01 0.  1.
       -4    1    3    3    0  502 -0.21399634470E+03 -0.92522603729E+01  0.82119438121E+03  0.84867064548E+03  0.12699999809E+01 0. -1.
</event>
<event>
 5   0  0.3832191E-02  0.6005428E+03  0.7818609E-02  0.9904281E-01
       -2   -1    0    0    0  501  0.00000000000E+00  0.00000000000E+00  0.92092167870E+03  0.92092167870E+03  0.25500000920E-02 0. -1.
        2   -1    0    0  501    0  0.00000000000E+00  0.00000000000E+00 -0.97905076139E+02  0.97905076172E+02  0.25500000920E-02 0.  1.
    10030    2    1    2    0    0  0.00000000000E+00  0.00000000000E+00  0.82301660256E+03  0.10188267549E+04  0.60054277813E+03 0.  0.
        3    1    3    3  502    0 -0.33089838315E+02 -0.29609567128E+03  0.34813706154E+03  0.45822157060E+03  0.10100000352E+00 0.  1.
       -3    1    3    3    0  502  0.33089838315E+02  0.29609567128E+03  0.47487954102E+03  0.56060518427E+03  0.10100000352E+00 0. -1.
</event>
<event>
 5   0  0.3798925E-02  0.6003238E+03  0.7818609E-02  0.9904735E-01
        2   -1    0    0  501    0  0.00000000000E+00  0.00000000000E+00  0.49907281135E+03  0.49907281136E+03  0.25500000920E-02 0. -1.
       -2   -1    0    0    0  501  0.00000000000E+00  0.00000000000E+00 -0.18052907951E+03  0.18052907953E+03  0.25500000920E-02 0.  1.
    10030    2    1    2    0    0  0.00000000000E+00  0.00000000000E+00  0.31854373184E+03  0.67960189089E+03  0.60032376348E+03 0.  0.
        2    1    3    3  502    0 -0.27886438364E+03  0.10683179429E+03  0.12495762008E+03  0.32371713510E+03  0.25500000920E-02 0. -1.
       -2    1    3    3    0  502  0.27886438364E+03 -0.10683179429E+03  0.19358611176E+03  0.35588475579E+03  0.25500000920E-02 0.  1.
</event>
<event>
 5   0  0.3724066E-02  0.5786221E+03  0.7818609E-02  0.9950779E-01
       -2   -1    0    0    0  501  0.00000000000E+00  0.00000000000E+00  0.70839954365E+02  0.70839954411E+02  0.25500000920E-02 0. -1.
        2   -1    0    0  501    0  0.00000000000E+00  0.00000000000E+00 -0.11815490596E+04  0.11815490596E+04  0.25500000920E-02 0.  1.
    10030    2    1    2    0    0  0.00000000000E+00  0.00000000000E+00 -0.11107091053E+04  0.12523890140E+04  0.57862209254E+03 0.  0.
        4    1    3    3  502    0 -0.15044057777E+03 -0.19032348899E+03 -0.21419788169E+03  0.32363211108E+03  0.12699999809E+01 0. -1.
       -4    1    3    3    0  502  0.15044057777E+03  0.19032348899E+03 -0.89651122357E+03  0.92875690295E+03  0.12699999809E+01 0.  1.
</event>
<event>
 5   0  0.3737642E-02  0.5993798E+03  0.7818609E-02  0.9906694E-01
       -2   -1    0    0    0  501  0.00000000000E+00  0.00000000000E+00  0.46423540868E+02  0.46423540938E+02  0.25500000920E-02 0. -1.
        2   -1    0    0  501    0  0.00000000000E+00  0.00000000000E+00 -0.19346656681E+04  0.19346656681E+04  0.25500000920E-02 0.  1.
    10030    2    1    2    0    0  0.00000000000E+00  0.00000000000E+00 -0.18882421272E+04  0.19810892090E+04  0.59937978203E+03 0.  0.
        5    1    3    3  502    0  0.22628367237E+03 -0.58421595032E+02 -0.32422873035E+03  0.39970456931E+03  0.46999998093E+01 0. -1.
       -5    1    3    3    0  502 -0.22628367237E+03  0.58421595032E+02 -0.15640133968E+04  0.15813846397E+04  0.46999998093E+01 0.  1.
</event>
<event>
 5   0  0.3934634E-02  0.6022588E+03  0.7818609E-02  0.9900731E-01
        2   -1    0    0  501    0  0.00000000000E+00  0.00000000000E+00  0.15049538811E+03  0.15049538813E+03  0.25500000920E-02 0. -1.
       -2   -1    0    0    0  501  0.00000000000E+00  0.00000000000E+00 -0.60253620618E+03  0.60253620618E+03  0.25500000920E-02 0.  1.
    10030    2    1    2    0    0  0.00000000000E+00  0.00000000000E+00 -0.45204081806E+03  0.75303159432E+03  0.60225881550E+03 0.  0.
        1    1    3    3  502    0  0.18124290402E+03  0.57601325310E+02 -0.51794868272E+03  0.55175877056E+03  0.50400001928E-02 0.  1.
       -1    1    3    3    0  502 -0.18124290402E+03 -0.57601325310E+02  0.65907864653E+02  0.20127282376E+03  0.50400001928E-02 0. -1.
</event>
<event>
 5   0  0.3934634E-02  0.6007513E+03  0.7818609E-02  0.9903848E-01
        2   -1    0    0  501    0  0.00000000000E+00  0.00000000000E+00  0.10244383021E+03  0.10244383024E+03  0.25500000920E-02 0. -1.
       -2   -1    0    0    0  501  0.00000000000E+00  0.00000000000E+00 -0.88073183453E+03  0.88073183453E+03  0.25500000920E-02 0.  1.
    10030    2    1    2    0    0  0.00000000000E+00  0.00000000000E+00 -0.77828800432E+03  0.98317566478E+03  0.60075133803E+03 0.  0.
        1    1    3    3  502    0 -0.16636976214E+03 -0.21082802689E+03 -0.60931186124E+03  0.66587408641E+03  0.50400001928E-02 0. -1.
       -1    1    3    3    0  502  0.16636976214E+03  0.21082802689E+03 -0.16897614308E+03  0.31730157837E+03  0.50400001928E-02 0.  1.
</event>
<event>
 5   0  0.2276105E-02  0.6028885E+03  0.7818609E-02  0.9899431E-01
        1   -1    0    0  501    0  0.00000000000E+00  0.00000000000E+00  0.18236618965E+03  0.18236618972E+03  0.50400001928E-02 0.  1.
       -1   -1    0    0    0  501  0.00000000000E+00  0.00000000000E+00 -0.49827574715E+03  0.49827574717E+03  0.50400001928E-02 0. -1.
    10030    2    1    2    0    0  0.00000000000E+00  0.00000000000E+00 -0.31590955750E+03  0.68064193690E+03  0.60288854504E+03 0.  0.
        1    1    3    3  502    0  0.82041087836E+02  0.43078446076E+02  0.16588821474E+03  0.19001419006E+03  0.50400001928E-02 0.  1.
       -1    1    3    3    0  502 -0.82041087836E+02 -0.43078446076E+02 -0.48179777223E+03  0.49062774684E+03  0.50400001928E-02 0. -1.
</event>
<event>
 5   0  0.2225808E-02  0.5992739E+03  0.7818609E-02  0.9906914E-01
        1   -1    0    0  501    0  0.00000000000E+00  0.00000000000E+00  0.42908491989E+03  0.42908491992E+03  0.50400001928E-02 0. -1.
       -1   -1    0    0    0  501  0.00000000000E+00  0.00000000000E+00 -0.20924130892E+03  0.20924130898E+03  0.50400001928E-02 0.  1.
    10030    2    1    2    0    0  0.00000000000E+00  0.00000000000E+00  0.21984361097E+03  0.63832622890E+03  0.59927386162E+03 0.  0.
        2    1    3    3  502    0  0.40107603629E+02 -0.10865030090E+03  0.40427942901E+03  0.42054175117E+03  0.25500000920E-02 0. -1.
       -2    1    3    3    0  502 -0.40107603629E+02  0.10865030090E+03 -0.18443581804E+03  0.21778447772E+03  0.25500000920E-02 0.  1.
</event>
<event>
 5   0  0.3934634E-02  0.5944558E+03  0.7818609E-02  0.9916976E-01
       -2   -1    0    0    0  501  0.00000000000E+00  0.00000000000E+00  0.21396471448E+03  0.21396471449E+03  0.25500000920E-02 0.  1.
        2   -1    0    0  501    0  0.00000000000E+00  0.00000000000E+00 -0.41289252798E+03  0.41289252799E+03  0.25500000920E-02 0. -1.
    10030    2    1    2    0    0  0.00000000000E+00  0.00000000000E+00 -0.19892781350E+03  0.62685724248E+03  0.59445582465E+03 0.  0.
        1    1    3    3  502    0  0.62333835435E+02 -0.27471991210E+03  0.50801690508E+00  0.28170338168E+03  0.50400001928E-02 0.  1.
       -1    1    3    3    0  502 -0.62333835435E+02  0.27471991210E+03 -0.19943583041E+03  0.34515386080E+03  0.50400001928E-02 0. -1.
</event>
<event>
 5   0  0.2295179E-02  0.6011891E+03  0.7818609E-02  0.9902942E-01
        1   -1    0    0  501    0  0.00000000000E+00  0.00000000000E+00  0.52752408906E+03  0.52752408908E+03  0.50400001928E-02 0.  1.
       -1   -1    0    0    0  501  0.00000000000E+00  0.00000000000E+00 -0.17128523813E+03  0.17128523821E+03  0.50400001928E-02 0. -1.
    10030    2    1    2    0    0  0.00000000000E+00  0.00000000000E+00  0.35623885092E+03  0.69880932729E+03  0.60118911916E+03 0.  0.
        3    1    3    3  502    0 -0.18586334169E+03  0.31212536490E+02  0.45031878393E+03  0.48816638719E+03  0.10100000352E+00 0.  1.
       -3    1    3    3    0  502  0.18586334169E+03 -0.31212536490E+02 -0.94079933003E+02  0.21064294010E+03  0.10100000352E+00 0. -1.
</event>
<event>
 5   0  0.3737642E-02  0.6051741E+03  0.7818609E-02  0.9894729E-01
        2   -1    0    0  501    0  0.00000000000E+00  0.00000000000E+00  0.28492692753E+03  0.28492692754E+03  0.25500000920E-02 0. -1.
       -2   -1    0    0    0  501  0.00000000000E+00  0.00000000000E+00 -0.32134175080E+03  0.32134175081E+03  0.25500000920E-02 0.  1.
    10030    2    1    2    0    0  0.00000000000E+00  0.00000000000E+00 -0.36414823263E+02  0.60626867835E+03  0.60517408321E+03 0.  0.
        5    1    3    3  502    0 -0.96572681336E+02  0.24904131233E+03  0.12413748103E+03  0.29458455870E+03  0.46999998093E+01 0. -1.
       -5    1    3    3    0  502  0.96572681336E+02 -0.24904131233E+03 -0.16055230430E+03  0.31168411965E+03  0.46999998093E+01 0.  1.
</event>
<event>
 5   0  0.2295179E-02  0.6013465E+03  0.7818609E-02  0.9902616E-01
       -1   -1    0    0    0  501  0.00000000000E+00  0.00000000000E+00  0.55134335524E+02  0.55134335754E+02  0.50400001928E-02 0.  1.
        1   -1    0    0  501    0  0.00000000000E+00  0.00000000000E+00 -0.16397113775E+04  0.16397113775E+04  0.50400001928E-02 0. -1.
    10030    2    1    2    0    0  0.00000000000E+00  0.00000000000E+00 -0.15845770420E+04  0.16948457133E+04  0.60134648067E+03 0.  0.
        3    1    3    3  502    0 -0.24841833518E+03 -0.14974603537E+03 -0.56913739203E+03  0.63879020466E+03  0.10100000352E+00 0.  1.
       -3    1    3    3    0  502  0.24841833518E+03  0.14974603537E+03 -0.10154396500E+04  0.10560555086E+04  0.10100000352E+00 0. -1.
</event>
<event>
 5   0  0.3798925E-02  0.5998508E+03  0.7818609E-02  0.9905716E-01
       -2   -1    0    0    0  501  0.00000000000E+00  0.00000000000E+00  0.16820083784E+03  0.16820083786E+03  0.25500000920E-02 0. -1.
        2   -1    0    0  501    0  0.00000000000E+00  0.00000000000E+00 -0.53480859229E+03  0.53480859230E+03  0.25500000920E-02 0.  1.
    10030    2    1    2    0    0  0.00000000000E+00  0.00000000000E+00 -0.36660775445E+03  0.70300943016E+03  0.59985082585E+03 0.  0.
        2    1    3    3  502    0 -0.22273937131E+03  0.92728978124E+02 -0.39211185598E+03  0.46039461174E+03  0.25500000920E-02 0.  1.
       -2    1    3    3    0  502  0.22273937131E+03 -0.92728978124E+02  0.25504101533E+02  0.24261481842E+03  0.25500000920E-02 0. -1.
</event>
<event>
 5   0  0.2309055E-02  0.6012672E+03  0.7818609E-02  0.9902781E-01
       -1   -1    0    0    0  501  0.00000000000E+00  0.00000000000E+00  0.26110599970E+03  0.26110599975E+03  0.50400001928E-02 0. -1.
        1   -1    0    0  501    0  0.00000000000E+00  0.00000000000E+00 -0.34614508704E+03  0.34614508708E+03  0.50400001928E-02 0.  1.
    10030    2    1    2    0    0  0.00000000000E+00  0.00000000000E+00 -0.85039087342E+02  0.60725108683E+03  0.60126719192E+03 0.  0.
        4    1    3    3  502    0 -0.24970887218E+03 -0.16465539327E+03 -0.73036593199E+02  0.30789913320E+03  0.12699999809E+01 0.  1.
       -4    1    3    3    0  502  0.24970887218E+03  0.16465539327E+03 -0.12002494143E+02  0.29935195363E+03  0.12699999809E+01 0. -1.
</event>
<event>
 5   0  0.2382531E-02  0.5993543E+03  0.7818609E-02  0.9906747E-01
       -1   -1    0    0    0  501  0.00000000000E+00  0.00000000000E+00  0.27828467998E+03  0.27828468002E+03  0.50400001928E-02 0.  1.
        1   -1    0    0  501    0  0.00000000000E+00  0.00000000000E+00 -0.32271406391E+03  0.32271406395E+03  0.50400001928E-02 0. -1.
    10030    2    1    2    0    0  0.00000000000E+00  0.00000000000E+00 -0.44429383934E+02  0.60099874397E+03  0.59935425259E+03 0.  0.
        5    1    3    3  502    0 -0.25925540533E+03 -0.15023012403E+03 -0.20856476161E+02  0.30039896463E+03  0.46999998093E+01 0. -1.
       -5    1    3    3    0  502  0.25925540533E+03  0.15023012403E+03 -0.23572907773E+02  0.30059977934E+03  0.46999998093E+01 0.  1.
</event>
<event>
 5   0  0.2276105E-02  0.5652987E+03  0.7818609E-02  0.9980136E-01
       -1   -1    0    0    0  501  0.00000000000E+00  0.00000000000E+00  0.10238294468E+03  0.10238294480E+03  0.50400001928E-02 0. -1.
        1   -1    0    0  501    0  0.00000000000E+00  0.00000000000E+00 -0.78031215735E+03  0.78031215737E+03  0.50400001928E-02 0.  1.
    10030    2    1    2    0    0  0.00000000000E+00  0.00000000000E+00 -0.67792921267E+03  0.88269510217E+03  0.56529870512E+03 0.  0.
        1    1    3    3  502    0  0.10644968621E+03  0.20481601576E+03 -0.84251524635E+02  0.24572231366E+03  0.50400001928E-02 0. -1.
       -1    1    3    3    0  502 -0.10644968621E+03 -0.20481601576E+03 -0.59367768803E+03  0.63697278851E+03  0.50400001928E-02 0.  1.
</event>
<event>
 5   0  0.2225808E-02  0.6062597E+03  0.7818609E-02  0.9892504E-01
        1   -1    0    0  501    0  0.00000000000E+00  0.00000000000E+00  0.35112077822E+03  0.35112077825E+03  0.50400001928E-02 0.  1.
       -1   -1    0    0    0  501  0.00000000000E+00  0.00000000000E+00 -0.26169824782E+03  0.26169824787E+03  0.50400001928E-02 0. -1.
    10030    2    1    2    0    0  0.00000000000E+00  0.00000000000E+00  0.89422530396E+02  0.61281902613E+03  0.60625965546E+03 0.  0.
        2    1    3    3  502    0 -0.27930300624E+03  0.10875685034E+03 -0.10496208530E+01  0.29973208621E+03  0.25500000920E-02 0. -1.
       -2    1    3    3    0  502  0.27930300624E+03 -0.10875685034E+03  0.90472151249E+02  0.31308693992E+03  0.25500000920E-02 0.  1.
</event>
<event>
 5   0  0.3832191E-02  0.6018739E+03  0.7818609E-02  0.9901526E-01
        2   -1    0    0  501    0  0.00000000000E+00  0.00000000000E+00  0.80974252050E+03  0.80974252050E+03  0.25500000920E-02 0.  1.
       -2   -1    0    0    0  501  0.00000000000E+00  0.00000000000E+00 -0.11184180019E+03  0.11184180022E+03  0.25500000920E-02 0. -1.
    10030    2    1    2    0    0  0.00000000000E+00  0.00000000000E+00  0.69790072031E+03  0.92158432072E+03  0.60187394427E+03 0.  0.
        3    1    3    3  502    0  0.28459953328E+03  0.66403967047E+02  0.23899555921E+03  0.37752518950E+03  0.10100000352E+00 0.  1.
       -3    1    3    3    0  502 -0.28459953328E+03 -0.66403967047E+02  0.45890516110E+03  0.54405913122E+03  0.10100000352E+00 0. -1.
</event>
<event>
 5   0  0.3934634E-02  0.5988086E+03  0.7818609E-02  0.9907881E-01
       -2   -1    0    0    0  501  0.00000000000E+00  0.00000000000E+00  0.12642392831E+03  0.12642392834E+03  0.25500000920E-02 0.  1.
        2   -1    0    0  501    0  0.00000000000E+00  0.00000000000E+00 -0.70906629424E+03  0.70906629425E+03  0.25500000920E-02 0. -1.
    10030    2    1    2    0    0  0.00000000000E+00  0.00000000000E+00 -0.58264236593E+03  0.83549022259E+03  0.59880863843E+03 0.  0.
        1    1    3    3  502    0 -0.80572332515E+02 -0.98175488604E+01 -0.69342233816E+03  0.69815673321E+03  0.50400001928E-02 0. -1.
       -1    1    3    3    0  502  0.80572332515E+02  0.98175488604E+01  0.11077997223E+03  0.13733348938E+03  0.50400001928E-02 0.  1.
</event>
<event>
 5   0  0.2225808E-02  0.6003870E+03  0.7818609E-02  0.9904604E-01
       -1   -1    0    0    0  501  0.00000000000E+00  0.00000000000E+00  0.61633884827E+02  0.61633885033E+02  0.50400001928E-02 0.  1.
        1   -1    0    0  501    0  0.00000000000E+00  0.00000000000E+00 -0.14621199356E+04  0.14621199356E+04  0.50400001928E-02 0. -1.
    10030    2    1    2    0    0  0.00000000000E+00  0.00000000000E+00 -0.14004860508E+04  0.15237538206E+04  0.60038698146E+03 0.  0.
        2    1    3    3  502    0 -0.64415708099E+02  0.29153729450E+03 -0.77939926019E+03  0.83462960907E+03  0.25500000920E-02 0.  1.
       -2    1    3    3    0  502  0.64415708099E+02 -0.29153729450E+03 -0.62108679058E+03  0.68912421157E+03  0.25500000920E-02 0. -1.
</event>
<event>
 5   0  0.2225808E-02  0.6008243E+03  0.7818609E-02  0.9903697E-01
        1   -1    0    0  501    0  0.00000000000E+00  0.00000000000E+00  0.17855980676E+03  0.17855980683E+03  0.50400001928E-02 0.  1.
       -1   -1    0    0    0  501  0.00000000000E+00  0.00000000000E+00 -0.50541861252E+03  0.50541861254E+03  0.50400001928E-02 0. -1.
    10030    2    1    2    0    0  0.00000000000E+00  0.00000000000E+00 -0.32685880576E+03  0.68397841937E+03  0.60082426654E+03 0.  0.
        2    1    3    3  502    0  0.80623099374E+02 -0.28826528749E+03 -0.13439485001E+03  0.32811421158E+03  0.25500000920E-02 0. -1.
       -2    1    3    3    0  502 -0.80623099374E+02  0.28826528749E+03 -0.19246395574E+03  0.35586420779E+03  0.25500000920E-02 0.  1.
</event>
<event>
 5   0  0.2295179E-02  0.5961204E+03  0.7818609E-02  0.9913488E-01
       -1   -1    0    0    0  501  0.00000000000E+00  0.00000000000E+00  0.41075789911E+03  0.41075789914E+03  0.50400001928E-02 0. -1.
        1   -1    0    0  501    0  0.00000000000E+00  0.00000000000E+00 -0.21628280924E+03  0.21628280930E+03  0.50400001928E-02 0.  1.
    10030    2    1    2    0    0  0.00000000000E+00  0.00000000000E+00  0.19447508986E+03  0.62704070844E+03  0.59612036492E+03 0.  0.
        3    1    3    3  502    0  0.11804513678E+03 -0.17308370643E+03 -0.12576677957E+03  0.24435612698E+03  0.10100000352E+00 0.  1.
       -3    1    3    3    0  502 -0.11804513678E+03  0.17308370643E+03  0.32024186943E+03  0.38268458146E+03  0.10100000352E+00 0. -1.
</event>
<event>
 5   0  0.2309055E-02  0.6042559E+03  0.7818609E-02  0.9896616E-01
       -1   -1    0    0    0  501  0.00000000000E+00  0.00000000000E+00  0.42893408562E+03  0.42893408565E+03  0.50400001928E-02 0.  1.
        1   -1    0    0  501    0  0.00000000000E+00  0.00000000000E+00 -0.21280962311E+03  0.21280962317E+03  0.50400001928E-02 0. -1.
    10030    2    1    2    0    0  0.00000000000E+00  0.00000000000E+00  0.21612446251E+03  0.64174370882E+03  0.60425590979E+03 0.  0.
        4    1    3    3  502    0  0.49547913037E+02  0.12044446676E+03  0.39758798626E+03  0.41837744320E+03  0.12699999809E+01 0.  1.
       -4    1    3    3    0  502 -0.49547913037E+02 -0.12044446676E+03 -0.18146352376E+03  0.22336626561E+03  0.12699999809E+01 0. -1.
</event>
<event>
 5   0  0.3798925E-02  0.5976938E+03  0.7818609E-02  0.9910202E-01
       -2   -1    0    0    0  501  0.00000000000E+00  0.00000000000E+00  0.38783576220E+02  0.38783576304E+02  0.25500000920E-02 0. -1.
        2   -1    0    0  501    0  0.00000000000E+00  0.00000000000E+00 -0.23027652054E+04  0.23027652054E+04  0.25500000920E-02 0.  1.
    10030    2    1    2    0    0  0.00000000000E+00  0.00000000000E+00 -0.22639816291E+04  0.23415487817E+04  0.59769380107E+03 0.  0.
        2    1    3    3  502    0  0.11542128540E+03  0.26911891186E+03 -0.13658186954E+04  0.13968563887E+04  0.25500000920E-02 0.  1.
       -2    1    3    3    0  502 -0.11542128540E+03 -0.26911891186E+03 -0.89816293371E+03  0.94469239297E+03  0.25500000920E-02 0. -1.
</event>
<event>
 5   0  0.3934634E-02  0.5959493E+03  0.7818609E-02  0.9913846E-01
        2   -1    0    0  501    0  0.00000000000E+00  0.00000000000E+00  0.14067281124E+04  0.14067281124E+04  0.25500000920E-02 0.  1.
       -2   -1    0    0    0  501  0.00000000000E+00  0.00000000000E+00 -0.63117299237E+02  0.63117299288E+02  0.25500000920E-02 0. -1.
    10030    2    1    2    0    0  0.00000000000E+00  0.00000000000E+00  0.13436108132E+04  0.14698454117E+04  0.59594925708E+03 0.  0.
        1    1    3    3  502    0 -0.37031889993E+01 -0.13219779540E+03  0.13303782510E+04  0.13369353991E+04  0.50400001928E-02 0.  1.
       -1    1    3    3    0  502  0.37031889993E+01  0.13219779540E+03  0.13232562198E+02  0.13291001258E+03  0.50400001928E-02 0. -1.
</event>
<event>
 5   0  0.1521750E-02  0.5675288E+03  0.7818609E-02  0.9975162E-01
       -3   -1    0    0    0  501  0.00000000000E+00  0.00000000000E+00  0.13141184542E+03  0.13141188424E+03  0.10100000352E+00 0.  1.
        3   -1    0    0  501    0  0.00000000000E+00  0.00000000000E+00 -0.61274706769E+03  0.61274707601E+03  0.10100000352E+00 0. -1.
    10030    2    1    2    0    0  0.00000000000E+00  0.00000000000E+00 -0.48133522226E+03  0.74415896025E+03  0.56752882035E+03 0.  0.
        4    1    3    3  502    0 -0.77791371609E+02 -0.52115270331E+02 -0.59190295862E+03  0.59926473634E+03  0.12699999809E+01 0. -1.
       -4    1    3    3    0  502  0.77791371609E+02  0.52115270331E+02  0.11056773636E+03  0.14489422391E+03  0.12699999809E+01 0.  1.
</event>
<event>
 5   0  0.2276105E-02  0.6624199E+03  0.7818609E-02  0.9783749E-01
       -1   -1    0    0    0  501  0.00000000000E+00  0.00000000000E+00  0.36747157947E+03  0.36747157951E+03  0.50400001928E-02 0. -1.
        1   -1    0    0  501    0  0.00000000000E+00  0.00000000000E+00 -0.29852655896E+03  0.29852655900E+03  0.50400001928E-02 0.  1.
    10030    2    1    2    0    0  0.00000000000E+00  0.00000000000E+00  0.68945020512E+02  0.66599813851E+03  0.66241988546E+03 0.  0.
        1    1    3    3  502    0  0.53087699792E+02 -0.17857430171E+03  0.30980017233E+03  0.36150135809E+03  0.50400001928E-02 0. -1.
       -1    1    3    3    0  502 -0.53087699792E+02  0.17857430171E+03 -0.24085515182E+03  0.30449678042E+03  0.50400001928E-02 0.  1.
</event>
<event>
 5   0  0.3798925E-02  0.6061684E+03  0.7818609E-02  0.9892691E-01
       -2   -1    0    0    0  501  0.00000000000E+00  0.00000000000E+00  0.14183978269E+03  0.14183978272E+03  0.25500000920E-02 0. -1.
        2   -1    0    0  501    0  0.00000000000E+00  0.00000000000E+00 -0.64763234399E+03  0.64763234399E+03  0.25500000920E-02 0.  1.
    10030    2    1    2    0    0  0.00000000000E+00  0.00000000000E+00 -0.50579256129E+03  0.78947212671E+03  0.60616839557E+03 0.  0.
        2    1    3    3  502    0 -0.22338626742E+03 -0.12062660313E+03 -0.46851220404E+03  0.53287511407E+03  0.25500000920E-02 0.  1.
       -2    1    3    3    0  502  0.22338626742E+03  0.12062660313E+03 -0.37280357253E+02  0.25659701264E+03  0.25500000920E-02 0. -1.
</event>
<event>
 5   0  0.2276105E-02  0.6075435E+03  0.7818609E-02  0.9889878E-01
        1   -1    0    0  501    0  0.00000000000E+00  0.00000000000E+00  0.26645188591E+03  0.26645188596E+03  0.50400001928E-02 0.  1.
       -1   -1    0    0    0  501  0.00000000000E+00  0.00000000000E+00 -0.34631876361E+03  0.34631876365E+03  0.50400001928E-02 0. -1.
    10030    2    1    2    0    0  0.00000000000E+00  0.00000000000E+00 -0.79866877704E+02  0.61277064961E+03  0.60754353825E+03 0.  0.
        1    1    3    3  502    0  0.83613423205E+02  0.12103830535E+03 -0.30799405999E+03  0.34132362490E+03  0.50400001928E-02 0. -1.
       -1    1    3    3    0  502 -0.83613423205E+02 -0.12103830535E+03  0.22812718228E+03  0.27144702471E+03  0.50400001928E-02 0.  1.
</event>
<event>
 5   0  0.3934634E-02  0.6006980E+03  0.7818609E-02  0.9903959E-01
       -2   -1    0    0    0  501  0.00000000000E+00  0.00000000000E+00  0.17574395502E+03  0.17574395503E+03  0.25500000920E-02 0. -1.
        2   -1    0    0  501    0  0.00000000000E+00  0.00000000000E+00 -0.51330092150E+03  0.51330092150E+03  0.25500000920E-02 0.  1.
    10030    2    1    2    0    0  0.00000000000E+00  0.00000000000E+00 -0.33755696648E+03  0.68904487654E+03  0.60069804084E+03 0.  0.
        1    1    3    3  502    0  0.42620809987E+02  0.15610349056E+03 -0.45902369995E+03  0.48671099264E+03  0.50400001928E-02 0.  1.
       -1    1    3    3    0  502 -0.42620809987E+02 -0.15610349056E+03  0.12146673347E+03  0.20233388390E+03  0.50400001928E-02 0. -1.
</event>
<event>
 5   0  0.2295179E-02  0.5768121E+03  0.7818609E-02  0.9954717E-01
        1   -1    0    0  501    0  0.00000000000E+00  0.00000000000E+00  0.56463559722E+03  0.56463559725E+03  0.50400001928E-02 0.  1.
       -1   -1    0    0    0  501  0.00000000000E+00  0.00000000000E+00 -0.14731280734E+03  0.14731280743E+03  0.50400001928E-02 0. -1.
    10030    2    1    2    0    0  0.00000000000E+00  0.00000000000E+00  0.41732278988E+03  0.71194840468E+03  0.57681211843E+03 0.  0.
        3    1    3    3  502    0  0.15593993171E+03  0.16764692092E+03 -0.77968213280E+01  0.22909289168E+03  0.10100000352E+00 0. -1.
       -3    1    3    3    0  502 -0.15593993171E+03 -0.16764692092E+03  0.42511961121E+03  0.48285551300E+03  0.10100000352E+00 0.  1.
</event>
<event>
 5   0  0.3737642E-02  0.6007572E+03  0.7818609E-02  0.9903836E-01
       -2   -1    0    0    0  501  0.00000000000E+00  0.00000000000E+00  0.75882704557E+02  0.75882704600E+02  0.25500000920E-02 0.  1.
        2   -1    0    0  501    0  0.00000000000E+00  0.00000000000E+00 -0.11890365196E+04  0.11890365196E+04  0.25500000920E-02 0. -1.
    10030    2    1    2    0    0  0.00000000000E+00  0.00000000000E+00 -0.11131538150E+04  0.12649192242E+04  0.60075721202E+03 0.  0.
        5    1    3    3  502    0 -0.20108610665E+03  0.76627525365E+02 -0.11542794540E+03  0.24423984218E+03  0.46999998093E+01 0.  1.
       -5    1    3    3    0  502  0.20108610665E+03 -0.76627525365E+02 -0.99772586960E+03  0.10206793820E+04  0.46999998093E+01 0. -1.
</event>
<event>
 5   0  0.3934634E-02  0.6013251E+03  0.7818609E-02  0.9902661E-01
        2   -1    0    0  501    0  0.00000000000E+00  0.00000000000E+00  0.93059482526E+03  0.93059482527E+03  0.25500000920E-02 0. -1.
       -2   -1    0    0    0  501  0.00000000000E+00  0.00000000000E+00 -0.97139990114E+02  0.97139990147E+02  0.25500000920E-02 0.  1.
    10030    2    1    2    0    0  0.00000000000E+00  0.00000000000E+00  0.83345483515E+03  0.10277348154E+04  0.60132511055E+03 0.  0.
        1    1    3    3  502    0  0.28489483589E+03  0.28065622683E+02  0.25966316488E+03  0.38649412145E+03  0.50400001928E-02 0. -1.
       -1    1    3    3    0  502 -0.28489483589E+03 -0.28065622683E+02  0.57379167027E+03  0.64124069397E+03  0.50400001928E-02 0.  1.
</event>
<event>
 5   0  0.2225808E-02  0.5944701E+03  0.7818609E-02  0.9916946E-01
       -1   -1    0    0    0  501  0.00000000000E+00  0.00000000000E+00  0.12280516130E+03  0.12280516140E+03  0.50400001928E-02 0. -1.
        1   -1    0    0  501    0  0.00000000000E+00  0.00000000000E+00 -0.71942141982E+03  0.71942141984E+03  0.50400001928E-02 0.  1.
    10030    2    1    2    0    0  0.00000000000E+00  0.00000000000E+00 -0.59661625852E+03  0.84222658124E+03  0.59447006167E+03 0.  0.
        2    1    3    3  502    0 -0.15651291311E+03  0.19671832793E+03 -0.52300903558E+03  0.58028686339E+03  0.25500000920E-02 0.  1.
       -2    1    3    3    0  502  0.15651291311E+03 -0.19671832793E+03 -0.73607222942E+02  0.26193971786E+03  0.25500000920E-02 0. -1.
</event>
<event>
 5   0  0.3798925E-02  0.6000459E+03  0.7818609E-02  0.9905311E-01
       -2   -1    0    0    0  501  0.00000000000E+00  0.00000000000E+00  0.75486139701E+02  0.75486139744E+02  0.25500000920E-02 0. -1.
        2   -1    0    0  501    0  0.00000000000E+00  0.00000000000E+00 -0.11924544773E+04  0.11924544773E+04  0.25500000920E-02 0.  1.
    10030    2    1    2    0    0  0.00000000000E+00  0.00000000000E+00 -0.11169683376E+04  0.12679406171E+04  0.60004594921E+03 0.  0.
        2    1    3    3  502    0 -0.26440466512E+03 -0.81651841240E+02 -0.31354145972E+03  0.41819265546E+03  0.25500000920E-02 0. -1.
       -2    1    3    3    0  502  0.26440466512E+03  0.81651841240E+02 -0.80342687790E+03  0.84974796160E+03  0.25500000920E-02 0.  1.
</event>
<event>
 5   0  0.3934634E-02  0.6203449E+03  0.7818609E-02  0.9864073E-01
        2   -1    0    0  501    0  0.00000000000E+00  0.00000000000E+00  0.33613428229E+03  0.33613428230E+03  0.25500000920E-02 0.  1.
       -2   -1    0    0    0  501  0.00000000000E+00  0.00000000000E+00 -0.28621583189E+03  0.28621583190E+03  0.25500000920E-02 0. -1.
    10030    2    1    2    0    0  0.00000000000E+00  0.00000000000E+00  0.49918450394E+02  0.62235011420E+03  0.62034491451E+03 0.  0.
        1    1    3    3  502    0 -0.30529897158E+03  0.50329147945E+02  0.32915413503E+01  0.30943710096E+03  0.50400001928E-02 0. -1.
       -1    1    3    3    0  502  0.30529897158E+03 -0.50329147945E+02  0.46626909044E+02  0.31291301324E+03  0.50400001928E-02 0.  1.
</event>
<event>
 5   0  0.2225808E-02  0.6018714E+03  0.7818609E-02  0.9901531E-01
        1   -1    0    0  501    0  0.00000000000E+00  0.00000000000E+00  0.16179266746E+04  0.16179266746E+04  0.50400001928E-02 0.  1.
       -1   -1    0    0    0  501  0.00000000000E+00  0.00000000000E+00 -0.55974288399E+02  0.55974288626E+02  0.50400001928E-02 0. -1.
    10030    2    1    2    0    0  0.00000000000E+00  0.00000000000E+00  0.15619523862E+04  0.16739009632E+04  0.60187139652E+03 0.  0.
        2    1    3    3  502    0  0.28427581427E+03  0.97411270865E+02  0.73607959507E+03  0.79505651658E+03  0.25500000920E-02 0.  1.
       -2    1    3    3    0  502 -0.28427581427E+03 -0.97411270865E+02  0.82587279112E+03  0.87884444664E+03  0.25500000920E-02 0. -1.
</event>
<event>
 5   0  0.2309055E-02  0.5896602E+03  0.7818609E-02  0.9927093E-01
        1   -1    0    0  501    0  0.00000000000E+00  0.00000000000E+00  0.19806644897E+03  0.19806644903E+03  0.50400001928E-02 0.  1.
       -1   -1    0    0    0  501  0.00000000000E+00  0.00000000000E+00 -0.43886684514E+03  0.43886684517E+03  0.50400001928E-02 0. -1.
    10030    2    1    2    0    0  0.00000000000E+00  0.00000000000E+00 -0.24080039617E+03  0.63693329420E+03  0.58966023307E+03 0.  0.
        4    1    3    3  502    0  0.29254523767E+03  0.29404155261E+02 -0.96837030758E+02  0.30955830445E+03  0.12699999809E+01 0.  1.
       -4    1    3    3    0  502 -0.29254523767E+03 -0.29404155261E+02 -0.14396336541E+03  0.32737498975E+03  0.12699999809E+01 0. -1.
</event>
<event>
 5   0  0.3737642E-02  0.5936472E+03  0.7818609E-02  0.9918674E-01
       -2   -1    0    0    0  501  0.00000000000E+00  0.00000000000E+00  0.24936085335E+03  0.24936085336E+03  0.25500000920E-02 0. -1.
        2   -1    0    0  501    0  0.00000000000E+00  0.00000000000E+00 -0.35332027371E+03  0.35332027372E+03  0.25500000920E-02 0.  1.
    10030    2    1    2    0    0  0.00000000000E+00  0.00000000000E+00 -0.10395942036E+03  0.60268112707E+03  0.59364718466E+03 0.  0.
        5    1    3    3  502    0 -0.50434562726E+02 -0.14395725923E+03  0.20648206929E+03  0.25675722490E+03  0.46999998093E+01 0. -1.
       -5    1    3    3    0  502  0.50434562726E+02  0.14395725923E+03 -0.31044148965E+03  0.34592390218E+03  0.46999998093E+01 0.  1.
</event>
<event>
 5   0  0.2295179E-02  0.6025233E+03  0.7818609E-02  0.9900185E-01
        1   -1    0    0  501    0  0.00000000000E+00  0.00000000000E+00  0.12329187490E+04  0.12329187490E+04  0.50400001928E-02 0.  1.
       -1   -1    0    0    0  501  0.00000000000E+00  0.00000000000E+00 -0.73612784102E+02  0.73612784275E+02  0.50400001928E-02 0. -1.
    10030    2    1    2    0    0  0.00000000000E+00  0.00000000000E+00  0.11593059649E+04  0.13065315333E+04  0.60252330016E+03 0.  0.
        3    1    3    3  502    0  0.10255652119E+03 -0.24075522488E+03  0.25599913816E+03  0.36608262358E+03  0.10100000352E+00 0. -1.
       -3    1    3    3    0  502 -0.10255652119E+03  0.24075522488E+03  0.90330682677E+03  0.94044890974E+03  0.10100000352E+00 0.  1.
</event>
<event>
 5   0  0.2276105E-02  0.5888872E+03  0.7818609E-02  0.9928734E-01
       -1   -1    0    0    0  501  0.00000000000E+00  0.00000000000E+00  0.24901251973E+03  0.24901251978E+03  0.50400001928E-02 0. -1.
        1   -1    0    0  501    0  0.00000000000E+00  0.00000000000E+00 -0.34816331161E+03  0.34816331165E+03  0.50400001928E-02 0.  1.
    10030    2    1    2    0    0  0.00000000000E+00  0.00000000000E+00 -0.99150791878E+02  0.59717583143E+03  0.58888716586E+03 0.  0.
        1    1    3    3  502    0 -0.26092580864E+03 -0.51831616304E+02  0.78408075218E+02  0.27733845811E+03  0.50400001928E-02 0. -1.
       -1    1    3    3    0  502  0.26092580864E+03  0.51831616304E+02 -0.17755886710E+03  0.31983737332E+03  0.50400001928E-02 0.  1.
</event>
<event>
 5   0  0.3832191E-02  0.6058977E+03  0.7818609E-02  0.9893245E-01
        2   -1    0    0  501    0  0.00000000000E+00  0.00000000000E+00  0.11296539694E+04  0.11296539694E+04  0.25500000920E-02 0. -1.
       -2   -1    0    0    0  501  0.00000000000E+00  0.00000000000E+00 -0.81244359258E+02  0.81244359298E+02  0.25500000920E-02 0.  1.
    10030    2    1    2    0    0  0.00000000000E+00  0.00000000000E+00  0.10484096101E+04  0.12108983287E+04  0.60589772389E+03 0.  0.
        3    1    3    3  502    0 -0.23950148874E+03 -0.15123647614E+03  0.73893701837E+03  0.79136676841E+03  0.10100000352E+00 0. -1.
       -3    1    3    3    0  502  0.23950148874E+03  0.15123647614E+03  0.30947259178E+03  0.41953156030E+03  0.10100000352E+00 0.  1.
</event>
<event>
 5   0  0.3737642E-02  0.5985132E+03  0.7818609E-02  0.9908496E-01
        2   -1    0    0  501    0  0.00000000000E+00  0.00000000000E+00  0.69196036724E+03  0.69196036725E+03  0.25500000920E-02 0.  1.
       -2   -1    0    0    0  501  0.00000000000E+00  0.00000000000E+00 -0.12942142763E+03  0.12942142765E+03  0.25500000920E-02 0. -1.
    10030    2    1    2    0    0  0.00000000000E+00  0.00000000000E+00  0.56253893962E+03  0.82138179490E+03  0.59851315308E+03 0.  0.
        5    1    3    3  502    0  0.25558091501E+03  0.15256995521E+03  0.32319338391E+03  0.43940328715E+03  0.46999998093E+01 0.  1.
       -5    1    3    3    0  502 -0.25558091501E+03 -0.15256995521E+03  0.23934555570E+03  0.38197850775E+03  0.46999998093E+01 0. -1.
</event>
<event>
 5   0  0.2382531E-02  0.6018759E+03  0.7818609E-02  0.9901522E-01
        1   -1    0    0  501    0  0.00000000000E+00  0.00000000000E+00  0.15924755097E+04  0.15924755097E+04  0.50400001928E-02 0.  1.
       -1   -1    0    0    0  501  0.00000000000E+00  0.00000000000E+00 -0.56869723057E+02  0.56869723281E+02  0.50400001928E-02 0. -1.
    10030    2    1    2    0    0  0.00000000000E+00  0.00000000000E+00  0.15356057867E+04  0.16493452330E+04  0.60187587226E+03 0.  0.
        5    1    3    3  502    0 -0.22219226486E+02 -0.29082357098E+03  0.97046789857E+03  0.10133617694E+04  0.46999998093E+01 0.  1.
       -5    1    3    3    0  502  0.22219226486E+02  0.29082357098E+03  0.56513788808E+03  0.63598346363E+03  0.46999998093E+01 0. -1.
</event>
<event>
 5   0  0.2225808E-02  0.5991820E+03  0.7818609E-02  0.9907105E-01
       -1   -1    0    0    0  501  0.00000000000E+00  0.00000000000E+00  0.59673955165E+02  0.59673955378E+02  0.50400001928E-02 0. -1.
        1   -1    0    0  501    0  0.00000000000E+00  0.00000000000E+00 -0.15040863414E+04  0.15040863414E+04  0.50400001928E-02 0.  1.
    10030    2    1    2    0    0  0.00000000000E+00  0.00000000000E+00 -0.14444123862E+04  0.15637602968E+04  0.59918204604E+03 0.  0.
        2    1    3    3  502    0  0.15227130793E+03  0.25491018008E+02 -0.52144417053E+02  0.16295822610E+03  0.25500000920E-02 0. -1.
       -2    1    3    3    0  502 -0.15227130793E+03 -0.25491018008E+02 -0.13922679692E+04  0.14008020707E+04  0.25500000920E-02 0.  1.
</event>
<event>
 5   0  0.3724066E-02  0.6020404E+03  0.7818609E-02  0.9901182E-01
       -2   -1    0    0    0  501  0.00000000000E+00  0.00000000000E+00  0.28781938348E+02  0.28781938461E+02  0.25500000920E-02 0.  1.
        2   -1    0    0  501    0  0.00000000000E+00  0.00000000000E+00 -0.31482641940E+04  0.31482641940E+04  0.25500000920E-02 0. -1.
    10030    2    1    2    0    0  0.00000000000E+00  0.00000000000E+00 -0.31194822557E+04  0.31770461325E+04  0.60204035120E+03 0.  0.
        4    1    3    3  502    0 -0.28598948489E+03  0.88520259363E+02 -0.17254221700E+04  0.17512021869E+04  0.12699999809E+01 0. -1.
       -4    1    3    3    0  502  0.28598948489E+03 -0.88520259363E+02 -0.13940600857E+04  0.14258439456E+04  0.12699999809E+01 0.  1.
</event>
<event>
 5   0  0.3737642E-02  0.6070877E+03  0.7818609E-02  0.9890810E-01
        2   -1    0    0  501    0  0.00000000000E+00  0.00000000000E+00  0.31775672214E+03  0.31775672215E+03  0.25500000920E-02 0. -1.
       -2   -1    0    0    0  501  0.00000000000E+00  0.00000000000E+00 -0.28996666305E+03  0.28996666306E+03  0.25500000920E-02 0.  1.
    10030    2    1    2    0    0  0.00000000000E+00  0.00000000000E+00  0.27790059089E+02  0.60772338520E+03  0.60708765886E+03 0.  0.
        5    1    3    3  502    0 -0.18766734192E+03 -0.98115788711E+02 -0.20375165886E+03  0.29390911470E+03  0.46999998093E+01 0.  1.
       -5    1    3    3    0  502  0.18766734192E+03  0.98115788711E+02  0.23154171795E+03  0.31381427050E+03  0.46999998093E+01 0. -1.
</event>
<event>
 5   0  0.2309055E-02  0.6020447E+03  0.7818609E-02  0.9901173E-01
       -1   -1    0    0    0  501  0.00000000000E+00  0.00000000000E+00  0.49045182546E+03  0.49045182548E+03  0.50400001928E-02 0. -1.
        1   -1    0    0  501    0  0.00000000000E+00  0.00000000000E+00 -0.18475710778E+03  0.18475710785E+03  0.50400001928E-02 0.  1.
    10030    2    1    2    0    0  0.00000000000E+00  0.00000000000E+00  0.30569471768E+03  0.67520893333E+03  0.60204471863E+03 0.  0.
        4    1    3    3  502    0  0.18776326889E+03 -0.29362887418E+02 -0.10896505933E+03  0.21907127004E+03  0.12699999809E+01 0.  1.
       -4    1    3    3    0  502 -0.18776326889E+03  0.29362887418E+02  0.41465977701E+03  0.45613766329E+03  0.12699999809E+01 0. -1.
</event>
<event>
 5   0  0.3798925E-02  0.5990715E+03  0.7818609E-02  0.9907334E-01
       -2   -1    0    0    0  501  0.00000000000E+00  0.00000000000E+00  0.24070337664E+03  0.24070337666E+03  0.25500000920E-02 0. -1.
        2   -1    0    0  501    0  0.00000000000E+00  0.00000000000E+00 -0.37274783972E+03  0.37274783973E+03  0.25500000920E-02 0.  1.
    10030    2    1    2    0    0  0.00000000000E+00  0.00000000000E+00 -0.13204446308E+03  0.61345121639E+03  0.59907149378E+03 0.  0.
        2    1    3    3  502    0 -0.20158007861E+03 -0.13048939615E+03  0.11732771448E+03  0.26725980467E+03  0.25500000920E-02 0. -1.
       -2    1    3    3    0  502  0.20158007861E+03  0.13048939615E+03 -0.24937217756E+03  0.34619141172E+03  0.25500000920E-02 0.  1.
</event>
<event>
 5   0  0.1521750E-02  0.5996605E+03  0.7818609E-02  0.9906111E-01
       -3   -1    0    0    0  501  0.00000000000E+00  0.00000000000E+00  0.97905481229E+02  0.97905533325E+02  0.10100000352E+00 0. -1.
        3   -1    0    0  501    0  0.00000000000E+00  0.00000000000E+00 -0.91821363740E+03  0.91821364296E+03  0.10100000352E+00 0.  1.
    10030    2    1    2    0    0  0.00000000000E+00  0.00000000000E+00 -0.82030815617E+03  0.10161191763E+04  0.59966049505E+03 0.  0.
        1    1    3    3  502    0 -0.17859020801E+03 -0.22727682385E+03 -0.27513643813E+03  0.39906049249E+03  0.50400001928E-02 0. -1.
       -1    1    3    3    0  502  0.17859020801E+03  0.22727682385E+03 -0.54517171805E+03  0.61705868379E+03  0.50400001928E-02 0.  1.
</event>
<event>
 5   0  0.2225808E-02  0.5980153E+03  0.7818609E-02  0.9909532E-01
       -1   -1    0    0    0  501  0.00000000000E+00  0.00000000000E+00  0.79956210657E+02  0.79956210816E+02  0.50400001928E-02 0. -1.
        1   -1    0    0  501    0  0.00000000000E+00  0.00000000000E+00 -0.11181816259E+04  0.11181816260E+04  0.50400001928E-02 0.  1.
    10030    2    1    2    0    0  0.00000000000E+00  0.00000000000E+00 -0.10382254153E+04  0.11981378368E+04  0.59801526984E+03 0.  0.
        2    1    3    3  502    0  0.87476767712E+02  0.20455245419E+03 -0.11885059496E+03  0.25222877578E+03  0.25500000920E-02 0. -1.
       -2    1    3    3    0  502 -0.87476767712E+02 -0.20455245419E+03 -0.91937482034E+03  0.94590906100E+03  0.25500000920E-02 0.  1.
</event>
<event>
 5   0  0.3934634E-02  0.6005769E+03  0.7818609E-02  0.9904210E-01
       -2   -1    0    0    0  501  0.00000000000E+00  0.00000000000E+00  0.95479791695E+02  0.95479791730E+02  0.25500000920E-02 0.  1.
        2   -1    0    0  501    0  0.00000000000E+00  0.00000000000E+00 -0.94442125885E+03  0.94442125885E+03  0.25500000920E-02 0. -1.
    10030    2    1    2    0    0  0.00000000000E+00  0.00000000000E+00 -0.84894146715E+03  0.10399010506E+04  0.60057687297E+03 0.  0.
        1    1    3    3  502    0 -0.20352383796E+03 -0.21352218892E+03 -0.32714440434E+03  0.44049646888E+03  0.50400001928E-02 0.  1.
       -1    1    3    3    0  502  0.20352383796E+03  0.21352218892E+03 -0.52179706282E+03  0.59940458170E+03  0.50400001928E-02 0. -1.
</event>
<event>
 5   0  0.2276105E-02  0.5985275E+03  0.7818609E-02  0.9908466E-01
        1   -1    0    0  501    0  0.00000000000E+00  0.00000000000E+00  0.56578177752E+03  0.56578177754E+03  0.50400001928E-02 0.  1.
       -1   -1    0    0    0  501  0.00000000000E+00  0.00000000000E+00 -0.15829209948E+03  0.15829209956E+03  0.50400001928E-02 0. -1.
    10030    2    1    2    0    0  0.00000000000E+00  0.00000000000E+00  0.40748967804E+03  0.72407387710E+03  0.59852747788E+03 0.  0.
        1    1    3    3  502    0  0.22818989968E+03 -0.23510211292E+01 -0.30469673401E+02  0.23022718919E+03  0.50400001928E-02 0. -1.
       -1    1    3    3    0  502 -0.22818989968E+03  0.23510211292E+01  0.43795935144E+03  0.49384668791E+03  0.50400001928E-02 0.  1.
</event>
<event>
 5   0  0.2295179E-02  0.6023857E+03  0.7818609E-02  0.9900469E-01
       -1   -1    0    0    0  501  0.00000000000E+00  0.00000000000E+00  0.59354648956E+03  0.59354648958E+03  0.50400001928E-02 0.  1.
        1   -1    0    0  501    0  0.00000000000E+00  0.00000000000E+00 -0.15283914924E+03  0.15283914932E+03  0.50400001928E-02 0. -1.
    10030    2    1    2    0    0  0.00000000000E+00  0.00000000000E+00  0.44070734032E+03  0.74638563890E+03  0.60238572539E+03 0.  0.
        3    1    3    3  502    0 -0.29752749799E+03  0.35187930504E+02  0.18203662610E+03  0.35056831853E+03  0.10100000352E+00 0. -1.
       -3    1    3    3    0  502  0.29752749799E+03 -0.35187930504E+02  0.25867071422E+03  0.39581732038E+03  0.10100000352E+00 0.  1.
</event>
<event>
 5   0  0.3724066E-02  0.6193451E+03  0.7818609E-02  0.9866064E-01
        2   -1    0    0  501    0  0.00000000000E+00  0.00000000000E+00  0.84298076015E+03  0.84298076016E+03  0.25500000920E-02 0. -1.
       -2   -1    0    0    0  501  0.00000000000E+00  0.00000000000E+00 -0.11375953061E+03  0.11375953063E+03  0.25500000920E-02 0.  1.
    10030    2    1    2    0    0  0.00000000000E+00  0.00000000000E+00  0.72922122955E+03  0.95674029079E+03  0.61934512382E+03 0.  0.
        4    1    3    3  502    0 -0.55192128464E+02  0.33734161168E+02 -0.10320294771E+03  0.12180568948E+03  0.12699999809E+01 0.  1.
       -4    1    3    3    0  502  0.55192128464E+02 -0.33734161168E+02  0.83242417726E+03  0.83493460131E+03  0.12699999809E+01 0. -1.
</event>
<event>
 5   0  0.3934634E-02  0.6239502E+03  0.7818609E-02  0.9856926E-01
        2   -1    0    0  501    0  0.00000000000E+00  0.00000000000E+00  0.21560498329E+04  0.21560498329E+04  0.25500000920E-02 0. -1.
       -2   -1    0    0    0  501  0.00000000000E+00  0.00000000000E+00 -0.45142027716E+02  0.45142027788E+02  0.25500000920E-02 0.  1.
    10030    2    1    2    0    0  0.00000000000E+00  0.00000000000E+00  0.21109078052E+04  0.22011918607E+04  0.62395019480E+03 0.  0.
        1    1    3    3  502    0 -0.73171823389E+02  0.54770284938E+02  0.21077571287E+04  0.21097379016E+04  0.50400001928E-02 0. -1.
       -1    1    3    3    0  502  0.73171823389E+02 -0.54770284938E+02  0.31506765140E+01  0.91453959117E+02  0.50400001928E-02 0.  1.
</event>
<event>
 5   0  0.1521750E-02  0.6010537E+03  0.7818609E-02  0.9903222E-01
        4   -1    0    0  501    0  0.00000000000E+00  0.00000000000E+00  0.56090874305E+03  0.56091018081E+03  0.12699999809E+01 0.  1.
       -4   -1    0    0    0  501  0.00000000000E+00  0.00000000000E+00 -0.16101380782E+03  0.16101881632E+03  0.12699999809E+01 0. -1.
    10030    2    1    2    0    0  0.00000000000E+00  0.00000000000E+00  0.39989493523E+03  0.72192899712E+03  0.60105367286E+03 0.  0.
        4    1    3    3  502    0 -0.25748478050E+02 -0.29925558307E+03  0.18806450703E+03  0.35438222278E+03  0.12699999809E+01 0. -1.
       -4    1    3    3    0  502  0.25748478050E+02  0.29925558307E+03  0.21183042820E+03  0.36754677434E+03  0.12699999809E+01 0.  1.
</event>
<event>
 5   0  0.2309055E-02  0.6046154E+03  0.7818609E-02  0.9895877E-01
       -1   -1    0    0    0  501  0.00000000000E+00  0.00000000000E+00  0.18362985727E+03  0.18362985734E+03  0.50400001928E-02 0. -1.
        1   -1    0    0  501    0  0.00000000000E+00  0.00000000000E+00 -0.49768568198E+03  0.49768568200E+03  0.50400001928E-02 0.  1.
    10030    2    1    2    0    0  0.00000000000E+00  0.00000000000E+00 -0.31405582471E+03  0.68131553935E+03  0.60461541754E+03 0.  0.
        4    1    3    3  502    0 -0.14345444680E+03  0.20257984661E+02  0.14195861833E+03  0.20283842453E+03  0.12699999809E+01 0. -1.
       -4    1    3    3    0  502  0.14345444680E+03 -0.20257984661E+02 -0.45601444303E+03  0.47847711482E+03  0.12699999809E+01 0.  1.
</event>
<event>
 5   0  0.2382531E-02  0.6003834E+03  0.7818609E-02  0.9904611E-01
       -1   -1    0    0    0  501  0.00000000000E+00  0.00000000000E+00  0.25423683161E+03  0.25423683166E+03  0.50400001928E-02 0. -1.
        1   -1    0    0  501    0  0.00000000000E+00  0.00000000000E+00 -0.35445317552E+03  0.35445317555E+03  0.50400001928E-02 0.  1.
    10030    2    1    2    0    0  0.00000000000E+00  0.00000000000E+00 -0.10021634390E+03  0.60869000722E+03  0.60038338526E+03 0.  0.
        5    1    3    3  502    0 -0.77826511166E+02 -0.12734328922E+03  0.21391703098E+03  0.26087519102E+03  0.46999998093E+01 0. -1.
       -5    1    3    3    0  502  0.77826511166E+02  0.12734328922E+03 -0.31413337488E+03  0.34781481619E+03  0.46999998093E+01 0.  1.
</event>
<event>
 5   0  0.3798925E-02  0.6027495E+03  0.7818609E-02  0.9899718E-01
       -2   -1    0    0    0  501  0.00000000000E+00  0.00000000000E+00  0.34735550002E+03  0.34735550003E+03  0.25500000920E-02 0. -1.
        2   -1    0    0  501    0  0.00000000000E+00  0.00000000000E+00 -0.26148061025E+03  0.26148061026E+03  0.25500000920E-02 0.  1.
    10030    2    1    2    0    0  0.00000000000E+00  0.00000000000E+00  0.85874889767E+02  0.60883611029E+03  0.60274946081E+03 0.  0.
        2    1    3    3  502    0  0.28022455028E+03  0.65673783286E+02 -0.47340037555E+02  0.29168463030E+03  0.25500000920E-02 0.  1.
       -2    1    3    3    0  502 -0.28022455028E+03 -0.65673783286E+02  0.13321492732E+03  0.31715147999E+03  0.25500000920E-02 0. -1.
</event>
<event>
 5   0  0.2309055E-02  0.5987957E+03  0.7818609E-02  0.9907908E-01
        1   -1    0    0  501    0  0.00000000000E+00  0.00000000000E+00  0.59696629854E+03  0.59696629856E+03  0.50400001928E-02 0. -1.
       -1   -1    0    0    0  501  0.00000000000E+00  0.00000000000E+00 -0.15015769657E+03  0.15015769666E+03  0.50400001928E-02 0.  1.
    10030    2    1    2    0    0  0.00000000000E+00  0.00000000000E+00  0.44680860196E+03  0.74712399522E+03  0.59879573933E+03 0.  0.
        4    1    3    3  502    0  0.95141560997E+02  0.24641139751E+03  0.47539109686E+02  0.26838791572E+03  0.12699999809E+01 0.  1.
       -4    1    3    3    0  502 -0.95141560997E+02 -0.24641139751E+03  0.39926949228E+03  0.47873607950E+03  0.12699999809E+01 0. -1.
</event>
<event>
 5   0  0.3737642E-02  0.6010433E+03  0.7818609E-02  0.9903244E-01
        2   -1    0    0  501    0  0.00000000000E+00  0.00000000000E+00  0.12715574722E+03  0.12715574724E+03  0.25500000920E-02 0. -1.
       -2   -1    0    0    0  501  0.00000000000E+00  0.00000000000E+00 -0.71025708535E+03  0.71025708536E+03  0.25500000920E-02 0.  1.
    10030    2    1    2    0    0  0.00000000000E+00  0.00000000000E+00 -0.58310133813E+03  0.83741283260E+03  0.60104332761E+03 0.  0.
        5    1    3    3  502    0  0.54993172712E+02 -0.27635237804E+03 -0.43698711341E+03  0.51997568518E+03  0.46999998093E+01 0.  1.
       -5    1    3    3    0  502 -0.54993172712E+02  0.27635237804E+03 -0.14611422472E+03  0.31743714742E+03  0.46999998093E+01 0. -1.
</event>
<event>
 5   0  0.2382531E-02  0.6103125E+03  0.7818609E-02  0.9884239E-01
        1   -1    0    0  501    0  0.00000000000E+00  0.00000000000E+00  0.62439127811E+03  0.62439127813E+03  0.50400001928E-02 0.  1.
       -1   -1    0    0    0  501  0.00000000000E+00  0.00000000000E+00 -0.14913777671E+03  0.14913777679E+03  0.50400001928E-02 0. -1.
    10030    2    1    2    0    0  0.00000000000E+00  0.00000000000E+00  0.47525350141E+03  0.77352905492E+03  0.61031246769E+03 0.  0.
        5    1    3    3  502    0 -0.22874450481E+03  0.19726688347E+03  0.18296584730E+03  0.35318106273E+03  0.46999998093E+01 0. -1.
       -5    1    3    3    0  502  0.22874450481E+03 -0.19726688347E+03  0.29228765411E+03  0.42034799219E+03  0.46999998093E+01 0.  1.
</event>
<event>
 5   0  0.2309055E-02  0.6005268E+03  0.7818609E-02  0.9904314E-01
        1   -1    0    0  501    0  0.00000000000E+00  0.00000000000E+00  0.14392223428E+04  0.14392223428E+04  0.50400001928E-02 0.  1.
       -1   -1    0    0    0  501  0.00000000000E+00  0.00000000000E+00 -0.62643619341E+02  0.62643619544E+02  0.50400001928E-02 0. -1.
    10030    2    1    2    0    0  0.00000000000E+00  0.00000000000E+00  0.13765787235E+04  0.15018659623E+04  0.60052675793E+03 0.  0.
        4    1    3    3  502    0  0.14922298634E+03  0.43900852665E+02  0.45979293992E+02  0.16220509515E+03  0.12699999809E+01 0. -1.
       -4    1    3    3    0  502 -0.14922298634E+03 -0.43900852665E+02  0.13305994295E+04  0.13396608672E+04  0.12699999809E+01 0.  1.
</event>
<event>
 5   0  0.3798925E-02  0.5900589E+03  0.7818609E-02  0.9926248E-01
       -2   -1    0    0    0  501  0.00000000000E+00  0.00000000000E+00  0.42716968973E+02  0.42716969049E+02  0.25500000920E-02 0.  1.
        2   -1    0    0  501    0  0.00000000000E+00  0.00000000000E+00 -0.20376532898E+04  0.20376532898E+04  0.25500000920E-02 0. -1.
    10030    2    1    2    0    0  0.00000000000E+00  0.00000000000E+00 -0.19949363208E+04  0.20803702588E+04  0.59005888668E+03 0.  0.
        2    1    3    3  502    0  0.22721454066E+03 -0.17746404570E+03 -0.77665584426E+03  0.82844084607E+03  0.25500000920E-02 0.  1.
       -2    1    3    3    0  502 -0.22721454066E+03  0.17746404570E+03 -0.12182804766E+04  0.12519294128E+04  0.25500000920E-02 0. -1.
</event>
<event>
 5   0  0.2382531E-02  0.6039271E+03  0.7818609E-02  0.9897292E-01
        1   -1    0    0  501    0  0.00000000000E+00  0.00000000000E+00  0.15074076019E+04  0.15074076019E+04  0.50400001928E-02 0. -1.
       -1   -1    0    0    0  501  0.00000000000E+00  0.00000000000E+00 -0.60489269566E+02  0.60489269776E+02  0.50400001928E-02 0.  1.
    10030    2    1    2    0    0  0.00000000000E+00  0.00000000000E+00  0.14469183323E+04  0.15678968717E+04  0.60392709808E+03 0.  0.
        5    1    3    3  502    0  0.69101617882E+02 -0.54694340598E+02  0.14731786411E+04  0.14758197393E+04  0.46999998093E+01 0. -1.
       -5    1    3    3    0  502 -0.69101617882E+02  0.54694340598E+02 -0.26260308747E+02  0.92077132346E+02  0.46999998093E+01 0.  1.
</event>
<event>
 5   0  0.3934634E-02  0.5873704E+03  0.7818609E-02  0.9931961E-01
        2   -1    0    0  501    0  0.00000000000E+00  0.00000000000E+00  0.10087016778E+04  0.10087016778E+04  0.25500000920E-02 0.  1.
       -2   -1    0    0    0  501  0.00000000000E+00  0.00000000000E+00 -0.85506934534E+02  0.85506934572E+02  0.25500000920E-02 0. -1.
    10030    2    1    2    0    0  0.00000000000E+00  0.00000000000E+00  0.92319474330E+03  0.10942086124E+04  0.58737037158E+03 0.  0.
        1    1    3    3  502    0  0.99103613407E+02 -0.49999555387E+02  0.96811783650E+03  0.97446068525E+03  0.50400001928E-02 0.  1.
       -1    1    3    3    0  502 -0.99103613407E+02  0.49999555387E+02 -0.44923093203E+02  0.11974792715E+03  0.50400001928E-02 0. -1.
</event>
<event>
 5   0  0.2276105E-02  0.5986190E+03  0.7818609E-02  0.9908275E-01
       -1   -1    0    0    0  501  0.00000000000E+00  0.00000000000E+00  0.12444052519E+04  0.12444052519E+04  0.50400001928E-02 0. -1.
        1   -1    0    0  501    0  0.00000000000E+00  0.00000000000E+00 -0.71991152423E+02  0.71991152600E+02  0.50400001928E-02 0.  1.
    10030    2    1    2    0    0  0.00000000000E+00  0.00000000000E+00  0.11724140995E+04  0.13163964045E+04  0.59861897160E+03 0.  0.
        1    1    3    3  502    0 -0.44530509217E+02  0.44370389071E+02  0.12297247835E+04  0.12313304759E+04  0.50400001928E-02 0. -1.
       -1    1    3    3    0  502  0.44530509217E+02 -0.44370389071E+02 -0.57310684044E+02  0.85065928599E+02  0.50400001928E-02 0.  1.
</event>
<event>
 5   0  0.2225808E-02  0.5888930E+03  0.7818609E-02  0.9928721E-01
        1   -1    0    0  501    0  0.00000000000E+00  0.00000000000E+00  0.60382976423E+03  0.60382976425E+03  0.50400001928E-02 0. -1.
       -1   -1    0    0    0  501  0.00000000000E+00  0.00000000000E+00 -0.14358141909E+03  0.14358141918E+03  0.50400001928E-02 0.  1.
    10030    2    1    2    0    0  0.00000000000E+00  0.00000000000E+00  0.46024834513E+03  0.74741118343E+03  0.58889297663E+03 0.  0.
        2    1    3    3  502    0  0.28863434607E+03 -0.31183333984E+01  0.30390300111E+03  0.41913785778E+03  0.25500000920E-02 0. -1.
       -2    1    3    3    0  502 -0.28863434607E+03  0.31183333984E+01  0.15634534402E+03  0.32827332565E+03  0.25500000920E-02 0.  1.
</event>
<event>
 5   0  0.3724066E-02  0.5967534E+03  0.7818609E-02  0.9912165E-01
        2   -1    0    0  501    0  0.00000000000E+00  0.00000000000E+00  0.96826076412E+03  0.96826076413E+03  0.25500000920E-02 0. -1.
       -2   -1    0    0    0  501  0.00000000000E+00  0.00000000000E+00 -0.91946992828E+02  0.91946992864E+02  0.25500000920E-02 0.  1.
    10030    2    1    2    0    0  0.00000000000E+00  0.00000000000E+00  0.87631377130E+03  0.10602077570E+04  0.59675343503E+03 0.  0.
        4    1    3    3  502    0  0.16641132321E+03  0.23431265099E+03  0.58064081574E+03  0.64787384321E+03  0.12699999809E+01 0. -1.
       -4    1    3    3    0  502 -0.16641132321E+03 -0.23431265099E+03  0.29567295556E+03  0.41233391378E+03  0.12699999809E+01 0.  1.
</event>
<event>
 5   0  0.3798925E-02  0.5942287E+03  0.7818609E-02  0.9917452E-01
        2   -1    0    0  501    0  0.00000000000E+00  0.00000000000E+00  0.25363163754E+03  0.25363163755E+03  0.25500000920E-02 0. -1.
       -2   -1    0    0    0  501  0.00000000000E+00  0.00000000000E+00 -0.34805177529E+03  0.34805177530E+03  0.25500000920E-02 0.  1.
    10030    2    1    2    0    0  0.00000000000E+00  0.00000000000E+00 -0.94420137756E+02  0.60168341285E+03  0.59422871597E+03 0.  0.
        2    1    3    3  502    0  0.51734452655E+02  0.94130261623E+02 -0.32770515041E+03  0.34485884845E+03  0.25500000920E-02 0.  1.
       -2    1    3    3    0  502 -0.51734452655E+02 -0.94130261623E+02  0.23328501265E+03  0.25682456440E+03  0.25500000920E-02 0. -1.
</event>
<event>
 5   0  0.3724066E-02  0.6006898E+03  0.7818609E-02  0.9903976E-01
       -2   -1    0    0    0  501  0.00000000000E+00  0.00000000000E+00  0.31655361008E+03  0.31655361009E+03  0.25500000920E-02 0. -1.
        2   -1    0    0  501    0  0.00000000000E+00  0.00000000000E+00 -0.28496617580E+03  0.28496617582E+03  0.25500000920E-02 0.  1.
    10030    2    1    2    0    0  0.00000000000E+00  0.00000000000E+00  0.31587434275E+02  0.60151978591E+03  0.60068984246E+03 0.  0.
        4    1    3    3  502    0  0.53167212745E+02 -0.33534907412E+02 -0.27830257157E+03  0.28531609974E+03  0.12699999809E+01 0.  1.
       -4    1    3    3    0  502 -0.53167212745E+02  0.33534907412E+02  0.30989000584E+03  0.31620368617E+03  0.12699999809E+01 0. -1.
</event>
<event>
 5   0  0.2225808E-02  0.6014099E+03  0.7818609E-02  0.9902485E-01
        1   -1    0    0  501    0  0.00000000000E+00  0.00000000000E+00  0.89647967431E+03  0.89647967432E+03  0.50400001928E-02 0.  1.
       -1   -1    0    0    0  501  0.00000000000E+00  0.00000000000E+00 -0.10086503768E+03  0.10086503780E+03  0.50400001928E-02 0. -1.
    10030    2    1    2    0    0  0.00000000000E+00  0.00000000000E+00  0.79561463663E+03  0.99734471212E+03  0.60140986422E+03 0.  0.
        2    1    3    3  502    0  0.23195261445E+03  0.71736039900E+02  0.69201922406E+03  0.73337485725E+03  0.25500000920E-02 0.  1.
       -2    1    3    3    0  502 -0.23195261445E+03 -0.71736039900E+02  0.10359541257E+03  0.26396985487E+03  0.25500000920E-02 0. -1.
</event>
<event>
 5   0  0.3934634E-02  0.6122125E+03  0.7818609E-02  0.9880388E-01
       -2   -1    0    0    0  501  0.00000000000E+00  0.00000000000E+00  0.21538588223E+03  0.21538588225E+03  0.25500000920E-02 0. -1.
        2   -1    0    0  501    0  0.00000000000E+00  0.00000000000E+00 -0.43503790759E+03  0.43503790760E+03  0.25500000920E-02 0.  1.
    10030    2    1    2    0    0  0.00000000000E+00  0.00000000000E+00 -0.21965202536E+03  0.65042378985E+03  0.61221245835E+03 0.  0.
        1    1    3    3  502    0  0.23923610292E+02 -0.69851567771E+02  0.20578361334E+03  0.21862862620E+03  0.50400001928E-02 0. -1.
       -1    1    3    3    0  502 -0.23923610292E+02  0.69851567771E+02 -0.42543563870E+03  0.43179516365E+03  0.50400001928E-02 0.  1.
</event>
<event>
 5   0  0.2309055E-02  0.5992714E+03  0.7818609E-02  0.9906919E-01
       -1   -1    0    0    0  501  0.00000000000E+00  0.00000000000E+00  0.49418638403E+02  0.49418638660E+02  0.50400001928E-02 0.  1.
        1   -1    0    0  501    0  0.00000000000E+00  0.00000000000E+00 -0.18167547734E+04  0.18167547734E+04  0.50400001928E-02 0. -1.
    10030    2    1    2    0    0  0.00000000000E+00  0.00000000000E+00 -0.17673361350E+04  0.18661734121E+04  0.59927138246E+03 0.  0.
        4    1    3    3  502    0  0.39669094876E+01  0.13740051571E+03 -0.54568786124E+02  0.14789862544E+03  0.12699999809E+01 0.  1.
       -4    1    3    3    0  502 -0.39669094876E+01 -0.13740051571E+03 -0.17127673489E+04  0.17182747866E+04  0.12699999809E+01 0. -1.
</event>
<event>
 5   0  0.2225808E-02  0.5965872E+03  0.7818609E-02  0.9912512E-01
       -1   -1    0    0    0  501  0.00000000000E+00  0.00000000000E+00  0.48232533411E+03  0.48232533414E+03  0.50400001928E-02 0.  1.
        1   -1    0    0  501    0  0.00000000000E+00  0.00000000000E+00 -0.18447936841E+03  0.18447936848E+03  0.50400001928E-02 0. -1.
    10030    2    1    2    0    0  0.00000000000E+00  0.00000000000E+00  0.29784596571E+03  0.66680470262E+03  0.59658720414E+03 0.  0.
        2    1    3    3  502    0  0.13351306310E+03 -0.21233468558E+03 -0.31533662939E+02  0.25279661514E+03  0.25500000920E-02 0. -1.
       -2    1    3    3    0  502 -0.13351306310E+03  0.21233468558E+03  0.32937962865E+03  0.41400808748E+03  0.25500000920E-02 0.  1.
</event>
<event>
 5   0  0.2309055E-02  0.6052410E+03  0.7818609E-02  0.9894592E-01
        1   -1    0    0  501    0  0.00000000000E+00  0.00000000000E+00  0.78433294765E+03  0.78433294766E+03  0.50400001928E-02 0.  1.
       -1   -1    0    0    0  501  0.00000000000E+00  0.00000000000E+00 -0.11676057851E+03  0.11676057861E+03  0.50400001928E-02 0. -1.
    10030    2    1    2    0    0  0.00000000000E+00  0.00000000000E+00  0.66757236914E+03  0.90109352628E+03  0.60524100577E+03 0.  0.
        4    1    3    3  502    0 -0.12308357964E+03 -0.27300655534E+03  0.26896857690E+03  0.40252683773E+03  0.12699999809E+01 0. -1.
       -4    1    3    3    0  502  0.12308357964E+03  0.27300655534E+03  0.39860379224E+03  0.49856668855E+03  0.12699999809E+01 0.  1.
</event>
<event>
 5   0  0.3934634E-02  0.6644861E+03  0.7818609E-02  0.9779970E-01
       -2   -1    0    0    0  501  0.00000000000E+00  0.00000000000E+00  0.24270299106E+03  0.24270299107E+03  0.25500000920E-02 0.  1.
        2   -1    0    0  501    0  0.00000000000E+00  0.00000000000E+00 -0.45481701173E+03  0.45481701174E+03  0.25500000920E-02 0. -1.
    10030    2    1    2    0    0  0.00000000000E+00  0.00000000000E+00 -0.21211402067E+03  0.69752000281E+03  0.66448611464E+03 0.  0.
        1    1    3    3  502    0 -0.84633717418E+02 -0.94353061993E+01 -0.44316632800E+03  0.45127406908E+03  0.50400001928E-02 0. -1.
       -1    1    3    3    0  502  0.84633717418E+02  0.94353061993E+01  0.23105230733E+03  0.24624593372E+03  0.50400001928E-02 0.  1.
</event>
<event>
 5   0  0.2276105E-02  0.6010969E+03  0.7818609E-02  0.9903133E-01
        1   -1    0    0  501    0  0.00000000000E+00  0.00000000000E+00  0.96649944655E+02  0.96649944786E+02  0.50400001928E-02 0.  1.
       -1   -1    0    0    0  501  0.00000000000E+00  0.00000000000E+00 -0.93460330834E+03  0.93460330836E+03  0.50400001928E-02 0. -1.
    10030    2    1    2    0    0  0.00000000000E+00  0.00000000000E+00 -0.83795336369E+03  0.10312532531E+04  0.60109685775E+03 0.  0.
        1    1    3    3  502    0 -0.47766062532E+02  0.14168065909E+03  0.28317668280E+02  0.15217390135E+03  0.50400001928E-02 0.  1.
       -1    1    3    3    0  502  0.47766062532E+02 -0.14168065909E+03 -0.86627103197E+03  0.87907935179E+03  0.50400001928E-02 0. -1.
</event>
<event>
 5   0  0.2382531E-02  0.6015462E+03  0.7818609E-02  0.9902203E-01
       -1   -1    0    0    0  501  0.00000000000E+00  0.00000000000E+00  0.21907267376E+03  0.21907267382E+03  0.50400001928E-02 0.  1.
        1   -1    0    0  501    0  0.00000000000E+00  0.00000000000E+00 -0.41294271334E+03  0.41294271337E+03  0.50400001928E-02 0. -1.
    10030    2    1    2    0    0  0.00000000000E+00  0.00000000000E+00 -0.19387003958E+03  0.63201538719E+03  0.60154622216E+03 0.  0.
        5    1    3    3  502    0  0.51683754782E+02  0.29601893988E+03 -0.84329344935E+02  0.31214091640E+03  0.46999998093E+01 0. -1.
       -5    1    3    3    0  502 -0.51683754782E+02 -0.29601893988E+03 -0.10954069465E+03  0.31987447078E+03  0.46999998093E+01 0.  1.
</event>
<event>
 5   0  0.2295179E-02  0.6031533E+03  0.7818609E-02  0.9898885E-01
        1   -1    0    0  501    0  0.00000000000E+00  0.00000000000E+00  0.24316160854E+03  0.24316160859E+03  0.50400001928E-02 0.  1.
       -1   -1    0    0    0  501  0.00000000000E+00  0.00000000000E+00 -0.37402485316E+03  0.37402485319E+03  0.50400001928E-02 0. -1.
    10030    2    1    2    0    0  0.00000000000E+00  0.00000000000E+00 -0.13086324462E+03  0.61718646179E+03  0.60315333028E+03 0.  0.
        3    1    3    3  502    0 -0.79166230157E+02 -0.23247514521E+03 -0.24453680862E+03  0.34656925153E+03  0.10100000352E+00 0. -1.
       -3    1    3    3    0  502  0.79166230157E+02  0.23247514521E+03  0.11367356400E+03  0.27061721026E+03  0.10100000352E+00 0.  1.
</event>
<event>
 5   0  0.3798925E-02  0.6006164E+03  0.7818609E-02  0.9904128E-01
        2   -1    0    0  501    0  0.00000000000E+00  0.00000000000E+00  0.20932520461E+04  0.20932520461E+04  0.25500000920E-02 0. -1.
       -2   -1    0    0    0  501  0.00000000000E+00  0.00000000000E+00 -0.43083689379E+02  0.43083689454E+02  0.25500000920E-02 0.  1.
    10030    2    1    2    0    0  0.00000000000E+00  0.00000000000E+00  0.20501683567E+04  0.21363357355E+04  0.60061642011E+03 0.  0.
        2    1    3    3  502    0 -0.79925218532E+02  0.19902987227E+03  0.27742225516E+03  0.35066228522E+03  0.25500000920E-02 0.  1.
       -2    1    3    3    0  502  0.79925218532E+02 -0.19902987227E+03  0.17727461016E+04  0.17856734503E+04  0.25500000920E-02 0. -1.
</event>
<event>
 5   0  0.3798925E-02  0.6028651E+03  0.7818609E-02  0.9899480E-01
        2   -1    0    0  501    0  0.00000000000E+00  0.00000000000E+00  0.26173718700E+03  0.26173718701E+03  0.25500000920E-02 0. -1.
       -2   -1    0    0    0  501  0.00000000000E+00  0.00000000000E+00 -0.34714810777E+03  0.34714810778E+03  0.25500000920E-02 0.  1.
    10030    2    1    2    0    0  0.00000000000E+00  0.00000000000E+00 -0.85410920774E+02  0.60888529480E+03  0.60286505690E+03 0.  0.
        2    1    3    3  502    0  0.17400306100E+03  0.15313028374E+03  0.15192495696E+03  0.27714101391E+03  0.25500000920E-02 0. -1.
       -2    1    3    3    0  502 -0.17400306100E+03 -0.15313028374E+03 -0.23733587774E+03  0.33174428089E+03  0.25500000920E-02 0.  1.
</event>
<event>
 5   0  0.1521750E-02  0.6105304E+03  0.7818609E-02  0.9883797E-01
       -3   -1    0    0    0  501  0.00000000000E+00  0.00000000000E+00  0.70569477324E+03  0.70569478047E+03  0.10100000352E+00 0. -1.
        3   -1    0    0  501    0  0.00000000000E+00  0.00000000000E+00 -0.13204974606E+03  0.13204978468E+03  0.10100000352E+00 0.  1.
    10030    2    1    2    0    0  0.00000000000E+00  0.00000000000E+00  0.57364502718E+03  0.83774456515E+03  0.61053037535E+03 0.  0.
        3    1    3    3  502    0 -0.23636477031E+03 -0.19299384829E+03  0.27518789539E+03  0.41090548559E+03  0.10100000352E+00 0. -1.
       -3    1    3    3    0  502  0.23636477031E+03  0.19299384829E+03  0.29845713179E+03  0.42683907956E+03  0.10100000352E+00 0.  1.
</event>
<event>
 5   0  0.3724066E-02  0.6000490E+03  0.7818609E-02  0.9905304E-01
       -2   -1    0    0    0  501  0.00000000000E+00  0.00000000000E+00  0.11757311050E+03  0.11757311053E+03  0.25500000920E-02 0. -1.
        2   -1    0    0  501    0  0.00000000000E+00  0.00000000000E+00 -0.76560622332E+03  0.76560622332E+03  0.25500000920E-02 0.  1.
    10030    2    1    2    0    0  0.00000000000E+00  0.00000000000E+00 -0.64803311282E+03  0.88317933385E+03  0.60004901502E+03 0.  0.
        4    1    3    3  502    0  0.21780413243E+03 -0.19794012068E+03 -0.40976541995E+03  0.50450792240E+03  0.12699999809E+01 0.  1.
       -4    1    3    3    0  502 -0.21780413243E+03  0.19794012068E+03 -0.23826769287E+03  0.37867141145E+03  0.12699999809E+01 0. -1.
</event>
<event>
 5   0  0.1521750E-02  0.5982167E+03  0.7818609E-02  0.9909113E-01
        3   -1    0    0  501    0  0.00000000000E+00  0.00000000000E+00  0.15680689100E+04  0.15680689132E+04  0.10100000352E+00 0. -1.
       -3   -1    0    0    0  501  0.00000000000E+00  0.00000000000E+00 -0.57054719710E+02  0.57054809106E+02  0.10100000352E+00 0.  1.
    10030    2    1    2    0    0  0.00000000000E+00  0.00000000000E+00  0.15110141903E+04  0.16251237223E+04  0.59821670798E+03 0.  0.
        3    1    3    3  502    0 -0.27086117059E+03 -0.11861420071E+03  0.87792648997E+03  0.92638546747E+03  0.10100000352E+00 0. -1.
       -3    1    3    3    0  502  0.27086117059E+03  0.11861420071E+03  0.63308770029E+03  0.69873825486E+03  0.10100000352E+00 0.  1.
</event>
<event>
 5   0  0.2382531E-02  0.5979862E+03  0.7818609E-02  0.9909593E-01
        1   -1    0    0  501    0  0.00000000000E+00  0.00000000000E+00  0.11970312748E+03  0.11970312758E+03  0.50400001928E-02 0.  1.
       -1   -1    0    0    0  501  0.00000000000E+00  0.00000000000E+00 -0.74682141942E+03  0.74682141944E+03  0.50400001928E-02 0. -1.
    10030    2    1    2    0    0  0.00000000000E+00  0.00000000000E+00 -0.62711829195E+03  0.86652454702E+03  0.59798615243E+03 0.  0.
        5    1    3    3  502    0 -0.25002246515E+03  0.15699436781E+03 -0.24534027802E+03  0.38389113902E+03  0.46999998093E+01 0.  1.
       -5    1    3    3    0  502  0.25002246515E+03 -0.15699436781E+03 -0.38177801393E+03  0.48263340800E+03  0.46999998093E+01 0. -1.
</event>
<event>
 5   0  0.2276105E-02  0.5999121E+03  0.7818609E-02  0.9905588E-01
       -1   -1    0    0    0  501  0.00000000000E+00  0.00000000000E+00  0.19045062289E+03  0.19045062296E+03  0.50400001928E-02 0. -1.
        1   -1    0    0  501    0  0.00000000000E+00  0.00000000000E+00 -0.47242505154E+03  0.47242505156E+03  0.50400001928E-02 0.  1.
    10030    2    1    2    0    0  0.00000000000E+00  0.00000000000E+00 -0.28197442865E+03  0.66287567452E+03  0.59991214478E+03 0.  0.
        1    1    3    3  502    0  0.29176761835E+03 -0.51968473844E+02 -0.19215722979E+03  0.35320456733E+03  0.50400001928E-02 0. -1.
       -1    1    3    3    0  502 -0.29176761835E+03  0.51968473844E+02 -0.89817198855E+02  0.30967110719E+03  0.50400001928E-02 0.  1.
</event>
<event>
 5   0  0.2225808E-02  0.5988503E+03  0.7818609E-02  0.9907794E-01
        1   -1    0    0  501    0  0.00000000000E+00  0.00000000000E+00  0.51423063865E+03  0.51423063868E+03  0.50400001928E-02 0. -1.
       -1   -1    0    0    0  501  0.00000000000E+00  0.00000000000E+00 -0.17434863464E+03  0.17434863471E+03  0.50400001928E-02 0.  1.
    10030    2    1    2    0    0  0.00000000000E+00  0.00000000000E+00  0.33988200402E+03  0.68857927339E+03  0.59885026433E+03 0.  0.
        2    1    3    3  502    0 -0.89876609273E+02 -0.27033795577E+03  0.63962627855E+02  0.29197882285E+03  0.25500000920E-02 0.  1.
       -2    1    3    3    0  502  0.89876609273E+02  0.27033795577E+03  0.27591937616E+03  0.39660045054E+03  0.25500000920E-02 0. -1.
</event>
<event>
 5   0  0.3737642E-02  0.5966957E+03  0.7818609E-02  0.9912285E-01
       -2   -1    0    0    0  501  0.00000000000E+00  0.00000000000E+00  0.20767079643E+03  0.20767079645E+03  0.25500000920E-02 0.  1.
        2   -1    0    0  501    0  0.00000000000E+00  0.00000000000E+00 -0.42861798249E+03  0.42861798250E+03  0.25500000920E-02 0. -1.
    10030    2    1    2    0    0  0.00000000000E+00  0.00000000000E+00 -0.22094718606E+03  0.63628877895E+03  0.59669569396E+03 0.  0.
        5    1    3    3  502    0 -0.27457011171E+03  0.37899047493E+02  0.71364136812E+01  0.27730507108E+03  0.46999998093E+01 0.  1.
       -5    1    3    3    0  502  0.27457011171E+03 -0.37899047493E+02 -0.22808359974E+03  0.35898370787E+03  0.46999998093E+01 0. -1.
</event>
<event>
 5   0  0.2295179E-02  0.5982383E+03  0.7818609E-02  0.9909068E-01
       -1   -1    0    0    0  501  0.00000000000E+00  0.00000000000E+00  0.15463816746E+03  0.15463816754E+03  0.50400001928E-02 0. -1.
        1   -1    0    0  501    0  0.00000000000E+00  0.00000000000E+00 -0.57859113497E+03  0.57859113499E+03  0.50400001928E-02 0.  1.
    10030    2    1    2    0    0  0.00000000000E+00  0.00000000000E+00 -0.42395296751E+03  0.73322930254E+03  0.59823832328E+03 0.  0.
        3    1    3    3  502    0 -0.14205174743E+03 -0.23420059525E+02 -0.53333243272E+03  0.55242256664E+03  0.10100000352E+00 0.  1.
       -3    1    3    3    0  502  0.14205174743E+03  0.23420059525E+02  0.10937946521E+03  0.18080673590E+03  0.10100000352E+00 0. -1.
</event>
<event>
 5   0  0.2225808E-02  0.5983857E+03  0.7818609E-02  0.9908761E-01
        1   -1    0    0  501    0  0.00000000000E+00  0.00000000000E+00  0.96689573246E+02  0.96689573377E+02  0.50400001928E-02 0. -1.
       -1   -1    0    0    0  501  0.00000000000E+00  0.00000000000E+00 -0.92581193790E+03  0.92581193792E+03  0.50400001928E-02 0.  1.
    10030    2    1    2    0    0  0.00000000000E+00  0.00000000000E+00 -0.82912236466E+03  0.10225015113E+04  0.59838569921E+03 0.  0.
        2    1    3    3  502    0  0.11190958950E+03 -0.12579255742E+03 -0.83717906155E+03  0.85394162847E+03  0.25500000920E-02 0.  1.
       -2    1    3    3    0  502 -0.11190958950E+03  0.12579255742E+03  0.80566968968E+01  0.16855988282E+03  0.25500000920E-02 0. -1.
</event>
<event>
 5   0  0.3832191E-02  0.6040320E+03  0.7818609E-02  0.9897076E-01
       -2   -1    0    0    0  501  0.00000000000E+00  0.00000000000E+00  0.77239559703E+02  0.77239559745E+02  0.25500000920E-02 0.  1.
        2   -1    0    0  501    0  0.00000000000E+00  0.00000000000E+00 -0.11809188747E+04  0.11809188747E+04  0.25500000920E-02 0. -1.
    10030    2    1    2    0    0  0.00000000000E+00  0.00000000000E+00 -0.11036793150E+04  0.12581584345E+04  0.60403196590E+03 0.  0.
        3    1    3    3  502    0 -0.11138476959E+02 -0.21673990615E+03 -0.11435720971E+03  0.24531170824E+03  0.10100000352E+00 0.  1.
       -3    1    3    3    0  502  0.11138476959E+02  0.21673990615E+03 -0.98932210532E+03  0.10128467262E+04  0.10100000352E+00 0. -1.
</event>
<event>
 5   0  0.2295179E-02  0.5983252E+03  0.7818609E-02  0.9908887E-01
       -1   -1    0    0    0  501  0.00000000000E+00  0.00000000000E+00  0.11367155923E+03  0.11367155934E+03  0.50400001928E-02 0.  1.
        1   -1    0    0  501    0  0.00000000000E+00  0.00000000000E+00 -0.78734095175E+03  0.78734095176E+03  0.50400001928E-02 0. -1.
    10030    2    1    2    0    0  0.00000000000E+00  0.00000000000E+00 -0.67366939251E+03  0.90101251111E+03  0.59832524162E+03 0.  0.
        3    1    3    3  502    0 -0.12188774324E+03  0.22353919016E+03 -0.10030016684E+03  0.27365402456E+03  0.10100000352E+00 0.  1.
       -3    1    3    3    0  502  0.12188774324E+03 -0.22353919016E+03 -0.57336922567E+03  0.62735848655E+03  0.10100000352E+00 0. -1.
</event>
<event>
 5   0  0.2295179E-02  0.5985909E+03  0.7818609E-02  0.9908334E-01
       -1   -1    0    0    0  501  0.00000000000E+00  0.00000000000E+00  0.31693847861E+03  0.31693847865E+03  0.50400001928E-02 0.  1.
        1   -1    0    0  501    0  0.00000000000E+00  0.00000000000E+00 -0.28263454286E+03  0.28263454291E+03  0.50400001928E-02 0. -1.
    10030    2    1    2    0    0  0.00000000000E+00  0.00000000000E+00  0.34303935752E+02  0.59957302156E+03  0.59859088547E+03 0.  0.
        3    1    3    3  502    0  0.19168694707E+03  0.18238063651E+03  0.15727849978E+03  0.30780370197E+03  0.10100000352E+00 0.  1.
       -3    1    3    3    0  502 -0.19168694707E+03 -0.18238063651E+03 -0.12297456403E+03  0.29176931959E+03  0.10100000352E+00 0. -1.
</event>
<event>
 5   0  0.2276105E-02  0.5951572E+03  0.7818609E-02  0.9915505E-01
        1   -1    0    0  501    0  0.00000000000E+00  0.00000000000E+00  0.87684746216E+03  0.87684746217E+03  0.50400001928E-02 0.  1.
       -1   -1    0    0    0  501  0.00000000000E+00  0.00000000000E+00 -0.10099021932E+03  0.10099021945E+03  0.50400001928E-02 0. -1.
    10030    2    1    2    0    0  0.00000000000E+00  0.00000000000E+00  0.77585724283E+03  0.97783768162E+03  0.59515718121E+03 0.  0.
        1    1    3    3  502    0 -0.13536711114E+02  0.16741934309E+03 -0.15660714188E+02  0.16869421146E+03  0.50400001928E-02 0. -1.
       -1    1    3    3    0  502  0.13536711114E+02 -0.16741934309E+03  0.79151795702E+03  0.80914347016E+03  0.50400001928E-02 0.  1.
</event>
<event>
 5   0  0.1521750E-02  0.6008509E+03  0.7818609E-02  0.9903642E-01
        4   -1    0    0  501    0  0.00000000000E+00  0.00000000000E+00  0.17263939129E+04  0.17263943800E+04  0.12699999809E+01 0. -1.
       -4   -1    0    0    0  501  0.00000000000E+00  0.00000000000E+00 -0.52271561282E+02  0.52286987089E+02  0.12699999809E+01 0.  1.
    10030    2    1    2    0    0  0.00000000000E+00  0.00000000000E+00  0.16741223516E+04  0.17786813671E+04  0.60085086131E+03 0.  0.
        4    1    3    3  502    0 -0.23844268685E+03 -0.18126635796E+03  0.90594198368E+03  0.95417236290E+03  0.12699999809E+01 0. -1.
       -4    1    3    3    0  502  0.23844268685E+03  0.18126635796E+03  0.76818036791E+03  0.82450900418E+03  0.12699999809E+01 0.  1.
</event>
<event>
 5   0  0.2309055E-02  0.5996549E+03  0.7818609E-02  0.9906122E-01
       -1   -1    0    0    0  501  0.00000000000E+00  0.00000000000E+00  0.19669999726E+03  0.19669999732E+03  0.50400001928E-02 0. -1.
        1   -1    0    0  501    0  0.00000000000E+00  0.00000000000E+00 -0.45702337052E+03  0.45702337054E+03  0.50400001928E-02 0.  1.
    10030    2    1    2    0    0  0.00000000000E+00  0.00000000000E+00 -0.26032337326E+03  0.65372336786E+03  0.59965488660E+03 0.  0.
        4    1    3    3  502    0 -0.61221625538E+02 -0.24033624025E+03  0.53508758082E+02  0.25372109866E+03  0.12699999809E+01 0. -1.
       -4    1    3    3    0  502  0.61221625538E+02  0.24033624025E+03 -0.31383213134E+03  0.40000226921E+03  0.12699999809E+01 0.  1.
</event>
<event>
 5   0  0.2225808E-02  0.5960653E+03  0.7818609E-02  0.9913603E-01
        1   -1    0    0  501    0  0.00000000000E+00  0.00000000000E+00  0.11316027167E+04  0.11316027167E+04  0.50400001928E-02 0. -1.
       -1   -1    0    0    0  501  0.00000000000E+00  0.00000000000E+00 -0.78493513447E+02  0.78493513609E+02  0.50400001928E-02 0.  1.
    10030    2    1    2    0    0  0.00000000000E+00  0.00000000000E+00  0.10531092032E+04  0.12100962303E+04  0.59606534261E+03 0.  0.
        2    1    3    3  502    0  0.41646191767E+01 -0.13954402104E+03  0.10611163731E+04  0.10702606389E+04  0.25500000920E-02 0. -1.
       -2    1    3    3    0  502 -0.41646191767E+01  0.13954402104E+03 -0.80071698392E+01  0.13983559145E+03  0.25500000920E-02 0.  1.
</event>
<event>
 5   0  0.3832191E-02  0.6080779E+03  0.7818609E-02  0.9888787E-01
       -2   -1    0    0    0  501  0.00000000000E+00  0.00000000000E+00  0.32988385121E+03  0.32988385122E+03  0.25500000920E-02 0. -1.
        2   -1    0    0  501    0  0.00000000000E+00  0.00000000000E+00 -0.28021885028E+03  0.28021885029E+03  0.25500000920E-02 0.  1.
    10030    2    1    2    0    0  0.00000000000E+00  0.00000000000E+00  0.49665000926E+02  0.61010270151E+03  0.60807786843E+03 0.  0.
        3    1    3    3  502    0 -0.17334866231E+03  0.28232546406E+02 -0.22417293259E+03  0.28478123061E+03  0.10100000352E+00 0.  1.
       -3    1    3    3    0  502  0.17334866231E+03 -0.28232546406E+02  0.27383793351E+03  0.32532147090E+03  0.10100000352E+00 0. -1.
</event>
<event>
 5   0  0.3724066E-02  0.5998257E+03  0.7818609E-02  0.9905768E-01
       -2   -1    0    0    0  501  0.00000000000E+00  0.00000000000E+00  0.50681412437E+03  0.50681412437E+03  0.25500000920E-02 0. -1.
        2   -1    0    0  501    0  0.00000000000E+00  0.00000000000E+00 -0.17747675074E+03  0.17747675076E+03  0.25500000920E-02 0.  1.
    10030    2    1    2    0    0  0.00000000000E+00  0.00000000000E+00  0.32933737362E+03  0.68429087513E+03  0.59982572146E+03 0.  0.
        4    1    3    3  502    0  0.17632787651E+03 -0.10046631196E+03 -0.87245404362E+02  0.22090353857E+03  0.12699999809E+01 0.  1.
       -4    1    3    3    0  502 -0.17632787651E+03  0.10046631196E+03  0.41658277799E+03  0.46338733656E+03  0.12699999809E+01 0. -1.
</event>
<event>
 5   0  0.3724066E-02  0.6024663E+03  0.7818609E-02  0.9900303E-01
        2   -1    0    0  501    0  0.00000000000E+00  0.00000000000E+00  0.21085391721E+04  0.21085391721E+04  0.25500000920E-02 0.  1.
       -2   -1    0    0    0  501  0.00000000000E+00  0.00000000000E+00 -0.43035196772E+02  0.43035196848E+02  0.25500000920E-02 0. -1.
    10030    2    1    2    0    0  0.00000000000E+00  0.00000000000E+00  0.20655039754E+04  0.21515743690E+04  0.60246625883E+03 0.  0.
        4    1    3    3  502    0  0.88232546289E+02 -0.66005318667E+02  0.31531657564E+02  0.11461911990E+03  0.12699999809E+01 0. -1.
       -4    1    3    3    0  502 -0.88232546289E+02  0.66005318667E+02  0.20339723178E+04  0.20369552491E+04  0.12699999809E+01 0.  1.
</event>
<event>
 5   0  0.2382531E-02  0.5936484E+03  0.7818609E-02  0.9918672E-01
        1   -1    0    0  501    0  0.00000000000E+00  0.00000000000E+00  0.15556236636E+03  0.15556236644E+03  0.50400001928E-02 0. -1.
       -1   -1    0    0    0  501  0.00000000000E+00  0.00000000000E+00 -0.56636204115E+03  0.56636204117E+03  0.50400001928E-02 0.  1.
    10030    2    1    2    0    0  0.00000000000E+00  0.00000000000E+00 -0.41079967479E+03  0.72192440762E+03  0.59364844605E+03 0.  0.
        5    1    3    3  502    0 -0.16096614831E+02  0.12587612137E+03 -0.53166009842E+03  0.54661544910E+03  0.46999998093E+01 0.  1.
       -5    1    3    3    0  502  0.16096614831E+02 -0.12587612137E+03  0.12086042363E+03  0.17530895852E+03  0.46999998093E+01 0. -1.
</event>
<event>
 5   0  0.2295179E-02  0.5993077E+03  0.7818609E-02  0.9906843E-01
       -1   -1    0    0    0  501  0.00000000000E+00  0.00000000000E+00  0.64706177806E+03  0.64706177807E+03  0.50400001928E-02 0. -1.
        1   -1    0    0  501    0  0.00000000000E+00  0.00000000000E+00 -0.13876948036E+03  0.13876948045E+03  0.50400001928E-02 0.  1.
    10030    2    1    2    0    0  0.00000000000E+00  0.00000000000E+00  0.50829229770E+03  0.78583125852E+03  0.59930768974E+03 0.  0.
        3    1    3    3  502    0 -0.65811870225E+02  0.11345971908E+03  0.60742056190E+03  0.62142100008E+03  0.10100000352E+00 0. -1.
       -3    1    3    3    0  502  0.65811870225E+02 -0.11345971908E+03 -0.99128264205E+02  0.16441025845E+03  0.10100000352E+00 0.  1.
</event>
<event>
 5   0  0.3724066E-02  0.6017742E+03  0.7818609E-02  0.9901732E-01
        2   -1    0    0  501    0  0.00000000000E+00  0.00000000000E+00  0.28057078131E+03  0.28057078133E+03  0.25500000920E-02 0.  1.
       -2   -1    0    0    0  501  0.00000000000E+00  0.00000000000E+00 -0.32267450211E+03  0.32267450212E+03  0.25500000920E-02 0. -1.
    10030    2    1    2    0    0  0.00000000000E+00  0.00000000000E+00 -0.42103720791E+02  0.60324528344E+03  0.60177416752E+03 0.  0.
        4    1    3    3  502    0 -0.25585588410E+02 -0.98252692664E+00 -0.32157773324E+03  0.32259795274E+03  0.12699999809E+01 0. -1.
       -4    1    3    3    0  502  0.25585588410E+02  0.98252692664E+00  0.27947401245E+03  0.28064733070E+03  0.12699999809E+01 0.  1.
</event>
<event>
 5   0  0.1521750E-02  0.5928988E+03  0.7818609E-02  0.9920249E-01
        3   -1    0    0  501    0  0.00000000000E+00  0.00000000000E+00  0.21746643142E+03  0.21746645487E+03  0.10100000352E+00 0.  1.
       -3   -1    0    0    0  501  0.00000000000E+00  0.00000000000E+00 -0.40411860068E+03  0.40411861330E+03  0.10100000352E+00 0. -1.
    10030    2    1    2    0    0  0.00000000000E+00  0.00000000000E+00 -0.18665216926E+03  0.62158506818E+03  0.59289878115E+03 0.  0.
        3    1    3    3  502    0 -0.45188929295E+02 -0.27955452164E+03 -0.13938182086E+01  0.28318672785E+03  0.10100000352E+00 0.  1.
       -3    1    3    3    0  502  0.45188929295E+02  0.27955452164E+03 -0.18525835105E+03  0.33839834033E+03  0.10100000352E+00 0. -1.
</event>
<event>
 5   0  0.3737642E-02  0.5799961E+03  0.7818609E-02  0.9947799E-01
        2   -1    0    0  501    0  0.00000000000E+00  0.00000000000E+00  0.30796645686E+03  0.30796645687E+03  0.25500000920E-02 0. -1.
       -2   -1    0    0    0  501  0.00000000000E+00  0.00000000000E+00 -0.27307805901E+03  0.27307805903E+03  0.25500000920E-02 0.  1.
    10030    2    1    2    0    0  0.00000000000E+00  0.00000000000E+00  0.34888397849E+02  0.58104451590E+03  0.57999614581E+03 0.  0.
        5    1    3    3  502    0  0.15023916688E+03 -0.75836882721E+02  0.25399332579E+03  0.30472567924E+03  0.46999998093E+01 0. -1.
       -5    1    3    3    0  502 -0.15023916688E+03  0.75836882721E+02 -0.21910492794E+03  0.27631883666E+03  0.46999998093E+01 0.  1.
</event>
<event>
 5   0  0.2382531E-02  0.6004003E+03  0.7818609E-02  0.9904576E-01
       -1   -1    0    0    0  501  0.00000000000E+00  0.00000000000E+00  0.20601208321E+03  0.20601208328E+03  0.50400001928E-02 0.  1.
        1   -1    0    0  501    0  0.00000000000E+00  0.00000000000E+00 -0.43745076223E+03  0.43745076226E+03  0.50400001928E-02 0. -1.
    10030    2    1    2    0    0  0.00000000000E+00  0.00000000000E+00 -0.23143867902E+03  0.64346284553E+03  0.60040034264E+03 0.  0.
        5    1    3    3  502    0  0.14862037147E+03  0.10620422310E+03 -0.37098454359E+03  0.41354440318E+03  0.46999998093E+01 0. -1.
       -5    1    3    3    0  502 -0.14862037147E+03 -0.10620422310E+03  0.13954586457E+03  0.22991844236E+03  0.46999998093E+01 0.  1.
</event>
<event>
 5   0  0.2295179E-02  0.6065585E+03  0.7818609E-02  0.9891892E-01
       -1   -1    0    0    0  501  0.00000000000E+00  0.00000000000E+00  0.37740760045E+03  0.37740760048E+03  0.50400001928E-02 0. -1.
        1   -1    0    0  501    0  0.00000000000E+00  0.00000000000E+00 -0.24371077488E+03  0.24371077494E+03  0.50400001928E-02 0.  1.
    10030    2    1    2    0    0  0.00000000000E+00  0.00000000000E+00  0.13369682557E+03  0.62111837542E+03  0.60655848450E+03 0.  0.
        3    1    3    3  502    0  0.28324350699E+03 -0.56779319839E+02  0.16140959541E+03  0.33091364902E+03  0.10100000352E+00 0. -1.
       -3    1    3    3    0  502 -0.28324350699E+03  0.56779319839E+02 -0.27712769843E+02  0.29020472640E+03  0.10100000352E+00 0.  1.
</event>
<event>
 5   0  0.3798925E-02  0.5969871E+03  0.7818609E-02  0.9911677E-01
       -2   -1    0    0    0  501  0.00000000000E+00  0.00000000000E+00  0.12619263050E+03  0.12619263052E+03  0.25500000920E-02 0.  1.
        2   -1    0    0  501    0  0.00000000000E+00  0.00000000000E+00 -0.70605075021E+03  0.70605075022E+03  0.25500000920E-02 0. -1.
    10030    2    1    2    0    0  0.00000000000E+00  0.00000000000E+00 -0.57985811972E+03  0.83224338074E+03  0.59698710688E+03 0.  0.
        2    1    3    3  502    0 -0.11182549854E+03  0.53773111763E+02  0.88535113895E+02  0.15243016785E+03  0.25500000920E-02 0.  1.
       -2    1    3    3    0  502  0.11182549854E+03 -0.53773111763E+02 -0.66839323361E+03  0.67981321289E+03  0.25500000920E-02 0. -1.
</event>
<event>
 5   0  0.3737642E-02  0.6030792E+03  0.7818609E-02  0.9899038E-01
        2   -1    0    0  501    0  0.00000000000E+00  0.00000000000E+00  0.64046330428E+03  0.64046330428E+03  0.25500000920E-02 0. -1.
       -2   -1    0    0    0  501  0.00000000000E+00  0.00000000000E+00 -0.14196928322E+03  0.14196928324E+03  0.25500000920E-02 0.  1.
    10030    2    1    2    0    0  0.00000000000E+00  0.00000000000E+00  0.49849402106E+03  0.78243258752E+03  0.60307915316E+03 0.  0.
        5    1    3    3  502    0  0.20121603509E+03  0.11988164116E+03  0.29312105632E+01  0.23428653964E+03  0.46999998093E+01 0.  1.
       -5    1    3    3    0  502 -0.20121603509E+03 -0.11988164116E+03  0.49556281050E+03  0.54814604788E+03  0.46999998093E+01 0. -1.
</event>
<event>
 5   0  0.3934634E-02  0.6008532E+03  0.7818609E-02  0.9903637E-01
        2   -1    0    0  501    0  0.00000000000E+00  0.00000000000E+00  0.64088764365E+03  0.64088764365E+03  0.25500000920E-02 0.  1.
       -2   -1    0    0    0  501  0.00000000000E+00  0.00000000000E+00 -0.14082992127E+03  0.14082992130E+03  0.25500000920E-02 0. -1.
    10030    2    1    2    0    0  0.00000000000E+00  0.00000000000E+00  0.50005772237E+03  0.78171756495E+03  0.60085324801E+03 0.  0.
        1    1    3    3  502    0 -0.12479880434E+03 -0.12938923513E+03 -0.63133894211E+02  0.19053137368E+03  0.50400001928E-02 0. -1.
       -1    1    3    3    0  502  0.12479880434E+03  0.12938923513E+03  0.56319161658E+03  0.59118619127E+03  0.50400001928E-02 0.  1.
</event>
<event>
 5   0  0.3724066E-02  0.5991024E+03  0.7818609E-02  0.9907270E-01
        2   -1    0    0  501    0  0.00000000000E+00  0.00000000000E+00  0.11369054371E+04  0.11369054371E+04  0.25500000920E-02 0. -1.
       -2   -1    0    0    0  501  0.00000000000E+00  0.00000000000E+00 -0.78925589085E+02  0.78925589126E+02  0.25500000920E-02 0.  1.
    10030    2    1    2    0    0  0.00000000000E+00  0.00000000000E+00  0.10579798480E+04  0.12158310262E+04  0.59910243325E+03 0.  0.
        4    1    3    3  502    0 -0.33321324733E+02 -0.21338847876E+03  0.10774761354E+03  0.24136303502E+03  0.12699999809E+01 0.  1.
       -4    1    3    3    0  502  0.33321324733E+02  0.21338847876E+03  0.95023223444E+03  0.97446799118E+03  0.12699999809E+01 0. -1.
</event>
<event>
 5   0  0.3737642E-02  0.6024792E+03  0.7818609E-02  0.9900276E-01
       -2   -1    0    0    0  501  0.00000000000E+00  0.00000000000E+00  0.11497830386E+03  0.11497830388E+03  0.25500000920E-02 0.  1.
        2   -1    0    0  501    0  0.00000000000E+00  0.00000000000E+00 -0.78923842930E+03  0.78923842930E+03  0.25500000920E-02 0. -1.
    10030    2    1    2    0    0  0.00000000000E+00  0.00000000000E+00 -0.67426012544E+03  0.90421673319E+03  0.60247919783E+03 0.  0.
        5    1    3    3  502    0  0.24475777935E+03  0.16157273696E+03 -0.23411730754E+03  0.37529338332E+03  0.46999998093E+01 0.  1.
       -5    1    3    3    0  502 -0.24475777935E+03 -0.16157273696E+03 -0.44014281790E+03  0.52892334986E+03  0.46999998093E+01 0. -1.
</event>
<event>
 5   0  0.3832191E-02  0.5956955E+03  0.7818609E-02  0.9914377E-01
        2   -1    0    0  501    0  0.00000000000E+00  0.00000000000E+00  0.10526693673E+04  0.10526693673E+04  0.25500000920E-02 0. -1.
       -2   -1    0    0    0  501  0.00000000000E+00  0.00000000000E+00 -0.84274597629E+02  0.84274597668E+02  0.25500000920E-02 0.  1.
    10030    2    1    2    0    0  0.00000000000E+00  0.00000000000E+00  0.96839476962E+03  0.11369439649E+04  0.59569551748E+03 0.  0.
        3    1    3    3  502    0  0.11242605294E+02 -0.25366513991E+03  0.18703837689E+03  0.31536607936E+03  0.10100000352E+00 0.  1.
       -3    1    3    3    0  502 -0.11242605294E+02  0.25366513991E+03  0.78135639273E+03  0.82157788556E+03  0.10100000352E+00 0. -1.
</event>
<event>
 5   0  0.2225808E-02  0.5933574E+03  0.7818609E-02  0.9919284E-01
        1   -1    0    0  501    0  0.00000000000E+00  0.00000000000E+00  0.26351840396E+03  0.26351840401E+03  0.50400001928E-02 0.  1.
       -1   -1    0    0    0  501  0.00000000000E+00  0.00000000000E+00 -0.33401176905E+03  0.33401176909E+03  0.50400001928E-02 0. -1.
    10030    2    1    2    0    0  0.00000000000E+00  0.00000000000E+00 -0.70493365088E+02  0.59753017310E+03  0.59335739082E+03 0.  0.
        2    1    3    3  502    0  0.12683596603E+03 -0.23174824414E+02 -0.30432194621E+03  0.33050912501E+03  0.25500000920E-02 0. -1.
       -2    1    3    3    0  502 -0.12683596603E+03  0.23174824414E+02  0.23382858112E+03  0.26702104808E+03  0.25500000920E-02 0.  1.
</event>
<event>
 5   0  0.3737642E-02  0.6000085E+03  0.7818609E-02  0.9905388E-01
       -2   -1    0    0    0  501  0.00000000000E+00  0.00000000000E+00  0.60921225009E+02  0.60921225062E+02  0.25500000920E-02 0. -1.
        2   -1    0    0  501    0  0.00000000000E+00  0.00000000000E+00 -0.14773595324E+04  0.14773595324E+04  0.25500000920E-02 0.  1.
    10030    2    1    2    0    0  0.00000000000E+00  0.00000000000E+00 -0.14164383074E+04  0.15382807575E+04  0.60000850840E+03 0.  0.
        5    1    3    3  502    0  0.27249320212E+03  0.12498247673E+03 -0.73477582894E+03  0.79359358206E+03  0.46999998093E+01 0.  1.
       -5    1    3    3    0  502 -0.27249320212E+03 -0.12498247673E+03 -0.68166247848E+03  0.74468717544E+03  0.46999998093E+01 0. -1.
</event>
<event>
 5   0  0.2382531E-02  0.6127581E+03  0.7818609E-02  0.9879285E-01
        1   -1    0    0  501    0  0.00000000000E+00  0.00000000000E+00  0.45093511290E+03  0.45093511293E+03  0.50400001928E-02 0. -1.
       -1   -1    0    0    0  501  0.00000000000E+00  0.00000000000E+00 -0.20816323090E+03  0.20816323096E+03  0.50400001928E-02 0.  1.
    10030    2    1    2    0    0  0.00000000000E+00  0.00000000000E+00  0.24277188201E+03  0.65909834389E+03  0.61275806011E+03 0.  0.
        5    1    3    3  502    0  0.22832474796E+03  0.17922724889E+03  0.16043663093E+02  0.29074746155E+03  0.46999998093E+01 0.  1.
       -5    1    3    3    0  502 -0.22832474796E+03 -0.17922724889E+03  0.22672821891E+03  0.36835088234E+03  0.46999998093E+01 0. -1.
</event>
<event>
 5   0  0.2295179E-02  0.6055986E+03  0.7818609E-02  0.9893858E-01
       -1   -1    0    0    0  501  0.00000000000E+00  0.00000000000E+00  0.15823543514E+03  0.15823543522E+03  0.50400001928E-02 0.  1.
        1   -1    0    0  501    0  0.00000000000E+00  0.00000000000E+00 -0.57943660576E+03  0.57943660578E+03  0.50400001928E-02 0. -1.
    10030    2    1    2    0    0  0.00000000000E+00  0.00000000000E+00 -0.42120117062E+03  0.73767204101E+03  0.60559855841E+03 0.  0.
        3    1    3    3  502    0 -0.26856206623E+03 -0.65974813173E+02 -0.60379556408E+02  0.28306176079E+03  0.10100000352E+00 0.  1.
       -3    1    3    3    0  502  0.26856206623E+03  0.65974813173E+02 -0.36082161421E+03  0.45461028021E+03  0.10100000352E+00 0. -1.
</event>
<event>
 5   0  0.2382531E-02  0.5978163E+03  0.7818609E-02  0.9909947E-01
        1   -1    0    0  501    0  0.00000000000E+00  0.00000000000E+00  0.77881202460E+03  0.77881202462E+03  0.50400001928E-02 0. -1.
       -1   -1    0    0    0  501  0.00000000000E+00  0.00000000000E+00 -0.11472098535E+03  0.11472098546E+03  0.50400001928E-02 0.  1.
    10030    2    1    2    0    0  0.00000000000E+00  0.00000000000E+00  0.66409103925E+03  0.89353301009E+03  0.59781630264E+03 0.  0.
        5    1    3    3  502    0 -0.58417130956E+01 -0.15898840710E+03 -0.46114336338E+02  0.16571077580E+03  0.46999998093E+01 0.  1.
       -5    1    3    3    0  502  0.58417130956E+01  0.15898840710E+03  0.71020537559E+03  0.72782223428E+03  0.46999998093E+01 0. -1.
</event>
<event>
 5   0  0.2309055E-02  0.5973107E+03  0.7818609E-02  0.9911001E-01
       -1   -1    0    0    0  501  0.00000000000E+00  0.00000000000E+00  0.24155661186E+03  0.24155661191E+03  0.50400001928E-02 0. -1.
        1   -1    0    0  501    0  0.00000000000E+00  0.00000000000E+00 -0.36925099137E+03  0.36925099141E+03  0.50400001928E-02 0.  1.
    10030    2    1    2    0    0  0.00000000000E+00  0.00000000000E+00 -0.12769437952E+03  0.61080760331E+03  0.59731070115E+03 0.  0.
        4    1    3    3  502    0 -0.14424814267E+03  0.40981521426E+02 -0.32795902951E+03  0.36061856538E+03  0.12699999809E+01 0.  1.
       -4    1    3    3    0  502  0.14424814267E+03 -0.40981521426E+02  0.20026464999E+03  0.25018903793E+03  0.12699999809E+01 0. -1.
</event>
<event>
 5   0  0.3832191E-02  0.5882318E+03  0.7818609E-02  0.9930127E-01
        2   -1    0    0  501    0  0.00000000000E+00  0.00000000000E+00  0.11010512552E+03  0.11010512555E+03  0.25500000920E-02 0.  1.
       -2   -1    0    0    0  501  0.00000000000E+00  0.00000000000E+00 -0.78565056174E+03  0.78565056174E+03  0.25500000920E-02 0. -1.
    10030    2    1    2    0    0  0.00000000000E+00  0.00000000000E+00 -0.67554543621E+03  0.89575568729E+03  0.58823176974E+03 0.  0.
        3    1    3    3  502    0  0.15810670968E+03 -0.56584328470E+02  0.29926412778E+02  0.17057291185E+03  0.10100000352E+00 0.  1.
       -3    1    3    3    0  502 -0.15810670968E+03  0.56584328470E+02 -0.70547184899E+03  0.72518277544E+03  0.10100000352E+00 0. -1.
</event>
<event>
 5   0  0.1521750E-02  0.6017892E+03  0.7818609E-02  0.9901701E-01
       -4   -1    0    0    0  501  0.00000000000E+00  0.00000000000E+00  0.14270159748E+04  0.14270165400E+04  0.12699999809E+01 0. -1.
        4   -1    0    0  501    0  0.00000000000E+00  0.00000000000E+00 -0.63438442413E+02  0.63451153462E+02  0.12699999809E+01 0.  1.
    10030    2    1    2    0    0  0.00000000000E+00  0.00000000000E+00  0.13635775324E+04  0.14904676934E+04  0.60178921412E+03 0.  0.
        2    1    3    3  502    0 -0.18241973002E+02  0.90614831125E+02  0.13909884528E+04  0.13940562016E+04  0.25500000920E-02 0. -1.
       -2    1    3    3    0  502  0.18241973002E+02 -0.90614831125E+02 -0.27410920411E+02  0.96411491862E+02  0.25500000920E-02 0.  1.
</event>
<event>
 5   0  0.2309055E-02  0.6140868E+03  0.7818609E-02  0.9876604E-01
        1   -1    0    0  501    0  0.00000000000E+00  0.00000000000E+00  0.65484557467E+03  0.65484557469E+03  0.50400001928E-02 0.  1.
       -1   -1    0    0    0  501  0.00000000000E+00  0.00000000000E+00 -0.14396622248E+03  0.14396622257E+03  0.50400001928E-02 0. -1.
    10030    2    1    2    0    0  0.00000000000E+00  0.00000000000E+00  0.51087935219E+03  0.79881179726E+03  0.61408678128E+03 0.  0.
        4    1    3    3  502    0  0.16189734653E+03 -0.10515006827E+03  0.56602278742E+03  0.59803904258E+03  0.12699999809E+01 0.  1.
       -4    1    3    3    0  502 -0.16189734653E+03  0.10515006827E+03 -0.55143435230E+02  0.20077275468E+03  0.12699999809E+01 0. -1.
</event>
<event>
 5   0  0.3798925E-02  0.6020593E+03  0.7818609E-02  0.9901143E-01
        2   -1    0    0  501    0  0.00000000000E+00  0.00000000000E+00  0.78707956340E+03  0.78707956340E+03  0.25500000920E-02 0. -1.
       -2   -1    0    0    0  501  0.00000000000E+00  0.00000000000E+00 -0.11513303266E+03  0.11513303269E+03  0.25500000920E-02 0.  1.
    10030    2    1    2    0    0  0.00000000000E+00  0.00000000000E+00  0.67194653073E+03  0.90221259609E+03  0.60205932298E+03 0.  0.
        2    1    3    3  502    0 -0.98548131890E+02  0.27854224434E+03  0.42233598849E+03  0.51542720471E+03  0.25500000920E-02 0. -1.
       -2    1    3    3    0  502  0.98548131890E+02 -0.27854224434E+03  0.24961054224E+03  0.38678539138E+03  0.25500000920E-02 0.  1.
</event>
<event>
 5   0  0.3798925E-02  0.6292520E+03  0.7818609E-02  0.9846510E-01
       -2   -1    0    0    0  501  0.00000000000E+00  0.00000000000E+00  0.16745041312E+03  0.16745041313E+03  0.25500000920E-02 0. -1.
        2   -1    0    0  501    0  0.00000000000E+00  0.00000000000E+00 -0.59115712842E+03  0.59115712842E+03  0.25500000920E-02 0.  1.
    10030    2    1    2    0    0  0.00000000000E+00  0.00000000000E+00 -0.42370671530E+03  0.75860754156E+03  0.62925195392E+03 0.  0.
        2    1    3    3  502    0  0.22647773179E+02  0.12651902334E+03 -0.55806312629E+03  0.57267306365E+03  0.25500000920E-02 0.  1.
       -2    1    3    3    0  502 -0.22647773179E+02 -0.12651902334E+03  0.13435641099E+03  0.18593447791E+03  0.25500000920E-02 0. -1.
</event>
<event>
 5   0  0.2309055E-02  0.6033530E+03  0.7818609E-02  0.9898474E-01
       -1   -1    0    0    0  501  0.00000000000E+00  0.00000000000E+00  0.81637330924E+02  0.81637331080E+02  0.50400001928E-02 0. -1.
        1   -1    0    0  501    0  0.00000000000E+00  0.00000000000E+00 -0.11147927238E+04  0.11147927238E+04  0.50400001928E-02 0.  1.
    10030    2    1    2    0    0  0.00000000000E+00  0.00000000000E+00 -0.10331553928E+04  0.11964300548E+04  0.60335297331E+03 0.  0.
        4    1    3    3  502    0  0.44185209533E+02  0.17054273859E+03 -0.30973274843E+02  0.17888016961E+03  0.12699999809E+01 0. -1.
       -4    1    3    3    0  502 -0.44185209533E+02 -0.17054273859E+03 -0.10021821180E+04  0.10175498852E+04  0.12699999809E+01 0.  1.
</event>
<event>
 5   0  0.3737642E-02  0.6045383E+03  0.7818609E-02  0.9896035E-01
        2   -1    0    0  501    0  0.00000000000E+00  0.00000000000E+00  0.45703088012E+03  0.45703088012E+03  0.25500000920E-02 0. -1.
       -2   -1    0    0    0  501  0.00000000000E+00  0.00000000000E+00 -0.19991347756E+03  0.19991347757E+03  0.25500000920E-02 0.  1.
    10030    2    1    2    0    0  0.00000000000E+00  0.00000000000E+00  0.25711740256E+03  0.65694435770E+03  0.60453827870E+03 0.  0.
        5    1    3    3  502    0 -0.10829371810E+03  0.11123580949E+03 -0.15323435374E+03  0.21818293210E+03  0.46999998093E+01 0.  1.
       -5    1    3    3    0  502  0.10829371810E+03 -0.11123580949E+03  0.41035175630E+03  0.43876142560E+03  0.46999998093E+01 0. -1.
</event>
<event>
 5   0  0.1521750E-02  0.6001781E+03  0.7818609E-02  0.9905037E-01
        3   -1    0    0  501    0  0.00000000000E+00  0.00000000000E+00  0.80403641324E+03  0.80403641958E+03  0.10100000352E+00 0. -1.
       -3   -1    0    0    0  501  0.00000000000E+00  0.00000000000E+00 -0.11200164639E+03  0.11200169193E+03  0.10100000352E+00 0.  1.
    10030    2    1    2    0    0  0.00000000000E+00  0.00000000000E+00  0.69203476685E+03  0.91603811151E+03  0.60017805958E+03 0.  0.
        3    1    3    3  502    0 -0.26823410690E+03  0.12703993698E+03  0.27836465789E+03  0.40690978688E+03  0.10100000352E+00 0.  1.
       -3    1    3    3    0  502  0.26823410690E+03 -0.12703993698E+03  0.41367010895E+03  0.50912832463E+03  0.10100000352E+00 0. -1.
</event>
<event>
 5   0  0.2295179E-02  0.5953711E+03  0.7818609E-02  0.9915056E-01
        1   -1    0    0  501    0  0.00000000000E+00  0.00000000000E+00  0.15996140856E+03  0.15996140864E+03  0.50400001928E-02 0. -1.
       -1   -1    0    0    0  501  0.00000000000E+00  0.00000000000E+00 -0.55398796692E+03  0.55398796694E+03  0.50400001928E-02 0.  1.
    10030    2    1    2    0    0  0.00000000000E+00  0.00000000000E+00 -0.39402655836E+03  0.71394937558E+03  0.59537112981E+03 0.  0.
        3    1    3    3  502    0  0.50848333793E+02  0.12639467049E+03  0.12038226527E+03  0.18180502130E+03  0.10100000352E+00 0. -1.
       -3    1    3    3    0  502 -0.50848333793E+02 -0.12639467049E+03 -0.51440882362E+03  0.53214435429E+03  0.10100000352E+00 0.  1.
</event>
<event>
 5   0  0.3724066E-02  0.5930322E+03  0.7818609E-02  0.9919968E-01
        2   -1    0    0  501    0  0.00000000000E+00  0.00000000000E+00  0.79588276095E+03  0.79588276096E+03  0.25500000920E-02 0.  1.
       -2   -1    0    0    0  501  0.00000000000E+00  0.00000000000E+00 -0.11047079662E+03  0.11047079665E+03  0.25500000920E-02 0. -1.
    10030    2    1    2    0    0  0.00000000000E+00  0.00000000000E+00  0.68541196433E+03  0.90635355761E+03  0.59303221713E+03 0.  0.
        4    1    3    3  502    0  0.95018986793E+01 -0.17015074385E+03  0.71355590849E+03  0.73362470593E+03  0.12699999809E+01 0.  1.
       -4    1    3    3    0  502 -0.95018986793E+01  0.17015074385E+03 -0.28143944157E+02  0.17272885168E+03  0.12699999809E+01 0. -1.
</event>
<event>
 5   0  0.1521750E-02  0.5980202E+03  0.7818609E-02  0.9909522E-01
       -3   -1    0    0    0  501  0.00000000000E+00  0.00000000000E+00  0.23231014897E+03  0.23231017093E+03  0.10100000352E+00 0. -1.
        3   -1    0    0  501    0  0.00000000000E+00  0.00000000000E+00 -0.38486067433E+03  0.38486068758E+03  0.10100000352E+00 0.  1.
    10030    2    1    2    0    0  0.00000000000E+00  0.00000000000E+00 -0.15255052536E+03  0.61717085851E+03  0.59802023862E+03 0.  0.
        2    1    3    3  502    0  0.10985057008E+03 -0.22662337292E+03 -0.24262561838E+03  0.34970343378E+03  0.25500000920E-02 0.  1.
       -2    1    3    3    0  502 -0.10985057008E+03  0.22662337292E+03  0.90075093026E+02  0.26746742472E+03  0.25500000920E-02 0. -1.
</event>
<event>
 5   0  0.1521750E-02  0.6090089E+03  0.7818609E-02  0.9886890E-01
        4   -1    0    0  501    0  0.00000000000E+00  0.00000000000E+00  0.28375159406E+03  0.28375443614E+03  0.12699999809E+01 0.  1.
       -4   -1    0    0    0  501  0.00000000000E+00  0.00000000000E+00 -0.32676935083E+03  0.32677181877E+03  0.12699999809E+01 0. -1.
    10030    2    1    2    0    0  0.00000000000E+00  0.00000000000E+00 -0.43017756769E+02  0.61052625491E+03  0.60900885095E+03 0.  0.
        2    1    3    3  502    0 -0.59239521884E+02 -0.87707277752E+01 -0.32081046064E+03  0.32635195462E+03  0.25500000920E-02 0. -1.
       -2    1    3    3    0  502  0.59239521884E+02  0.87707277752E+01  0.27779270387E+03  0.28417430030E+03  0.25500000920E-02 0.  1.
</event>
<event>
 5   0  0.2276105E-02  0.6026348E+03  0.7818609E-02  0.9899955E-01
       -1   -1    0    0    0  501  0.00000000000E+00  0.00000000000E+00  0.97467281438E+02  0.97467281569E+02  0.50400001928E-02 0.  1.
        1   -1    0    0  501    0  0.00000000000E+00  0.00000000000E+00 -0.93151432196E+03  0.93151432197E+03  0.50400001928E-02 0. -1.
    10030    2    1    2    0    0  0.00000000000E+00  0.00000000000E+00 -0.83404704052E+03  0.10289816035E+04  0.60263477714E+03 0.  0.
        1    1    3    3  502    0 -0.27657747037E+03 -0.10882959626E+03 -0.33245298948E+03  0.44594166477E+03  0.50400001928E-02 0. -1.
       -1    1    3    3    0  502  0.27657747037E+03  0.10882959626E+03 -0.50159405104E+03  0.58303993877E+03  0.50400001928E-02 0.  1.
</event>
<event>
 5   0  0.2276105E-02  0.6008067E+03  0.7818609E-02  0.9903734E-01
       -1   -1    0    0    0  501  0.00000000000E+00  0.00000000000E+00  0.11004289669E+03  0.11004289680E+03  0.50400001928E-02 0.  1.
        1   -1    0    0  501    0  0.00000000000E+00  0.00000000000E+00 -0.82006353729E+03  0.82006353730E+03  0.50400001928E-02 0. -1.
    10030    2    1    2    0    0  0.00000000000E+00  0.00000000000E+00 -0.71002064060E+03  0.93010643411E+03  0.60080668162E+03 0.  0.
        1    1    3    3  502    0 -0.15359534257E+03 -0.18090661365E+03 -0.64014353181E+03  0.68271697903E+03  0.50400001928E-02 0. -1.
       -1    1    3    3    0  502  0.15359534257E+03  0.18090661365E+03 -0.69877108796E+02  0.24738945507E+03  0.50400001928E-02 0.  1.
</event>
<event>
 5   0  0.2295179E-02  0.5991989E+03  0.7818609E-02  0.9907069E-01
       -1   -1    0    0    0  501  0.00000000000E+00  0.00000000000E+00  0.22410425790E+03  0.22410425795E+03  0.50400001928E-02 0.  1.
        1   -1    0    0  501    0  0.00000000000E+00  0.00000000000E+00 -0.40052711190E+03  0.40052711193E+03  0.50400001928E-02 0. -1.
    10030    2    1    2    0    0  0.00000000000E+00  0.00000000000E+00 -0.17642285400E+03  0.62463136988E+03  0.59919890256E+03 0.  0.
        3    1    3    3  502    0 -0.35347400413E+02  0.16306447282E+03 -0.34761115620E+03  0.38558136252E+03  0.10100000352E+00 0. -1.
       -3    1    3    3    0  502  0.35347400413E+02 -0.16306447282E+03  0.17118830219E+03  0.23905000736E+03  0.10100000352E+00 0.  1.
</event>
<event>
 5   0  0.3724066E-02  0.5980971E+03  0.7818609E-02  0.9909362E-01
       -2   -1    0    0    0  501  0.00000000000E+00  0.00000000000E+00  0.35556398631E+03  0.35556398632E+03  0.25500000920E-02 0.  1.
        2   -1    0    0  501    0  0.00000000000E+00  0.00000000000E+00 -0.25151597516E+03  0.25151597517E+03  0.25500000920E-02 0. -1.
    10030    2    1    2    0    0  0.00000000000E+00  0.00000000000E+00  0.10404801115E+03  0.60707996149E+03  0.59809705820E+03 0.  0.
        4    1    3    3  502    0 -0.12525999236E+03  0.70514454179E+02 -0.21414733361E+03  0.25792062214E+03  0.12699999809E+01 0. -1.
       -4    1    3    3    0  502  0.12525999236E+03 -0.70514454179E+02  0.31819534476E+03  0.34915933935E+03  0.12699999809E+01 0.  1.
</event>
<event>
 5   0  0.3934634E-02  0.5896933E+03  0.7818609E-02  0.9927023E-01
       -2   -1    0    0    0  501  0.00000000000E+00  0.00000000000E+00  0.40635981601E+02  0.40635981681E+02  0.25500000920E-02 0. -1.
        2   -1    0    0  501    0  0.00000000000E+00  0.00000000000E+00 -0.21393492353E+04  0.21393492353E+04  0.25500000920E-02 0.  1.
    10030    2    1    2    0    0  0.00000000000E+00  0.00000000000E+00 -0.20987132537E+04  0.21799852170E+04  0.58969333133E+03 0.  0.
        1    1    3    3  502    0  0.70721588153E+02 -0.28043664369E+03 -0.83736769573E+03  0.88590683033E+03  0.50400001928E-02 0.  1.
       -1    1    3    3    0  502 -0.70721588153E+02  0.28043664369E+03 -0.12613455580E+04  0.12940783867E+04  0.50400001928E-02 0. -1.
</event>
<event>
 5   0  0.1521750E-02  0.5988159E+03  0.7818609E-02  0.9907866E-01
        4   -1    0    0  501    0  0.00000000000E+00  0.00000000000E+00  0.18087856991E+03  0.18088302837E+03  0.12699999809E+01 0.  1.
       -4   -1    0    0    0  501  0.00000000000E+00  0.00000000000E+00 -0.49559805040E+03  0.49559967762E+03  0.12699999809E+01 0. -1.
    10030    2    1    2    0    0  0.00000000000E+00  0.00000000000E+00 -0.31471948049E+03  0.67648270599E+03  0.59881591504E+03 0.  0.
        4    1    3    3  502    0  0.19970488126E+03 -0.21991028024E+03 -0.11507600806E+03  0.31856972782E+03  0.12699999809E+01 0.  1.
       -4    1    3    3    0  502 -0.19970488126E+03  0.21991028024E+03 -0.19964347243E+03  0.35791297816E+03  0.12699999809E+01 0. -1.
</event>
<event>
 5   0  0.2225808E-02  0.5997471E+03  0.7818609E-02  0.9905931E-01
       -1   -1    0    0    0  501  0.00000000000E+00  0.00000000000E+00  0.75893578671E+03  0.75893578673E+03  0.50400001928E-02 0. -1.
        1   -1    0    0  501    0  0.00000000000E+00  0.00000000000E+00 -0.11848714166E+03  0.11848714177E+03  0.50400001928E-02 0.  1.
    10030    2    1    2    0    0  0.00000000000E+00  0.00000000000E+00  0.64044864505E+03  0.87742292850E+03  0.59974705376E+03 0.  0.
        2    1    3    3  502    0 -0.52641454391E+02  0.25191052547E+03  0.95028187388E+02  0.27433627534E+03  0.25500000920E-02 0.  1.
       -2    1    3    3    0  502  0.52641454391E+02 -0.25191052547E+03  0.54542045766E+03  0.60308665315E+03  0.25500000920E-02 0. -1.
</event>
<event>
 5   0  0.1521750E-02  0.5846053E+03  0.7818609E-02  0.9937870E-01
        3   -1    0    0  501    0  0.00000000000E+00  0.00000000000E+00  0.79177362493E+02  0.79177426911E+02  0.10100000352E+00 0.  1.
       -3   -1    0    0    0  501  0.00000000000E+00  0.00000000000E+00 -0.10791062478E+04  0.10791062525E+04  0.10100000352E+00 0. -1.
    10030    2    1    2    0    0  0.00000000000E+00  0.00000000000E+00 -0.99992888529E+03  0.11582836794E+04  0.58460525688E+03 0.  0.
        3    1    3    3  502    0 -0.20762957566E+03  0.82145012427E+02 -0.12622121308E+03  0.25649492897E+03  0.10100000352E+00 0.  1.
       -3    1    3    3    0  502  0.20762957566E+03 -0.82145012427E+02 -0.87370767221E+03  0.90178875045E+03  0.10100000352E+00 0. -1.
</event>
<event>
 5   0  0.2382531E-02  0.6048734E+03  0.7818609E-02  0.9895346E-01
        1   -1    0    0  501    0  0.00000000000E+00  0.00000000000E+00  0.14302621318E+03  0.14302621327E+03  0.50400001928E-02 0. -1.
       -1   -1    0    0    0  501  0.00000000000E+00  0.00000000000E+00 -0.63951894124E+03  0.63951894126E+03  0.50400001928E-02 0.  1.
    10030    2    1    2    0    0  0.00000000000E+00  0.00000000000E+00 -0.49649272807E+03  0.78254515453E+03  0.60487344945E+03 0.  0.
        5    1    3    3  502    0  0.26054484484E+02 -0.54073385446E+02  0.13519481331E+03  0.14799491451E+03  0.46999998093E+01 0. -1.
       -5    1    3    3    0  502 -0.26054484484E+02  0.54073385446E+02 -0.63168754138E+03  0.63455024002E+03  0.46999998093E+01 0.  1.
</event>
<event>
 5   0  0.3724066E-02  0.6062970E+03  0.7818609E-02  0.9892427E-01
       -2   -1    0    0    0  501  0.00000000000E+00  0.00000000000E+00  0.15490209752E+03  0.15490209754E+03  0.25500000920E-02 0. -1.
        2   -1    0    0  501    0  0.00000000000E+00  0.00000000000E+00 -0.59327151062E+03  0.59327151062E+03  0.25500000920E-02 0.  1.
    10030    2    1    2    0    0  0.00000000000E+00  0.00000000000E+00 -0.43836941310E+03  0.74817360816E+03  0.60629696157E+03 0.  0.
        4    1    3    3  502    0 -0.13449528313E+03  0.14315748147E+03  0.65745847585E+02  0.20714047180E+03  0.12699999809E+01 0. -1.
       -4    1    3    3    0  502  0.13449528313E+03 -0.14315748147E+03 -0.50411526069E+03  0.54103313636E+03  0.12699999809E+01 0.  1.
</event>
<event>
 5   0  0.2295179E-02  0.5988902E+03  0.7818609E-02  0.9907711E-01
        1   -1    0    0  501    0  0.00000000000E+00  0.00000000000E+00  0.46232008444E+03  0.46232008447E+03  0.50400001928E-02 0. -1.
       -1   -1    0    0    0  501  0.00000000000E+00  0.00000000000E+00 -0.19395082537E+03  0.19395082544E+03  0.50400001928E-02 0.  1.
    10030    2    1    2    0    0  0.00000000000E+00  0.00000000000E+00  0.26836925907E+03  0.65627090991E+03  0.59889018023E+03 0.  0.
        3    1    3    3  502    0 -0.14065045067E+03  0.42630334484E+02  0.42007907978E+03  0.44504644495E+03  0.10100000352E+00 0. -1.
       -3    1    3    3    0  502  0.14065045067E+03 -0.42630334484E+02 -0.15170982072E+03  0.21122446495E+03  0.10100000352E+00 0.  1.
</event>
<event>
 5   0  0.3724066E-02  0.5999744E+03  0.7818609E-02  0.9905459E-01
       -2   -1    0    0    0  501  0.00000000000E+00  0.00000000000E+00  0.32208155859E+03  0.32208155860E+03  0.25500000920E-02 0.  1.
        2   -1    0    0  501    0  0.00000000000E+00  0.00000000000E+00 -0.27940846605E+03  0.27940846606E+03  0.25500000920E-02 0. -1.
    10030    2    1    2    0    0  0.00000000000E+00  0.00000000000E+00  0.42673092548E+02  0.60149002466E+03  0.59997438024E+03 0.  0.
        4    1    3    3  502    0 -0.12797678875E+03  0.26536435333E+03 -0.35325279731E+02  0.29672510303E+03  0.12699999809E+01 0. -1.
       -4    1    3    3    0  502  0.12797678875E+03 -0.26536435333E+03  0.77998372279E+02  0.30476492163E+03  0.12699999809E+01 0.  1.
</event>
<event>
 5   0  0.2276105E-02  0.6014174E+03  0.7818609E-02  0.9902470E-01
        1   -1    0    0  501    0  0.00000000000E+00  0.00000000000E+00  0.24153074977E+04  0.24153074977E+04  0.50400001928E-02 0.  1.
       -1   -1    0    0    0  501  0.00000000000E+00  0.00000000000E+00 -0.37438595014E+02  0.37438595353E+02  0.50400001928E-02 0. -1.
    10030    2    1    2    0    0  0.00000000000E+00  0.00000000000E+00  0.23778689027E+04  0.24527460931E+04  0.60141739138E+03 0.  0.
        1    1    3    3  502    0 -0.22530803627E+03 -0.48400186682E+02  0.19767854921E+04  0.19901726486E+04  0.50400001928E-02 0.  1.
       -1    1    3    3    0  502  0.22530803627E+03  0.48400186682E+02  0.40108341057E+03  0.46257344448E+03  0.50400001928E-02 0. -1.
</event>
<event>
 5   0  0.2276105E-02  0.6091052E+03  0.7818609E-02  0.9886694E-01
       -1   -1    0    0    0  501  0.00000000000E+00  0.00000000000E+00  0.17098705186E+03  0.17098705193E+03  0.50400001928E-02 0.  1.
        1   -1    0    0  501    0  0.00000000000E+00  0.00000000000E+00 -0.54245216554E+03  0.54245216556E+03  0.50400001928E-02 0. -1.
    10030    2    1    2    0    0  0.00000000000E+00  0.00000000000E+00 -0.37146511368E+03  0.71343921749E+03  0.60910523424E+03 0.  0.
        1    1    3    3  502    0 -0.12599532425E+03  0.13898393891E+03  0.95281849145E+02  0.21040434361E+03  0.50400001928E-02 0.  1.
       -1    1    3    3    0  502  0.12599532425E+03 -0.13898393891E+03 -0.46674696283E+03  0.50303487388E+03  0.50400001928E-02 0. -1.
</event>
<event>
 5   0  0.3724066E-02  0.6023275E+03  0.7818609E-02  0.9900589E-01
       -2   -1    0    0    0  501  0.00000000000E+00  0.00000000000E+00  0.80974753080E+02  0.80974753120E+02  0.25500000920E-02 0.  1.
        2   -1    0    0  501    0  0.00000000000E+00  0.00000000000E+00 -0.11200972909E+04  0.11200972909E+04  0.25500000920E-02 0. -1.
    10030    2    1    2    0    0  0.00000000000E+00  0.00000000000E+00 -0.10391225378E+04  0.12010720440E+04  0.60232749093E+03 0.  0.
        4    1    3    3  502    0  0.88075910710E+02 -0.28799410586E+03 -0.51982601850E+03  0.60076507344E+03  0.12699999809E+01 0.  1.
       -4    1    3    3    0  502 -0.88075910710E+02  0.28799410586E+03 -0.51929651934E+03  0.60030697060E+03  0.12699999809E+01 0. -1.
</event>
<event>
 5   0  0.3934634E-02  0.5580161E+03  0.7818609E-02  0.9996554E-01
       -2   -1    0    0    0  501  0.00000000000E+00  0.00000000000E+00  0.25495884682E+03  0.25495884683E+03  0.25500000920E-02 0. -1.
        2   -1    0    0  501    0  0.00000000000E+00  0.00000000000E+00 -0.30532571519E+03  0.30532571520E+03  0.25500000920E-02 0.  1.
    10030    2    1    2    0    0  0.00000000000E+00  0.00000000000E+00 -0.50366868366E+02  0.56028456203E+03  0.55801610104E+03 0.  0.
        1    1    3    3  502    0  0.21015046089E+03  0.17195029648E+03 -0.89595384858E+02  0.28593260340E+03  0.50400001928E-02 0.  1.
       -1    1    3    3    0  502 -0.21015046089E+03 -0.17195029648E+03  0.39228516491E+02  0.27435195863E+03  0.50400001928E-02 0. -1.
</event>
<event>
 5   0  0.3724066E-02  0.6023696E+03  0.7818609E-02  0.9900502E-01
       -2   -1    0    0    0  501  0.00000000000E+00  0.00000000000E+00  0.10303307916E+04  0.10303307916E+04  0.25500000920E-02 0. -1.
        2   -1    0    0  501    0  0.00000000000E+00  0.00000000000E+00 -0.88041895807E+02  0.88041895844E+02  0.25500000920E-02 0.  1.
    10030    2    1    2    0    0  0.00000000000E+00  0.00000000000E+00  0.94228889579E+03  0.11183726874E+04  0.60236957501E+03 0.  0.
        4    1    3    3  502    0  0.79669553430E+02 -0.25158386925E+03  0.74063609177E+03  0.78624748925E+03  0.12699999809E+01 0. -1.
       -4    1    3    3    0  502 -0.79669553430E+02  0.25158386925E+03  0.20165280401E+03  0.33212519819E+03  0.12699999809E+01 0.  1.
</event>
<event>
 5   0  0.3724066E-02  0.5994415E+03  0.7818609E-02  0.9906565E-01
        2   -1    0    0  501    0  0.00000000000E+00  0.00000000000E+00  0.13795521482E+03  0.13795521484E+03  0.25500000920E-02 0. -1.
       -2   -1    0    0    0  501  0.00000000000E+00  0.00000000000E+00 -0.65117163795E+03  0.65117163795E+03  0.25500000920E-02 0.  1.
    10030    2    1    2    0    0  0.00000000000E+00  0.00000000000E+00 -0.51321642313E+03  0.78912685280E+03  0.59944148408E+03 0.  0.
        4    1    3    3  502    0  0.24574356788E+03 -0.95097345599E+02 -0.68594925131E+02  0.27228713328E+03  0.12699999809E+01 0.  1.
       -4    1    3    3    0  502 -0.24574356788E+03  0.95097345599E+02 -0.44462149800E+03  0.51683971952E+03  0.12699999809E+01 0. -1.
</event>
<event>
 5   0  0.2276105E-02  0.6015678E+03  0.7818609E-02  0.9902159E-01
        1   -1    0    0  501    0  0.00000000000E+00  0.00000000000E+00  0.27167814998E+03  0.27167815003E+03  0.50400001928E-02 0. -1.
       -1   -1    0    0    0  501  0.00000000000E+00  0.00000000000E+00 -0.33300788028E+03  0.33300788032E+03  0.50400001928E-02 0.  1.
    10030    2    1    2    0    0  0.00000000000E+00  0.00000000000E+00 -0.61329730304E+02  0.60468603035E+03  0.60156783448E+03 0.  0.
        1    1    3    3  502    0  0.21248092208E+03  0.16933706142E+03 -0.16035995127E+03  0.31549722125E+03  0.50400001928E-02 0.  1.
       -1    1    3    3    0  502 -0.21248092208E+03 -0.16933706142E+03  0.99030220965E+02  0.28918880910E+03  0.50400001928E-02 0. -1.
</event>
<event>
 5   0  0.2295179E-02  0.6009037E+03  0.7818609E-02  0.9903533E-01
       -1   -1    0    0    0  501  0.00000000000E+00  0.00000000000E+00  0.23448207632E+03  0.23448207637E+03  0.50400001928E-02 0.  1.
        1   -1    0    0  501    0  0.00000000000E+00  0.00000000000E+00 -0.38498167594E+03  0.38498167598E+03  0.50400001928E-02 0. -1.
    10030    2    1    2    0    0  0.00000000000E+00  0.00000000000E+00 -0.15049959963E+03  0.61946375235E+03  0.60090366199E+03 0.  0.
        3    1    3    3  502    0  0.72294304667E+02  0.19089631628E+03  0.15202143637E+03  0.25451600612E+03  0.10100000352E+00 0.  1.
       -3    1    3    3    0  502 -0.72294304667E+02 -0.19089631628E+03 -0.30252103600E+03  0.36494774623E+03  0.10100000352E+00 0. -1.
</event>
<event>
 5   0  0.3798925E-02  0.6028823E+03  0.7818609E-02  0.9899444E-01
        2   -1    0    0  501    0  0.00000000000E+00  0.00000000000E+00  0.99680898994E+03  0.99680898994E+03  0.25500000920E-02 0. -1.
       -2   -1    0    0    0  501  0.00000000000E+00  0.00000000000E+00 -0.91157665244E+02  0.91157665279E+02  0.25500000920E-02 0.  1.
    10030    2    1    2    0    0  0.00000000000E+00  0.00000000000E+00  0.90565132470E+03  0.10879666552E+04  0.60288234420E+03 0.  0.
        2    1    3    3  502    0 -0.24702337775E+03  0.43694472778E+02  0.75445466004E+03  0.79506703502E+03  0.25500000920E-02 0. -1.
       -2    1    3    3    0  502  0.24702337775E+03 -0.43694472778E+02  0.15119666466E+03  0.29289962021E+03  0.25500000920E-02 0.  1.
</event>
<event>
 5   0  0.1521750E-02  0.6008143E+03  0.7818609E-02  0.9903718E-01
       -3   -1    0    0    0  501  0.00000000000E+00  0.00000000000E+00  0.87150101001E+03  0.87150101587E+03  0.10100000352E+00 0.  1.
        3   -1    0    0  501    0  0.00000000000E+00  0.00000000000E+00 -0.10355058605E+03  0.10355063531E+03  0.10100000352E+00 0. -1.
    10030    2    1    2    0    0  0.00000000000E+00  0.00000000000E+00  0.76795042396E+03  0.97505165118E+03  0.60081433804E+03 0.  0.
        1    1    3    3  502    0  0.54427026890E+02 -0.29203470122E+03  0.45651463895E+03  0.54465785918E+03  0.50400001928E-02 0.  1.
       -1    1    3    3    0  502 -0.54427026890E+02  0.29203470122E+03  0.31143578501E+03  0.43039379199E+03  0.50400001928E-02 0. -1.
</event>
<event>
 5   0  0.2225808E-02  0.6017897E+03  0.7818609E-02  0.9901700E-01
       -1   -1    0    0    0  501  0.00000000000E+00  0.00000000000E+00  0.14667090829E+03  0.14667090837E+03  0.50400001928E-02 0.  1.
        1   -1    0    0  501    0  0.00000000000E+00  0.00000000000E+00 -0.61728470491E+03  0.61728470493E+03  0.50400001928E-02 0. -1.
    10030    2    1    2    0    0  0.00000000000E+00  0.00000000000E+00 -0.47061379662E+03  0.76395561330E+03  0.60178969211E+03 0.  0.
        2    1    3    3  502    0 -0.18885523992E+03  0.20015477245E+03 -0.38979434506E+03  0.47714553967E+03  0.25500000920E-02 0. -1.
       -2    1    3    3    0  502  0.18885523992E+03 -0.20015477245E+03 -0.80819451560E+02  0.28681007363E+03  0.25500000920E-02 0.  1.
</event>
<event>
 5   0  0.2225808E-02  0.6084384E+03  0.7818609E-02  0.9888052E-01
        1   -1    0    0  501    0  0.00000000000E+00  0.00000000000E+00  0.14715613450E+03  0.14715613458E+03  0.50400001928E-02 0.  1.
       -1   -1    0    0    0  501  0.00000000000E+00  0.00000000000E+00 -0.62891918766E+03  0.62891918768E+03  0.50400001928E-02 0. -1.
    10030    2    1    2    0    0  0.00000000000E+00  0.00000000000E+00 -0.48176305316E+03  0.77607532226E+03  0.60843838343E+03 0.  0.
        2    1    3    3  502    0 -0.83704631030E+02  0.25550416960E+02  0.13075261679E+03  0.15733892038E+03  0.25500000920E-02 0.  1.
       -2    1    3    3    0  502  0.83704631030E+02 -0.25550416960E+02 -0.61251566995E+03  0.61873640188E+03  0.25500000920E-02 0. -1.
</event>
<event>
 5   0  0.2309055E-02  0.5984112E+03  0.7818609E-02  0.9908708E-01
       -1   -1    0    0    0  501  0.00000000000E+00  0.00000000000E+00  0.74948477262E+02  0.74948477432E+02  0.50400001928E-02 0. -1.
        1   -1    0    0  501    0  0.00000000000E+00  0.00000000000E+00 -0.11944739574E+04  0.11944739574E+04  0.50400001928E-02 0.  1.
    10030    2    1    2    0    0  0.00000000000E+00  0.00000000000E+00 -0.11195254801E+04  0.12694224348E+04  0.59841124438E+03 0.  0.
        4    1    3    3  502    0  0.17236475180E+03  0.11168053705E+03 -0.10213158251E+04  0.10417628221E+04  0.12699999809E+01 0.  1.
       -4    1    3    3    0  502 -0.17236475180E+03 -0.11168053705E+03 -0.98209654997E+02  0.22765961270E+03  0.12699999809E+01 0. -1.
</event>
<event>
 5   0  0.3798925E-02  0.5992505E+03  0.7818609E-02  0.9906962E-01
       -2   -1    0    0    0  501  0.00000000000E+00  0.00000000000E+00  0.94478121148E+02  0.94478121182E+02  0.25500000920E-02 0. -1.
        2   -1    0    0  501    0  0.00000000000E+00  0.00000000000E+00 -0.95022315167E+03  0.95022315167E+03  0.25500000920E-02 0.  1.
    10030    2    1    2    0    0  0.00000000000E+00  0.00000000000E+00 -0.85574503052E+03  0.10447012729E+04  0.59925052544E+03 0.  0.
        2    1    3    3  502    0 -0.17119292936E+03 -0.12240261578E+03 -0.56061720484E+02  0.21778965982E+03  0.25500000920E-02 0. -1.
       -2    1    3    3    0  502  0.17119292936E+03  0.12240261578E+03 -0.79968331004E+03  0.82691161304E+03  0.25500000920E-02 0.  1.
</event>
<event>
 5   0  0.2276105E-02  0.5959979E+03  0.7818609E-02  0.9913744E-01
       -1   -1    0    0    0  501  0.00000000000E+00  0.00000000000E+00  0.46417932596E+02  0.46417932870E+02  0.50400001928E-02 0. -1.
        1   -1    0    0  501    0  0.00000000000E+00  0.00000000000E+00 -0.19131267107E+04  0.19131267108E+04  0.50400001928E-02 0.  1.
    10030    2    1    2    0    0  0.00000000000E+00  0.00000000000E+00 -0.18667087782E+04  0.19595446436E+04  0.59599794289E+03 0.  0.
        1    1    3    3  502    0  0.13893344114E+03 -0.16265095011E+02 -0.17984765345E+04  0.18039082292E+04  0.50400001928E-02 0.  1.
       -1    1    3    3    0  502 -0.13893344114E+03  0.16265095011E+02 -0.68232243661E+02  0.15563641438E+03  0.50400001928E-02 0. -1.
</event>
<event>
 5   0  0.3798925E-02  0.6005034E+03  0.7818609E-02  0.9904362E-01
       -2   -1    0    0    0  501  0.00000000000E+00  0.00000000000E+00  0.92475520991E+02  0.92475521027E+02  0.25500000920E-02 0. -1.
        2   -1    0    0  501    0  0.00000000000E+00  0.00000000000E+00 -0.97486419354E+03  0.97486419354E+03  0.25500000920E-02 0.  1.
    10030    2    1    2    0    0  0.00000000000E+00  0.00000000000E+00 -0.88238867255E+03  0.10673397146E+04  0.60050336956E+03 0.  0.
        2    1    3    3  502    0 -0.47768769702E+02 -0.57667439544E+02 -0.95800064689E+03  0.96092280044E+03  0.25500000920E-02 0.  1.
       -2    1    3    3    0  502  0.47768769702E+02  0.57667439544E+02  0.75611974347E+02  0.10641691413E+03  0.25500000920E-02 0. -1.
</event>
<event>
 5   0  0.3798925E-02  0.5977950E+03  0.7818609E-02  0.9909991E-01
       -2   -1    0    0    0  501  0.00000000000E+00  0.00000000000E+00  0.12471525993E+03  0.12471525995E+03  0.25500000920E-02 0.  1.
        2   -1    0    0  501    0  0.00000000000E+00  0.00000000000E+00 -0.71634945638E+03  0.71634945638E+03  0.25500000920E-02 0. -1.
    10030    2    1    2    0    0  0.00000000000E+00  0.00000000000E+00 -0.59163419645E+03  0.84106471634E+03  0.59779497711E+03 0.  0.
        2    1    3    3  502    0 -0.20665349607E+03 -0.51333344538E+02 -0.69739534776E+00  0.21293488692E+03  0.25500000920E-02 0.  1.
       -2    1    3    3    0  502  0.20665349607E+03  0.51333344538E+02 -0.59093680110E+03  0.62812982942E+03  0.25500000920E-02 0. -1.
</event>
<event>
 5   0  0.3798925E-02  0.5934241E+03  0.7818609E-02  0.9919144E-01
       -2   -1    0    0    0  501  0.00000000000E+00  0.00000000000E+00  0.60888593677E+03  0.60888593678E+03  0.25500000920E-02 0.  1.
        2   -1    0    0  501    0  0.00000000000E+00  0.00000000000E+00 -0.14458870634E+03  0.14458870637E+03  0.25500000920E-02 0. -1.
    10030    2    1    2    0    0  0.00000000000E+00  0.00000000000E+00  0.46429723043E+03  0.75347464314E+03  0.59342406395E+03 0.  0.
        2    1    3    3  502    0  0.18315729841E+03  0.12028915089E+03  0.48615967882E+03  0.53326101405E+03  0.25500000920E-02 0.  1.
       -2    1    3    3    0  502 -0.18315729841E+03 -0.12028915089E+03 -0.21862448395E+02  0.22021362910E+03  0.25500000920E-02 0. -1.
</event>
<event>
 5   0  0.3934634E-02  0.6083554E+03  0.7818609E-02  0.9888221E-01
       -2   -1    0    0    0  501  0.00000000000E+00  0.00000000000E+00  0.12621585757E+03  0.12621585760E+03  0.25500000920E-02 0. -1.
        2   -1    0    0  501    0  0.00000000000E+00  0.00000000000E+00 -0.73306224232E+03  0.73306224233E+03  0.25500000920E-02 0.  1.
    10030    2    1    2    0    0  0.00000000000E+00  0.00000000000E+00 -0.60684638475E+03  0.85927809993E+03  0.60835542106E+03 0.  0.
        1    1    3    3  502    0  0.23058674498E+03 -0.11750908135E+03 -0.52917598219E+03  0.58907202557E+03  0.50400001928E-02 0.  1.
       -1    1    3    3    0  502 -0.23058674498E+03  0.11750908135E+03 -0.77670402562E+02  0.27020607436E+03  0.50400001928E-02 0. -1.
</event>
<event>
 5   0  0.2225808E-02  0.6031451E+03  0.7818609E-02  0.9898902E-01
        1   -1    0    0  501    0  0.00000000000E+00  0.00000000000E+00  0.11330275887E+03  0.11330275898E+03  0.50400001928E-02 0.  1.
       -1   -1    0    0    0  501  0.00000000000E+00  0.00000000000E+00 -0.80268128486E+03  0.80268128487E+03  0.50400001928E-02 0. -1.
    10030    2    1    2    0    0  0.00000000000E+00  0.00000000000E+00 -0.68937852599E+03  0.91598404386E+03  0.60314510402E+03 0.  0.
        2    1    3    3  502    0 -0.39231229426E+02  0.76822634967E+02 -0.78354608663E+03  0.78827994804E+03  0.25500000920E-02 0. -1.
       -2    1    3    3    0  502  0.39231229426E+02 -0.76822634967E+02  0.94167560639E+02  0.12770409582E+03  0.25500000920E-02 0.  1.
</event>
<event>
 5   0  0.3724066E-02  0.6012828E+03  0.7818609E-02  0.9902748E-01
       -2   -1    0    0    0  501  0.00000000000E+00  0.00000000000E+00  0.15623986622E+03  0.15623986624E+03  0.25500000920E-02 0. -1.
        2   -1    0    0  501    0  0.00000000000E+00  0.00000000000E+00 -0.57850312818E+03  0.57850312819E+03  0.25500000920E-02 0.  1.
    10030    2    1    2    0    0  0.00000000000E+00  0.00000000000E+00 -0.42226326196E+03  0.73474299443E+03  0.60128279990E+03 0.  0.
        4    1    3    3  502    0  0.23207367280E+03  0.19825199654E+02 -0.44340805957E+03  0.50086280391E+03  0.12699999809E+01 0.  1.
       -4    1    3    3    0  502 -0.23207367280E+03 -0.19825199654E+02  0.21144797614E+02  0.23388019051E+03  0.12699999809E+01 0. -1.
</event>
<event>
 5   0  0.3737642E-02  0.5883124E+03  0.7818609E-02  0.9929955E-01
        2   -1    0    0  501    0  0.00000000000E+00  0.00000000000E+00  0.55976809777E+03  0.55976809778E+03  0.25500000920E-02 0.  1.
       -2   -1    0    0    0  501  0.00000000000E+00  0.00000000000E+00 -0.15457804728E+03  0.15457804730E+03  0.25500000920E-02 0. -1.
    10030    2    1    2    0    0  0.00000000000E+00  0.00000000000E+00  0.40519005049E+03  0.71434614508E+03  0.58831236428E+03 0.  0.
        5    1    3    3  502    0  0.44287669136E+02 -0.21267120044E+03  0.44335356761E+03  0.49373567123E+03  0.46999998093E+01 0.  1.
       -5    1    3    3    0  502 -0.44287669136E+02  0.21267120044E+03 -0.38163517112E+02  0.22061047385E+03  0.46999998093E+01 0. -1.
</event>
<event>
 5   0  0.2295179E-02  0.6014619E+03  0.7818609E-02  0.9902378E-01
       -1   -1    0    0    0  501  0.00000000000E+00  0.00000000000E+00  0.35400224025E+03  0.35400224029E+03  0.50400001928E-02 0. -1.
        1   -1    0    0  501    0  0.00000000000E+00  0.00000000000E+00 -0.25547608816E+03  0.25547608821E+03  0.50400001928E-02 0.  1.
    10030    2    1    2    0    0  0.00000000000E+00  0.00000000000E+00  0.98526152086E+02  0.60947832850E+03  0.60146191090E+03 0.  0.
        3    1    3    3  502    0 -0.26129355201E+02 -0.24668753552E+03  0.22153368391E+03  0.33258783305E+03  0.10100000352E+00 0. -1.
       -3    1    3    3    0  502  0.26129355201E+02  0.24668753552E+03 -0.12300753182E+03  0.27689049545E+03  0.10100000352E+00 0.  1.
</event>
<event>
 5   0  0.3737642E-02  0.5978132E+03  0.7818609E-02  0.9909953E-01
       -2   -1    0    0    0  501  0.00000000000E+00  0.00000000000E+00  0.15736600135E+03  0.15736600137E+03  0.25500000920E-02 0. -1.
        2   -1    0    0  501    0  0.00000000000E+00  0.00000000000E+00 -0.56775394639E+03  0.56775394640E+03  0.25500000920E-02 0.  1.
    10030    2    1    2    0    0  0.00000000000E+00  0.00000000000E+00 -0.41038794504E+03  0.72511994777E+03  0.59781324276E+03 0.  0.
        5    1    3    3  502    0  0.15326497293E+03 -0.24493240258E+03 -0.29789607426E+03  0.41502553513E+03  0.46999998093E+01 0. -1.
       -5    1    3    3    0  502 -0.15326497293E+03  0.24493240258E+03 -0.11249187079E+03  0.31009441264E+03  0.46999998093E+01 0.  1.
</event>
<event>
 5   0  0.2295179E-02  0.6057680E+03  0.7818609E-02  0.9893511E-01
        1   -1    0    0  501    0  0.00000000000E+00  0.00000000000E+00  0.67020530728E+03  0.67020530730E+03  0.50400001928E-02 0. -1.
       -1   -1    0    0    0  501  0.00000000000E+00  0.00000000000E+00 -0.13688150717E+03  0.13688150726E+03  0.50400001928E-02 0.  1.
    10030    2    1    2    0    0  0.00000000000E+00  0.00000000000E+00  0.53332380011E+03  0.80708681456E+03  0.60576798403E+03 0.  0.
        3    1    3    3  502    0 -0.15781508070E+03 -0.16533988075E+03  0.53144455925E+03  0.57851206178E+03  0.10100000352E+00 0. -1.
       -3    1    3    3    0  502  0.15781508070E+03  0.16533988075E+03  0.18792408630E+01  0.22857475278E+03  0.10100000352E+00 0.  1.
</event>
<event>
 5   0  0.3737642E-02  0.5927098E+03  0.7818609E-02  0.9920647E-01
       -2   -1    0    0    0  501  0.00000000000E+00  0.00000000000E+00  0.20093122097E+03  0.20093122099E+03  0.25500000920E-02 0. -1.
        2   -1    0    0  501    0  0.00000000000E+00  0.00000000000E+00 -0.43709597084E+03  0.43709597085E+03  0.25500000920E-02 0.  1.
    10030    2    1    2    0    0  0.00000000000E+00  0.00000000000E+00 -0.23616474987E+03  0.63802719184E+03  0.59270980120E+03 0.  0.
        5    1    3    3  502    0 -0.35646658171E+02  0.27086452455E+03 -0.24159795210E+03  0.36473269027E+03  0.46999998093E+01 0.  1.
       -5    1    3    3    0  502  0.35646658171E+02 -0.27086452455E+03  0.54332022244E+01  0.27329450156E+03  0.46999998093E+01 0. -1.
</event>
<event>
 5   0  0.3798925E-02  0.6049621E+03  0.7818609E-02  0.9895165E-01
        2   -1    0    0  501    0  0.00000000000E+00  0.00000000000E+00  0.89017477114E+03  0.89017477114E+03  0.25500000920E-02 0.  1.
       -2   -1    0    0    0  501  0.00000000000E+00  0.00000000000E+00 -0.10278293136E+03  0.10278293139E+03  0.25500000920E-02 0. -1.
    10030    2    1    2    0    0  0.00000000000E+00  0.00000000000E+00  0.78739183978E+03  0.99295770253E+03  0.60496205639E+03 0.  0.
        2    1    3    3  502    0  0.66928977077E+02 -0.25191618900E+03  0.64559727624E+03  0.69623063517E+03  0.25500000920E-02 0.  1.
       -2    1    3    3    0  502 -0.66928977077E+02  0.25191618900E+03  0.14179456354E+03  0.29672706736E+03  0.25500000920E-02 0. -1.
</event>
<event>
 5   0  0.2276105E-02  0.5968950E+03  0.7818609E-02  0.9911869E-01
        1   -1    0    0  501    0  0.00000000000E+00  0.00000000000E+00  0.17046204256E+04  0.17046204256E+04  0.50400001928E-02 0. -1.
       -1   -1    0    0    0  501  0.00000000000E+00  0.00000000000E+00 -0.52252631200E+02  0.52252631444E+02  0.50400001928E-02 0.  1.
    10030    2    1    2    0    0  0.00000000000E+00  0.00000000000E+00  0.16523677944E+04  0.17568730571E+04  0.59689497454E+03 0.  0.
        1    1    3    3  502    0  0.26288588982E+03  0.11963759529E+03  0.10474011121E+04  0.10864949309E+04  0.50400001928E-02 0.  1.
       -1    1    3    3    0  502 -0.26288588982E+03 -0.11963759529E+03  0.60496668235E+03  0.67037812618E+03  0.50400001928E-02 0. -1.
</event>
<event>
 5   0  0.2276105E-02  0.5979841E+03  0.7818609E-02  0.9909597E-01
        1   -1    0    0  501    0  0.00000000000E+00  0.00000000000E+00  0.93752401752E+03  0.93752401753E+03  0.50400001928E-02 0. -1.
       -1   -1    0    0    0  501  0.00000000000E+00  0.00000000000E+00 -0.95353553132E+02  0.95353553265E+02  0.50400001928E-02 0.  1.
    10030    2    1    2    0    0  0.00000000000E+00  0.00000000000E+00  0.84217046438E+03  0.10328775708E+04  0.59798410110E+03 0.  0.
        1    1    3    3  502    0 -0.15293746896E+03 -0.93447678518E+02  0.77165036485E+01  0.17939309487E+03  0.50400001928E-02 0.  1.
       -1    1    3    3    0  502  0.15293746896E+03  0.93447678518E+02  0.83445396073E+03  0.85348447592E+03  0.50400001928E-02 0. -1.
</event>
<event>
 5   0  0.3724066E-02  0.6027494E+03  0.7818609E-02  0.9899718E-01
       -2   -1    0    0    0  501  0.00000000000E+00  0.00000000000E+00  0.14150678601E+03  0.14150678604E+03  0.25500000920E-02 0.  1.
        2   -1    0    0  501    0  0.00000000000E+00  0.00000000000E+00 -0.64185400966E+03  0.64185400967E+03  0.25500000920E-02 0. -1.
    10030    2    1    2    0    0  0.00000000000E+00  0.00000000000E+00 -0.50034722365E+03  0.78336079571E+03  0.60274936087E+03 0.  0.
        4    1    3    3  502    0 -0.13395455140E+03 -0.31530259098E+02 -0.59863172015E+03  0.61424712319E+03  0.12699999809E+01 0. -1.
       -4    1    3    3    0  502  0.13395455140E+03  0.31530259098E+02  0.98284496500E+02  0.16911367251E+03  0.12699999809E+01 0.  1.
</event>
<event>
 5   0  0.3724066E-02  0.5982541E+03  0.7818609E-02  0.9909035E-01
       -2   -1    0    0    0  501  0.00000000000E+00  0.00000000000E+00  0.13712557000E+03  0.13712557002E+03  0.25500000920E-02 0.  1.
        2   -1    0    0  501    0  0.00000000000E+00  0.00000000000E+00 -0.65251860949E+03  0.65251860950E+03  0.25500000920E-02 0. -1.
    10030    2    1    2    0    0  0.00000000000E+00  0.00000000000E+00 -0.51539303949E+03  0.78964417952E+03  0.59825408071E+03 0.  0.
        4    1    3    3  502    0  0.73306547905E+02 -0.24640317381E+03 -0.45954850290E+03  0.52656890665E+03  0.12699999809E+01 0. -1.
       -4    1    3    3    0  502 -0.73306547905E+02  0.24640317381E+03 -0.55844536593E+02  0.26307527287E+03  0.12699999809E+01 0.  1.
</event>
<event>
 5   0  0.3934634E-02  0.6021136E+03  0.7818609E-02  0.9901031E-01
       -2   -1    0    0    0  501  0.00000000000E+00  0.00000000000E+00  0.56457810700E+02  0.56457810757E+02  0.25500000920E-02 0.  1.
        2   -1    0    0  501    0  0.00000000000E+00  0.00000000000E+00 -0.16053614194E+04  0.16053614194E+04  0.25500000920E-02 0. -1.
    10030    2    1    2    0    0  0.00000000000E+00  0.00000000000E+00 -0.15489036087E+04  0.16618192301E+04  0.60211358121E+03 0.  0.
        1    1    3    3  502    0  0.13086288783E+03 -0.70965702334E+01 -0.26402826315E+02  0.13368831656E+03  0.50400001928E-02 0.  1.
       -1    1    3    3    0  502 -0.13086288783E+03  0.70965702334E+01 -0.15225007824E+04  0.15281309136E+04  0.50400001928E-02 0. -1.
</event>
<event>
 5   0  0.3737642E-02  0.6016580E+03  0.7818609E-02  0.9901972E-01
       -2   -1    0    0    0  501  0.00000000000E+00  0.00000000000E+00  0.15344056740E+03  0.15344056742E+03  0.25500000920E-02 0. -1.
        2   -1    0    0  501    0  0.00000000000E+00  0.00000000000E+00 -0.58979244387E+03  0.58979244387E+03  0.25500000920E-02 0.  1.
    10030    2    1    2    0    0  0.00000000000E+00  0.00000000000E+00 -0.43635187647E+03  0.74323301129E+03  0.60165800001E+03 0.  0.
        5    1    3    3  502    0  0.12619450645E+03 -0.26613308544E+03 -0.29356136502E+03  0.41587526695E+03  0.46999998093E+01 0. -1.
       -5    1    3    3    0  502 -0.12619450645E+03  0.26613308544E+03 -0.14279051145E+03  0.32735774434E+03  0.46999998093E+01 0.  1.
</event>
<event>
 5   0  0.2295179E-02  0.5988310E+03  0.7818609E-02  0.9907834E-01
       -1   -1    0    0    0  501  0.00000000000E+00  0.00000000000E+00  0.33655751024E+03  0.33655751028E+03  0.50400001928E-02 0. -1.
        1   -1    0    0  501    0  0.00000000000E+00  0.00000000000E+00 -0.26637244241E+03  0.26637244246E+03  0.50400001928E-02 0.  1.
    10030    2    1    2    0    0  0.00000000000E+00  0.00000000000E+00  0.70185067826E+02  0.60292995274E+03  0.59883101469E+03 0.  0.
        3    1    3    3  502    0  0.17425293814E+02  0.21488705713E+03 -0.17410247721E+03  0.27711328182E+03  0.10100000352E+00 0.  1.
       -3    1    3    3    0  502 -0.17425293814E+02 -0.21488705713E+03  0.24428754504E+03  0.32581667092E+03  0.10100000352E+00 0. -1.
</event>
<event>
 5   0  0.2276105E-02  0.6002828E+03  0.7818609E-02  0.9904819E-01
        1   -1    0    0  501    0  0.00000000000E+00  0.00000000000E+00  0.14034302681E+04  0.14034302681E+04  0.50400001928E-02 0.  1.
       -1   -1    0    0    0  501  0.00000000000E+00  0.00000000000E+00 -0.64189058271E+02  0.64189058469E+02  0.50400001928E-02 0. -1.
    10030    2    1    2    0    0  0.00000000000E+00  0.00000000000E+00  0.13392412098E+04  0.14676193266E+04  0.60028282471E+03 0.  0.
        1    1    3    3  502    0 -0.13971782643E+02 -0.17364251990E+03  0.72059121611E+02  0.18851910370E+03  0.50400001928E-02 0. -1.
       -1    1    3    3    0  502  0.13971782643E+02  0.17364251990E+03  0.12671820882E+04  0.12791002229E+04  0.50400001928E-02 0.  1.
</event>
<event>
 5   0  0.3798925E-02  0.5986870E+03  0.7818609E-02  0.9908134E-01
        2   -1    0    0  501    0  0.00000000000E+00  0.00000000000E+00  0.60683524413E+03  0.60683524414E+03  0.25500000920E-02 0. -1.
       -2   -1    0    0    0  501  0.00000000000E+00  0.00000000000E+00 -0.14766206352E+03  0.14766206354E+03  0.25500000920E-02 0.  1.
    10030    2    1    2    0    0  0.00000000000E+00  0.00000000000E+00  0.45917318061E+03  0.75449730768E+03  0.59868704471E+03 0.  0.
        2    1    3    3  502    0  0.18842117427E+03  0.16465610156E+03  0.22535094264E+02  0.25124092257E+03  0.25500000920E-02 0.  1.
       -2    1    3    3    0  502 -0.18842117427E+03 -0.16465610156E+03  0.43663808635E+03  0.50325638511E+03  0.25500000920E-02 0. -1.
</event>
<event>
 5   0  0.2382531E-02  0.6042365E+03  0.7818609E-02  0.9896655E-01
       -1   -1    0    0    0  501  0.00000000000E+00  0.00000000000E+00  0.22062399603E+03  0.22062399609E+03  0.50400001928E-02 0.  1.
        1   -1    0    0  501    0  0.00000000000E+00  0.00000000000E+00 -0.41371496721E+03  0.41371496724E+03  0.50400001928E-02 0. -1.
    10030    2    1    2    0    0  0.00000000000E+00  0.00000000000E+00 -0.19309097118E+03  0.63433896333E+03  0.60423654081E+03 0.  0.
        5    1    3    3  502    0  0.21792219172E+03  0.49732808634E+02  0.11677690989E+03  0.25223475292E+03  0.46999998093E+01 0.  1.
       -5    1    3    3    0  502 -0.21792219172E+03 -0.49732808634E+02 -0.30986788107E+03  0.38210421041E+03  0.46999998093E+01 0. -1.
</event>
<event>
 5   0  0.2276105E-02  0.6022678E+03  0.7818609E-02  0.9900712E-01
        1   -1    0    0  501    0  0.00000000000E+00  0.00000000000E+00  0.58345173668E+03  0.58345173670E+03  0.50400001928E-02 0. -1.
       -1   -1    0    0    0  501  0.00000000000E+00  0.00000000000E+00 -0.15542265806E+03  0.15542265815E+03  0.50400001928E-02 0.  1.
    10030    2    1    2    0    0  0.00000000000E+00  0.00000000000E+00  0.42802907862E+03  0.73887439485E+03  0.60226778033E+03 0.  0.
        1    1    3    3  502    0 -0.14699020825E+03  0.17249345297E+03  0.45728874552E+03  0.51036566248E+03  0.50400001928E-02 0. -1.
       -1    1    3    3    0  502  0.14699020825E+03 -0.17249345297E+03 -0.29259666896E+02  0.22850873237E+03  0.50400001928E-02 0.  1.
</event>
<event>
 5   0  0.2225808E-02  0.6002919E+03  0.7818609E-02  0.9904801E-01
       -1   -1    0    0    0  501  0.00000000000E+00  0.00000000000E+00  0.65476184293E+03  0.65476184295E+03  0.50400001928E-02 0. -1.
        1   -1    0    0  501    0  0.00000000000E+00  0.00000000000E+00 -0.13758831947E+03  0.13758831957E+03  0.50400001928E-02 0.  1.
    10030    2    1    2    0    0  0.00000000000E+00  0.00000000000E+00  0.51717352345E+03  0.79235016251E+03  0.60029186790E+03 0.  0.
        2    1    3    3  502    0  0.19935953730E+03  0.10669093061E+03  0.51912196031E+03  0.56622856646E+03  0.25500000920E-02 0. -1.
       -2    1    3    3    0  502 -0.19935953730E+03 -0.10669093061E+03 -0.19484368583E+01  0.22612159605E+03  0.25500000920E-02 0.  1.
</event>
<event>
 5   0  0.3798925E-02  0.5997239E+03  0.7818609E-02  0.9905979E-01
        2   -1    0    0  501    0  0.00000000000E+00  0.00000000000E+00  0.20231433149E+04  0.20231433149E+04  0.25500000920E-02 0.  1.
       -2   -1    0    0    0  501  0.00000000000E+00  0.00000000000E+00 -0.44444295636E+02  0.44444295709E+02  0.25500000920E-02 0. -1.
    10030    2    1    2    0    0  0.00000000000E+00  0.00000000000E+00  0.19786990193E+04  0.20675876106E+04  0.59972386873E+03 0.  0.
        2    1    3    3  502    0 -0.56079120134E+02 -0.16961836504E+03  0.15905191372E+03  0.23919190776E+03  0.25500000920E-02 0. -1.
       -2    1    3    3    0  502  0.56079120134E+02  0.16961836504E+03  0.18196471056E+04  0.18283957029E+04  0.25500000920E-02 0.  1.
</event>
<event>
 5   0  0.3832191E-02  0.6015091E+03  0.7818609E-02  0.9902280E-01
       -2   -1    0    0    0  501  0.00000000000E+00  0.00000000000E+00  0.11397072662E+03  0.11397072664E+03  0.25500000920E-02 0.  1.
        2   -1    0    0  501    0  0.00000000000E+00  0.00000000000E+00 -0.79365382850E+03  0.79365382850E+03  0.25500000920E-02 0. -1.
    10030    2    1    2    0    0  0.00000000000E+00  0.00000000000E+00 -0.67968310189E+03  0.90762455515E+03  0.60150911391E+03 0.  0.
        3    1    3    3  502    0  0.75819672783E+02  0.27983988721E+03 -0.21918225049E+03  0.36345543659E+03  0.10100000352E+00 0. -1.
       -3    1    3    3    0  502 -0.75819672783E+02 -0.27983988721E+03 -0.46050085140E+03  0.54416911856E+03  0.10100000352E+00 0.  1.
</event>
<event>
 5   0  0.2382531E-02  0.6031172E+03  0.7818609E-02  0.9898960E-01
        1   -1    0    0  501    0  0.00000000000E+00  0.00000000000E+00  0.11570779124E+04  0.11570779124E+04  0.50400001928E-02 0.  1.
       -1   -1    0    0    0  501  0.00000000000E+00  0.00000000000E+00 -0.78592457499E+02  0.78592457660E+02  0.50400001928E-02 0. -1.
    10030    2    1    2    0    0  0.00000000000E+00  0.00000000000E+00  0.10784854549E+04  0.12356703701E+04  0.60311722496E+03 0.  0.
        5    1    3    3  502    0  0.23642849246E+03 -0.72443009148E+02  0.18574742656E+03  0.30930667321E+03  0.46999998093E+01 0. -1.
       -5    1    3    3    0  502 -0.23642849246E+03  0.72443009148E+02  0.89273802836E+03  0.92636369688E+03  0.46999998093E+01 0.  1.
</event>
<event>
 5   0  0.2276105E-02  0.5970345E+03  0.7818609E-02  0.9911578E-01
        1   -1    0    0  501    0  0.00000000000E+00  0.00000000000E+00  0.54356499069E+03  0.54356499072E+03  0.50400001928E-02 0.  1.
       -1   -1    0    0    0  501  0.00000000000E+00  0.00000000000E+00 -0.16394093830E+03  0.16394093838E+03  0.50400001928E-02 0. -1.
    10030    2    1    2    0    0  0.00000000000E+00  0.00000000000E+00  0.37962405239E+03  0.70750592909E+03  0.59703452040E+03 0.  0.
        1    1    3    3  502    0 -0.28255207818E+03 -0.11526005577E+02  0.30313016598E+03  0.41455569378E+03  0.50400001928E-02 0. -1.
       -1    1    3    3    0  502  0.28255207818E+03  0.11526005577E+02  0.76493886410E+02  0.29295023532E+03  0.50400001928E-02 0.  1.
</event>
<event>
 5   0  0.2295179E-02  0.5985498E+03  0.7818609E-02  0.9908419E-01
       -1   -1    0    0    0  501  0.00000000000E+00  0.00000000000E+00  0.18453253846E+03  0.18453253853E+03  0.50400001928E-02 0. -1.
        1   -1    0    0  501    0  0.00000000000E+00  0.00000000000E+00 -0.48536405429E+03  0.48536405432E+03  0.50400001928E-02 0.  1.
    10030    2    1    2    0    0  0.00000000000E+00  0.00000000000E+00 -0.30083151583E+03  0.66989659285E+03  0.59854978423E+03 0.  0.
        3    1    3    3  502    0 -0.12499606345E+03 -0.77231718362E+02 -0.44221725681E+03  0.46598805416E+03  0.10100000352E+00 0.  1.
       -3    1    3    3    0  502  0.12499606345E+03  0.77231718362E+02  0.14138574098E+03  0.20390853869E+03  0.10100000352E+00 0. -1.
</event>
<event>
 5   0  0.3737642E-02  0.5965356E+03  0.7818609E-02  0.9912620E-01
        2   -1    0    0  501    0  0.00000000000E+00  0.00000000000E+00  0.92016032924E+03  0.92016032925E+03  0.25500000920E-02 0. -1.
       -2   -1    0    0    0  501  0.00000000000E+00  0.00000000000E+00 -0.96682809016E+02  0.96682809050E+02  0.25500000920E-02 0.  1.
    10030    2    1    2    0    0  0.00000000000E+00  0.00000000000E+00  0.82347752023E+03  0.10168431383E+04  0.59653561636E+03 0.  0.
        5    1    3    3  502    0 -0.64125253412E+02  0.10146361192E+03  0.87710705024E+03  0.88529417724E+03  0.46999998093E+01 0. -1.
       -5    1    3    3    0  502  0.64125253412E+02 -0.10146361192E+03 -0.53629530014E+02  0.13154896106E+03  0.46999998093E+01 0.  1.
</event>
<event>
 5   0  0.2382531E-02  0.6036793E+03  0.7818609E-02  0.9897802E-01
        1   -1    0    0  501    0  0.00000000000E+00  0.00000000000E+00  0.39827127593E+03  0.39827127596E+03  0.50400001928E-02 0. -1.
       -1   -1    0    0    0  501  0.00000000000E+00  0.00000000000E+00 -0.22875656548E+03  0.22875656553E+03  0.50400001928E-02 0.  1.
    10030    2    1    2    0    0  0.00000000000E+00  0.00000000000E+00  0.16951471045E+03  0.62702784150E+03  0.60367928319E+03 0.  0.
        5    1    3    3  502    0 -0.19937148373E+03  0.20558373798E+03 -0.14170393905E+02  0.28676916136E+03  0.46999998093E+01 0.  1.
       -5    1    3    3    0  502  0.19937148373E+03 -0.20558373798E+03  0.18368510436E+03  0.34025868014E+03  0.46999998093E+01 0. -1.
</event>
<event>
 5   0  0.3798925E-02  0.5938710E+03  0.7818609E-02  0.9918204E-01
       -2   -1    0    0    0  501  0.00000000000E+00  0.00000000000E+00  0.46539496287E+02  0.46539496357E+02  0.25500000920E-02 0.  1.
        2   -1    0    0  501    0  0.00000000000E+00  0.00000000000E+00 -0.18945348994E+04  0.18945348994E+04  0.25500000920E-02 0. -1.
    10030    2    1    2    0    0  0.00000000000E+00  0.00000000000E+00 -0.18479954031E+04  0.19410743958E+04  0.59387102972E+03 0.  0.
        2    1    3    3  502    0 -0.60918134492E+02 -0.29318446007E+02 -0.18690448246E+04  0.18702671325E+04  0.25500000920E-02 0. -1.
       -2    1    3    3    0  502  0.60918134492E+02  0.29318446007E+02  0.21049421477E+02  0.70807263309E+02  0.25500000920E-02 0.  1.
</event>
<event>
 5   0  0.3798925E-02  0.5985138E+03  0.7818609E-02  0.9908494E-01
       -2   -1    0    0    0  501  0.00000000000E+00  0.00000000000E+00  0.14959517461E+03  0.14959517463E+03  0.25500000920E-02 0. -1.
        2   -1    0    0  501    0  0.00000000000E+00  0.00000000000E+00 -0.59864697586E+03  0.59864697586E+03  0.25500000920E-02 0.  1.
    10030    2    1    2    0    0  0.00000000000E+00  0.00000000000E+00 -0.44905180125E+03  0.74824215049E+03  0.59851382237E+03 0.  0.
        2    1    3    3  502    0 -0.18190957585E+03 -0.18328603517E+03 -0.35465969683E+02  0.26065820433E+03  0.25500000920E-02 0. -1.
       -2    1    3    3    0  502  0.18190957585E+03  0.18328603517E+03 -0.41358583157E+03  0.48758394616E+03  0.25500000920E-02 0.  1.
</event>
<event>
 5   0  0.3737642E-02  0.6088006E+03  0.7818609E-02  0.9887314E-01
       -2   -1    0    0    0  501  0.00000000000E+00  0.00000000000E+00  0.32425402108E+03  0.32425402109E+03  0.25500000920E-02 0.  1.
        2   -1    0    0  501    0  0.00000000000E+00  0.00000000000E+00 -0.28576222085E+03  0.28576222086E+03  0.25500000920E-02 0. -1.
    10030    2    1    2    0    0  0.00000000000E+00  0.00000000000E+00  0.38491800227E+02  0.61001624194E+03  0.60880062151E+03 0.  0.
        5    1    3    3  502    0  0.43446767838E+02 -0.23958795585E+03 -0.16373157041E+03  0.29346230996E+03  0.46999998093E+01 0. -1.
       -5    1    3    3    0  502 -0.43446767838E+02  0.23958795585E+03  0.20222337064E+03  0.31655393198E+03  0.46999998093E+01 0.  1.
</event>
<event>
 5   0  0.3934634E-02  0.5983209E+03  0.7818609E-02  0.9908896E-01
       -2   -1    0    0    0  501  0.00000000000E+00  0.00000000000E+00  0.93382269489E+02  0.93382269524E+02  0.25500000920E-02 0.  1.
        2   -1    0    0  501    0  0.00000000000E+00  0.00000000000E+00 -0.95839356148E+03  0.95839356148E+03  0.25500000920E-02 0. -1.
    10030    2    1    2    0    0  0.00000000000E+00  0.00000000000E+00 -0.86501129199E+03  0.10517758310E+04  0.59832086995E+03 0.  0.
        1    1    3    3  502    0  0.94505406953E+02  0.14384332213E+03 -0.86264684967E+03  0.87964865744E+03  0.50400001928E-02 0. -1.
       -1    1    3    3    0  502 -0.94505406953E+02 -0.14384332213E+03 -0.23644423155E+01  0.17212717356E+03  0.50400001928E-02 0.  1.
</event>
<event>
 5   0  0.3798925E-02  0.6018029E+03  0.7818609E-02  0.9901673E-01
       -2   -1    0    0    0  501  0.00000000000E+00  0.00000000000E+00  0.31858309658E+03  0.31858309659E+03  0.25500000920E-02 0. -1.
        2   -1    0    0  501    0  0.00000000000E+00  0.00000000000E+00 -0.28420113510E+03  0.28420113511E+03  0.25500000920E-02 0.  1.
    10030    2    1    2    0    0  0.00000000000E+00  0.00000000000E+00  0.34381961483E+02  0.60278423170E+03  0.60180288361E+03 0.  0.
        2    1    3    3  502    0 -0.28642910393E+03  0.36613958630E+02  0.10194257518E+03  0.30622622713E+03  0.25500000920E-02 0. -1.
       -2    1    3    3    0  502  0.28642910393E+03 -0.36613958630E+02 -0.67560613695E+02  0.29655800457E+03  0.25500000920E-02 0.  1.
</event>
<event>
 5   0  0.3934634E-02  0.6000219E+03  0.7818609E-02  0.9905361E-01
        2   -1    0    0  501    0  0.00000000000E+00  0.00000000000E+00  0.78297042244E+03  0.78297042244E+03  0.25500000920E-02 0. -1.
       -2   -1    0    0    0  501  0.00000000000E+00  0.00000000000E+00 -0.11495526232E+03  0.11495526235E+03  0.25500000920E-02 0.  1.
    10030    2    1    2    0    0  0.00000000000E+00  0.00000000000E+00  0.66801516012E+03  0.89792568479E+03  0.60002190065E+03 0.  0.
        1    1    3    3  502    0 -0.14456908943E+03 -0.18148992930E+03  0.49408125301E+02  0.23723401722E+03  0.50400001928E-02 0.  1.
       -1    1    3    3    0  502  0.14456908943E+03  0.18148992930E+03  0.61860703482E+03  0.66069166757E+03  0.50400001928E-02 0. -1.
</event>
<event>
 5   0  0.2225808E-02  0.5988607E+03  0.7818609E-02  0.9907773E-01
        1   -1    0    0  501    0  0.00000000000E+00  0.00000000000E+00  0.69642769976E+03  0.69642769978E+03  0.50400001928E-02 0.  1.
       -1   -1    0    0    0  501  0.00000000000E+00  0.00000000000E+00 -0.12874061722E+03  0.12874061732E+03  0.50400001928E-02 0. -1.
    10030    2    1    2    0    0  0.00000000000E+00  0.00000000000E+00  0.56768708253E+03  0.82516831710E+03  0.59886069154E+03 0.  0.
        2    1    3    3  502    0 -0.26623530618E+03 -0.11403236703E+03  0.38854478823E+03  0.48461497238E+03  0.25500000920E-02 0.  1.
       -2    1    3    3    0  502  0.26623530618E+03  0.11403236703E+03  0.17914229431E+03  0.34055334472E+03  0.25500000920E-02 0. -1.
</event>
<event>
 5   0  0.2309055E-02  0.6080605E+03  0.7818609E-02  0.9888823E-01
        1   -1    0    0  501    0  0.00000000000E+00  0.00000000000E+00  0.71494048556E+03  0.71494048557E+03  0.50400001928E-02 0.  1.
       -1   -1    0    0    0  501  0.00000000000E+00  0.00000000000E+00 -0.12928962709E+03  0.12928962719E+03  0.50400001928E-02 0. -1.
    10030    2    1    2    0    0  0.00000000000E+00  0.00000000000E+00  0.58565085846E+03  0.84423011277E+03  0.60806048653E+03 0.  0.
        4    1    3    3  502    0 -0.52643278183E+02  0.14546119704E+03 -0.70559800759E+02  0.17003109411E+03  0.12699999809E+01 0. -1.
       -4    1    3    3    0  502  0.52643278183E+02 -0.14546119704E+03  0.65621065922E+03  0.67419901866E+03  0.12699999809E+01 0.  1.
</event>
<event>
 5   0  0.2309055E-02  0.5999240E+03  0.7818609E-02  0.9905564E-01
        1   -1    0    0  501    0  0.00000000000E+00  0.00000000000E+00  0.37429083346E+03  0.37429083350E+03  0.50400001928E-02 0. -1.
       -1   -1    0    0    0  501  0.00000000000E+00  0.00000000000E+00 -0.24039382491E+03  0.24039382496E+03  0.50400001928E-02 0.  1.
    10030    2    1    2    0    0  0.00000000000E+00  0.00000000000E+00  0.13389700856E+03  0.61468465845E+03  0.59992401222E+03 0.  0.
        4    1    3    3  502    0  0.14655375364E+03 -0.25564467402E+03  0.95031023133E+01  0.29482897401E+03  0.12699999809E+01 0.  1.
       -4    1    3    3    0  502 -0.14655375364E+03  0.25564467402E+03  0.12439390624E+03  0.31985568445E+03  0.12699999809E+01 0. -1.
</event>
<event>
 5   0  0.3724066E-02  0.5954685E+03  0.7818609E-02  0.9914852E-01
        2   -1    0    0  501    0  0.00000000000E+00  0.00000000000E+00  0.81307725058E+03  0.81307725058E+03  0.25500000920E-02 0. -1.
       -2   -1    0    0    0  501  0.00000000000E+00  0.00000000000E+00 -0.10902490857E+03  0.10902490860E+03  0.25500000920E-02 0.  1.
    10030    2    1    2    0    0  0.00000000000E+00  0.00000000000E+00  0.70405234201E+03  0.92210215918E+03  0.59546846404E+03 0.  0.
        4    1    3    3  502    0 -0.20795913410E+03 -0.17189011584E+03  0.54698661480E+03  0.60990915967E+03  0.12699999809E+01 0. -1.
       -4    1    3    3    0  502  0.20795913410E+03  0.17189011584E+03  0.15706572721E+03  0.31219299951E+03  0.12699999809E+01 0.  1.
</event>
<event>
 5   0  0.2382531E-02  0.5889166E+03  0.7818609E-02  0.9928671E-01
       -1   -1    0    0    0  501  0.00000000000E+00  0.00000000000E+00  0.34080667247E+03  0.34080667250E+03  0.50400001928E-02 0. -1.
        1   -1    0    0  501    0  0.00000000000E+00  0.00000000000E+00 -0.25441312991E+03  0.25441312996E+03  0.50400001928E-02 0.  1.
    10030    2    1    2    0    0  0.00000000000E+00  0.00000000000E+00  0.86393542553E+02  0.59521980247E+03  0.58891660620E+03 0.  0.
        5    1    3    3  502    0 -0.11484606013E+03 -0.23376458869E+03  0.18195456321E+03  0.31774998588E+03  0.46999998093E+01 0. -1.
       -5    1    3    3    0  502  0.11484606013E+03  0.23376458869E+03 -0.95561020658E+02  0.27746981659E+03  0.46999998093E+01 0.  1.
</event>
<event>
 5   0  0.2225808E-02  0.5947207E+03  0.7818609E-02  0.9916420E-01
       -1   -1    0    0    0  501  0.00000000000E+00  0.00000000000E+00  0.19361186276E+03  0.19361186283E+03  0.50400001928E-02 0. -1.
        1   -1    0    0  501    0  0.00000000000E+00  0.00000000000E+00 -0.45670337108E+03  0.45670337111E+03  0.50400001928E-02 0.  1.
    10030    2    1    2    0    0  0.00000000000E+00  0.00000000000E+00 -0.26309150832E+03  0.65031523394E+03  0.59472074265E+03 0.  0.
        2    1    3    3  502    0  0.12009305911E+03  0.24656095925E+02 -0.42778182473E+03  0.44500287133E+03  0.25500000920E-02 0.  1.
       -2    1    3    3    0  502 -0.12009305911E+03 -0.24656095925E+02  0.16469031641E+03  0.20531236261E+03  0.25500000920E-02 0. -1.
</event>
<event>
 5   0  0.2309055E-02  0.5962227E+03  0.7818609E-02  0.9913274E-01
       -1   -1    0    0    0  501  0.00000000000E+00  0.00000000000E+00  0.73120519169E+02  0.73120519343E+02  0.50400001928E-02 0.  1.
        1   -1    0    0  501    0  0.00000000000E+00  0.00000000000E+00 -0.12153958536E+04  0.12153958536E+04  0.50400001928E-02 0. -1.
    10030    2    1    2    0    0  0.00000000000E+00  0.00000000000E+00 -0.11422753344E+04  0.12885163729E+04  0.59622269641E+03 0.  0.
        4    1    3    3  502    0 -0.91514486048E+02  0.47477200175E+02 -0.11756361846E+04  0.11801487352E+04  0.12699999809E+01 0. -1.
       -4    1    3    3    0  502  0.91514486048E+02 -0.47477200175E+02  0.33360850172E+02  0.10836763778E+03  0.12699999809E+01 0.  1.
</event>
<event>
 5   0  0.2309055E-02  0.5961550E+03  0.7818609E-02  0.9913415E-01
        1   -1    0    0  501    0  0.00000000000E+00  0.00000000000E+00  0.72143253979E+03  0.72143253980E+03  0.50400001928E-02 0. -1.
       -1   -1    0    0    0  501  0.00000000000E+00  0.00000000000E+00 -0.12315801237E+03  0.12315801248E+03  0.50400001928E-02 0.  1.
    10030    2    1    2    0    0  0.00000000000E+00  0.00000000000E+00  0.59827452741E+03  0.84459055228E+03  0.59615500572E+03 0.  0.
        4    1    3    3  502    0  0.28250102070E+03 -0.46506349563E+02  0.18163477187E+03  0.33906116041E+03  0.12699999809E+01 0.  1.
       -4    1    3    3    0  502 -0.28250102070E+03  0.46506349563E+02  0.41663975554E+03  0.50552939187E+03  0.12699999809E+01 0. -1.
</event>
<event>
 5   0  0.3832191E-02  0.5995789E+03  0.7818609E-02  0.9906280E-01
        2   -1    0    0  501    0  0.00000000000E+00  0.00000000000E+00  0.36621687292E+03  0.36621687293E+03  0.25500000920E-02 0. -1.
       -2   -1    0    0    0  501  0.00000000000E+00  0.00000000000E+00 -0.24541121270E+03  0.24541121272E+03  0.25500000920E-02 0.  1.
    10030    2    1    2    0    0  0.00000000000E+00  0.00000000000E+00  0.12080566022E+03  0.61162808565E+03  0.59957894193E+03 0.  0.
        3    1    3    3  502    0 -0.53243689981E+02 -0.29112841863E+03  0.11661130796E+02  0.29618683095E+03  0.10100000352E+00 0.  1.
       -3    1    3    3    0  502  0.53243689981E+02  0.29112841863E+03  0.10914452942E+03  0.31544125469E+03  0.10100000352E+00 0. -1.
</event>
<event>
 5   0  0.2225808E-02  0.5933504E+03  0.7818609E-02  0.9919299E-01
       -1   -1    0    0    0  501  0.00000000000E+00  0.00000000000E+00  0.17530960406E+03  0.17530960414E+03  0.50400001928E-02 0. -1.
        1   -1    0    0  501    0  0.00000000000E+00  0.00000000000E+00 -0.50206130829E+03  0.50206130832E+03  0.50400001928E-02 0.  1.
    10030    2    1    2    0    0  0.00000000000E+00  0.00000000000E+00 -0.32675170423E+03  0.67737091245E+03  0.59335038284E+03 0.  0.
        2    1    3    3  502    0  0.91357756660E+02  0.53976236782E+02 -0.47965669308E+03  0.49125371964E+03  0.25500000920E-02 0.  1.
       -2    1    3    3    0  502 -0.91357756660E+02 -0.53976236782E+02  0.15290498885E+03  0.18611719281E+03  0.25500000920E-02 0. -1.
</event>
<event>
 5   0  0.3832191E-02  0.6218121E+03  0.7818609E-02  0.9861158E-01
       -2   -1    0    0    0  501  0.00000000000E+00  0.00000000000E+00  0.15466268025E+03  0.15466268027E+03  0.25500000920E-02 0.  1.
        2   -1    0    0  501    0  0.00000000000E+00  0.00000000000E+00 -0.62498960494E+03  0.62498960495E+03  0.25500000920E-02 0. -1.
    10030    2    1    2    0    0  0.00000000000E+00  0.00000000000E+00 -0.47032692469E+03  0.77965228522E+03  0.62181208556E+03 0.  0.
        3    1    3    3  502    0  0.27677709063E+03  0.11373237728E+03 -0.34097697371E+03  0.45365837184E+03  0.10100000352E+00 0.  1.
       -3    1    3    3    0  502 -0.27677709063E+03 -0.11373237728E+03 -0.12934995098E+03  0.32599391338E+03  0.10100000352E+00 0. -1.
</event>
<event>
 5   0  0.2382531E-02  0.6125134E+03  0.7818609E-02  0.9879779E-01
        1   -1    0    0  501    0  0.00000000000E+00  0.00000000000E+00  0.12786817074E+04  0.12786817074E+04  0.50400001928E-02 0. -1.
       -1   -1    0    0    0  501  0.00000000000E+00  0.00000000000E+00 -0.73351468406E+02  0.73351468579E+02  0.50400001928E-02 0.  1.
    10030    2    1    2    0    0  0.00000000000E+00  0.00000000000E+00  0.12053302390E+04  0.13520331760E+04  0.61251344797E+03 0.  0.
        5    1    3    3  502    0  0.29123987869E+00 -0.17733586848E+03  0.51608934569E+02  0.18475298968E+03  0.46999998093E+01 0.  1.
       -5    1    3    3    0  502 -0.29123987869E+00  0.17733586848E+03  0.11537213044E+04  0.11672801863E+04  0.46999998093E+01 0. -1.
</event>
<event>
 5   0  0.3832191E-02  0.6390680E+03  0.7818609E-02  0.9827511E-01
        2   -1    0    0  501    0  0.00000000000E+00  0.00000000000E+00  0.15335702125E+04  0.15335702125E+04  0.25500000920E-02 0. -1.
       -2   -1    0    0    0  501  0.00000000000E+00  0.00000000000E+00 -0.66577958340E+02  0.66577958389E+02  0.25500000920E-02 0.  1.
    10030    2    1    2    0    0  0.00000000000E+00  0.00000000000E+00  0.14669922542E+04  0.16001481709E+04  0.63906798937E+03 0.  0.
        3    1    3    3  502    0 -0.30313815879E+03  0.89530225168E+01  0.98549452784E+03  0.10311025044E+04  0.10100000352E+00 0. -1.
       -3    1    3    3    0  502  0.30313815879E+03 -0.89530225168E+01  0.48149772631E+03  0.56904566651E+03  0.10100000352E+00 0.  1.
</event>
<event>
 5   0  0.2276105E-02  0.5973791E+03  0.7818609E-02  0.9910859E-01
       -1   -1    0    0    0  501  0.00000000000E+00  0.00000000000E+00  0.26119106755E+03  0.26119106760E+03  0.50400001928E-02 0.  1.
        1   -1    0    0  501    0  0.00000000000E+00  0.00000000000E+00 -0.34157157609E+03  0.34157157613E+03  0.50400001928E-02 0. -1.
    10030    2    1    2    0    0  0.00000000000E+00  0.00000000000E+00 -0.80380508537E+02  0.60276264373E+03  0.59737909114E+03 0.  0.
        1    1    3    3  502    0  0.23557638909E+03 -0.16934094803E+03 -0.11184326742E+03  0.31093650199E+03  0.50400001928E-02 0. -1.
       -1    1    3    3    0  502 -0.23557638909E+03  0.16934094803E+03  0.31462758884E+02  0.29182614174E+03  0.50400001928E-02 0.  1.
</event>
<event>
 5   0  0.2382531E-02  0.5973438E+03  0.7818609E-02  0.9910932E-01
        1   -1    0    0  501    0  0.00000000000E+00  0.00000000000E+00  0.20930177598E+03  0.20930177604E+03  0.50400001928E-02 0.  1.
       -1   -1    0    0    0  501  0.00000000000E+00  0.00000000000E+00 -0.42620239540E+03  0.42620239543E+03  0.50400001928E-02 0. -1.
    10030    2    1    2    0    0  0.00000000000E+00  0.00000000000E+00 -0.21690061942E+03  0.63550417147E+03  0.59734384843E+03 0.  0.
        5    1    3    3  502    0 -0.23735077004E+02 -0.12837808672E+01 -0.42515504483E+03  0.42584492966E+03  0.46999998093E+01 0. -1.
       -5    1    3    3    0  502  0.23735077004E+02  0.12837808672E+01  0.20825442541E+03  0.20965924181E+03  0.46999998093E+01 0.  1.
</event>
<event>
 5   0  0.3737642E-02  0.6001469E+03  0.7818609E-02  0.9905101E-01
       -2   -1    0    0    0  501  0.00000000000E+00  0.00000000000E+00  0.35914526210E+03  0.35914526210E+03  0.25500000920E-02 0. -1.
        2   -1    0    0  501    0  0.00000000000E+00  0.00000000000E+00 -0.25071771489E+03  0.25071771490E+03  0.25500000920E-02 0.  1.
    10030    2    1    2    0    0  0.00000000000E+00  0.00000000000E+00  0.10842754720E+03  0.60986297701E+03  0.60014691346E+03 0.  0.
        5    1    3    3  502    0  0.26715158983E+03  0.13656724282E+03  0.53008967684E+02  0.30471728604E+03  0.46999998093E+01 0. -1.
       -5    1    3    3    0  502 -0.26715158983E+03 -0.13656724282E+03  0.55418579520E+02  0.30514569097E+03  0.46999998093E+01 0.  1.
</event>
<event>
 5   0  0.2276105E-02  0.5990748E+03  0.7818609E-02  0.9907327E-01
        1   -1    0    0  501    0  0.00000000000E+00  0.00000000000E+00  0.53236419743E+03  0.53236419745E+03  0.50400001928E-02 0. -1.
       -1   -1    0    0    0  501  0.00000000000E+00  0.00000000000E+00 -0.16853622893E+03  0.16853622900E+03  0.50400001928E-02 0.  1.
    10030    2    1    2    0    0  0.00000000000E+00  0.00000000000E+00  0.36382796850E+03  0.70090042645E+03  0.59907480095E+03 0.  0.
        1    1    3    3  502    0  0.63003021740E+02  0.69202241537E+02 -0.15099239493E+03  0.17764299687E+03  0.50400001928E-02 0.  1.
       -1    1    3    3    0  502 -0.63003021740E+02 -0.69202241537E+02  0.51482036344E+03  0.52325742959E+03  0.50400001928E-02 0. -1.
</event>
<event>
 5   0  0.2225808E-02  0.6004191E+03  0.7818609E-02  0.9904537E-01
       -1   -1    0    0    0  501  0.00000000000E+00  0.00000000000E+00  0.44567259018E+03  0.44567259021E+03  0.50400001928E-02 0.  1.
        1   -1    0    0  501    0  0.00000000000E+00  0.00000000000E+00 -0.20222417909E+03  0.20222417915E+03  0.50400001928E-02 0. -1.
    10030    2    1    2    0    0  0.00000000000E+00  0.00000000000E+00  0.24344841109E+03  0.64789676936E+03  0.60041909937E+03 0.  0.
        2    1    3    3  502    0 -0.13281030360E+03 -0.49525520873E+02  0.40729059006E+03  0.43125048258E+03  0.25500000920E-02 0.  1.
       -2    1    3    3    0  502  0.13281030360E+03  0.49525520873E+02 -0.16384217898E+03  0.21664628679E+03  0.25500000920E-02 0. -1.
</event>
<event>
 5   0  0.3798925E-02  0.5980907E+03  0.7818609E-02  0.9909375E-01
        2   -1    0    0  501    0  0.00000000000E+00  0.00000000000E+00  0.11807203973E+04  0.11807203973E+04  0.25500000920E-02 0.  1.
       -2   -1    0    0    0  501  0.00000000000E+00  0.00000000000E+00 -0.75740297138E+02  0.75740297181E+02  0.25500000920E-02 0. -1.
    10030    2    1    2    0    0  0.00000000000E+00  0.00000000000E+00  0.11049801001E+04  0.12564606944E+04  0.59809067458E+03 0.  0.
        2    1    3    3  502    0  0.14509275594E+03  0.10590008132E+03  0.10547554064E+04  0.10699419155E+04  0.25500000920E-02 0.  1.
       -2    1    3    3    0  502 -0.14509275594E+03 -0.10590008132E+03  0.50224693686E+02  0.18651877898E+03  0.25500000920E-02 0. -1.
</event>
<event>
 5   0  0.3798925E-02  0.5925208E+03  0.7818609E-02  0.9921046E-01
        2   -1    0    0  501    0  0.00000000000E+00  0.00000000000E+00  0.15009410966E+03  0.15009410968E+03  0.25500000920E-02 0.  1.
       -2   -1    0    0    0  501  0.00000000000E+00  0.00000000000E+00 -0.58476787996E+03  0.58476787997E+03  0.25500000920E-02 0. -1.
    10030    2    1    2    0    0  0.00000000000E+00  0.00000000000E+00 -0.43467377030E+03  0.73486198965E+03  0.59252076524E+03 0.  0.
        2    1    3    3  502    0 -0.70670443463E+02  0.17117087728E+03  0.69465941179E+02  0.19778598990E+03  0.25500000920E-02 0.  1.
       -2    1    3    3    0  502  0.70670443463E+02 -0.17117087728E+03 -0.50413971148E+03  0.53707599975E+03  0.25500000920E-02 0. -1.
</event>
<event>
 5   0  0.3724066E-02  0.6073996E+03  0.7818609E-02  0.9890172E-01
       -2   -1    0    0    0  501  0.00000000000E+00  0.00000000000E+00  0.64037108072E+03  0.64037108073E+03  0.25500000920E-02 0. -1.
        2   -1    0    0  501    0  0.00000000000E+00  0.00000000000E+00 -0.14403144937E+03  0.14403144939E+03  0.25500000920E-02 0.  1.
    10030    2    1    2    0    0  0.00000000000E+00  0.00000000000E+00  0.49633963136E+03  0.78440253012E+03  0.60739962101E+03 0.  0.
        4    1    3    3  502    0 -0.40223268510E+02  0.63067281552E+02 -0.13194525689E+03  0.15167912528E+03  0.12699999809E+01 0.  1.
       -4    1    3    3    0  502  0.40223268510E+02 -0.63067281552E+02  0.62828488824E+03  0.63272340484E+03  0.12699999809E+01 0. -1.
</event>
<event>
 5   0  0.3934634E-02  0.5966691E+03  0.7818609E-02  0.9912341E-01
       -2   -1    0    0    0  501  0.00000000000E+00  0.00000000000E+00  0.18897854517E+03  0.18897854518E+03  0.25500000920E-02 0.  1.
        2   -1    0    0  501    0  0.00000000000E+00  0.00000000000E+00 -0.47097139961E+03  0.47097139962E+03  0.25500000920E-02 0. -1.
    10030    2    1    2    0    0  0.00000000000E+00  0.00000000000E+00 -0.28199285445E+03  0.65994994481E+03  0.59666905374E+03 0.  0.
        1    1    3    3  502    0  0.14409635495E+03  0.21638915119E+03 -0.30285706376E+03  0.39913710095E+03  0.50400001928E-02 0. -1.
       -1    1    3    3    0  502 -0.14409635495E+03 -0.21638915119E+03  0.20864209315E+02  0.26081284385E+03  0.50400001928E-02 0.  1.
</event>
<event>
 5   0  0.1521750E-02  0.5990091E+03  0.7818609E-02  0.9907464E-01
        4   -1    0    0  501    0  0.00000000000E+00  0.00000000000E+00  0.63463326495E+03  0.63463453569E+03  0.12699999809E+01 0.  1.
       -4   -1    0    0    0  501  0.00000000000E+00  0.00000000000E+00 -0.14134188245E+03  0.14134758800E+03  0.12699999809E+01 0. -1.
    10030    2    1    2    0    0  0.00000000000E+00  0.00000000000E+00  0.49329138250E+03  0.77598212369E+03  0.59900907192E+03 0.  0.
        4    1    3    3  502    0 -0.52767490555E+02 -0.28118394257E+03  0.13185060472E+03  0.31501589243E+03  0.12699999809E+01 0. -1.
       -4    1    3    3    0  502  0.52767490555E+02  0.28118394257E+03  0.36144077779E+03  0.46096623126E+03  0.12699999809E+01 0.  1.
</event>
<event>
 5   0  0.3724066E-02  0.5980094E+03  0.7818609E-02  0.9909544E-01
        2   -1    0    0  501    0  0.00000000000E+00  0.00000000000E+00  0.16021568233E+03  0.16021568235E+03  0.25500000920E-02 0. -1.
       -2   -1    0    0    0  501  0.00000000000E+00  0.00000000000E+00 -0.55802165661E+03  0.55802165662E+03  0.25500000920E-02 0.  1.
    10030    2    1    2    0    0  0.00000000000E+00  0.00000000000E+00 -0.39780597428E+03  0.71823733896E+03  0.59800943296E+03 0.  0.
        4    1    3    3  502    0 -0.83468213631E+02  0.99668280041E+02  0.12449211407E+03  0.18000168915E+03  0.12699999809E+01 0. -1.
       -4    1    3    3    0  502  0.83468213631E+02 -0.99668280041E+02 -0.52229808835E+03  0.53823564981E+03  0.12699999809E+01 0.  1.
</event>
<event>
 5   0  0.3832191E-02  0.5916604E+03  0.7818609E-02  0.9922861E-01
        2   -1    0    0  501    0  0.00000000000E+00  0.00000000000E+00  0.92196173670E+02  0.92196173705E+02  0.25500000920E-02 0.  1.
       -2   -1    0    0    0  501  0.00000000000E+00  0.00000000000E+00 -0.94923153095E+03  0.94923153095E+03  0.25500000920E-02 0. -1.
    10030    2    1    2    0    0  0.00000000000E+00  0.00000000000E+00 -0.85703535728E+03  0.10414277047E+04  0.59166042660E+03 0.  0.
        3    1    3    3  502    0  0.14868018685E+03  0.18766428651E+03 -0.73436259721E+03  0.77240670425E+03  0.10100000352E+00 0. -1.
       -3    1    3    3    0  502 -0.14868018685E+03 -0.18766428651E+03 -0.12267276007E+03  0.26902100040E+03  0.10100000352E+00 0.  1.
</event>
<event>
 5   0  0.2382531E-02  0.6006715E+03  0.7818609E-02  0.9904014E-01
       -1   -1    0    0    0  501  0.00000000000E+00  0.00000000000E+00  0.66777216590E+02  0.66777216780E+02  0.50400001928E-02 0. -1.
        1   -1    0    0  501    0  0.00000000000E+00  0.00000000000E+00 -0.13507835515E+04  0.13507835515E+04  0.50400001928E-02 0.  1.
    10030    2    1    2    0    0  0.00000000000E+00  0.00000000000E+00 -0.12840063349E+04  0.14175607683E+04  0.60067151064E+03 0.  0.
        5    1    3    3  502    0  0.21428438832E+03  0.20977578310E+03 -0.60425873104E+03  0.67459201173E+03  0.46999998093E+01 0. -1.
       -5    1    3    3    0  502 -0.21428438832E+03 -0.20977578310E+03 -0.67974760386E+03  0.74296875654E+03  0.46999998093E+01 0.  1.
</event>
<event>
 5   0  0.2382531E-02  0.5987678E+03  0.7818609E-02  0.9907966E-01
        1   -1    0    0  501    0  0.00000000000E+00  0.00000000000E+00  0.33351083021E+03  0.33351083024E+03  0.50400001928E-02 0.  1.
       -1   -1    0    0    0  501  0.00000000000E+00  0.00000000000E+00 -0.26874906223E+03  0.26874906228E+03  0.50400001928E-02 0. -1.
    10030    2    1    2    0    0  0.00000000000E+00  0.00000000000E+00  0.64761767971E+02  0.60225989252E+03  0.59876781105E+03 0.  0.
        5    1    3    3  502    0 -0.15001004002E+03 -0.12199244375E+03 -0.19747643488E+03  0.27641309805E+03  0.46999998093E+01 0. -1.
       -5    1    3    3    0  502  0.15001004002E+03  0.12199244375E+03  0.26223820285E+03  0.32584679448E+03  0.46999998093E+01 0.  1.
</event>
<event>
 5   0  0.2276105E-02  0.5987054E+03  0.7818609E-02  0.9908096E-01
       -1   -1    0    0    0  501  0.00000000000E+00  0.00000000000E+00  0.76121886744E+03  0.76121886746E+03  0.50400001928E-02 0.  1.
        1   -1    0    0  501    0  0.00000000000E+00  0.00000000000E+00 -0.11772177438E+03  0.11772177449E+03  0.50400001928E-02 0. -1.
    10030    2    1    2    0    0  0.00000000000E+00  0.00000000000E+00  0.64349709306E+03  0.87894064195E+03  0.59870538940E+03 0.  0.
        1    1    3    3  502    0  0.17144038147E+03  0.57992112402E+02 -0.28308567629E+02  0.18318369067E+03  0.50400001928E-02 0. -1.
       -1    1    3    3    0  502 -0.17144038147E+03 -0.57992112402E+02  0.67180566068E+03  0.69575695128E+03  0.50400001928E-02 0.  1.
</event>
<event>
 5   0  0.1521750E-02  0.5976532E+03  0.7818609E-02  0.9910287E-01
        3   -1    0    0  501    0  0.00000000000E+00  0.00000000000E+00  0.11301235714E+03  0.11301240227E+03  0.10100000352E+00 0. -1.
       -3   -1    0    0    0  501  0.00000000000E+00  0.00000000000E+00 -0.79015540461E+03  0.79015541107E+03  0.10100000352E+00 0.  1.
    10030    2    1    2    0    0  0.00000000000E+00  0.00000000000E+00 -0.67714304747E+03  0.90316781334E+03  0.59765323751E+03 0.  0.
        3    1    3    3  502    0 -0.53698791989E+02 -0.29304701339E+03 -0.30354496193E+03  0.42532301422E+03  0.10100000352E+00 0. -1.
       -3    1    3    3    0  502  0.53698791989E+02  0.29304701339E+03 -0.37359808555E+03  0.47784479912E+03  0.10100000352E+00 0.  1.
</event>
<event>
 5   0  0.3737642E-02  0.5998543E+03  0.7818609E-02  0.9905708E-01
       -2   -1    0    0    0  501  0.00000000000E+00  0.00000000000E+00  0.13404108162E+03  0.13404108164E+03  0.25500000920E-02 0.  1.
        2   -1    0    0  501    0  0.00000000000E+00  0.00000000000E+00 -0.67110989832E+03  0.67110989832E+03  0.25500000920E-02 0. -1.
    10030    2    1    2    0    0  0.00000000000E+00  0.00000000000E+00 -0.53706881670E+03  0.80515097996E+03  0.59985430453E+03 0.  0.
        5    1    3    3  502    0  0.79445618444E+02  0.28575453866E+02  0.11771031927E+03  0.14493437175E+03  0.46999998093E+01 0.  1.
       -5    1    3    3    0  502 -0.79445618444E+02 -0.28575453866E+02 -0.65477913597E+03  0.66021660821E+03  0.46999998093E+01 0. -1.
</event>
<event>
 5   0  0.2309055E-02  0.6029281E+03  0.7818609E-02  0.9899350E-01
        1   -1    0    0  501    0  0.00000000000E+00  0.00000000000E+00  0.76958594915E+03  0.76958594917E+03  0.50400001928E-02 0. -1.
       -1   -1    0    0    0  501  0.00000000000E+00  0.00000000000E+00 -0.11809021389E+03  0.11809021400E+03  0.50400001928E-02 0.  1.
    10030    2    1    2    0    0  0.00000000000E+00  0.00000000000E+00  0.65149573526E+03  0.88767616316E+03  0.60292808657E+03 0.  0.
        4    1    3    3  502    0  0.20494949819E+02 -0.20786676050E+03  0.57173195818E+01  0.20895677479E+03  0.12699999809E+01 0.  1.
       -4    1    3    3    0  502 -0.20494949819E+02  0.20786676050E+03  0.64577841568E+03  0.67871938837E+03  0.12699999809E+01 0. -1.
</event>
<event>
 5   0  0.3934634E-02  0.5962764E+03  0.7818609E-02  0.9913162E-01
        2   -1    0    0  501    0  0.00000000000E+00  0.00000000000E+00  0.18473834907E+03  0.18473834909E+03  0.25500000920E-02 0.  1.
       -2   -1    0    0    0  501  0.00000000000E+00  0.00000000000E+00 -0.48114742510E+03  0.48114742511E+03  0.25500000920E-02 0. -1.
    10030    2    1    2    0    0  0.00000000000E+00  0.00000000000E+00 -0.29640907603E+03  0.66588577419E+03  0.59627638216E+03 0.  0.
        1    1    3    3  502    0 -0.16572536796E+03  0.10535633471E+03  0.10230774844E+03  0.22143109598E+03  0.50400001928E-02 0.  1.
       -1    1    3    3    0  502  0.16572536796E+03 -0.10535633471E+03 -0.39871682447E+03  0.44445467822E+03  0.50400001928E-02 0. -1.
</event>
<event>
 5   0  0.1521750E-02  0.6040506E+03  0.7818609E-02  0.9897038E-01
        3   -1    0    0  501    0  0.00000000000E+00  0.00000000000E+00  0.19088252725E+03  0.19088255397E+03  0.10100000352E+00 0.  1.
       -3   -1    0    0    0  501  0.00000000000E+00  0.00000000000E+00 -0.47788168978E+03  0.47788170045E+03  0.10100000352E+00 0. -1.
    10030    2    1    2    0    0  0.00000000000E+00  0.00000000000E+00 -0.28699916253E+03  0.66876425443E+03  0.60405058456E+03 0.  0.
        2    1    3    3  502    0 -0.92625677044E+02  0.23387644397E+03 -0.32856494538E+03  0.41380264672E+03  0.25500000920E-02 0. -1.
       -2    1    3    3    0  502  0.92625677044E+02 -0.23387644397E+03  0.41565782858E+02  0.25496160771E+03  0.25500000920E-02 0.  1.
</event>
<event>
 5   0  0.3798925E-02  0.6175859E+03  0.7818609E-02  0.9869578E-01
        2   -1    0    0  501    0  0.00000000000E+00  0.00000000000E+00  0.11696873340E+04  0.11696873340E+04  0.25500000920E-02 0.  1.
       -2   -1    0    0    0  501  0.00000000000E+00  0.00000000000E+00 -0.81520159451E+02  0.81520159491E+02  0.25500000920E-02 0. -1.
    10030    2    1    2    0    0  0.00000000000E+00  0.00000000000E+00  0.10881671746E+04  0.12512074935E+04  0.61758593897E+03 0.  0.
        2    1    3    3  502    0  0.23771964565E+03  0.61906399791E+02  0.16500574470E+03  0.29592216553E+03  0.25500000920E-02 0. -1.
       -2    1    3    3    0  502 -0.23771964565E+03 -0.61906399791E+02  0.92316142987E+03  0.95528532799E+03  0.25500000920E-02 0.  1.
</event>
<event>
 5   0  0.2382531E-02  0.5956220E+03  0.7818609E-02  0.9914531E-01
        1   -1    0    0  501    0  0.00000000000E+00  0.00000000000E+00  0.27783041506E+03  0.27783041511E+03  0.50400001928E-02 0.  1.
       -1   -1    0    0    0  501  0.00000000000E+00  0.00000000000E+00 -0.31922848957E+03  0.31922848961E+03  0.50400001928E-02 0. -1.
    10030    2    1    2    0    0  0.00000000000E+00  0.00000000000E+00 -0.41398074504E+02  0.59705890471E+03  0.59562197334E+03 0.  0.
        5    1    3    3  502    0 -0.15873137203E+03 -0.16974118464E+03 -0.20732438017E+03  0.31146943163E+03  0.46999998093E+01 0. -1.
       -5    1    3    3    0  502  0.15873137203E+03  0.16974118464E+03  0.16592630566E+03  0.28558947309E+03  0.46999998093E+01 0.  1.
</event>
<event>
 5   0  0.3724066E-02  0.6009162E+03  0.7818609E-02  0.9903507E-01
       -2   -1    0    0    0  501  0.00000000000E+00  0.00000000000E+00  0.33914511387E+03  0.33914511388E+03  0.25500000920E-02 0.  1.
        2   -1    0    0  501    0  0.00000000000E+00  0.00000000000E+00 -0.26618418319E+03  0.26618418320E+03  0.25500000920E-02 0. -1.
    10030    2    1    2    0    0  0.00000000000E+00  0.00000000000E+00  0.72960930681E+02  0.60532929708E+03  0.60091618426E+03 0.  0.
        4    1    3    3  502    0  0.96802838362E+02 -0.25663292587E+03 -0.87066912078E+02  0.28777336262E+03  0.12699999809E+01 0. -1.
       -4    1    3    3    0  502 -0.96802838362E+02  0.25663292587E+03  0.16002784276E+03  0.31755593446E+03  0.12699999809E+01 0.  1.
</event>
<event>
 5   0  0.3737642E-02  0.6002329E+03  0.7818609E-02  0.9904923E-01
       -2   -1    0    0    0  501  0.00000000000E+00  0.00000000000E+00  0.28951183593E+03  0.28951183594E+03  0.25500000920E-02 0. -1.
        2   -1    0    0  501    0  0.00000000000E+00  0.00000000000E+00 -0.31110952283E+03  0.31110952284E+03  0.25500000920E-02 0.  1.
    10030    2    1    2    0    0  0.00000000000E+00  0.00000000000E+00 -0.21597686899E+02  0.60062135878E+03  0.60023291858E+03 0.  0.
        5    1    3    3  502    0 -0.13001003440E+03 -0.12988866106E+03 -0.24817404201E+03  0.30884643181E+03  0.46999998093E+01 0.  1.
       -5    1    3    3    0  502  0.13001003440E+03  0.12988866106E+03  0.22657635511E+03  0.29177492697E+03  0.46999998093E+01 0. -1.
</event>
<event>
 5   0  0.2309055E-02  0.6026544E+03  0.7818609E-02  0.9899914E-01
        1   -1    0    0  501    0  0.00000000000E+00  0.00000000000E+00  0.34316267883E+03  0.34316267887E+03  0.50400001928E-02 0. -1.
       -1   -1    0    0    0  501  0.00000000000E+00  0.00000000000E+00 -0.26459192549E+03  0.26459192554E+03  0.50400001928E-02 0.  1.
    10030    2    1    2    0    0  0.00000000000E+00  0.00000000000E+00  0.78570753338E+02  0.60775460441E+03  0.60265437516E+03 0.  0.
        4    1    3    3  502    0 -0.47524457828E+02  0.61418195775E+02 -0.25432405367E+03  0.26591936003E+03  0.12699999809E+01 0.  1.
       -4    1    3    3    0  502  0.47524457828E+02 -0.61418195775E+02  0.33289480701E+03  0.34183524438E+03  0.12699999809E+01 0. -1.
</event>
<event>
 5   0  0.3832191E-02  0.5945145E+03  0.7818609E-02  0.9916852E-01
       -2   -1    0    0    0  501  0.00000000000E+00  0.00000000000E+00  0.11476157743E+03  0.11476157745E+03  0.25500000920E-02 0. -1.
        2   -1    0    0  501    0  0.00000000000E+00  0.00000000000E+00 -0.76996054473E+03  0.76996054474E+03  0.25500000920E-02 0.  1.
    10030    2    1    2    0    0  0.00000000000E+00  0.00000000000E+00 -0.65519896731E+03  0.88472212219E+03  0.59451454712E+03 0.  0.
        3    1    3    3  502    0 -0.99080007166E+02 -0.65585995621E+02 -0.73308340399E+03  0.74265042790E+03  0.10100000352E+00 0.  1.
       -3    1    3    3    0  502  0.99080007166E+02  0.65585995621E+02  0.77884436685E+02  0.14207169430E+03  0.10100000352E+00 0. -1.
</event>
<event>
 5   0  0.2382531E-02  0.6085359E+03  0.7818609E-02  0.9887853E-01
        1   -1    0    0  501    0  0.00000000000E+00  0.00000000000E+00  0.28992492540E+03  0.28992492544E+03  0.50400001928E-02 0. -1.
       -1   -1    0    0    0  501  0.00000000000E+00  0.00000000000E+00 -0.31932056222E+03  0.31932056226E+03  0.50400001928E-02 0.  1.
    10030    2    1    2    0    0  0.00000000000E+00  0.00000000000E+00 -0.29395636820E+02  0.60924548770E+03  0.60853591580E+03 0.  0.
        5    1    3    3  502    0 -0.22736796517E+03 -0.10683263285E+03 -0.18650064324E+03  0.31291210101E+03  0.46999998093E+01 0.  1.
       -5    1    3    3    0  502  0.22736796517E+03  0.10683263285E+03  0.15710500642E+03  0.29633338669E+03  0.46999998093E+01 0. -1.
</event>
<event>
 5   0  0.2276105E-02  0.6009742E+03  0.7818609E-02  0.9903387E-01
       -1   -1    0    0    0  501  0.00000000000E+00  0.00000000000E+00  0.23956795320E+03  0.23956795325E+03  0.50400001928E-02 0. -1.
        1   -1    0    0  501    0  0.00000000000E+00  0.00000000000E+00 -0.37689728490E+03  0.37689728494E+03  0.50400001928E-02 0.  1.
    10030    2    1    2    0    0  0.00000000000E+00  0.00000000000E+00 -0.13732933171E+03  0.61646523819E+03  0.60097424616E+03 0.  0.
        1    1    3    3  502    0  0.29063469957E+03 -0.71497524971E+02 -0.41291874411E+02  0.30213481029E+03  0.50400001928E-02 0. -1.
       -1    1    3    3    0  502 -0.29063469957E+03  0.71497524971E+02 -0.96037457295E+02  0.31433042790E+03  0.50400001928E-02 0.  1.
</event>
<event>
 5   0  0.2295179E-02  0.6007302E+03  0.7818609E-02  0.9903892E-01
       -1   -1    0    0    0  501  0.00000000000E+00  0.00000000000E+00  0.12000086908E+03  0.12000086919E+03  0.50400001928E-02 0.  1.
        1   -1    0    0  501    0  0.00000000000E+00  0.00000000000E+00 -0.75182104044E+03  0.75182104045E+03  0.50400001928E-02 0. -1.
    10030    2    1    2    0    0  0.00000000000E+00  0.00000000000E+00 -0.63182017135E+03  0.87182190964E+03  0.60073015007E+03 0.  0.
        3    1    3    3  502    0 -0.18447784224E+01  0.54294534361E+02  0.11281168112E+03  0.12521096304E+03  0.10100000352E+00 0.  1.
       -3    1    3    3    0  502  0.18447784224E+01 -0.54294534361E+02 -0.74463185247E+03  0.74661094660E+03  0.10100000352E+00 0. -1.
</event>
<event>
 5   0  0.2309055E-02  0.5935774E+03  0.7818609E-02  0.9918821E-01
       -1   -1    0    0    0  501  0.00000000000E+00  0.00000000000E+00  0.15391680938E+03  0.15391680946E+03  0.50400001928E-02 0. -1.
        1   -1    0    0  501    0  0.00000000000E+00  0.00000000000E+00 -0.57228014279E+03  0.57228014281E+03  0.50400001928E-02 0.  1.
    10030    2    1    2    0    0  0.00000000000E+00  0.00000000000E+00 -0.41836333341E+03  0.72619695227E+03  0.59357740417E+03 0.  0.
        4    1    3    3  502    0  0.24852896992E+02 -0.16917613676E+03  0.87593124166E+02  0.19212600042E+03  0.12699999809E+01 0. -1.
       -4    1    3    3    0  502 -0.24852896992E+02  0.16917613676E+03 -0.50595645758E+03  0.53407095185E+03  0.12699999809E+01 0.  1.
</event>
<event>
 5   0  0.3832191E-02  0.6012470E+03  0.7818609E-02  0.9902822E-01
       -2   -1    0    0    0  501  0.00000000000E+00  0.00000000000E+00  0.11436521412E+03  0.11436521414E+03  0.25500000920E-02 0. -1.
        2   -1    0    0  501    0  0.00000000000E+00  0.00000000000E+00 -0.79022698334E+03  0.79022698334E+03  0.25500000920E-02 0.  1.
    10030    2    1    2    0    0  0.00000000000E+00  0.00000000000E+00 -0.67586176922E+03  0.90459219749E+03  0.60124696478E+03 0.  0.
        3    1    3    3  502    0 -0.12769528556E+03 -0.27119396540E+03 -0.30354939647E+03  0.42660813297E+03  0.10100000352E+00 0. -1.
       -3    1    3    3    0  502  0.12769528556E+03  0.27119396540E+03 -0.37231237276E+03  0.47798406451E+03  0.10100000352E+00 0.  1.
</event>
<event>
 5   0  0.2382531E-02  0.5944260E+03  0.7818609E-02  0.9917038E-01
       -1   -1    0    0    0  501  0.00000000000E+00  0.00000000000E+00  0.87336845244E+03  0.87336845245E+03  0.50400001928E-02 0.  1.
        1   -1    0    0  501    0  0.00000000000E+00  0.00000000000E+00 -0.10114352016E+03  0.10114352029E+03  0.50400001928E-02 0. -1.
    10030    2    1    2    0    0  0.00000000000E+00  0.00000000000E+00  0.77222493227E+03  0.97451197274E+03  0.59442597435E+03 0.  0.
        5    1    3    3  502    0  0.73999822679E+02 -0.26929073965E+03  0.21956841927E+03  0.35528278449E+03  0.46999998093E+01 0. -1.
       -5    1    3    3    0  502 -0.73999822679E+02  0.26929073965E+03  0.55265651300E+03  0.61922918825E+03  0.46999998093E+01 0.  1.
</event>
<event>
 5   0  0.3832191E-02  0.5995952E+03  0.7818609E-02  0.9906246E-01
        2   -1    0    0  501    0  0.00000000000E+00  0.00000000000E+00  0.51213702373E+03  0.51213702374E+03  0.25500000920E-02 0. -1.
       -2   -1    0    0    0  501  0.00000000000E+00  0.00000000000E+00 -0.17549715294E+03  0.17549715296E+03  0.25500000920E-02 0.  1.
    10030    2    1    2    0    0  0.00000000000E+00  0.00000000000E+00  0.33663987079E+03  0.68763417670E+03  0.59959516206E+03 0.  0.
        3    1    3    3  502    0 -0.13057806990E+03  0.92461939763E+01 -0.14098960144E+03  0.19239075435E+03  0.10100000352E+00 0.  1.
       -3    1    3    3    0  502  0.13057806990E+03 -0.92461939763E+01  0.47762947223E+03  0.49524342236E+03  0.10100000352E+00 0. -1.
</event>
<event>
 5   0  0.3737642E-02  0.6038112E+03  0.7818609E-02  0.9897530E-01
       -2   -1    0    0    0  501  0.00000000000E+00  0.00000000000E+00  0.14810347337E+03  0.14810347339E+03  0.25500000920E-02 0. -1.
        2   -1    0    0  501    0  0.00000000000E+00  0.00000000000E+00 -0.61542785061E+03  0.61542785061E+03  0.25500000920E-02 0.  1.
    10030    2    1    2    0    0  0.00000000000E+00  0.00000000000E+00 -0.46732437724E+03  0.76353132401E+03  0.60381123638E+03 0.  0.
        5    1    3    3  502    0  0.29972227963E+03 -0.12829450603E+02 -0.27611075967E+03  0.40774658958E+03  0.46999998093E+01 0.  1.
       -5    1    3    3    0  502 -0.29972227963E+03  0.12829450603E+02 -0.19121361757E+03  0.35578473443E+03  0.46999998093E+01 0. -1.
</event>
<event>
 5   0  0.2225808E-02  0.6000980E+03  0.7818609E-02  0.9905203E-01
       -1   -1    0    0    0  501  0.00000000000E+00  0.00000000000E+00  0.58142130492E+02  0.58142130710E+02  0.50400001928E-02 0.  1.
        1   -1    0    0  501    0  0.00000000000E+00  0.00000000000E+00 -0.15484367211E+04  0.15484367211E+04  0.50400001928E-02 0. -1.
    10030    2    1    2    0    0  0.00000000000E+00  0.00000000000E+00 -0.14902945906E+04  0.16065788518E+04  0.60009802558E+03 0.  0.
        2    1    3    3  502    0  0.18997061400E+03  0.11879018347E+03 -0.21085107511E+03  0.30766559404E+03  0.25500000920E-02 0.  1.
       -2    1    3    3    0  502 -0.18997061400E+03 -0.11879018347E+03 -0.12794435155E+04  0.12989132578E+04  0.25500000920E-02 0. -1.
</event>
<event>
 5   0  0.2309055E-02  0.5921636E+03  0.7818609E-02  0.9921799E-01
       -1   -1    0    0    0  501  0.00000000000E+00  0.00000000000E+00  0.37050875117E+03  0.37050875121E+03  0.50400001928E-02 0.  1.
        1   -1    0    0  501    0  0.00000000000E+00  0.00000000000E+00 -0.23660559059E+03  0.23660559064E+03  0.50400001928E-02 0. -1.
    10030    2    1    2    0    0  0.00000000000E+00  0.00000000000E+00  0.13390316058E+03  0.60711434185E+03  0.59216363251E+03 0.  0.
        4    1    3    3  502    0  0.53421565542E+02 -0.19399752468E+02  0.36486075642E+03  0.36926304789E+03  0.12699999809E+01 0.  1.
       -4    1    3    3    0  502 -0.53421565542E+02  0.19399752468E+02 -0.23095759584E+03  0.23785129396E+03  0.12699999809E+01 0. -1.
</event>
<event>
 5   0  0.3798925E-02  0.5978944E+03  0.7818609E-02  0.9909784E-01
        2   -1    0    0  501    0  0.00000000000E+00  0.00000000000E+00  0.11495025263E+04  0.11495025263E+04  0.25500000920E-02 0.  1.
       -2   -1    0    0    0  501  0.00000000000E+00  0.00000000000E+00 -0.77746188069E+02  0.77746188110E+02  0.25500000920E-02 0. -1.
    10030    2    1    2    0    0  0.00000000000E+00  0.00000000000E+00  0.10717563382E+04  0.12272487144E+04  0.59789443758E+03 0.  0.
        2    1    3    3  502    0 -0.44027930091E+02  0.24815521394E+03  0.20585980964E+03  0.32541931421E+03  0.25500000920E-02 0. -1.
       -2    1    3    3    0  502  0.44027930091E+02 -0.24815521394E+03  0.86589652858E+03  0.90182940019E+03  0.25500000920E-02 0.  1.
</event>
<event>
 5   0  0.3832191E-02  0.6228217E+03  0.7818609E-02  0.9859158E-01
        2   -1    0    0  501    0  0.00000000000E+00  0.00000000000E+00  0.10835717755E+04  0.10835717755E+04  0.25500000920E-02 0.  1.
       -2   -1    0    0    0  501  0.00000000000E+00  0.00000000000E+00 -0.89497277353E+02  0.89497277389E+02  0.25500000920E-02 0. -1.
    10030    2    1    2    0    0  0.00000000000E+00  0.00000000000E+00  0.99407449812E+03  0.11730690529E+04  0.62282172006E+03 0.  0.
        3    1    3    3  502    0  0.22509805844E+03  0.16401951580E+03  0.23466456277E+03  0.36419638205E+03  0.10100000352E+00 0. -1.
       -3    1    3    3    0  502 -0.22509805844E+03 -0.16401951580E+03  0.75940993535E+03  0.80887267081E+03  0.10100000352E+00 0.  1.
</event>
<event>
 5   0  0.2276105E-02  0.5960745E+03  0.7818609E-02  0.9913584E-01
       -1   -1    0    0    0  501  0.00000000000E+00  0.00000000000E+00  0.15456303453E+03  0.15456303461E+03  0.50400001928E-02 0. -1.
        1   -1    0    0  501    0  0.00000000000E+00  0.00000000000E+00 -0.57469247357E+03  0.57469247359E+03  0.50400001928E-02 0.  1.
    10030    2    1    2    0    0  0.00000000000E+00  0.00000000000E+00 -0.42012943904E+03  0.72925550820E+03  0.59607453451E+03 0.  0.
        1    1    3    3  502    0 -0.87776442868E+02  0.13027084844E+03  0.99806267246E+02  0.18610880926E+03  0.50400001928E-02 0. -1.
       -1    1    3    3    0  502  0.87776442868E+02 -0.13027084844E+03 -0.51993570629E+03  0.54314669895E+03  0.50400001928E-02 0.  1.
</event>
<event>
 5   0  0.3737642E-02  0.5995802E+03  0.7818609E-02  0.9906277E-01
       -2   -1    0    0    0  501  0.00000000000E+00  0.00000000000E+00  0.94073108788E+02  0.94073108823E+02  0.25500000920E-02 0. -1.
        2   -1    0    0  501    0  0.00000000000E+00  0.00000000000E+00 -0.95536433618E+03  0.95536433618E+03  0.25500000920E-02 0.  1.
    10030    2    1    2    0    0  0.00000000000E+00  0.00000000000E+00 -0.86129122739E+03  0.10494374450E+04  0.59958016361E+03 0.  0.
        5    1    3    3  502    0 -0.24174117877E+02 -0.22139928678E+03 -0.78179513907E+03  0.81291313290E+03  0.46999998093E+01 0.  1.
       -5    1    3    3    0  502  0.24174117877E+02  0.22139928678E+03 -0.79496088319E+02  0.23652431211E+03  0.46999998093E+01 0. -1.
</event>
<event>
 5   0  0.2309055E-02  0.6003798E+03  0.7818609E-02  0.9904618E-01
        1   -1    0    0  501    0  0.00000000000E+00  0.00000000000E+00  0.29909243291E+03  0.29909243295E+03  0.50400001928E-02 0. -1.
       -1   -1    0    0    0  501  0.00000000000E+00  0.00000000000E+00 -0.30129140888E+03  0.30129140893E+03  0.50400001928E-02 0.  1.
    10030    2    1    2    0    0  0.00000000000E+00  0.00000000000E+00 -0.21989759777E+01  0.60038384188E+03  0.60037981486E+03 0.  0.
        4    1    3    3  502    0  0.12958476842E+03 -0.14931989712E+03 -0.22698531805E+03  0.30101925419E+03  0.12699999809E+01 0.  1.
       -4    1    3    3    0  502 -0.12958476842E+03  0.14931989712E+03  0.22478634207E+03  0.29936458769E+03  0.12699999809E+01 0. -1.
</event>
<event>
 5   0  0.2382531E-02  0.5994975E+03  0.7818609E-02  0.9906449E-01
        1   -1    0    0  501    0  0.00000000000E+00  0.00000000000E+00  0.60428159613E+03  0.60428159615E+03  0.50400001928E-02 0. -1.
       -1   -1    0    0    0  501  0.00000000000E+00  0.00000000000E+00 -0.14868783750E+03  0.14868783758E+03  0.50400001928E-02 0.  1.
    10030    2    1    2    0    0  0.00000000000E+00  0.00000000000E+00  0.45559375863E+03  0.75296943373E+03  0.59949753563E+03 0.  0.
        5    1    3    3  502    0 -0.69674467409E+02  0.11913133014E+03 -0.10635702395E+03  0.17430063618E+03  0.46999998093E+01 0.  1.
       -5    1    3    3    0  502  0.69674467409E+02 -0.11913133014E+03  0.56195078257E+03  0.57866879756E+03  0.46999998093E+01 0. -1.
</event>
<event>
 5   0  0.3798925E-02  0.6005652E+03  0.7818609E-02  0.9904234E-01
        2   -1    0    0  501    0  0.00000000000E+00  0.00000000000E+00  0.96751911953E+03  0.96751911954E+03  0.25500000920E-02 0.  1.
       -2   -1    0    0    0  501  0.00000000000E+00  0.00000000000E+00 -0.93196764773E+02  0.93196764808E+02  0.25500000920E-02 0. -1.
    10030    2    1    2    0    0  0.00000000000E+00  0.00000000000E+00  0.87432235476E+03  0.10607158843E+04  0.60056523981E+03 0.  0.
        2    1    3    3  502    0 -0.17321093747E+03 -0.15625123657E+03  0.10319984745E+03  0.25508172477E+03  0.25500000920E-02 0. -1.
       -2    1    3    3    0  502  0.17321093747E+03  0.15625123657E+03  0.77112250731E+03  0.80563415957E+03  0.25500000920E-02 0.  1.
</event>
<event>
 5   0  0.2276105E-02  0.6007771E+03  0.7818609E-02  0.9903795E-01
       -1   -1    0    0    0  501  0.00000000000E+00  0.00000000000E+00  0.81638566651E+03  0.81638566653E+03  0.50400001928E-02 0. -1.
        1   -1    0    0  501    0  0.00000000000E+00  0.00000000000E+00 -0.11052776449E+03  0.11052776460E+03  0.50400001928E-02 0.  1.
    10030    2    1    2    0    0  0.00000000000E+00  0.00000000000E+00  0.70585790202E+03  0.92691343113E+03  0.60077710589E+03 0.  0.
        1    1    3    3  502    0  0.11227147477E+03 -0.23923503622E+02  0.78121035074E+03  0.78959915793E+03  0.50400001928E-02 0. -1.
       -1    1    3    3    0  502 -0.11227147477E+03  0.23923503622E+02 -0.75352448717E+02  0.13731427320E+03  0.50400001928E-02 0.  1.
</event>
<event>
 5   0  0.2225808E-02  0.6000985E+03  0.7818609E-02  0.9905202E-01
        1   -1    0    0  501    0  0.00000000000E+00  0.00000000000E+00  0.33973592174E+03  0.33973592177E+03  0.50400001928E-02 0. -1.
       -1   -1    0    0    0  501  0.00000000000E+00  0.00000000000E+00 -0.26499862664E+03  0.26499862668E+03  0.50400001928E-02 0.  1.
    10030    2    1    2    0    0  0.00000000000E+00  0.00000000000E+00  0.74737295100E+02  0.60473454846E+03  0.60009850093E+03 0.  0.
        2    1    3    3  502    0 -0.17013818532E+03  0.22828116769E+03  0.13281179041E+03  0.31416280063E+03  0.25500000920E-02 0.  1.
       -2    1    3    3    0  502  0.17013818532E+03 -0.22828116769E+03 -0.58074495306E+02  0.29057174783E+03  0.25500000920E-02 0. -1.
</event>
<event>
 5   0  0.3737642E-02  0.6007702E+03  0.7818609E-02  0.9903809E-01
       -2   -1    0    0    0  501  0.00000000000E+00  0.00000000000E+00  0.37372909816E+03  0.37372909816E+03  0.25500000920E-02 0. -1.
        2   -1    0    0  501    0  0.00000000000E+00  0.00000000000E+00 -0.24143476845E+03  0.24143476846E+03  0.25500000920E-02 0.  1.
    10030    2    1    2    0    0  0.00000000000E+00  0.00000000000E+00  0.13229432971E+03  0.61516386662E+03  0.60077016664E+03 0.  0.
        5    1    3    3  502    0 -0.10583357459E+03 -0.22319122966E+03  0.24110344759E+03  0.34520723188E+03  0.46999998093E+01 0. -1.
       -5    1    3    3    0  502  0.10583357459E+03  0.22319122966E+03 -0.10880911788E+03  0.26995663474E+03  0.46999998093E+01 0.  1.
</event>
<event>
 5   0  0.3724066E-02  0.5983788E+03  0.7818609E-02  0.9908775E-01
       -2   -1    0    0    0  501  0.00000000000E+00  0.00000000000E+00  0.91059355461E+02  0.91059355496E+02  0.25500000920E-02 0. -1.
        2   -1    0    0  501    0  0.00000000000E+00  0.00000000000E+00 -0.98303242501E+03  0.98303242501E+03  0.25500000920E-02 0.  1.
    10030    2    1    2    0    0  0.00000000000E+00  0.00000000000E+00 -0.89197306955E+03  0.10740917805E+04  0.59837880657E+03 0.  0.
        4    1    3    3  502    0  0.14386289336E+03 -0.13292279493E+03 -0.40031268857E+02  0.19992277730E+03  0.12699999809E+01 0. -1.
       -4    1    3    3    0  502 -0.14386289336E+03  0.13292279493E+03 -0.85194180069E+03  0.87416900320E+03  0.12699999809E+01 0.  1.
</event>
<event>
 5   0  0.2225808E-02  0.5977975E+03  0.7818609E-02  0.9909986E-01
        1   -1    0    0  501    0  0.00000000000E+00  0.00000000000E+00  0.45455745566E+03  0.45455745568E+03  0.50400001928E-02 0.  1.
       -1   -1    0    0    0  501  0.00000000000E+00  0.00000000000E+00 -0.19654379822E+03  0.19654379829E+03  0.50400001928E-02 0. -1.
    10030    2    1    2    0    0  0.00000000000E+00  0.00000000000E+00  0.25801365743E+03  0.65110125397E+03  0.59779745357E+03 0.  0.
        2    1    3    3  502    0 -0.28339698705E+03 -0.87621487541E+02  0.89002042100E+02  0.30969782184E+03  0.25500000920E-02 0.  1.
       -2    1    3    3    0  502  0.28339698705E+03  0.87621487541E+02  0.16901161533E+03  0.34140343213E+03  0.25500000920E-02 0. -1.
</event>
<event>
 5   0  0.2295179E-02  0.6086775E+03  0.7818609E-02  0.9887565E-01
       -1   -1    0    0    0  501  0.00000000000E+00  0.00000000000E+00  0.17097575430E+03  0.17097575438E+03  0.50400001928E-02 0. -1.
        1   -1    0    0  501    0  0.00000000000E+00  0.00000000000E+00 -0.54172645865E+03  0.54172645868E+03  0.50400001928E-02 0.  1.
    10030    2    1    2    0    0  0.00000000000E+00  0.00000000000E+00 -0.37075070435E+03  0.71270221305E+03  0.60867754987E+03 0.  0.
        3    1    3    3  502    0  0.20312408389E+03  0.19479572038E+03 -0.32100467980E+03  0.42690605616E+03  0.10100000352E+00 0.  1.
       -3    1    3    3    0  502 -0.20312408389E+03 -0.19479572038E+03 -0.49746024545E+02  0.28579615689E+03  0.10100000352E+00 0. -1.
</event>
<event>
 5   0  0.2225808E-02  0.5973920E+03  0.7818609E-02  0.9910832E-01
        1   -1    0    0  501    0  0.00000000000E+00  0.00000000000E+00  0.15827657648E+03  0.15827657656E+03  0.50400001928E-02 0.  1.
       -1   -1    0    0    0  501  0.00000000000E+00  0.00000000000E+00 -0.56369238175E+03  0.56369238177E+03  0.50400001928E-02 0. -1.
    10030    2    1    2    0    0  0.00000000000E+00  0.00000000000E+00 -0.40541580527E+03  0.72196895833E+03  0.59739199998E+03 0.  0.
        2    1    3    3  502    0  0.32074897545E+02  0.21954637833E+03 -0.44438429125E+03  0.49669589248E+03  0.25500000920E-02 0. -1.
       -2    1    3    3    0  502 -0.32074897545E+02 -0.21954637833E+03  0.38968485984E+02  0.22527306585E+03  0.25500000920E-02 0.  1.
</event>
<event>
 5   0  0.3832191E-02  0.6000833E+03  0.7818609E-02  0.9905233E-01
        2   -1    0    0  501    0  0.00000000000E+00  0.00000000000E+00  0.60033762766E+03  0.60033762767E+03  0.25500000920E-02 0.  1.
       -2   -1    0    0    0  501  0.00000000000E+00  0.00000000000E+00 -0.14995725910E+03  0.14995725912E+03  0.25500000920E-02 0. -1.
    10030    2    1    2    0    0  0.00000000000E+00  0.00000000000E+00  0.45038036856E+03  0.75029488679E+03  0.60008327818E+03 0.  0.
        3    1    3    3  502    0 -0.14953043694E+03  0.19306437248E+03  0.44316106021E+03  0.50598907002E+03  0.10100000352E+00 0.  1.
       -3    1    3    3    0  502  0.14953043694E+03 -0.19306437248E+03  0.72193083556E+01  0.24430581677E+03  0.10100000352E+00 0. -1.
</event>
<event>
 5   0  0.2382531E-02  0.6075237E+03  0.7818609E-02  0.9889918E-01
        1   -1    0    0  501    0  0.00000000000E+00  0.00000000000E+00  0.17086109860E+03  0.17086109867E+03  0.50400001928E-02 0.  1.
       -1   -1    0    0    0  501  0.00000000000E+00  0.00000000000E+00 -0.54003673980E+03  0.54003673982E+03  0.50400001928E-02 0. -1.
    10030    2    1    2    0    0  0.00000000000E+00  0.00000000000E+00 -0.36917564120E+03  0.71089783849E+03  0.60752373017E+03 0.  0.
        5    1    3    3  502    0 -0.86536583986E+02  0.23106404193E+03 -0.39184103165E+03  0.46307737574E+03  0.46999998093E+01 0. -1.
       -5    1    3    3    0  502  0.86536583986E+02 -0.23106404193E+03  0.22665390446E+02  0.24782046276E+03  0.46999998093E+01 0.  1.
</event>
<event>
 5   0  0.2309055E-02  0.6012491E+03  0.7818609E-02  0.9902818E-01
       -1   -1    0    0    0  501  0.00000000000E+00  0.00000000000E+00  0.59517426017E+03  0.59517426019E+03  0.50400001928E-02 0.  1.
        1   -1    0    0  501    0  0.00000000000E+00  0.00000000000E+00 -0.15184648218E+03  0.15184648226E+03  0.50400001928E-02 0. -1.
    10030    2    1    2    0    0  0.00000000000E+00  0.00000000000E+00  0.44332777799E+03  0.74702074245E+03  0.60124909223E+03 0.  0.
        4    1    3    3  502    0  0.67666179084E+02 -0.74203766937E+02 -0.13038676358E+03  0.16458199123E+03  0.12699999809E+01 0. -1.
       -4    1    3    3    0  502 -0.67666179084E+02  0.74203766937E+02  0.57371454157E+03  0.58243875122E+03  0.12699999809E+01 0.  1.
</event>
<event>
 5   0  0.2276105E-02  0.6526120E+03  0.7818609E-02  0.9801890E-01
       -1   -1    0    0    0  501  0.00000000000E+00  0.00000000000E+00  0.39433334722E+03  0.39433334725E+03  0.50400001928E-02 0.  1.
        1   -1    0    0  501    0  0.00000000000E+00  0.00000000000E+00 -0.27001418935E+03  0.27001418939E+03  0.50400001928E-02 0. -1.
    10030    2    1    2    0    0  0.00000000000E+00  0.00000000000E+00  0.12431915787E+03  0.66434753664E+03  0.65261197999E+03 0.  0.
        1    1    3    3  502    0 -0.30760318623E+03 -0.10858482130E+03  0.53938749124E+02  0.33063540687E+03  0.50400001928E-02 0. -1.
       -1    1    3    3    0  502  0.30760318623E+03  0.10858482130E+03  0.70380408746E+02  0.33371212977E+03  0.50400001928E-02 0.  1.
</event>
<event>
 5   0  0.3934634E-02  0.5876571E+03  0.7818609E-02  0.9931350E-01
       -2   -1    0    0    0  501  0.00000000000E+00  0.00000000000E+00  0.70520667917E+03  0.70520667918E+03  0.25500000920E-02 0. -1.
        2   -1    0    0  501    0  0.00000000000E+00  0.00000000000E+00 -0.12242541549E+03  0.12242541552E+03  0.25500000920E-02 0.  1.
    10030    2    1    2    0    0  0.00000000000E+00  0.00000000000E+00  0.58278126368E+03  0.82763209470E+03  0.58765711335E+03 0.  0.
        1    1    3    3  502    0  0.28424477634E+03  0.74346953145E+02  0.29640137682E+03  0.41734438839E+03  0.50400001928E-02 0.  1.
       -1    1    3    3    0  502 -0.28424477634E+03 -0.74346953145E+02  0.28637988686E+03  0.41028770630E+03  0.50400001928E-02 0. -1.
</event>
<event>
 5   0  0.2276105E-02  0.6025903E+03  0.7818609E-02  0.9900046E-01
       -1   -1    0    0    0  501  0.00000000000E+00  0.00000000000E+00  0.22053591820E+03  0.22053591826E+03  0.50400001928E-02 0.  1.
        1   -1    0    0  501    0  0.00000000000E+00  0.00000000000E+00 -0.41162810395E+03  0.41162810398E+03  0.50400001928E-02 0. -1.
    10030    2    1    2    0    0  0.00000000000E+00  0.00000000000E+00 -0.19109218575E+03  0.63216402225E+03  0.60259034805E+03 0.  0.
        1    1    3    3  502    0 -0.16666578231E+02  0.22455109547E+03  0.11447340190E+03  0.25259677170E+03  0.50400001928E-02 0.  1.
       -1    1    3    3    0  502  0.16666578231E+02 -0.22455109547E+03 -0.30556558765E+03  0.37956725055E+03  0.50400001928E-02 0. -1.
</event>
<event>
 5   0  0.3832191E-02  0.6022930E+03  0.7818609E-02  0.9900660E-01
       -2   -1    0    0    0  501  0.00000000000E+00  0.00000000000E+00  0.72864066674E+03  0.72864066675E+03  0.25500000920E-02 0.  1.
        2   -1    0    0  501    0  0.00000000000E+00  0.00000000000E+00 -0.12446357097E+03  0.12446357100E+03  0.25500000920E-02 0. -1.
    10030    2    1    2    0    0  0.00000000000E+00  0.00000000000E+00  0.60417709577E+03  0.85310423775E+03  0.60229301624E+03 0.  0.
        3    1    3    3  502    0 -0.27565329541E+02 -0.10140961140E+03  0.70182592988E+03  0.70965019744E+03  0.10100000352E+00 0.  1.
       -3    1    3    3    0  502  0.27565329541E+02  0.10140961140E+03 -0.97648834110E+02  0.14345404031E+03  0.10100000352E+00 0. -1.
</event>
<event>
 5   0  0.3832191E-02  0.6031516E+03  0.7818609E-02  0.9898889E-01
       -2   -1    0    0    0  501  0.00000000000E+00  0.00000000000E+00  0.28751366310E+03  0.28751366311E+03  0.25500000920E-02 0.  1.
        2   -1    0    0  501    0  0.00000000000E+00  0.00000000000E+00 -0.31632572060E+03  0.31632572061E+03  0.25500000920E-02 0. -1.
    10030    2    1    2    0    0  0.00000000000E+00  0.00000000000E+00 -0.28812057503E+02  0.60383938372E+03  0.60315161169E+03 0.  0.
        3    1    3    3  502    0 -0.67489628436E+02  0.24475753980E+03 -0.17733943061E+03  0.30969402171E+03  0.10100000352E+00 0. -1.
       -3    1    3    3    0  502  0.67489628436E+02 -0.24475753980E+03  0.14852737310E+03  0.29414536202E+03  0.10100000352E+00 0.  1.
</event>
<event>
 5   0  0.3724066E-02  0.6071700E+03  0.7818609E-02  0.9890641E-01
       -2   -1    0    0    0  501  0.00000000000E+00  0.00000000000E+00  0.17916781334E+03  0.17916781335E+03  0.25500000920E-02 0. -1.
        2   -1    0    0  501    0  0.00000000000E+00  0.00000000000E+00 -0.51439953837E+03  0.51439953837E+03  0.25500000920E-02 0.  1.
    10030    2    1    2    0    0  0.00000000000E+00  0.00000000000E+00 -0.33523172503E+03  0.69356735173E+03  0.60716996131E+03 0.  0.
        4    1    3    3  502    0 -0.14973836621E+03 -0.24408544615E+03 -0.52459447726E+02  0.29112349595E+03  0.12699999809E+01 0. -1.
       -4    1    3    3    0  502  0.14973836621E+03  0.24408544615E+03 -0.28277227730E+03  0.40244385578E+03  0.12699999809E+01 0.  1.
</event>
<event>
 5   0  0.2295179E-02  0.5990593E+03  0.7818609E-02  0.9907360E-01
       -1   -1    0    0    0  501  0.00000000000E+00  0.00000000000E+00  0.26092117424E+03  0.26092117429E+03  0.50400001928E-02 0. -1.
        1   -1    0    0  501    0  0.00000000000E+00  0.00000000000E+00 -0.34385104970E+03  0.34385104974E+03  0.50400001928E-02 0.  1.
    10030    2    1    2    0    0  0.00000000000E+00  0.00000000000E+00 -0.82929875464E+02  0.60477222403E+03  0.59905932821E+03 0.  0.
        3    1    3    3  502    0  0.21708801163E+03  0.19264387406E+03 -0.11619206693E+03  0.31263312944E+03  0.10100000352E+00 0.  1.
       -3    1    3    3    0  502 -0.21708801163E+03 -0.19264387406E+03  0.33262191469E+02  0.29213909459E+03  0.10100000352E+00 0. -1.
</event>
<event>
 5   0  0.3724066E-02  0.5935777E+03  0.7818609E-02  0.9918821E-01
        2   -1    0    0  501    0  0.00000000000E+00  0.00000000000E+00  0.77062911301E+03  0.77062911301E+03  0.25500000920E-02 0.  1.
       -2   -1    0    0    0  501  0.00000000000E+00  0.00000000000E+00 -0.11430091072E+03  0.11430091075E+03  0.25500000920E-02 0. -1.
    10030    2    1    2    0    0  0.00000000000E+00  0.00000000000E+00  0.65632820229E+03  0.88493002376E+03  0.59357765948E+03 0.  0.
        4    1    3    3  502    0  0.24315701699E+02  0.29350168857E+03  0.27343780012E+03  0.40187602314E+03  0.12699999809E+01 0. -1.
       -4    1    3    3    0  502 -0.24315701699E+02 -0.29350168857E+03  0.38289040217E+03  0.48305400062E+03  0.12699999809E+01 0.  1.
</event>
<event>
 5   0  0.2382531E-02  0.6048348E+03  0.7818609E-02  0.9895426E-01
       -1   -1    0    0    0  501  0.00000000000E+00  0.00000000000E+00  0.59201798709E+02  0.59201798924E+02  0.50400001928E-02 0.  1.
        1   -1    0    0  501    0  0.00000000000E+00  0.00000000000E+00 -0.15448225400E+04  0.15448225400E+04  0.50400001928E-02 0. -1.
    10030    2    1    2    0    0  0.00000000000E+00  0.00000000000E+00 -0.14856207413E+04  0.16040243389E+04  0.60483476498E+03 0.  0.
        5    1    3    3  502    0 -0.10397484390E+03 -0.27944289061E+03 -0.87633781999E+03  0.92568307860E+03  0.46999998093E+01 0. -1.
       -5    1    3    3    0  502  0.10397484390E+03  0.27944289061E+03 -0.60928292130E+03  0.67834126032E+03  0.46999998093E+01 0.  1.
</event>
<event>
 5   0  0.3934634E-02  0.6041247E+03  0.7818609E-02  0.9896885E-01
       -2   -1    0    0    0  501  0.00000000000E+00  0.00000000000E+00  0.11312842038E+03  0.11312842040E+03  0.25500000920E-02 0.  1.
        2   -1    0    0  501    0  0.00000000000E+00  0.00000000000E+00 -0.80653165153E+03  0.80653165153E+03  0.25500000920E-02 0. -1.
    10030    2    1    2    0    0  0.00000000000E+00  0.00000000000E+00 -0.69340323115E+03  0.91966007194E+03  0.60412466176E+03 0.  0.
        1    1    3    3  502    0 -0.13008954457E+03  0.15380407003E+02 -0.76104131318E+03  0.77223294861E+03  0.50400001928E-02 0. -1.
       -1    1    3    3    0  502  0.13008954457E+03 -0.15380407003E+02  0.67638082032E+02  0.14742712332E+03  0.50400001928E-02 0.  1.
</event>
<event>
 5   0  0.2225808E-02  0.6131795E+03  0.7818609E-02  0.9878434E-01
        1   -1    0    0  501    0  0.00000000000E+00  0.00000000000E+00  0.12012499947E+04  0.12012499947E+04  0.50400001928E-02 0. -1.
       -1   -1    0    0    0  501  0.00000000000E+00  0.00000000000E+00 -0.78249559381E+02  0.78249559543E+02  0.50400001928E-02 0.  1.
    10030    2    1    2    0    0  0.00000000000E+00  0.00000000000E+00  0.11230004353E+04  0.12794995542E+04  0.61317952640E+03 0.  0.
        2    1    3    3  502    0 -0.19017149863E+03  0.18161860192E+03  0.23258236915E+03  0.35106277772E+03  0.25500000920E-02 0.  1.
       -2    1    3    3    0  502  0.19017149863E+03 -0.18161860192E+03  0.89041806613E+03  0.92843677649E+03  0.25500000920E-02 0. -1.
</event>
<event>
 5   0  0.3737642E-02  0.6021373E+03  0.7818609E-02  0.9900982E-01
       -2   -1    0    0    0  501  0.00000000000E+00  0.00000000000E+00  0.40187498219E+02  0.40187498300E+02  0.25500000920E-02 0. -1.
        2   -1    0    0  501    0  0.00000000000E+00  0.00000000000E+00 -0.22554859486E+04  0.22554859486E+04  0.25500000920E-02 0.  1.
    10030    2    1    2    0    0  0.00000000000E+00  0.00000000000E+00 -0.22152984503E+04  0.22956734469E+04  0.60213731868E+03 0.  0.
        5    1    3    3  502    0  0.80347007783E+02 -0.25286151310E+03 -0.56544121359E+03  0.62461223370E+03  0.46999998093E+01 0. -1.
       -5    1    3    3    0  502 -0.80347007783E+02  0.25286151310E+03 -0.16498572368E+04  0.16710612132E+04  0.46999998093E+01 0.  1.
</event>
<event>
 5   0  0.2295179E-02  0.5963122E+03  0.7818609E-02  0.9913087E-01
       -1   -1    0    0    0  501  0.00000000000E+00  0.00000000000E+00  0.75372909391E+02  0.75372909559E+02  0.50400001928E-02 0.  1.
        1   -1    0    0  501    0  0.00000000000E+00  0.00000000000E+00 -0.11794297043E+04  0.11794297043E+04  0.50400001928E-02 0. -1.
    10030    2    1    2    0    0  0.00000000000E+00  0.00000000000E+00 -0.11040567949E+04  0.12548026138E+04  0.59631216102E+03 0.  0.
        3    1    3    3  502    0 -0.17930581216E+03  0.23765496357E+03 -0.58638555998E+03  0.65763096881E+03  0.10100000352E+00 0.  1.
       -3    1    3    3    0  502  0.17930581216E+03 -0.23765496357E+03 -0.51767123491E+03  0.59717164504E+03  0.10100000352E+00 0. -1.
</event>
<event>
 5   0  0.2276105E-02  0.6020928E+03  0.7818609E-02  0.9901074E-01
        1   -1    0    0  501    0  0.00000000000E+00  0.00000000000E+00  0.27193165051E+03  0.27193165056E+03  0.50400001928E-02 0.  1.
       -1   -1    0    0    0  501  0.00000000000E+00  0.00000000000E+00 -0.33327839357E+03  0.33327839361E+03  0.50400001928E-02 0. -1.
    10030    2    1    2    0    0  0.00000000000E+00  0.00000000000E+00 -0.61346743062E+02  0.60521004417E+03  0.60209282895E+03 0.  0.
        1    1    3    3  502    0  0.19301935251E+03  0.39102805243E+02 -0.25954375315E+03  0.32580432724E+03  0.50400001928E-02 0. -1.
       -1    1    3    3    0  502 -0.19301935251E+03 -0.39102805243E+02  0.19819701009E+03  0.27940571693E+03  0.50400001928E-02 0.  1.
</event>
<event>
 5   0  0.1521750E-02  0.5964249E+03  0.7818609E-02  0.9912851E-01
        3   -1    0    0  501    0  0.00000000000E+00  0.00000000000E+00  0.23961235073E+03  0.23961237201E+03  0.10100000352E+00 0.  1.
       -3   -1    0    0    0  501  0.00000000000E+00  0.00000000000E+00 -0.37114391838E+03  0.37114393212E+03  0.10100000352E+00 0. -1.
    10030    2    1    2    0    0  0.00000000000E+00  0.00000000000E+00 -0.13153156765E+03  0.61075630413E+03  0.59642494058E+03 0.  0.
        3    1    3    3  502    0  0.50257097303E+02 -0.15928737617E+03 -0.31874944249E+03  0.35986033586E+03  0.10100000352E+00 0. -1.
       -3    1    3    3    0  502 -0.50257097303E+02  0.15928737617E+03  0.18721787484E+03  0.25089596827E+03  0.10100000352E+00 0.  1.
</event>
<event>
 5   0  0.2382531E-02  0.6103845E+03  0.7818609E-02  0.9884093E-01
       -1   -1    0    0    0  501  0.00000000000E+00  0.00000000000E+00  0.65489476340E+03  0.65489476342E+03  0.50400001928E-02 0. -1.
        1   -1    0    0  501    0  0.00000000000E+00  0.00000000000E+00 -0.14222483348E+03  0.14222483357E+03  0.50400001928E-02 0.  1.
    10030    2    1    2    0    0  0.00000000000E+00  0.00000000000E+00  0.51266992991E+03  0.79711959699E+03  0.61038446480E+03 0.  0.
        5    1    3    3  502    0  0.32766082859E+02  0.34351339276E+02 -0.13732577203E+03  0.14537568007E+03  0.46999998093E+01 0.  1.
       -5    1    3    3    0  502 -0.32766082859E+02 -0.34351339276E+02  0.64999570194E+03  0.65174391692E+03  0.46999998093E+01 0. -1.
</event>
<event>
 5   0  0.2276105E-02  0.5942725E+03  0.7818609E-02  0.9917361E-01
       -1   -1    0    0    0  501  0.00000000000E+00  0.00000000000E+00  0.12370541812E+03  0.12370541823E+03  0.50400001928E-02 0.  1.
        1   -1    0    0  501    0  0.00000000000E+00  0.00000000000E+00 -0.71371125079E+03  0.71371125081E+03  0.50400001928E-02 0. -1.
    10030    2    1    2    0    0  0.00000000000E+00  0.00000000000E+00 -0.59000583267E+03  0.83741666904E+03  0.59427249221E+03 0.  0.
        1    1    3    3  502    0 -0.18719236219E+03  0.17273030265E+03 -0.51062163511E+03  0.57062351177E+03  0.50400001928E-02 0. -1.
       -1    1    3    3    0  502  0.18719236219E+03 -0.17273030265E+03 -0.79384197558E+02  0.26679315727E+03  0.50400001928E-02 0.  1.
</event>
<event>
 5   0  0.2225808E-02  0.5987824E+03  0.7818609E-02  0.9907935E-01
        1   -1    0    0  501    0  0.00000000000E+00  0.00000000000E+00  0.32179009923E+03  0.32179009927E+03  0.50400001928E-02 0. -1.
       -1   -1    0    0    0  501  0.00000000000E+00  0.00000000000E+00 -0.27855142283E+03  0.27855142288E+03  0.50400001928E-02 0.  1.
    10030    2    1    2    0    0  0.00000000000E+00  0.00000000000E+00  0.43238676398E+02  0.60034152215E+03  0.59878239794E+03 0.  0.
        2    1    3    3  502    0 -0.78794971015E+02  0.11377015211E+03 -0.24455790079E+03  0.28099975411E+03  0.25500000920E-02 0.  1.
       -2    1    3    3    0  502  0.78794971015E+02 -0.11377015211E+03  0.28779657719E+03  0.31934176804E+03  0.25500000920E-02 0. -1.
</event>
<event>
 5   0  0.2295179E-02  0.5988167E+03  0.7818609E-02  0.9907864E-01
       -1   -1    0    0    0  501  0.00000000000E+00  0.00000000000E+00  0.14549455598E+03  0.14549455606E+03  0.50400001928E-02 0. -1.
        1   -1    0    0  501    0  0.00000000000E+00  0.00000000000E+00 -0.61614226411E+03  0.61614226413E+03  0.50400001928E-02 0.  1.
    10030    2    1    2    0    0  0.00000000000E+00  0.00000000000E+00 -0.47064770814E+03  0.76163682020E+03  0.59881665032E+03 0.  0.
        3    1    3    3  502    0 -0.44816375447E+02 -0.11507780505E+03  0.11159092641E+03  0.16644504733E+03  0.10100000352E+00 0. -1.
       -3    1    3    3    0  502  0.44816375447E+02  0.11507780505E+03 -0.58223863455E+03  0.59519177286E+03  0.10100000352E+00 0.  1.
</event>
<event>
 5   0  0.3737642E-02  0.5983696E+03  0.7818609E-02  0.9908794E-01
       -2   -1    0    0    0  501  0.00000000000E+00  0.00000000000E+00  0.50759072664E+02  0.50759072728E+02  0.25500000920E-02 0.  1.
        2   -1    0    0  501    0  0.00000000000E+00  0.00000000000E+00 -0.17634592267E+04  0.17634592267E+04  0.25500000920E-02 0. -1.
    10030    2    1    2    0    0  0.00000000000E+00  0.00000000000E+00 -0.17127001540E+04  0.18142182994E+04  0.59836963522E+03 0.  0.
        5    1    3    3  502    0 -0.21715499408E+03  0.95758543395E+02 -0.30420905837E+03  0.38586426535E+03  0.46999998093E+01 0.  1.
       -5    1    3    3    0  502  0.21715499408E+03 -0.95758543395E+02 -0.14084910957E+04  0.14283540341E+04  0.46999998093E+01 0. -1.
</event>
<event>
 5   0  0.2382531E-02  0.6018684E+03  0.7818609E-02  0.9901537E-01
       -1   -1    0    0    0  501  0.00000000000E+00  0.00000000000E+00  0.20941327745E+03  0.20941327751E+03  0.50400001928E-02 0.  1.
        1   -1    0    0  501    0  0.00000000000E+00  0.00000000000E+00 -0.43245299522E+03  0.43245299525E+03  0.50400001928E-02 0. -1.
    10030    2    1    2    0    0  0.00000000000E+00  0.00000000000E+00 -0.22303971777E+03  0.64186627277E+03  0.60186842118E+03 0.  0.
        5    1    3    3  502    0  0.25707516711E+02  0.29899332562E+03 -0.88120345103E+02  0.31280212659E+03  0.46999998093E+01 0. -1.
       -5    1    3    3    0  502 -0.25707516711E+02 -0.29899332562E+03 -0.13491937267E+03  0.32906414618E+03  0.46999998093E+01 0.  1.
</event>
<event>
 5   0  0.3934634E-02  0.6007018E+03  0.7818609E-02  0.9903951E-01
       -2   -1    0    0    0  501  0.00000000000E+00  0.00000000000E+00  0.17741944106E+03  0.17741944108E+03  0.25500000920E-02 0. -1.
        2   -1    0    0  501    0  0.00000000000E+00  0.00000000000E+00 -0.50845977963E+03  0.50845977963E+03  0.25500000920E-02 0.  1.
    10030    2    1    2    0    0  0.00000000000E+00  0.00000000000E+00 -0.33104033857E+03  0.68587922071E+03  0.60070175599E+03 0.  0.
        1    1    3    3  502    0 -0.14429415387E+03  0.30511401170E+02  0.13322693686E+03  0.19874900044E+03  0.50400001928E-02 0. -1.
       -1    1    3    3    0  502  0.14429415387E+03 -0.30511401170E+02 -0.46426727543E+03  0.48713022027E+03  0.50400001928E-02 0.  1.
</event>
<event>
 5   0  0.2276105E-02  0.5959569E+03  0.7818609E-02  0.9913830E-01
        1   -1    0    0  501    0  0.00000000000E+00  0.00000000000E+00  0.39280200934E+03  0.39280200938E+03  0.50400001928E-02 0. -1.
       -1   -1    0    0    0  501  0.00000000000E+00  0.00000000000E+00 -0.22604558377E+03  0.22604558383E+03  0.50400001928E-02 0.  1.
    10030    2    1    2    0    0  0.00000000000E+00  0.00000000000E+00  0.16675642557E+03  0.61884759320E+03  0.59595690964E+03 0.  0.
        1    1    3    3  502    0 -0.90327562564E+02 -0.27879516466E+03  0.27406594955E+02  0.29434152590E+03  0.50400001928E-02 0. -1.
       -1    1    3    3    0  502  0.90327562564E+02  0.27879516466E+03  0.13934983062E+03  0.32450606730E+03  0.50400001928E-02 0.  1.
</event>
<event>
 5   0  0.3724066E-02  0.6017525E+03  0.7818609E-02  0.9901777E-01
       -2   -1    0    0    0  501  0.00000000000E+00  0.00000000000E+00  0.73086916347E+02  0.73086916392E+02  0.25500000920E-02 0. -1.
        2   -1    0    0  501    0  0.00000000000E+00  0.00000000000E+00 -0.12386144942E+04  0.12386144942E+04  0.25500000920E-02 0.  1.
    10030    2    1    2    0    0  0.00000000000E+00  0.00000000000E+00 -0.11655275779E+04  0.13117014106E+04  0.60175248718E+03 0.  0.
        4    1    3    3  502    0 -0.30080117438E+03  0.53440774296E+01 -0.59120482851E+03  0.66335108942E+03  0.12699999809E+01 0.  1.
       -4    1    3    3    0  502  0.30080117438E+03 -0.53440774296E+01 -0.57432274938E+03  0.64835032122E+03  0.12699999809E+01 0. -1.
</event>
<event>
 5   0  0.3832191E-02  0.5991492E+03  0.7818609E-02  0.9907173E-01
       -2   -1    0    0    0  501  0.00000000000E+00  0.00000000000E+00  0.14020906659E+03  0.14020906661E+03  0.25500000920E-02 0. -1.
        2   -1    0    0  501    0  0.00000000000E+00  0.00000000000E+00 -0.64007950702E+03  0.64007950703E+03  0.25500000920E-02 0.  1.
    10030    2    1    2    0    0  0.00000000000E+00  0.00000000000E+00 -0.49987044044E+03  0.78028857363E+03  0.59914923093E+03 0.  0.
        3    1    3    3  502    0 -0.19299248960E+03 -0.97642719042E+01  0.48191141330E+02  0.19915782272E+03  0.10100000352E+00 0. -1.
       -3    1    3    3    0  502  0.19299248960E+03  0.97642719042E+01 -0.54806158177E+03  0.58113075091E+03  0.10100000352E+00 0.  1.
</event>
<event>
 5   0  0.2276105E-02  0.5981613E+03  0.7818609E-02  0.9909228E-01
       -1   -1    0    0    0  501  0.00000000000E+00  0.00000000000E+00  0.13599906891E+03  0.13599906900E+03  0.50400001928E-02 0.  1.
        1   -1    0    0  501    0  0.00000000000E+00  0.00000000000E+00 -0.65771956817E+03  0.65771956819E+03  0.50400001928E-02 0. -1.
    10030    2    1    2    0    0  0.00000000000E+00  0.00000000000E+00 -0.52172049926E+03  0.79371863719E+03  0.59816134585E+03 0.  0.
        1    1    3    3  502    0 -0.26524125043E+03 -0.68173741128E+02 -0.42036078826E+03  0.50170087925E+03  0.50400001928E-02 0. -1.
       -1    1    3    3    0  502  0.26524125043E+03  0.68173741128E+02 -0.10135971100E+03  0.29201775794E+03  0.50400001928E-02 0.  1.
</event>
<event>
 5   0  0.2382531E-02  0.5966395E+03  0.7818609E-02  0.9912403E-01
       -1   -1    0    0    0  501  0.00000000000E+00  0.00000000000E+00  0.53980188509E+03  0.53980188511E+03  0.50400001928E-02 0.  1.
        1   -1    0    0  501    0  0.00000000000E+00  0.00000000000E+00 -0.16486542133E+03  0.16486542141E+03  0.50400001928E-02 0. -1.
    10030    2    1    2    0    0  0.00000000000E+00  0.00000000000E+00  0.37493646375E+03  0.70466730652E+03  0.59663947324E+03 0.  0.
        5    1    3    3  502    0  0.91914968102E+02  0.85136677014E+02  0.50717578662E+03  0.52244232568E+03  0.46999998093E+01 0.  1.
       -5    1    3    3    0  502 -0.91914968102E+02 -0.85136677014E+02 -0.13223932286E+03  0.18222498084E+03  0.46999998093E+01 0. -1.
</event>
<event>
 5   0  0.2382531E-02  0.5945458E+03  0.7818609E-02  0.9916787E-01
        1   -1    0    0  501    0  0.00000000000E+00  0.00000000000E+00  0.25254690320E+04  0.25254690320E+04  0.50400001928E-02 0. -1.
       -1   -1    0    0    0  501  0.00000000000E+00  0.00000000000E+00 -0.34991985549E+02  0.34991985912E+02  0.50400001928E-02 0.  1.
    10030    2    1    2    0    0  0.00000000000E+00  0.00000000000E+00  0.24904770464E+04  0.25604610179E+04  0.59454579754E+03 0.  0.
        5    1    3    3  502    0 -0.38851179444E+02  0.65765581392E+02  0.24823195609E+04  0.24834989467E+04  0.46999998093E+01 0. -1.
       -5    1    3    3    0  502  0.38851179444E+02 -0.65765581392E+02  0.81574855720E+01  0.76962071237E+02  0.46999998093E+01 0.  1.
</event>
<event>
 5   0  0.2225808E-02  0.5989227E+03  0.7818609E-02  0.9907644E-01
       -1   -1    0    0    0  501  0.00000000000E+00  0.00000000000E+00  0.25556708249E+03  0.25556708254E+03  0.50400001928E-02 0.  1.
        1   -1    0    0  501    0  0.00000000000E+00  0.00000000000E+00 -0.35089461116E+03  0.35089461119E+03  0.50400001928E-02 0. -1.
    10030    2    1    2    0    0  0.00000000000E+00  0.00000000000E+00 -0.95327528663E+02  0.60646169373E+03  0.59892273980E+03 0.  0.
        2    1    3    3  502    0  0.11934091522E+03 -0.10615519082E+03 -0.30416226463E+03  0.34354892201E+03  0.25500000920E-02 0. -1.
       -2    1    3    3    0  502 -0.11934091522E+03  0.10615519082E+03  0.20883473596E+03  0.26291277172E+03  0.25500000920E-02 0.  1.
</event>
<event>
 5   0  0.3737642E-02  0.5975244E+03  0.7818609E-02  0.9910555E-01
       -2   -1    0    0    0  501  0.00000000000E+00  0.00000000000E+00  0.81665653015E+02  0.81665653055E+02  0.25500000920E-02 0.  1.
        2   -1    0    0  501    0  0.00000000000E+00  0.00000000000E+00 -0.10929791510E+04  0.10929791510E+04  0.25500000920E-02 0. -1.
    10030    2    1    2    0    0  0.00000000000E+00  0.00000000000E+00 -0.10113134980E+04  0.11746448041E+04  0.59752441331E+03 0.  0.
        5    1    3    3  502    0  0.24754620488E+03 -0.47547812928E+02 -0.19052596046E+03  0.31600973034E+03  0.46999998093E+01 0.  1.
       -5    1    3    3    0  502 -0.24754620488E+03  0.47547812928E+02 -0.82078753755E+03  0.85863507374E+03  0.46999998093E+01 0. -1.
</event>
<event>
 5   0  0.3798925E-02  0.6282015E+03  0.7818609E-02  0.9848565E-01
        2   -1    0    0  501    0  0.00000000000E+00  0.00000000000E+00  0.16057889287E+04  0.16057889287E+04  0.25500000920E-02 0.  1.
       -2   -1    0    0    0  501  0.00000000000E+00  0.00000000000E+00 -0.61439766056E+02  0.61439766108E+02  0.25500000920E-02 0. -1.
    10030    2    1    2    0    0  0.00000000000E+00  0.00000000000E+00  0.15443491626E+04  0.16672286948E+04  0.62820154778E+03 0.  0.
        2    1    3    3  502    0  0.12150898139E+03 -0.28885886603E+03  0.71553737829E+03  0.78115146853E+03  0.25500000920E-02 0.  1.
       -2    1    3    3    0  502 -0.12150898139E+03  0.28885886603E+03  0.82881178433E+03  0.88607722626E+03  0.25500000920E-02 0. -1.
</event>
<event>
 5   0  0.3832191E-02  0.6020623E+03  0.7818609E-02  0.9901137E-01
       -2   -1    0    0    0  501  0.00000000000E+00  0.00000000000E+00  0.12360045851E+03  0.12360045853E+03  0.25500000920E-02 0.  1.
        2   -1    0    0  501    0  0.00000000000E+00  0.00000000000E+00 -0.73316687785E+03  0.73316687786E+03  0.25500000920E-02 0. -1.
    10030    2    1    2    0    0  0.00000000000E+00  0.00000000000E+00 -0.60956641934E+03  0.85676733639E+03  0.60206232993E+03 0.  0.
        3    1    3    3  502    0  0.71202746331E+02  0.23180347265E+03 -0.50948186003E+02  0.24778702321E+03  0.10100000352E+00 0.  1.
       -3    1    3    3    0  502 -0.71202746331E+02 -0.23180347265E+03 -0.55861823334E+03  0.60898031318E+03  0.10100000352E+00 0. -1.
</event>
<event>
 5   0  0.3798925E-02  0.6018022E+03  0.7818609E-02  0.9901674E-01
       -2   -1    0    0    0  501  0.00000000000E+00  0.00000000000E+00  0.11765406969E+03  0.11765406971E+03  0.25500000920E-02 0. -1.
        2   -1    0    0  501    0  0.00000000000E+00  0.00000000000E+00 -0.76955671086E+03  0.76955671087E+03  0.25500000920E-02 0.  1.
    10030    2    1    2    0    0  0.00000000000E+00  0.00000000000E+00 -0.65190264118E+03  0.88721078058E+03  0.60180222300E+03 0.  0.
        2    1    3    3  502    0  0.13340248440E+03 -0.10808945153E+03 -0.69025056780E+03  0.71128433044E+03  0.25500000920E-02 0.  1.
       -2    1    3    3    0  502 -0.13340248440E+03  0.10808945153E+03  0.38347926623E+02  0.17592645014E+03  0.25500000920E-02 0. -1.
</event>
<event>
 5   0  0.3832191E-02  0.5916249E+03  0.7818609E-02  0.9922936E-01
       -2   -1    0    0    0  501  0.00000000000E+00  0.00000000000E+00  0.11436828216E+04  0.11436828216E+04  0.25500000920E-02 0. -1.
        2   -1    0    0  501    0  0.00000000000E+00  0.00000000000E+00 -0.76511594752E+02  0.76511594794E+02  0.25500000920E-02 0.  1.
    10030    2    1    2    0    0  0.00000000000E+00  0.00000000000E+00  0.10671712269E+04  0.12201944164E+04  0.59162486966E+03 0.  0.
        3    1    3    3  502    0 -0.14458071862E+03  0.25729750021E+03  0.57480351467E+03  0.64614601948E+03  0.10100000352E+00 0. -1.
       -3    1    3    3    0  502  0.14458071862E+03 -0.25729750021E+03  0.49236771220E+03  0.57404839694E+03  0.10100000352E+00 0.  1.
</event>
<event>
 5   0  0.3737642E-02  0.5933625E+03  0.7818609E-02  0.9919273E-01
       -2   -1    0    0    0  501  0.00000000000E+00  0.00000000000E+00  0.30760764624E+03  0.30760764625E+03  0.25500000920E-02 0.  1.
        2   -1    0    0  501    0  0.00000000000E+00  0.00000000000E+00 -0.28614295432E+03  0.28614295433E+03  0.25500000920E-02 0. -1.
    10030    2    1    2    0    0  0.00000000000E+00  0.00000000000E+00  0.21464691924E+02  0.59375060058E+03  0.59336248844E+03 0.  0.
        5    1    3    3  502    0  0.24626167831E+03  0.45514348752E+02  0.16983729185E+03  0.30262710693E+03  0.46999998093E+01 0.  1.
       -5    1    3    3    0  502 -0.24626167831E+03 -0.45514348752E+02 -0.14837259993E+03  0.29112349365E+03  0.46999998093E+01 0. -1.
</event>
<event>
 5   0  0.3724066E-02  0.5885285E+03  0.7818609E-02  0.9929496E-01
        2   -1    0    0  501    0  0.00000000000E+00  0.00000000000E+00  0.21903513859E+03  0.21903513860E+03  0.25500000920E-02 0.  1.
       -2   -1    0    0    0  501  0.00000000000E+00  0.00000000000E+00 -0.39533135136E+03  0.39533135137E+03  0.25500000920E-02 0. -1.
    10030    2    1    2    0    0  0.00000000000E+00  0.00000000000E+00 -0.17629621277E+03  0.61436648997E+03  0.58852852893E+03 0.  0.
        4    1    3    3  502    0  0.11684557853E+03 -0.17282370962E+03 -0.30478977558E+03  0.36934989377E+03  0.12699999809E+01 0. -1.
       -4    1    3    3    0  502 -0.11684557853E+03  0.17282370962E+03  0.12849356281E+03  0.24501659620E+03  0.12699999809E+01 0.  1.
</event>
<event>
 5   0  0.3724066E-02  0.6052293E+03  0.7818609E-02  0.9894616E-01
        2   -1    0    0  501    0  0.00000000000E+00  0.00000000000E+00  0.16526903433E+03  0.16526903435E+03  0.25500000920E-02 0.  1.
       -2   -1    0    0    0  501  0.00000000000E+00  0.00000000000E+00 -0.55410027585E+03  0.55410027585E+03  0.25500000920E-02 0. -1.
    10030    2    1    2    0    0  0.00000000000E+00  0.00000000000E+00 -0.38883124151E+03  0.71936931020E+03  0.60522927068E+03 0.  0.
        4    1    3    3  502    0  0.18884460834E+03  0.97894784401E+01 -0.47522453385E+03  0.51146660737E+03  0.12699999809E+01 0. -1.
       -4    1    3    3    0  502 -0.18884460834E+03 -0.97894784401E+01  0.86393292331E+02  0.20790270283E+03  0.12699999809E+01 0.  1.
</event>
<event>
 5   0  0.2276105E-02  0.6078243E+03  0.7818609E-02  0.9889305E-01
        1   -1    0    0  501    0  0.00000000000E+00  0.00000000000E+00  0.73756926323E+03  0.73756926325E+03  0.50400001928E-02 0. -1.
       -1   -1    0    0    0  501  0.00000000000E+00  0.00000000000E+00 -0.12522566854E+03  0.12522566865E+03  0.50400001928E-02 0.  1.
    10030    2    1    2    0    0  0.00000000000E+00  0.00000000000E+00  0.61234359468E+03  0.86279493189E+03  0.60782433033E+03 0.  0.
        1    1    3    3  502    0 -0.11418816422E+03 -0.27878539909E+03  0.24935055737E+03  0.39107024443E+03  0.50400001928E-02 0. -1.
       -1    1    3    3    0  502  0.11418816422E+03  0.27878539909E+03  0.36299303731E+03  0.47172468746E+03  0.50400001928E-02 0.  1.
</event>
<event>
 5   0  0.3798925E-02  0.6016120E+03  0.7818609E-02  0.9902067E-01
       -2   -1    0    0    0  501  0.00000000000E+00  0.00000000000E+00  0.12700521703E+03  0.12700521705E+03  0.25500000920E-02 0.  1.
        2   -1    0    0  501    0  0.00000000000E+00  0.00000000000E+00 -0.71244502411E+03  0.71244502412E+03  0.25500000920E-02 0. -1.
    10030    2    1    2    0    0  0.00000000000E+00  0.00000000000E+00 -0.58543980709E+03  0.83945024117E+03  0.60161195108E+03 0.  0.
        2    1    3    3  502    0  0.97140970930E+02 -0.24319546198E+03 -0.49922870803E+03  0.56374613426E+03  0.25500000920E-02 0.  1.
       -2    1    3    3    0  502 -0.97140970930E+02  0.24319546198E+03 -0.86211099051E+02  0.27570410691E+03  0.25500000920E-02 0. -1.
</event>
<event>
 5   0  0.2382531E-02  0.5981151E+03  0.7818609E-02  0.9909324E-01
       -1   -1    0    0    0  501  0.00000000000E+00  0.00000000000E+00  0.61837529013E+03  0.61837529015E+03  0.50400001928E-02 0. -1.
        1   -1    0    0  501    0  0.00000000000E+00  0.00000000000E+00 -0.14462967555E+03  0.14462967564E+03  0.50400001928E-02 0.  1.
    10030    2    1    2    0    0  0.00000000000E+00  0.00000000000E+00  0.47374561458E+03  0.76300496579E+03  0.59811509803E+03 0.  0.
        5    1    3    3  502    0  0.91152053510E+02  0.94636111482E+02  0.57952748518E+03  0.59425490030E+03  0.46999998093E+01 0. -1.
       -5    1    3    3    0  502 -0.91152053510E+02 -0.94636111482E+02 -0.10578187060E+03  0.16875006549E+03  0.46999998093E+01 0.  1.
</event>
<event>
 5   0  0.2309055E-02  0.5997936E+03  0.7818609E-02  0.9905834E-01
        1   -1    0    0  501    0  0.00000000000E+00  0.00000000000E+00  0.12005329778E+04  0.12005329778E+04  0.50400001928E-02 0. -1.
       -1   -1    0    0    0  501  0.00000000000E+00  0.00000000000E+00 -0.74915132358E+02  0.74915132527E+02  0.50400001928E-02 0.  1.
    10030    2    1    2    0    0  0.00000000000E+00  0.00000000000E+00  0.11256178455E+04  0.12754481103E+04  0.59979358799E+03 0.  0.
        4    1    3    3  502    0  0.20022697923E+03  0.13176146526E+03  0.17954372521E+03  0.29948203469E+03  0.12699999809E+01 0.  1.
       -4    1    3    3    0  502 -0.20022697923E+03 -0.13176146526E+03  0.94607412025E+03  0.97596607566E+03  0.12699999809E+01 0. -1.
</event>
<event>
 5   0  0.2382531E-02  0.6009523E+03  0.7818609E-02  0.9903432E-01
       -1   -1    0    0    0  501  0.00000000000E+00  0.00000000000E+00  0.46791717750E+03  0.46791717752E+03  0.50400001928E-02 0.  1.
        1   -1    0    0  501    0  0.00000000000E+00  0.00000000000E+00 -0.19295276034E+03  0.19295276041E+03  0.50400001928E-02 0. -1.
    10030    2    1    2    0    0  0.00000000000E+00  0.00000000000E+00  0.27496441715E+03  0.66086993793E+03  0.60095228110E+03 0.  0.
        5    1    3    3  502    0  0.19958817515E+02  0.28526588791E+03  0.36161042648E+02  0.28827884454E+03  0.46999998093E+01 0. -1.
       -5    1    3    3    0  502 -0.19958817515E+02 -0.28526588791E+03  0.23880337451E+03  0.37259109340E+03  0.46999998093E+01 0.  1.
</event>
<event>
 5   0  0.3934634E-02  0.5984084E+03  0.7818609E-02  0.9908714E-01
        2   -1    0    0  501    0  0.00000000000E+00  0.00000000000E+00  0.55754790350E+03  0.55754790350E+03  0.25500000920E-02 0. -1.
       -2   -1    0    0    0  501  0.00000000000E+00  0.00000000000E+00 -0.16056585742E+03  0.16056585744E+03  0.25500000920E-02 0.  1.
    10030    2    1    2    0    0  0.00000000000E+00  0.00000000000E+00  0.39698204608E+03  0.71811376094E+03  0.59840841300E+03 0.  0.
        1    1    3    3  502    0 -0.43240394395E+02  0.14387919056E+03 -0.11202069731E+03  0.18740221407E+03  0.50400001928E-02 0.  1.
       -1    1    3    3    0  502  0.43240394395E+02 -0.14387919056E+03  0.50900274339E+03  0.53071154688E+03  0.50400001928E-02 0. -1.
</event>
<event>
 5   0  0.3832191E-02  0.6042469E+03  0.7818609E-02  0.9896634E-01
       -2   -1    0    0    0  501  0.00000000000E+00  0.00000000000E+00  0.64182527602E+02  0.64182527653E+02  0.25500000920E-02 0. -1.
        2   -1    0    0  501    0  0.00000000000E+00  0.00000000000E+00 -0.14221718149E+04  0.14221718149E+04  0.25500000920E-02 0.  1.
    10030    2    1    2    0    0  0.00000000000E+00  0.00000000000E+00 -0.13579892873E+04  0.14863543426E+04  0.60424690916E+03 0.  0.
        3    1    3    3  502    0  0.14290771333E+03 -0.12394480279E+03 -0.99526538826E+02  0.21375329424E+03  0.10100000352E+00 0. -1.
       -3    1    3    3    0  502 -0.14290771333E+03  0.12394480279E+03 -0.12584627485E+04  0.12726010483E+04  0.10100000352E+00 0.  1.
</event>
<event>
 5   0  0.3737642E-02  0.6005042E+03  0.7818609E-02  0.9904361E-01
        2   -1    0    0  501    0  0.00000000000E+00  0.00000000000E+00  0.87666635280E+03  0.87666635281E+03  0.25500000920E-02 0.  1.
       -2   -1    0    0    0  501  0.00000000000E+00  0.00000000000E+00 -0.10283423953E+03  0.10283423956E+03  0.25500000920E-02 0. -1.
    10030    2    1    2    0    0  0.00000000000E+00  0.00000000000E+00  0.77383211327E+03  0.97950059237E+03  0.60050418060E+03 0.  0.
        5    1    3    3  502    0  0.14142389377E+02  0.27694825041E+02  0.87397228074E+03  0.87453796259E+03  0.46999998093E+01 0.  1.
       -5    1    3    3    0  502 -0.14142389377E+02 -0.27694825041E+02 -0.10014016747E+03  0.10496262978E+03  0.46999998093E+01 0. -1.
</event>
<event>
 5   0  0.2382531E-02  0.6010814E+03  0.7818609E-02  0.9903165E-01
       -1   -1    0    0    0  501  0.00000000000E+00  0.00000000000E+00  0.15047083095E+03  0.15047083104E+03  0.50400001928E-02 0. -1.
        1   -1    0    0  501    0  0.00000000000E+00  0.00000000000E+00 -0.60028053143E+03  0.60028053145E+03  0.50400001928E-02 0.  1.
    10030    2    1    2    0    0  0.00000000000E+00  0.00000000000E+00 -0.44980970047E+03  0.75075136248E+03  0.60108139352E+03 0.  0.
        5    1    3    3  502    0  0.11626459246E+03  0.18508175275E+03  0.32673925696E+02  0.22104837950E+03  0.46999998093E+01 0. -1.
       -5    1    3    3    0  502 -0.11626459246E+03 -0.18508175275E+03 -0.48248362617E+03  0.52970298298E+03  0.46999998093E+01 0.  1.
</event>
<event>
 5   0  0.3832191E-02  0.6046543E+03  0.7818609E-02  0.9895797E-01
        2   -1    0    0  501    0  0.00000000000E+00  0.00000000000E+00  0.90663046968E+02  0.90663047004E+02  0.25500000920E-02 0.  1.
       -2   -1    0    0    0  501  0.00000000000E+00  0.00000000000E+00 -0.10081474552E+04  0.10081474552E+04  0.25500000920E-02 0. -1.
    10030    2    1    2    0    0  0.00000000000E+00  0.00000000000E+00 -0.91748440823E+03  0.10988105022E+04  0.60465434788E+03 0.  0.
        3    1    3    3  502    0  0.13733142862E+03 -0.19153243500E+02 -0.94695464594E+03  0.95705270476E+03  0.10100000352E+00 0. -1.
       -3    1    3    3    0  502 -0.13733142862E+03  0.19153243500E+02  0.29470237709E+02  0.14175779744E+03  0.10100000352E+00 0.  1.
</event>
<event>
 5   0  0.3724066E-02  0.6020300E+03  0.7818609E-02  0.9901203E-01
        2   -1    0    0  501    0  0.00000000000E+00  0.00000000000E+00  0.92963568498E+03  0.92963568499E+03  0.25500000920E-02 0.  1.
       -2   -1    0    0    0  501  0.00000000000E+00  0.00000000000E+00 -0.97468333312E+02  0.97468333345E+02  0.25500000920E-02 0. -1.
    10030    2    1    2    0    0  0.00000000000E+00  0.00000000000E+00  0.83216735167E+03  0.10271040183E+04  0.60203003520E+03 0.  0.
        4    1    3    3  502    0  0.99732426820E+02 -0.49214367655E+02 -0.61127034827E+02  0.12691232497E+03  0.12699999809E+01 0. -1.
       -4    1    3    3    0  502 -0.99732426820E+02  0.49214367655E+02  0.89329438650E+03  0.90019169336E+03  0.12699999809E+01 0.  1.
</event>
<event>
 5   0  0.3737642E-02  0.6008235E+03  0.7818609E-02  0.9903699E-01
        2   -1    0    0  501    0  0.00000000000E+00  0.00000000000E+00  0.54796895157E+03  0.54796895158E+03  0.25500000920E-02 0.  1.
       -2   -1    0    0    0  501  0.00000000000E+00  0.00000000000E+00 -0.16469404188E+03  0.16469404190E+03  0.25500000920E-02 0. -1.
    10030    2    1    2    0    0  0.00000000000E+00  0.00000000000E+00  0.38327490969E+03  0.71266299348E+03  0.60082350642E+03 0.  0.
        5    1    3    3  502    0  0.53289708405E+02 -0.15458397773E+02 -0.15851885676E+03  0.16801509763E+03  0.46999998093E+01 0. -1.
       -5    1    3    3    0  502 -0.53289708405E+02  0.15458397773E+02  0.54179376645E+03  0.54464789585E+03  0.46999998093E+01 0.  1.
</event>
<event>
 5   0  0.2382531E-02  0.6036585E+03  0.7818609E-02  0.9897845E-01
        1   -1    0    0  501    0  0.00000000000E+00  0.00000000000E+00  0.39237117635E+03  0.39237117638E+03  0.50400001928E-02 0.  1.
       -1   -1    0    0    0  501  0.00000000000E+00  0.00000000000E+00 -0.23218036465E+03  0.23218036470E+03  0.50400001928E-02 0. -1.
    10030    2    1    2    0    0  0.00000000000E+00  0.00000000000E+00  0.16019081170E+03  0.62455154109E+03  0.60365845585E+03 0.  0.
        5    1    3    3  502    0 -0.16483909786E+03 -0.56391535652E+02 -0.17486186777E+03  0.24688194806E+03  0.46999998093E+01 0. -1.
       -5    1    3    3    0  502  0.16483909786E+03  0.56391535652E+02  0.33505267948E+03  0.37766959303E+03  0.46999998093E+01 0.  1.
</event>
<event>
 5   0  0.3832191E-02  0.6024561E+03  0.7818609E-02  0.9900324E-01
       -2   -1    0    0    0  501  0.00000000000E+00  0.00000000000E+00  0.13774167098E+03  0.13774167100E+03  0.25500000920E-02 0.  1.
        2   -1    0    0  501    0  0.00000000000E+00  0.00000000000E+00 -0.65875733307E+03  0.65875733307E+03  0.25500000920E-02 0. -1.
    10030    2    1    2    0    0  0.00000000000E+00  0.00000000000E+00 -0.52101566209E+03  0.79649900407E+03  0.60245609246E+03 0.  0.
        3    1    3    3  502    0 -0.26423256884E+03  0.13272287728E+03 -0.18451243455E+03  0.34853846459E+03  0.10100000352E+00 0.  1.
       -3    1    3    3    0  502  0.26423256884E+03 -0.13272287728E+03 -0.33650322754E+03  0.44796053949E+03  0.10100000352E+00 0. -1.
</event>
<event>
 5   0  0.3934634E-02  0.5998024E+03  0.7818609E-02  0.9905816E-01
       -2   -1    0    0    0  501  0.00000000000E+00  0.00000000000E+00  0.16110330886E+03  0.16110330888E+03  0.25500000920E-02 0. -1.
        2   -1    0    0  501    0  0.00000000000E+00  0.00000000000E+00 -0.55827991586E+03  0.55827991587E+03  0.25500000920E-02 0.  1.
    10030    2    1    2    0    0  0.00000000000E+00  0.00000000000E+00 -0.39717660700E+03  0.71938322475E+03  0.59980243990E+03 0.  0.
        1    1    3    3  502    0 -0.12495430236E+03 -0.27054626596E+03 -0.23893915042E+03  0.38196960263E+03  0.50400001928E-02 0.  1.
       -1    1    3    3    0  502  0.12495430236E+03  0.27054626596E+03 -0.15823745658E+03  0.33741362212E+03  0.50400001928E-02 0. -1.
</event>
<event>
 5   0  0.3724066E-02  0.6015265E+03  0.7818609E-02  0.9902244E-01
        2   -1    0    0  501    0  0.00000000000E+00  0.00000000000E+00  0.23368806541E+03  0.23368806542E+03  0.25500000920E-02 0.  1.
       -2   -1    0    0    0  501  0.00000000000E+00  0.00000000000E+00 -0.38709097566E+03  0.38709097567E+03  0.25500000920E-02 0. -1.
    10030    2    1    2    0    0  0.00000000000E+00  0.00000000000E+00 -0.15340291025E+03  0.62077904109E+03  0.60152652891E+03 0.  0.
        4    1    3    3  502    0 -0.72407988794E+02  0.22151682161E+03 -0.27290291061E+03  0.35887355798E+03  0.12699999809E+01 0. -1.
       -4    1    3    3    0  502  0.72407988794E+02 -0.22151682161E+03  0.11950000036E+03  0.26190548311E+03  0.12699999809E+01 0.  1.
</event>
<event>
 5   0  0.3934634E-02  0.6047922E+03  0.7818609E-02  0.9895513E-01
       -2   -1    0    0    0  501  0.00000000000E+00  0.00000000000E+00  0.18461763131E+03  0.18461763132E+03  0.25500000920E-02 0. -1.
        2   -1    0    0  501    0  0.00000000000E+00  0.00000000000E+00 -0.49531234978E+03  0.49531234979E+03  0.25500000920E-02 0.  1.
    10030    2    1    2    0    0  0.00000000000E+00  0.00000000000E+00 -0.31069471848E+03  0.67992998112E+03  0.60479217185E+03 0.  0.
        1    1    3    3  502    0 -0.11729962289E+02  0.24647177146E+03 -0.35187186074E+03  0.42976706778E+03  0.50400001928E-02 0.  1.
       -1    1    3    3    0  502  0.11729962289E+02 -0.24647177146E+03  0.41177142259E+02  0.25016291334E+03  0.50400001928E-02 0. -1.
</event>
<event>
 5   0  0.3832191E-02  0.5991770E+03  0.7818609E-02  0.9907115E-01
       -2   -1    0    0    0  501  0.00000000000E+00  0.00000000000E+00  0.61234127767E+03  0.61234127767E+03  0.25500000920E-02 0.  1.
        2   -1    0    0  501    0  0.00000000000E+00  0.00000000000E+00 -0.14657392698E+03  0.14657392700E+03  0.25500000920E-02 0. -1.
    10030    2    1    2    0    0  0.00000000000E+00  0.00000000000E+00  0.46576735068E+03  0.75891520467E+03  0.59917698798E+03 0.  0.
        3    1    3    3  502    0  0.66940612950E+02  0.16875898200E+02  0.60212936607E+03  0.60607394374E+03  0.10100000352E+00 0.  1.
       -3    1    3    3    0  502 -0.66940612950E+02 -0.16875898200E+02 -0.13636201538E+03  0.15284126093E+03  0.10100000352E+00 0. -1.
</event>
<event>
 5   0  0.3798925E-02  0.6099912E+03  0.7818609E-02  0.9884892E-01
        2   -1    0    0  501    0  0.00000000000E+00  0.00000000000E+00  0.34761988493E+03  0.34761988494E+03  0.25500000920E-02 0. -1.
       -2   -1    0    0    0  501  0.00000000000E+00  0.00000000000E+00 -0.26759781717E+03  0.26759781718E+03  0.25500000920E-02 0.  1.
    10030    2    1    2    0    0  0.00000000000E+00  0.00000000000E+00  0.80022067758E+02  0.61521770212E+03  0.60999122098E+03 0.  0.
        2    1    3    3  502    0  0.11657241690E+03  0.22948814602E+03 -0.12500126795E+03  0.28614551288E+03  0.25500000920E-02 0.  1.
       -2    1    3    3    0  502 -0.11657241690E+03 -0.22948814602E+03  0.20502333571E+03  0.32907218924E+03  0.25500000920E-02 0. -1.
</event>
<event>
 5   0  0.3934634E-02  0.6030448E+03  0.7818609E-02  0.9899109E-01
       -2   -1    0    0    0  501  0.00000000000E+00  0.00000000000E+00  0.93288959990E+02  0.93288960025E+02  0.25500000920E-02 0. -1.
        2   -1    0    0  501    0  0.00000000000E+00  0.00000000000E+00 -0.97456086961E+03  0.97456086962E+03  0.25500000920E-02 0.  1.
    10030    2    1    2    0    0  0.00000000000E+00  0.00000000000E+00 -0.88127190962E+03  0.10678498296E+04  0.60304484077E+03 0.  0.
        1    1    3    3  502    0  0.20398306760E+03 -0.22161632480E+03 -0.41604319909E+03  0.51362907902E+03  0.50400001928E-02 0.  1.
       -1    1    3    3    0  502 -0.20398306760E+03  0.22161632480E+03 -0.46522871054E+03  0.55422075062E+03  0.50400001928E-02 0. -1.
</event>
<event>
 5   0  0.3798925E-02  0.5979602E+03  0.7818609E-02  0.9909647E-01
       -2   -1    0    0    0  501  0.00000000000E+00  0.00000000000E+00  0.21037288259E+03  0.21037288260E+03  0.25500000920E-02 0. -1.
        2   -1    0    0  501    0  0.00000000000E+00  0.00000000000E+00 -0.42490790837E+03  0.42490790838E+03  0.25500000920E-02 0.  1.
    10030    2    1    2    0    0  0.00000000000E+00  0.00000000000E+00 -0.21453502578E+03  0.63528079098E+03  0.59796020445E+03 0.  0.
        2    1    3    3  502    0 -0.41604607519E+02 -0.28916312256E+03 -0.39715689057E+02  0.29482806986E+03  0.25500000920E-02 0.  1.
       -2    1    3    3    0  502  0.41604607519E+02  0.28916312256E+03 -0.17481933673E+03  0.34045272112E+03  0.25500000920E-02 0. -1.
</event>
<event>
 5   0  0.2309055E-02  0.5991151E+03  0.7818609E-02  0.9907244E-01
        1   -1    0    0  501    0  0.00000000000E+00  0.00000000000E+00  0.65314386984E+03  0.65314386986E+03  0.50400001928E-02 0.  1.
       -1   -1    0    0    0  501  0.00000000000E+00  0.00000000000E+00 -0.13738891027E+03  0.13738891036E+03  0.50400001928E-02 0. -1.
    10030    2    1    2    0    0  0.00000000000E+00  0.00000000000E+00  0.51575495957E+03  0.79053278022E+03  0.59911509602E+03 0.  0.
        4    1    3    3  502    0  0.43825384994E+02 -0.28672100781E+03  0.35665081849E+03  0.45970753738E+03  0.12699999809E+01 0. -1.
       -4    1    3    3    0  502 -0.43825384994E+02  0.28672100781E+03  0.15910414108E+03  0.33082524284E+03  0.12699999809E+01 0.  1.
</event>
<event>
 5   0  0.2225808E-02  0.5699888E+03  0.7818609E-02  0.9969703E-01
       -1   -1    0    0    0  501  0.00000000000E+00  0.00000000000E+00  0.16023989567E+03  0.16023989575E+03  0.50400001928E-02 0. -1.
        1   -1    0    0  501    0  0.00000000000E+00  0.00000000000E+00 -0.50687631017E+03  0.50687631020E+03  0.50400001928E-02 0.  1.
    10030    2    1    2    0    0  0.00000000000E+00  0.00000000000E+00 -0.34663641450E+03  0.66711620594E+03  0.56998879671E+03 0.  0.
        2    1    3    3  502    0 -0.27351307620E+03  0.41653290398E+02 -0.93272548833E+02  0.29196603883E+03  0.25500000920E-02 0. -1.
       -2    1    3    3    0  502  0.27351307620E+03 -0.41653290398E+02 -0.25336386567E+03  0.37515016712E+03  0.25500000920E-02 0.  1.
</event>
<event>
 5   0  0.2309055E-02  0.5985476E+03  0.7818609E-02  0.9908424E-01
        1   -1    0    0  501    0  0.00000000000E+00  0.00000000000E+00  0.37996184683E+03  0.37996184686E+03  0.50400001928E-02 0.  1.
       -1   -1    0    0    0  501  0.00000000000E+00  0.00000000000E+00 -0.23572052000E+03  0.23572052005E+03  0.50400001928E-02 0. -1.
    10030    2    1    2    0    0  0.00000000000E+00  0.00000000000E+00  0.14424132683E+03  0.61568236692E+03  0.59854758923E+03 0.  0.
        4    1    3    3  502    0  0.11145203273E+03 -0.13813029092E+03 -0.17573722629E+03  0.24977333419E+03  0.12699999809E+01 0. -1.
       -4    1    3    3    0  502 -0.11145203273E+03  0.13813029092E+03  0.31997855312E+03  0.36590903272E+03  0.12699999809E+01 0.  1.
</event>
<event>
 5   0  0.1521750E-02  0.5992284E+03  0.7818609E-02  0.9907008E-01
        3   -1    0    0  501    0  0.00000000000E+00  0.00000000000E+00  0.76892151193E+02  0.76892217526E+02  0.10100000352E+00 0. -1.
       -3   -1    0    0    0  501  0.00000000000E+00  0.00000000000E+00 -0.11674616576E+04  0.11674616620E+04  0.10100000352E+00 0.  1.
    10030    2    1    2    0    0  0.00000000000E+00  0.00000000000E+00 -0.10905695064E+04  0.12443538795E+04  0.59922844484E+03 0.  0.
        5    1    3    3  502    0 -0.28225018933E+03 -0.82493692981E+02 -0.66414526189E+03  0.72634798661E+03  0.46999998093E+01 0. -1.
       -5    1    3    3    0  502  0.28225018933E+03  0.82493692981E+02 -0.42642424450E+03  0.51800589287E+03  0.46999998093E+01 0.  1.
</event>
<event>
 5   0  0.2382531E-02  0.5998604E+03  0.7818609E-02  0.9905696E-01
        1   -1    0    0  501    0  0.00000000000E+00  0.00000000000E+00  0.19060749023E+03  0.19060749029E+03  0.50400001928E-02 0. -1.
       -1   -1    0    0    0  501  0.00000000000E+00  0.00000000000E+00 -0.47195486814E+03  0.47195486817E+03  0.50400001928E-02 0.  1.
    10030    2    1    2    0    0  0.00000000000E+00  0.00000000000E+00 -0.28134737792E+03  0.66256235846E+03  0.59986042693E+03 0.  0.
        5    1    3    3  502    0  0.72772120729E+02  0.26097230585E+03  0.13503294482E+01  0.27097276498E+03  0.46999998093E+01 0. -1.
       -5    1    3    3    0  502 -0.72772120729E+02 -0.26097230585E+03 -0.28269770736E+03  0.39158959348E+03  0.46999998093E+01 0.  1.
</event>
<event>
 5   0  0.3832191E-02  0.6002509E+03  0.7818609E-02  0.9904886E-01
       -2   -1    0    0    0  501  0.00000000000E+00  0.00000000000E+00  0.77473542483E+02  0.77473542525E+02  0.25500000920E-02 0. -1.
        2   -1    0    0  501    0  0.00000000000E+00  0.00000000000E+00 -0.11626585358E+04  0.11626585358E+04  0.25500000920E-02 0.  1.
    10030    2    1    2    0    0  0.00000000000E+00  0.00000000000E+00 -0.10851849933E+04  0.12401320783E+04  0.60025086587E+03 0.  0.
        3    1    3    3  502    0  0.24976454387E+03 -0.71386886942E+02 -0.85316220948E+03  0.89183192412E+03  0.10100000352E+00 0.  1.
       -3    1    3    3    0  502 -0.24976454387E+03  0.71386886942E+02 -0.23202278385E+03  0.34830015422E+03  0.10100000352E+00 0. -1.
</event>
<event>
 5   0  0.1521750E-02  0.5994824E+03  0.7818609E-02  0.9906480E-01
        3   -1    0    0  501    0  0.00000000000E+00  0.00000000000E+00  0.11240720704E+03  0.11240725242E+03  0.10100000352E+00 0. -1.
       -3   -1    0    0    0  501  0.00000000000E+00  0.00000000000E+00 -0.79927938928E+03  0.79927939566E+03  0.10100000352E+00 0.  1.
    10030    2    1    2    0    0  0.00000000000E+00  0.00000000000E+00 -0.68687218224E+03  0.91168664808E+03  0.59948240137E+03 0.  0.
        2    1    3    3  502    0 -0.24966120275E+03 -0.15130594923E+03 -0.44681154937E+03  0.53372724034E+03  0.25500000920E-02 0.  1.
       -2    1    3    3    0  502  0.24966120275E+03  0.15130594923E+03 -0.24006063288E+03  0.37795940773E+03  0.25500000920E-02 0. -1.
</event>
<event>
 5   0  0.3832191E-02  0.5932349E+03  0.7818609E-02  0.9919542E-01
       -2   -1    0    0    0  501  0.00000000000E+00  0.00000000000E+00  0.56625285524E+02  0.56625285581E+02  0.25500000920E-02 0.  1.
        2   -1    0    0  501    0  0.00000000000E+00  0.00000000000E+00 -0.15537567110E+04  0.15537567110E+04  0.25500000920E-02 0. -1.
    10030    2    1    2    0    0  0.00000000000E+00  0.00000000000E+00 -0.14971314255E+04  0.16103819966E+04  0.59323491955E+03 0.  0.
        3    1    3    3  502    0 -0.70855389975E+02 -0.35440389133E+02 -0.15245047102E+04  0.15265618655E+04  0.10100000352E+00 0. -1.
       -3    1    3    3    0  502  0.70855389975E+02  0.35440389133E+02  0.27373284690E+02  0.83820131151E+02  0.10100000352E+00 0.  1.
</event>
<event>
 5   0  0.2295179E-02  0.6011549E+03  0.7818609E-02  0.9903013E-01
       -1   -1    0    0    0  501  0.00000000000E+00  0.00000000000E+00  0.24180261382E+03  0.24180261387E+03  0.50400001928E-02 0. -1.
        1   -1    0    0  501    0  0.00000000000E+00  0.00000000000E+00 -0.37363864549E+03  0.37363864552E+03  0.50400001928E-02 0.  1.
    10030    2    1    2    0    0  0.00000000000E+00  0.00000000000E+00 -0.13183603167E+03  0.61544125939E+03  0.60115489228E+03 0.  0.
        3    1    3    3  502    0  0.27389008850E+03 -0.10970359949E+03 -0.71416908278E+01  0.29512992778E+03  0.10100000352E+00 0.  1.
       -3    1    3    3    0  502 -0.27389008850E+03  0.10970359949E+03 -0.12469434084E+03  0.32031133161E+03  0.10100000352E+00 0. -1.
</event>
<event>
 5   0  0.2225808E-02  0.5979223E+03  0.7818609E-02  0.9909726E-01
       -1   -1    0    0    0  501  0.00000000000E+00  0.00000000000E+00  0.22658338490E+03  0.22658338495E+03  0.50400001928E-02 0. -1.
        1   -1    0    0  501    0  0.00000000000E+00  0.00000000000E+00 -0.39445863596E+03  0.39445863599E+03  0.50400001928E-02 0.  1.
    10030    2    1    2    0    0  0.00000000000E+00  0.00000000000E+00 -0.16787525106E+03  0.62104202094E+03  0.59792231256E+03 0.  0.
        2    1    3    3  502    0 -0.58151932943E+02  0.18496552932E+03  0.15242212025E+03  0.24663008148E+03  0.25500000920E-02 0. -1.
       -2    1    3    3    0  502  0.58151932943E+02 -0.18496552932E+03 -0.32029737131E+03  0.37441193947E+03  0.25500000920E-02 0.  1.
</event>
<event>
 5   0  0.2382531E-02  0.5950686E+03  0.7818609E-02  0.9915690E-01
       -1   -1    0    0    0  501  0.00000000000E+00  0.00000000000E+00  0.78514706304E+02  0.78514706466E+02  0.50400001928E-02 0.  1.
        1   -1    0    0  501    0  0.00000000000E+00  0.00000000000E+00 -0.11275169667E+04  0.11275169667E+04  0.50400001928E-02 0. -1.
    10030    2    1    2    0    0  0.00000000000E+00  0.00000000000E+00 -0.10490022604E+04  0.12060316732E+04  0.59506861319E+03 0.  0.
        5    1    3    3  502    0 -0.10398606990E+03  0.27572295949E+03 -0.60728227154E+03  0.67501859267E+03  0.46999998093E+01 0. -1.
       -5    1    3    3    0  502  0.10398606990E+03 -0.27572295949E+03 -0.44171998889E+03  0.53101308054E+03  0.46999998093E+01 0.  1.
</event>
<event>
 5   0  0.3724066E-02  0.6028306E+03  0.7818609E-02  0.9899551E-01
       -2   -1    0    0    0  501  0.00000000000E+00  0.00000000000E+00  0.82427479525E+02  0.82427479565E+02  0.25500000920E-02 0. -1.
        2   -1    0    0  501    0  0.00000000000E+00  0.00000000000E+00 -0.11021952873E+04  0.11021952873E+04  0.25500000920E-02 0.  1.
    10030    2    1    2    0    0  0.00000000000E+00  0.00000000000E+00 -0.10197678078E+04  0.11846227669E+04  0.60283058816E+03 0.  0.
        4    1    3    3  502    0 -0.19104433845E+03 -0.81496452864E+02 -0.93911314465E+03  0.96180804865E+03  0.12699999809E+01 0.  1.
       -4    1    3    3    0  502  0.19104433845E+03  0.81496452864E+02 -0.80654663166E+02  0.22281471826E+03  0.12699999809E+01 0. -1.
</event>
<event>
 5   0  0.3724066E-02  0.5533710E+03  0.7818609E-02  0.1000717E+00
       -2   -1    0    0    0  501  0.00000000000E+00  0.00000000000E+00  0.13533130695E+03  0.13533130698E+03  0.25500000920E-02 0.  1.
        2   -1    0    0  501    0  0.00000000000E+00  0.00000000000E+00 -0.56568490007E+03  0.56568490008E+03  0.25500000920E-02 0. -1.
    10030    2    1    2    0    0  0.00000000000E+00  0.00000000000E+00 -0.43035359312E+03  0.70101620706E+03  0.55337103958E+03 0.  0.
        4    1    3    3  502    0  0.20707959853E+03 -0.12404758485E+02  0.16747880327E+02  0.20812962921E+03  0.12699999809E+01 0.  1.
       -4    1    3    3    0  502 -0.20707959853E+03  0.12404758485E+02 -0.44710147345E+03  0.49288657785E+03  0.12699999809E+01 0. -1.
</event>
<event>
 5   0  0.3832191E-02  0.6014654E+03  0.7818609E-02  0.9902370E-01
       -2   -1    0    0    0  501  0.00000000000E+00  0.00000000000E+00  0.58313828294E+03  0.58313828294E+03  0.25500000920E-02 0.  1.
        2   -1    0    0  501    0  0.00000000000E+00  0.00000000000E+00 -0.15509212543E+03  0.15509212545E+03  0.25500000920E-02 0. -1.
    10030    2    1    2    0    0  0.00000000000E+00  0.00000000000E+00  0.42804615751E+03  0.73823040839E+03  0.60146539627E+03 0.  0.
        3    1    3    3  502    0  0.14992967771E+03 -0.24201481107E+03  0.33295971834E+03  0.43807791690E+03  0.10100000352E+00 0.  1.
       -3    1    3    3    0  502 -0.14992967771E+03  0.24201481107E+03  0.95086439173E+02  0.30015249149E+03  0.10100000352E+00 0. -1.
</event>
<event>
 5   0  0.2309055E-02  0.5999510E+03  0.7818609E-02  0.9905508E-01
       -1   -1    0    0    0  501  0.00000000000E+00  0.00000000000E+00  0.43896656139E+02  0.43896656428E+02  0.50400001928E-02 0. -1.
        1   -1    0    0  501    0  0.00000000000E+00  0.00000000000E+00 -0.20499350139E+04  0.20499350139E+04  0.50400001928E-02 0.  1.
    10030    2    1    2    0    0  0.00000000000E+00  0.00000000000E+00 -0.20060383577E+04  0.20938316703E+04  0.59995097373E+03 0.  0.
        4    1    3    3  502    0  0.18414759083E+02  0.67853711558E+02 -0.20207637103E+04  0.20219868484E+04  0.12699999809E+01 0.  1.
       -4    1    3    3    0  502 -0.18414759083E+02 -0.67853711558E+02  0.14725352541E+02  0.71844821886E+02  0.12699999809E+01 0. -1.
</event>
<event>
 5   0  0.3724066E-02  0.6015410E+03  0.7818609E-02  0.9902214E-01
       -2   -1    0    0    0  501  0.00000000000E+00  0.00000000000E+00  0.90575074694E+02  0.90575074730E+02  0.25500000920E-02 0. -1.
        2   -1    0    0  501    0  0.00000000000E+00  0.00000000000E+00 -0.99876143678E+03  0.99876143678E+03  0.25500000920E-02 0.  1.
    10030    2    1    2    0    0  0.00000000000E+00  0.00000000000E+00 -0.90818636208E+03  0.10893365115E+04  0.60154099364E+03 0.  0.
        4    1    3    3  502    0  0.80449591687E+02  0.94482992585E+02  0.42050202884E+02  0.13103055046E+03  0.12699999809E+01 0. -1.
       -4    1    3    3    0  502 -0.80449591687E+02 -0.94482992585E+02 -0.95023656497E+03  0.95830596105E+03  0.12699999809E+01 0.  1.
</event>
<event>
 5   0  0.2309055E-02  0.6009841E+03  0.7818609E-02  0.9903366E-01
        1   -1    0    0  501    0  0.00000000000E+00  0.00000000000E+00  0.19017988401E+04  0.19017988401E+04  0.50400001928E-02 0.  1.
       -1   -1    0    0    0  501  0.00000000000E+00  0.00000000000E+00 -0.47478983659E+02  0.47478983927E+02  0.50400001928E-02 0. -1.
    10030    2    1    2    0    0  0.00000000000E+00  0.00000000000E+00  0.18543198564E+04  0.19492778240E+04  0.60098411400E+03 0.  0.
        4    1    3    3  502    0 -0.95171023116E+02  0.24747882863E+03  0.46857124908E+03  0.53839012122E+03  0.12699999809E+01 0.  1.
       -4    1    3    3    0  502  0.95171023116E+02 -0.24747882863E+03  0.13857486073E+04  0.14108877028E+04  0.12699999809E+01 0. -1.
</event>
<event>
 5   0  0.3934634E-02  0.5984835E+03  0.7818609E-02  0.9908557E-01
        2   -1    0    0  501    0  0.00000000000E+00  0.00000000000E+00  0.14121663260E+04  0.14121663260E+04  0.25500000920E-02 0.  1.
       -2   -1    0    0    0  501  0.00000000000E+00  0.00000000000E+00 -0.63410118935E+02  0.63410118987E+02  0.25500000920E-02 0. -1.
    10030    2    1    2    0    0  0.00000000000E+00  0.00000000000E+00  0.13487562071E+04  0.14755764450E+04  0.59848353270E+03 0.  0.
        1    1    3    3  502    0  0.15066560987E+03  0.39031277973E+02  0.13045216189E+04  0.13137732761E+04  0.50400001928E-02 0.  1.
       -1    1    3    3    0  502 -0.15066560987E+03 -0.39031277973E+02  0.44234588143E+02  0.16180316892E+03  0.50400001928E-02 0. -1.
</event>
<event>
 5   0  0.3737642E-02  0.5871866E+03  0.7818609E-02  0.9932352E-01
        2   -1    0    0  501    0  0.00000000000E+00  0.00000000000E+00  0.44149763310E+03  0.44149763310E+03  0.25500000920E-02 0. -1.
       -2   -1    0    0    0  501  0.00000000000E+00  0.00000000000E+00 -0.19523777432E+03  0.19523777434E+03  0.25500000920E-02 0.  1.
    10030    2    1    2    0    0  0.00000000000E+00  0.00000000000E+00  0.24625985878E+03  0.63673540744E+03  0.58718656409E+03 0.  0.
        5    1    3    3  502    0  0.17727598293E+03  0.86683213775E+02 -0.11254372853E+03  0.22722001343E+03  0.46999998093E+01 0.  1.
       -5    1    3    3    0  502 -0.17727598293E+03 -0.86683213775E+02  0.35880358730E+03  0.40951539401E+03  0.46999998093E+01 0. -1.
</event>
<event>
 5   0  0.2309055E-02  0.6015380E+03  0.7818609E-02  0.9902220E-01
        1   -1    0    0  501    0  0.00000000000E+00  0.00000000000E+00  0.43278182784E+03  0.43278182787E+03  0.50400001928E-02 0. -1.
       -1   -1    0    0    0  501  0.00000000000E+00  0.00000000000E+00 -0.20902443570E+03  0.20902443576E+03  0.50400001928E-02 0.  1.
    10030    2    1    2    0    0  0.00000000000E+00  0.00000000000E+00  0.22375739214E+03  0.64180626362E+03  0.60153795349E+03 0.  0.
        4    1    3    3  502    0 -0.12152159882E+03 -0.12244315558E+03  0.37474637567E+03  0.41254852357E+03  0.12699999809E+01 0. -1.
       -4    1    3    3    0  502  0.12152159882E+03  0.12244315558E+03 -0.15098898353E+03  0.22925774005E+03  0.12699999809E+01 0.  1.
</event>
<event>
 5   0  0.2309055E-02  0.5521697E+03  0.7818609E-02  0.1000993E+00
       -1   -1    0    0    0  501  0.00000000000E+00  0.00000000000E+00  0.12026683708E+03  0.12026683719E+03  0.50400001928E-02 0.  1.
        1   -1    0    0  501    0  0.00000000000E+00  0.00000000000E+00 -0.63378109046E+03  0.63378109048E+03  0.50400001928E-02 0. -1.
    10030    2    1    2    0    0  0.00000000000E+00  0.00000000000E+00 -0.51351425337E+03  0.75404792767E+03  0.55216971014E+03 0.  0.
        4    1    3    3  502    0  0.12730004681E+03  0.90908340584E+02 -0.56741923645E+03  0.58858799776E+03  0.12699999809E+01 0. -1.
       -4    1    3    3    0  502 -0.12730004681E+03 -0.90908340584E+02  0.53904983083E+02  0.16545992991E+03  0.12699999809E+01 0.  1.
</event>
<event>
 5   0  0.2309055E-02  0.5987197E+03  0.7818609E-02  0.9908066E-01
        1   -1    0    0  501    0  0.00000000000E+00  0.00000000000E+00  0.44831096584E+03  0.44831096587E+03  0.50400001928E-02 0. -1.
       -1   -1    0    0    0  501  0.00000000000E+00  0.00000000000E+00 -0.19989764473E+03  0.19989764480E+03  0.50400001928E-02 0.  1.
    10030    2    1    2    0    0  0.00000000000E+00  0.00000000000E+00  0.24841332111E+03  0.64820861067E+03  0.59871965463E+03 0.  0.
        4    1    3    3  502    0  0.19742152314E+02 -0.20807735081E+03  0.35623104310E+03  0.41302312946E+03  0.12699999809E+01 0. -1.
       -4    1    3    3    0  502 -0.19742152314E+02  0.20807735081E+03 -0.10781772199E+03  0.23518548121E+03  0.12699999809E+01 0.  1.
</event>
<event>
 5   0  0.3724066E-02  0.6008520E+03  0.7818609E-02  0.9903640E-01
       -2   -1    0    0    0  501  0.00000000000E+00  0.00000000000E+00  0.42028816139E+03  0.42028816139E+03  0.25500000920E-02 0. -1.
        2   -1    0    0  501    0  0.00000000000E+00  0.00000000000E+00 -0.21474736737E+03  0.21474736738E+03  0.25500000920E-02 0.  1.
    10030    2    1    2    0    0  0.00000000000E+00  0.00000000000E+00  0.20554079402E+03  0.63503552878E+03  0.60085198244E+03 0.  0.
        4    1    3    3  502    0 -0.54232911600E+02 -0.10048692051E+03 -0.19091496505E+03  0.22246115767E+03  0.12699999809E+01 0.  1.
       -4    1    3    3    0  502  0.54232911600E+02  0.10048692051E+03  0.39645575907E+03  0.41257437110E+03  0.12699999809E+01 0. -1.
</event>
<event>
 5   0  0.2276105E-02  0.5831428E+03  0.7818609E-02  0.9941010E-01
       -1   -1    0    0    0  501  0.00000000000E+00  0.00000000000E+00  0.27724907846E+03  0.27724907850E+03  0.50400001928E-02 0. -1.
        1   -1    0    0  501    0  0.00000000000E+00  0.00000000000E+00 -0.30663356848E+03  0.30663356852E+03  0.50400001928E-02 0.  1.
    10030    2    1    2    0    0  0.00000000000E+00  0.00000000000E+00 -0.29384490021E+02  0.58388264702E+03  0.58314277603E+03 0.  0.
        1    1    3    3  502    0  0.22428581939E+02  0.16714714387E+03 -0.25284411078E+03  0.30392655917E+03  0.50400001928E-02 0.  1.
       -1    1    3    3    0  502 -0.22428581939E+02 -0.16714714387E+03  0.22345962075E+03  0.27995608785E+03  0.50400001928E-02 0. -1.
</event>
<event>
 5   0  0.3934634E-02  0.5991351E+03  0.7818609E-02  0.9907202E-01
        2   -1    0    0  501    0  0.00000000000E+00  0.00000000000E+00  0.82295689356E+03  0.82295689356E+03  0.25500000920E-02 0. -1.
       -2   -1    0    0    0  501  0.00000000000E+00  0.00000000000E+00 -0.10904667877E+03  0.10904667880E+03  0.25500000920E-02 0.  1.
    10030    2    1    2    0    0  0.00000000000E+00  0.00000000000E+00  0.71391021479E+03  0.93200357236E+03  0.59913509671E+03 0.  0.
        1    1    3    3  502    0  0.25207758134E+03  0.14988679930E+03  0.26193012012E+03  0.39321310694E+03  0.50400001928E-02 0.  1.
       -1    1    3    3    0  502 -0.25207758134E+03 -0.14988679930E+03  0.45198009467E+03  0.53879046542E+03  0.50400001928E-02 0. -1.
</event>
<event>
 5   0  0.2382531E-02  0.6072005E+03  0.7818609E-02  0.9890579E-01
       -1   -1    0    0    0  501  0.00000000000E+00  0.00000000000E+00  0.57555305412E+03  0.57555305414E+03  0.50400001928E-02 0. -1.
        1   -1    0    0  501    0  0.00000000000E+00  0.00000000000E+00 -0.16014703309E+03  0.16014703317E+03  0.50400001928E-02 0.  1.
    10030    2    1    2    0    0  0.00000000000E+00  0.00000000000E+00  0.41540602103E+03  0.73570008730E+03  0.60720050737E+03 0.  0.
        5    1    3    3  502    0  0.29531951441E+03 -0.15797852172E+02  0.29066036641E+03  0.41469112159E+03  0.46999998093E+01 0. -1.
       -5    1    3    3    0  502 -0.29531951441E+03  0.15797852172E+02  0.12474565462E+03  0.32100896571E+03  0.46999998093E+01 0.  1.
</event>
<event>
 5   0  0.2382531E-02  0.5998491E+03  0.7818609E-02  0.9905719E-01
        1   -1    0    0  501    0  0.00000000000E+00  0.00000000000E+00  0.14256515627E+04  0.14256515627E+04  0.50400001928E-02 0.  1.
       -1   -1    0    0    0  501  0.00000000000E+00  0.00000000000E+00 -0.63097275136E+02  0.63097275338E+02  0.50400001928E-02 0. -1.
    10030    2    1    2    0    0  0.00000000000E+00  0.00000000000E+00  0.13625542875E+04  0.14887488380E+04  0.59984907786E+03 0.  0.
        5    1    3    3  502    0 -0.28574825286E+03 -0.30014692211E+02  0.89448273821E+03  0.93950753308E+03  0.46999998093E+01 0.  1.
       -5    1    3    3    0  502  0.28574825286E+03  0.30014692211E+02  0.46807154930E+03  0.54924130492E+03  0.46999998093E+01 0. -1.
</event>
<event>
 5   0  0.3832191E-02  0.6045351E+03  0.7818609E-02  0.9896042E-01
       -2   -1    0    0    0  501  0.00000000000E+00  0.00000000000E+00  0.81435355331E+03  0.81435355332E+03  0.25500000920E-02 0.  1.
        2   -1    0    0  501    0  0.00000000000E+00  0.00000000000E+00 -0.11219410109E+03  0.11219410112E+03  0.25500000920E-02 0. -1.
    10030    2    1    2    0    0  0.00000000000E+00  0.00000000000E+00  0.70215945223E+03  0.92654765444E+03  0.60453507722E+03 0.  0.
        3    1    3    3  502    0 -0.22546309884E+03  0.91548397349E+02  0.76263057332E+02  0.25501133722E+03  0.10100000352E+00 0.  1.
       -3    1    3    3    0  502  0.22546309884E+03 -0.91548397349E+02  0.62589639489E+03  0.67153631721E+03  0.10100000352E+00 0. -1.
</event>
<event>
 5   0  0.2276105E-02  0.5477810E+03  0.7818609E-02  0.1002009E+00
       -1   -1    0    0    0  501  0.00000000000E+00  0.00000000000E+00  0.45848184845E+03  0.45848184848E+03  0.50400001928E-02 0.  1.
        1   -1    0    0  501    0  0.00000000000E+00  0.00000000000E+00 -0.16361824703E+03  0.16361824711E+03  0.50400001928E-02 0. -1.
    10030    2    1    2    0    0  0.00000000000E+00  0.00000000000E+00  0.29486360142E+03  0.62210009559E+03  0.54778096488E+03 0.  0.
        1    1    3    3  502    0  0.14731685527E+03  0.20515093696E+03  0.26776403306E+03  0.36808523498E+03  0.50400001928E-02 0.  1.
       -1    1    3    3    0  502 -0.14731685527E+03 -0.20515093696E+03  0.27099568355E+02  0.25401486061E+03  0.50400001928E-02 0. -1.
</event>
<event>
 5   0  0.2382531E-02  0.5996048E+03  0.7818609E-02  0.9906226E-01
       -1   -1    0    0    0  501  0.00000000000E+00  0.00000000000E+00  0.70601857769E+03  0.70601857770E+03  0.50400001928E-02 0.  1.
        1   -1    0    0  501    0  0.00000000000E+00  0.00000000000E+00 -0.12730752582E+03  0.12730752592E+03  0.50400001928E-02 0. -1.
    10030    2    1    2    0    0  0.00000000000E+00  0.00000000000E+00  0.57871105187E+03  0.83332610362E+03  0.59960479769E+03 0.  0.
        5    1    3    3  502    0  0.26601076266E+03  0.35148816821E+02  0.47510074437E+03  0.54565554379E+03  0.46999998093E+01 0.  1.
       -5    1    3    3    0  502 -0.26601076266E+03 -0.35148816821E+02  0.10361030750E+03  0.28767055983E+03  0.46999998093E+01 0. -1.
</event>
<event>
 5   0  0.1521750E-02  0.5992896E+03  0.7818609E-02  0.9906881E-01
        3   -1    0    0  501    0  0.00000000000E+00  0.00000000000E+00  0.17376092360E+03  0.17376095295E+03  0.10100000352E+00 0.  1.
       -3   -1    0    0    0  501  0.00000000000E+00  0.00000000000E+00 -0.51672726151E+03  0.51672727138E+03  0.10100000352E+00 0. -1.
    10030    2    1    2    0    0  0.00000000000E+00  0.00000000000E+00 -0.34296633791E+03  0.69048822434E+03  0.59928964534E+03 0.  0.
        2    1    3    3  502    0  0.26067387428E+03 -0.35835004839E+02 -0.63073059569E+01  0.26320106082E+03  0.25500000920E-02 0.  1.
       -2    1    3    3    0  502 -0.26067387428E+03  0.35835004839E+02 -0.33665903195E+03  0.42728716352E+03  0.25500000920E-02 0. -1.
</event>
<event>
 5   0  0.1521750E-02  0.5988879E+03  0.7818609E-02  0.9907716E-01
        3   -1    0    0  501    0  0.00000000000E+00  0.00000000000E+00  0.11307738748E+03  0.11307743259E+03  0.10100000352E+00 0.  1.
       -3   -1    0    0    0  501  0.00000000000E+00  0.00000000000E+00 -0.79296706764E+03  0.79296707408E+03  0.10100000352E+00 0. -1.
    10030    2    1    2    0    0  0.00000000000E+00  0.00000000000E+00 -0.67988968016E+03  0.90604450666E+03  0.59888786167E+03 0.  0.
        5    1    3    3  502    0 -0.15364161648E+03  0.23191294992E+03 -0.50742543280E+03  0.57869855927E+03  0.46999998093E+01 0. -1.
       -5    1    3    3    0  502  0.15364161648E+03 -0.23191294992E+03 -0.17246424737E+03  0.32734594739E+03  0.46999998093E+01 0.  1.
</event>
<event>
 5   0  0.3737642E-02  0.5976214E+03  0.7818609E-02  0.9910353E-01
       -2   -1    0    0    0  501  0.00000000000E+00  0.00000000000E+00  0.12073690106E+03  0.12073690108E+03  0.25500000920E-02 0. -1.
        2   -1    0    0  501    0  0.00000000000E+00  0.00000000000E+00 -0.73952394641E+03  0.73952394642E+03  0.25500000920E-02 0.  1.
    10030    2    1    2    0    0  0.00000000000E+00  0.00000000000E+00 -0.61878704536E+03  0.86026084750E+03  0.59762138369E+03 0.  0.
        5    1    3    3  502    0  0.31048633611E+01  0.85286166643E+02  0.10276497768E+03  0.13366413518E+03  0.46999998093E+01 0. -1.
       -5    1    3    3    0  502 -0.31048633611E+01 -0.85286166643E+02 -0.72155202304E+03  0.72659671232E+03  0.46999998093E+01 0.  1.
</event>
<event>
 5   0  0.2276105E-02  0.6010438E+03  0.7818609E-02  0.9903243E-01
       -1   -1    0    0    0  501  0.00000000000E+00  0.00000000000E+00  0.28603964844E+03  0.28603964848E+03  0.50400001928E-02 0.  1.
        1   -1    0    0  501    0  0.00000000000E+00  0.00000000000E+00 -0.31573742356E+03  0.31573742360E+03  0.50400001928E-02 0. -1.
    10030    2    1    2    0    0  0.00000000000E+00  0.00000000000E+00 -0.29697775124E+02  0.60177707209E+03  0.60104383088E+03 0.  0.
        1    1    3    3  502    0  0.12308244549E+03 -0.24341463955E+03  0.11145351655E+03  0.29465549632E+03  0.50400001928E-02 0.  1.
       -1    1    3    3    0  502 -0.12308244549E+03  0.24341463955E+03 -0.14115129168E+03  0.30712157577E+03  0.50400001928E-02 0. -1.
</event>
<event>
 5   0  0.2382531E-02  0.5941870E+03  0.7818609E-02  0.9917540E-01
        1   -1    0    0  501    0  0.00000000000E+00  0.00000000000E+00  0.67608470543E+03  0.67608470545E+03  0.50400001928E-02 0. -1.
       -1   -1    0    0    0  501  0.00000000000E+00  0.00000000000E+00 -0.13055252070E+03  0.13055252080E+03  0.50400001928E-02 0.  1.
    10030    2    1    2    0    0  0.00000000000E+00  0.00000000000E+00  0.54553218473E+03  0.80663722625E+03  0.59418704984E+03 0.  0.
        5    1    3    3  502    0  0.28143905139E+03  0.43673102551E+02  0.38737393535E+03  0.48082838448E+03  0.46999998093E+01 0. -1.
       -5    1    3    3    0  502 -0.28143905139E+03 -0.43673102551E+02  0.15815824939E+03  0.32580884178E+03  0.46999998093E+01 0.  1.
</event>
<event>
 5   0  0.2276105E-02  0.6019459E+03  0.7818609E-02  0.9901377E-01
       -1   -1    0    0    0  501  0.00000000000E+00  0.00000000000E+00  0.44010554146E+02  0.44010554434E+02  0.50400001928E-02 0.  1.
        1   -1    0    0  501    0  0.00000000000E+00  0.00000000000E+00 -0.20582495669E+04  0.20582495669E+04  0.50400001928E-02 0. -1.
    10030    2    1    2    0    0  0.00000000000E+00  0.00000000000E+00 -0.20142390127E+04  0.21022601213E+04  0.60194585908E+03 0.  0.
        1    1    3    3  502    0  0.84297667763E+02  0.14361382251E+03 -0.18826965516E+04  0.18900469127E+04  0.50400001928E-02 0. -1.
       -1    1    3    3    0  502 -0.84297667763E+02 -0.14361382251E+03 -0.13154246115E+03  0.21221320863E+03  0.50400001928E-02 0.  1.
</event>
<event>
 5   0  0.3724066E-02  0.5987140E+03  0.7818609E-02  0.9908078E-01
       -2   -1    0    0    0  501  0.00000000000E+00  0.00000000000E+00  0.17310244932E+03  0.17310244934E+03  0.25500000920E-02 0.  1.
        2   -1    0    0  501    0  0.00000000000E+00  0.00000000000E+00 -0.51769703635E+03  0.51769703636E+03  0.25500000920E-02 0. -1.
    10030    2    1    2    0    0  0.00000000000E+00  0.00000000000E+00 -0.34459458703E+03  0.69079948569E+03  0.59871403860E+03 0.  0.
        4    1    3    3  502    0 -0.21936325310E+03  0.91861664839E+02  0.37473950545E+02  0.24075861801E+03  0.12699999809E+01 0.  1.
       -4    1    3    3    0  502  0.21936325310E+03 -0.91861664839E+02 -0.38206853758E+03  0.45004086768E+03  0.12699999809E+01 0. -1.
</event>
<event>
 5   0  0.2225808E-02  0.6063416E+03  0.7818609E-02  0.9892336E-01
       -1   -1    0    0    0  501  0.00000000000E+00  0.00000000000E+00  0.18944643952E+03  0.18944643959E+03  0.50400001928E-02 0. -1.
        1   -1    0    0  501    0  0.00000000000E+00  0.00000000000E+00 -0.48516372091E+03  0.48516372094E+03  0.50400001928E-02 0.  1.
    10030    2    1    2    0    0  0.00000000000E+00  0.00000000000E+00 -0.29571728139E+03  0.67461016053E+03  0.60634161837E+03 0.  0.
        2    1    3    3  502    0  0.25664175428E+03  0.15938669293E+03 -0.11963671161E+03  0.32493391743E+03  0.25500000920E-02 0. -1.
       -2    1    3    3    0  502 -0.25664175428E+03 -0.15938669293E+03 -0.17608056978E+03  0.34967624310E+03  0.25500000920E-02 0.  1.
</event>
<event>
 5   0  0.2382531E-02  0.5988961E+03  0.7818609E-02  0.9907699E-01
       -1   -1    0    0    0  501  0.00000000000E+00  0.00000000000E+00  0.26466849877E+03  0.26466849882E+03  0.50400001928E-02 0.  1.
        1   -1    0    0  501    0  0.00000000000E+00  0.00000000000E+00 -0.33879793290E+03  0.33879793294E+03  0.50400001928E-02 0. -1.
    10030    2    1    2    0    0  0.00000000000E+00  0.00000000000E+00 -0.74129434130E+02  0.60346643176E+03  0.59889611892E+03 0.  0.
        5    1    3    3  502    0 -0.25782571613E+02  0.49224762395E+02  0.25938996647E+03  0.26531691038E+03  0.46999998093E+01 0.  1.
       -5    1    3    3    0  502  0.25782571613E+02 -0.49224762395E+02 -0.33351940060E+03  0.33814952137E+03  0.46999998093E+01 0. -1.
</event>
<event>
 5   0  0.3934634E-02  0.5981052E+03  0.7818609E-02  0.9909345E-01
        2   -1    0    0  501    0  0.00000000000E+00  0.00000000000E+00  0.18664719022E+04  0.18664719022E+04  0.25500000920E-02 0.  1.
       -2   -1    0    0    0  501  0.00000000000E+00  0.00000000000E+00 -0.47915236960E+02  0.47915237028E+02  0.25500000920E-02 0. -1.
    10030    2    1    2    0    0  0.00000000000E+00  0.00000000000E+00  0.18185566653E+04  0.19143871393E+04  0.59810515310E+03 0.  0.
        1    1    3    3  502    0  0.11271687448E+03  0.21263938186E+03  0.14774624976E+04  0.14969355471E+04  0.50400001928E-02 0.  1.
       -1    1    3    3    0  502 -0.11271687448E+03 -0.21263938186E+03  0.34109416771E+03  0.41745159214E+03  0.50400001928E-02 0. -1.
</event>
<event>
 5   0  0.3724066E-02  0.6001351E+03  0.7818609E-02  0.9905126E-01
        2   -1    0    0  501    0  0.00000000000E+00  0.00000000000E+00  0.60958669569E+03  0.60958669569E+03  0.25500000920E-02 0.  1.
       -2   -1    0    0    0  501  0.00000000000E+00  0.00000000000E+00 -0.14770750553E+03  0.14770750555E+03  0.25500000920E-02 0. -1.
    10030    2    1    2    0    0  0.00000000000E+00  0.00000000000E+00  0.46187919015E+03  0.75729420125E+03  0.60013508558E+03 0.  0.
        4    1    3    3  502    0 -0.56085411818E+02  0.26051966064E+03  0.56897857965E+02  0.27249779107E+03  0.12699999809E+01 0. -1.
       -4    1    3    3    0  502  0.56085411818E+02 -0.26051966064E+03  0.40498133219E+03  0.48479641017E+03  0.12699999809E+01 0.  1.
</event>
<event>
 5   0  0.3724066E-02  0.6009175E+03  0.7818609E-02  0.9903504E-01
        2   -1    0    0  501    0  0.00000000000E+00  0.00000000000E+00  0.14752236401E+04  0.14752236401E+04  0.25500000920E-02 0.  1.
       -2   -1    0    0    0  501  0.00000000000E+00  0.00000000000E+00 -0.61194433501E+02  0.61194433554E+02  0.25500000920E-02 0. -1.
    10030    2    1    2    0    0  0.00000000000E+00  0.00000000000E+00  0.14140292066E+04  0.15364180736E+04  0.60091754837E+03 0.  0.
        4    1    3    3  502    0  0.11057061704E+03  0.17610399054E+03  0.15250780709E+03  0.25787345920E+03  0.12699999809E+01 0. -1.
       -4    1    3    3    0  502 -0.11057061704E+03 -0.17610399054E+03  0.12615213995E+04  0.12785446144E+04  0.12699999809E+01 0.  1.
</event>
<event>
 5   0  0.3798925E-02  0.5983048E+03  0.7818609E-02  0.9908929E-01
        2   -1    0    0  501    0  0.00000000000E+00  0.00000000000E+00  0.12385334103E+04  0.12385334103E+04  0.25500000920E-02 0.  1.
       -2   -1    0    0    0  501  0.00000000000E+00  0.00000000000E+00 -0.72256558375E+02  0.72256558420E+02  0.25500000920E-02 0. -1.
    10030    2    1    2    0    0  0.00000000000E+00  0.00000000000E+00  0.11662768519E+04  0.13107899687E+04  0.59830481091E+03 0.  0.
        2    1    3    3  502    0 -0.94748043093E+02 -0.22344759191E+03  0.19998476779E+03  0.31448358519E+03  0.25500000920E-02 0. -1.
       -2    1    3    3    0  502  0.94748043093E+02  0.22344759191E+03  0.96629208410E+03  0.99630638350E+03  0.25500000920E-02 0.  1.
</event>
<event>
 5   0  0.3832191E-02  0.6110107E+03  0.7818609E-02  0.9882822E-01
        2   -1    0    0  501    0  0.00000000000E+00  0.00000000000E+00  0.62058544183E+03  0.62058544183E+03  0.25500000920E-02 0.  1.
       -2   -1    0    0    0  501  0.00000000000E+00  0.00000000000E+00 -0.15039594053E+03  0.15039594055E+03  0.25500000920E-02 0. -1.
    10030    2    1    2    0    0  0.00000000000E+00  0.00000000000E+00  0.47018950130E+03  0.77098138238E+03  0.61101074037E+03 0.  0.
        3    1    3    3  502    0  0.99484772810E+02  0.34722187632E+02  0.59693090807E+03  0.60615952483E+03  0.10100000352E+00 0.  1.
       -3    1    3    3    0  502 -0.99484772810E+02 -0.34722187632E+02 -0.12674140677E+03  0.16482185755E+03  0.10100000352E+00 0. -1.
</event>
<event>
 5   0  0.2295179E-02  0.6003694E+03  0.7818609E-02  0.9904640E-01
       -1   -1    0    0    0  501  0.00000000000E+00  0.00000000000E+00  0.14536115698E+03  0.14536115706E+03  0.50400001928E-02 0.  1.
        1   -1    0    0  501    0  0.00000000000E+00  0.00000000000E+00 -0.61991020313E+03  0.61991020315E+03  0.50400001928E-02 0. -1.
    10030    2    1    2    0    0  0.00000000000E+00  0.00000000000E+00 -0.47454904615E+03  0.76527136021E+03  0.60036943423E+03 0.  0.
        3    1    3    3  502    0 -0.96322370486E+02  0.35808217536E+02 -0.59679090924E+03  0.60557379983E+03  0.10100000352E+00 0. -1.
       -3    1    3    3    0  502  0.96322370486E+02 -0.35808217536E+02  0.12224186309E+03  0.15969756038E+03  0.10100000352E+00 0.  1.
</event>
<event>
 5   0  0.2309055E-02  0.6007867E+03  0.7818609E-02  0.9903775E-01
        1   -1    0    0  501    0  0.00000000000E+00  0.00000000000E+00  0.16979509580E+04  0.16979509580E+04  0.50400001928E-02 0. -1.
       -1   -1    0    0    0  501  0.00000000000E+00  0.00000000000E+00 -0.53144151592E+02  0.53144151831E+02  0.50400001928E-02 0.  1.
    10030    2    1    2    0    0  0.00000000000E+00  0.00000000000E+00  0.16448068064E+04  0.17510951098E+04  0.60078669533E+03 0.  0.
        4    1    3    3  502    0  0.17633236016E+03 -0.16577911780E+03  0.30379900485E+03  0.38842150480E+03  0.12699999809E+01 0.  1.
       -4    1    3    3    0  502 -0.17633236016E+03  0.16577911780E+03  0.13410078015E+04  0.13626736050E+04  0.12699999809E+01 0. -1.
</event>
<event>
 5   0  0.3832191E-02  0.6014593E+03  0.7818609E-02  0.9902383E-01
        2   -1    0    0  501    0  0.00000000000E+00  0.00000000000E+00  0.83638183431E+03  0.83638183431E+03  0.25500000920E-02 0.  1.
       -2   -1    0    0    0  501  0.00000000000E+00  0.00000000000E+00 -0.10813041118E+03  0.10813041121E+03  0.25500000920E-02 0. -1.
    10030    2    1    2    0    0  0.00000000000E+00  0.00000000000E+00  0.72825142312E+03  0.94451224552E+03  0.60145926433E+03 0.  0.
        3    1    3    3  502    0  0.12989802701E+03  0.26185491880E+03  0.25311941895E+03  0.38666645364E+03  0.10100000352E+00 0. -1.
       -3    1    3    3    0  502 -0.12989802701E+03 -0.26185491880E+03  0.47513200418E+03  0.55784579188E+03  0.10100000352E+00 0.  1.
</event>
<event>
 5   0  0.3798925E-02  0.5990781E+03  0.7818609E-02  0.9907321E-01
        2   -1    0    0  501    0  0.00000000000E+00  0.00000000000E+00  0.57612830738E+03  0.57612830739E+03  0.25500000920E-02 0.  1.
       -2   -1    0    0    0  501  0.00000000000E+00  0.00000000000E+00 -0.15573549619E+03  0.15573549621E+03  0.25500000920E-02 0. -1.
    10030    2    1    2    0    0  0.00000000000E+00  0.00000000000E+00  0.42039281119E+03  0.73186380360E+03  0.59907805111E+03 0.  0.
        2    1    3    3  502    0 -0.13403221134E+03  0.22314770906E+03  0.29144330059E+02  0.26193305580E+03  0.25500000920E-02 0. -1.
       -2    1    3    3    0  502  0.13403221134E+03 -0.22314770906E+03  0.39124848113E+03  0.46993074781E+03  0.25500000920E-02 0.  1.
</event>
<event>
 5   0  0.2276105E-02  0.6031178E+03  0.7818609E-02  0.9898959E-01
       -1   -1    0    0    0  501  0.00000000000E+00  0.00000000000E+00  0.17291145322E+03  0.17291145330E+03  0.50400001928E-02 0. -1.
        1   -1    0    0  501    0  0.00000000000E+00  0.00000000000E+00 -0.52592106334E+03  0.52592106336E+03  0.50400001928E-02 0.  1.
    10030    2    1    2    0    0  0.00000000000E+00  0.00000000000E+00 -0.35300961012E+03  0.69883251666E+03  0.60311781727E+03 0.  0.
        1    1    3    3  502    0 -0.11650552361E+03  0.22837399817E+03  0.74679610069E+01  0.25648389919E+03  0.50400001928E-02 0. -1.
       -1    1    3    3    0  502  0.11650552361E+03 -0.22837399817E+03 -0.36047757112E+03  0.44234861748E+03  0.50400001928E-02 0.  1.
</event>
<event>
 5   0  0.3934634E-02  0.5973966E+03  0.7818609E-02  0.9910822E-01
       -2   -1    0    0    0  501  0.00000000000E+00  0.00000000000E+00  0.27969435354E+03  0.27969435355E+03  0.25500000920E-02 0. -1.
        2   -1    0    0  501    0  0.00000000000E+00  0.00000000000E+00 -0.31899344223E+03  0.31899344224E+03  0.25500000920E-02 0.  1.
    10030    2    1    2    0    0  0.00000000000E+00  0.00000000000E+00 -0.39299088686E+02  0.59868779579E+03  0.59739656716E+03 0.  0.
        1    1    3    3  502    0 -0.16254772867E+03  0.15738939815E+03  0.17577830086E+03  0.28651561532E+03  0.50400001928E-02 0. -1.
       -1    1    3    3    0  502  0.16254772867E+03 -0.15738939815E+03 -0.21507738954E+03  0.31217218047E+03  0.50400001928E-02 0.  1.
</event>
<event>
 5   0  0.2225808E-02  0.6014742E+03  0.7818609E-02  0.9902352E-01
        1   -1    0    0  501    0  0.00000000000E+00  0.00000000000E+00  0.17251116004E+03  0.17251116011E+03  0.50400001928E-02 0.  1.
       -1   -1    0    0    0  501  0.00000000000E+00  0.00000000000E+00 -0.52427212292E+03  0.52427212295E+03  0.50400001928E-02 0. -1.
    10030    2    1    2    0    0  0.00000000000E+00  0.00000000000E+00 -0.35176096289E+03  0.69678328306E+03  0.60147416282E+03 0.  0.
        2    1    3    3  502    0  0.18952770709E+03  0.16325799388E+03 -0.36927332947E+03  0.44602322382E+03  0.25500000920E-02 0. -1.
       -2    1    3    3    0  502 -0.18952770709E+03 -0.16325799388E+03  0.17512366586E+02  0.25076005924E+03  0.25500000920E-02 0.  1.
</event>
<event>
 5   0  0.3737642E-02  0.5972124E+03  0.7818609E-02  0.9911206E-01
        2   -1    0    0  501    0  0.00000000000E+00  0.00000000000E+00  0.99644359205E+03  0.99644359206E+03  0.25500000920E-02 0.  1.
       -2   -1    0    0    0  501  0.00000000000E+00  0.00000000000E+00 -0.89483892119E+02  0.89483892155E+02  0.25500000920E-02 0. -1.
    10030    2    1    2    0    0  0.00000000000E+00  0.00000000000E+00  0.90695969994E+03  0.10859274842E+04  0.59721236061E+03 0.  0.
        5    1    3    3  502    0 -0.11422661726E+02  0.74397135691E+02 -0.71881893981E+02  0.10418496859E+03  0.46999998093E+01 0. -1.
       -5    1    3    3    0  502  0.11422661726E+02 -0.74397135691E+02  0.97884159392E+03  0.98174251562E+03  0.46999998093E+01 0.  1.
</event>
<event>
 5   0  0.2225808E-02  0.6021402E+03  0.7818609E-02  0.9900976E-01
       -1   -1    0    0    0  501  0.00000000000E+00  0.00000000000E+00  0.72805271073E+02  0.72805271248E+02  0.50400001928E-02 0.  1.
        1   -1    0    0  501    0  0.00000000000E+00  0.00000000000E+00 -0.12450089796E+04  0.12450089796E+04  0.50400001928E-02 0. -1.
    10030    2    1    2    0    0  0.00000000000E+00  0.00000000000E+00 -0.11722037085E+04  0.13178142508E+04  0.60214023738E+03 0.  0.
        2    1    3    3  502    0 -0.54914505470E+02  0.14683522780E+03 -0.11486360657E+04  0.11592846926E+04  0.25500000920E-02 0. -1.
       -2    1    3    3    0  502  0.54914505470E+02 -0.14683522780E+03 -0.23567642767E+02  0.15852955821E+03  0.25500000920E-02 0.  1.
</event>
<event>
 5   0  0.2276105E-02  0.5979752E+03  0.7818609E-02  0.9909616E-01
        1   -1    0    0  501    0  0.00000000000E+00  0.00000000000E+00  0.23189271880E+03  0.23189271886E+03  0.50400001928E-02 0.  1.
       -1   -1    0    0    0  501  0.00000000000E+00  0.00000000000E+00 -0.38549542241E+03  0.38549542244E+03  0.50400001928E-02 0. -1.
    10030    2    1    2    0    0  0.00000000000E+00  0.00000000000E+00 -0.15360270361E+03  0.61738814130E+03  0.59797518884E+03 0.  0.
        1    1    3    3  502    0 -0.14722946631E+03  0.14025171297E+03 -0.30311257932E+03  0.36499903357E+03  0.50400001928E-02 0. -1.
       -1    1    3    3    0  502  0.14722946631E+03 -0.14025171297E+03  0.14950987571E+03  0.25238910773E+03  0.50400001928E-02 0.  1.
</event>
<event>
 5   0  0.2382531E-02  0.5969663E+03  0.7818609E-02  0.9911720E-01
        1   -1    0    0  501    0  0.00000000000E+00  0.00000000000E+00  0.13508773079E+04  0.13508773079E+04  0.50400001928E-02 0. -1.
       -1   -1    0    0    0  501  0.00000000000E+00  0.00000000000E+00 -0.65951354899E+02  0.65951355091E+02  0.50400001928E-02 0.  1.
    10030    2    1    2    0    0  0.00000000000E+00  0.00000000000E+00  0.12849259530E+04  0.14168286630E+04  0.59696629352E+03 0.  0.
        5    1    3    3  502    0 -0.36921632689E+01 -0.79230048265E+02 -0.40390910145E+02  0.89132195296E+02  0.46999998093E+01 0.  1.
       -5    1    3    3    0  502  0.36921632689E+01  0.79230048265E+02  0.13253168631E+04  0.13276964677E+04  0.46999998093E+01 0. -1.
</event>
<event>
 5   0  0.3934634E-02  0.5948945E+03  0.7818609E-02  0.9916055E-01
        2   -1    0    0  501    0  0.00000000000E+00  0.00000000000E+00  0.15288632137E+04  0.15288632137E+04  0.25500000920E-02 0. -1.
       -2   -1    0    0    0  501  0.00000000000E+00  0.00000000000E+00 -0.57869709701E+02  0.57869709757E+02  0.25500000920E-02 0.  1.
    10030    2    1    2    0    0  0.00000000000E+00  0.00000000000E+00  0.14709935040E+04  0.15867329235E+04  0.59489451298E+03 0.  0.
        1    1    3    3  502    0 -0.70237525806E+02  0.46556702825E+02  0.14963603248E+04  0.14987311494E+04  0.50400001928E-02 0. -1.
       -1    1    3    3    0  502  0.70237525806E+02 -0.46556702825E+02 -0.25366820801E+02  0.88001774029E+02  0.50400001928E-02 0.  1.
</event>
<event>
 5   0  0.2295179E-02  0.6056034E+03  0.7818609E-02  0.9893849E-01
       -1   -1    0    0    0  501  0.00000000000E+00  0.00000000000E+00  0.37568428174E+03  0.37568428178E+03  0.50400001928E-02 0. -1.
        1   -1    0    0  501    0  0.00000000000E+00  0.00000000000E+00 -0.24405828400E+03  0.24405828406E+03  0.50400001928E-02 0.  1.
    10030    2    1    2    0    0  0.00000000000E+00  0.00000000000E+00  0.13162599774E+03  0.61974256583E+03  0.60560337237E+03 0.  0.
        3    1    3    3  502    0 -0.65151575612E+02 -0.13396511584E+03 -0.20396562877E+03  0.25257349027E+03  0.10100000352E+00 0.  1.
       -3    1    3    3    0  502  0.65151575612E+02  0.13396511584E+03  0.33559162651E+03  0.36716907556E+03  0.10100000352E+00 0. -1.
</event>
<event>
 5   0  0.3798925E-02  0.6040706E+03  0.7818609E-02  0.9896997E-01
       -2   -1    0    0    0  501  0.00000000000E+00  0.00000000000E+00  0.91366214239E+02  0.91366214275E+02  0.25500000920E-02 0.  1.
        2   -1    0    0  501    0  0.00000000000E+00  0.00000000000E+00 -0.99845803946E+03  0.99845803946E+03  0.25500000920E-02 0. -1.
    10030    2    1    2    0    0  0.00000000000E+00  0.00000000000E+00 -0.90709182522E+03  0.10898242537E+04  0.60407062886E+03 0.  0.
        2    1    3    3  502    0  0.23069954234E+02 -0.72536165024E+01  0.89616713400E+02  0.92822373746E+02  0.25500000920E-02 0.  1.
       -2    1    3    3    0  502 -0.23069954234E+02  0.72536165024E+01 -0.99670853862E+03  0.99700187999E+03  0.25500000920E-02 0. -1.
</event>
<event>
 5   0  0.2309055E-02  0.6062545E+03  0.7818609E-02  0.9892514E-01
       -1   -1    0    0    0  501  0.00000000000E+00  0.00000000000E+00  0.55619474619E+02  0.55619474847E+02  0.50400001928E-02 0.  1.
        1   -1    0    0  501    0  0.00000000000E+00  0.00000000000E+00 -0.16520496821E+04  0.16520496821E+04  0.50400001928E-02 0. -1.
    10030    2    1    2    0    0  0.00000000000E+00  0.00000000000E+00 -0.15964302074E+04  0.17076691569E+04  0.60625451936E+03 0.  0.
        4    1    3    3  502    0  0.61027867922E+02  0.28739327398E+03 -0.10083461529E+04  0.10502775212E+04  0.12699999809E+01 0. -1.
       -4    1    3    3    0  502 -0.61027867922E+02 -0.28739327398E+03 -0.58808405458E+03  0.65739163575E+03  0.12699999809E+01 0.  1.
</event>
<event>
 5   0  0.2382531E-02  0.6010981E+03  0.7818609E-02  0.9903130E-01
        1   -1    0    0  501    0  0.00000000000E+00  0.00000000000E+00  0.25072349297E+03  0.25072349302E+03  0.50400001928E-02 0. -1.
       -1   -1    0    0    0  501  0.00000000000E+00  0.00000000000E+00 -0.36027634589E+03  0.36027634593E+03  0.50400001928E-02 0.  1.
    10030    2    1    2    0    0  0.00000000000E+00  0.00000000000E+00 -0.10955285292E+03  0.61099983894E+03  0.60109814141E+03 0.  0.
        5    1    3    3  502    0  0.79803514307E+02  0.27846125580E+03  0.26531108389E+02  0.29092140105E+03  0.46999998093E+01 0.  1.
       -5    1    3    3    0  502 -0.79803514307E+02 -0.27846125580E+03 -0.13608396131E+03  0.32007843789E+03  0.46999998093E+01 0. -1.
</event>
<event>
 5   0  0.3737642E-02  0.6017211E+03  0.7818609E-02  0.9901842E-01
        2   -1    0    0  501    0  0.00000000000E+00  0.00000000000E+00  0.11387048311E+04  0.11387048311E+04  0.25500000920E-02 0.  1.
       -2   -1    0    0    0  501  0.00000000000E+00  0.00000000000E+00 -0.79491263208E+02  0.79491263248E+02  0.25500000920E-02 0. -1.
    10030    2    1    2    0    0  0.00000000000E+00  0.00000000000E+00  0.10592135679E+04  0.12181960944E+04  0.60172114962E+03 0.  0.
        5    1    3    3  502    0  0.11591423686E+03  0.27544806345E+03  0.45984895989E+03  0.54844407361E+03  0.46999998093E+01 0. -1.
       -5    1    3    3    0  502 -0.11591423686E+03 -0.27544806345E+03  0.59936460805E+03  0.66975202078E+03  0.46999998093E+01 0.  1.
</event>
<event>
 5   0  0.2382531E-02  0.6000153E+03  0.7818609E-02  0.9905374E-01
       -1   -1    0    0    0  501  0.00000000000E+00  0.00000000000E+00  0.95392963754E+03  0.95392963756E+03  0.50400001928E-02 0.  1.
        1   -1    0    0  501    0  0.00000000000E+00  0.00000000000E+00 -0.94351381456E+02  0.94351381590E+02  0.50400001928E-02 0. -1.
    10030    2    1    2    0    0  0.00000000000E+00  0.00000000000E+00  0.85957825609E+03  0.10482810191E+04  0.60001526378E+03 0.  0.
        5    1    3    3  502    0 -0.50450718602E-01 -0.18841233186E+03  0.21989293100E+02  0.18974938300E+03  0.46999998093E+01 0. -1.
       -5    1    3    3    0  502  0.50450718602E-01  0.18841233186E+03  0.83758896299E+03  0.85853163614E+03  0.46999998093E+01 0.  1.
</event>
<event>
 5   0  0.1521750E-02  0.6027730E+03  0.7818609E-02  0.9899670E-01
        4   -1    0    0  501    0  0.00000000000E+00  0.00000000000E+00  0.36229737524E+03  0.36229960117E+03  0.12699999809E+01 0.  1.
       -4   -1    0    0    0  501  0.00000000000E+00  0.00000000000E+00 -0.25071159130E+03  0.25071480792E+03  0.12699999809E+01 0. -1.
    10030    2    1    2    0    0  0.00000000000E+00  0.00000000000E+00  0.11158578394E+03  0.61301440909E+03  0.60277299092E+03 0.  0.
        5    1    3    3  502    0 -0.35469377905E+02 -0.26969025818E+03 -0.76105787761E+02  0.28249795230E+03  0.46999998093E+01 0.  1.
       -5    1    3    3    0  502  0.35469377905E+02  0.26969025818E+03  0.18769157171E+03  0.33051645679E+03  0.46999998093E+01 0. -1.
</event>
<event>
 5   0  0.3934634E-02  0.6010224E+03  0.7818609E-02  0.9903287E-01
       -2   -1    0    0    0  501  0.00000000000E+00  0.00000000000E+00  0.19515353455E+03  0.19515353457E+03  0.25500000920E-02 0. -1.
        2   -1    0    0  501    0  0.00000000000E+00  0.00000000000E+00 -0.46274834788E+03  0.46274834789E+03  0.25500000920E-02 0.  1.
    10030    2    1    2    0    0  0.00000000000E+00  0.00000000000E+00 -0.26759481333E+03  0.65790188246E+03  0.60102238130E+03 0.  0.
        1    1    3    3  502    0  0.13894210230E+03 -0.18679599746E+03 -0.34180546427E+03  0.41355607587E+03  0.50400001928E-02 0. -1.
       -1    1    3    3    0  502 -0.13894210230E+03  0.18679599746E+03  0.74210650941E+02  0.24434580659E+03  0.50400001928E-02 0.  1.
</event>
<event>
 5   0  0.2309055E-02  0.5911517E+03  0.7818609E-02  0.9923936E-01
        1   -1    0    0  501    0  0.00000000000E+00  0.00000000000E+00  0.43160369404E+03  0.43160369407E+03  0.50400001928E-02 0.  1.
       -1   -1    0    0    0  501  0.00000000000E+00  0.00000000000E+00 -0.20241965013E+03  0.20241965020E+03  0.50400001928E-02 0. -1.
    10030    2    1    2    0    0  0.00000000000E+00  0.00000000000E+00  0.22918404391E+03  0.63402334427E+03  0.59115165152E+03 0.  0.
        4    1    3    3  502    0  0.13688377203E+03  0.26186664004E+03  0.12233736057E+03  0.31981142397E+03  0.12699999809E+01 0.  1.
       -4    1    3    3    0  502 -0.13688377203E+03 -0.26186664004E+03  0.10684668334E+03  0.31421192029E+03  0.12699999809E+01 0. -1.
</event>
<event>
 5   0  0.3934634E-02  0.5991062E+03  0.7818609E-02  0.9907262E-01
        2   -1    0    0  501    0  0.00000000000E+00  0.00000000000E+00  0.73182184199E+03  0.73182184200E+03  0.25500000920E-02 0.  1.
       -2   -1    0    0    0  501  0.00000000000E+00  0.00000000000E+00 -0.12261462911E+03  0.12261462913E+03  0.25500000920E-02 0. -1.
    10030    2    1    2    0    0  0.00000000000E+00  0.00000000000E+00  0.60920721288E+03  0.85443647113E+03  0.59910621343E+03 0.  0.
        1    1    3    3  502    0 -0.26818942573E+03 -0.11398778516E+03  0.40354921834E+03  0.49776576307E+03  0.50400001928E-02 0. -1.
       -1    1    3    3    0  502  0.26818942573E+03  0.11398778516E+03  0.20565799455E+03  0.35667070806E+03  0.50400001928E-02 0.  1.
</event>
<event>
 5   0  0.3934634E-02  0.5893119E+03  0.7818609E-02  0.9927832E-01
       -2   -1    0    0    0  501  0.00000000000E+00  0.00000000000E+00  0.29333923627E+03  0.29333923628E+03  0.25500000920E-02 0. -1.
        2   -1    0    0  501    0  0.00000000000E+00  0.00000000000E+00 -0.29597858704E+03  0.29597858705E+03  0.25500000920E-02 0.  1.
    10030    2    1    2    0    0  0.00000000000E+00  0.00000000000E+00 -0.26393507703E+01  0.58931782334E+03  0.58931191294E+03 0.  0.
        1    1    3    3  502    0  0.22784137874E+03 -0.45751559238E+02  0.17983741636E+03  0.29384757169E+03  0.50400001928E-02 0. -1.
       -1    1    3    3    0  502 -0.22784137874E+03  0.45751559238E+02 -0.18247676713E+03  0.29547025165E+03  0.50400001928E-02 0.  1.
</event>
<event>
 5   0  0.2309055E-02  0.5993831E+03  0.7818609E-02  0.9906687E-01
        1   -1    0    0  501    0  0.00000000000E+00  0.00000000000E+00  0.52308105680E+03  0.52308105682E+03  0.50400001928E-02 0.  1.
       -1   -1    0    0    0  501  0.00000000000E+00  0.00000000000E+00 -0.17170385485E+03  0.17170385492E+03  0.50400001928E-02 0. -1.
    10030    2    1    2    0    0  0.00000000000E+00  0.00000000000E+00  0.35137720195E+03  0.69478491175E+03  0.59938312918E+03 0.  0.
        4    1    3    3  502    0  0.17313657183E+03 -0.16717101236E+03  0.38269317420E+03  0.45208195978E+03  0.12699999809E+01 0.  1.
       -4    1    3    3    0  502 -0.17313657183E+03  0.16717101236E+03 -0.31315972246E+02  0.24270295197E+03  0.12699999809E+01 0. -1.
</event>
<event>
 5   0  0.2295179E-02  0.6019415E+03  0.7818609E-02  0.9901386E-01
        1   -1    0    0  501    0  0.00000000000E+00  0.00000000000E+00  0.43243066628E+03  0.43243066631E+03  0.50400001928E-02 0.  1.
       -1   -1    0    0    0  501  0.00000000000E+00  0.00000000000E+00 -0.20947494661E+03  0.20947494668E+03  0.50400001928E-02 0. -1.
    10030    2    1    2    0    0  0.00000000000E+00  0.00000000000E+00  0.22295571967E+03  0.64190561299E+03  0.60194149471E+03 0.  0.
        3    1    3    3  502    0  0.15484933914E+03  0.13658724055E+03 -0.12203274875E+03  0.23984660531E+03  0.10100000352E+00 0. -1.
       -3    1    3    3    0  502 -0.15484933914E+03 -0.13658724055E+03  0.34498846842E+03  0.40205900768E+03  0.10100000352E+00 0.  1.
</event>
<event>
 5   0  0.1521750E-02  0.5944886E+03  0.7818609E-02  0.9916907E-01
        3   -1    0    0  501    0  0.00000000000E+00  0.00000000000E+00  0.38876985796E+03  0.38876987108E+03  0.10100000352E+00 0. -1.
       -3   -1    0    0    0  501  0.00000000000E+00  0.00000000000E+00 -0.22726595621E+03  0.22726597865E+03  0.10100000352E+00 0.  1.
    10030    2    1    2    0    0  0.00000000000E+00  0.00000000000E+00  0.16150390175E+03  0.61603584973E+03  0.59448856833E+03 0.  0.
        4    1    3    3  502    0  0.15582733706E+03 -0.14636612978E+03 -0.13324544912E+03  0.25191499664E+03  0.12699999809E+01 0.  1.
       -4    1    3    3    0  502 -0.15582733706E+03  0.14636612978E+03  0.29474935087E+03  0.36412085310E+03  0.12699999809E+01 0. -1.
</event>
<event>
 5   0  0.3724066E-02  0.6021704E+03  0.7818609E-02  0.9900913E-01
       -2   -1    0    0    0  501  0.00000000000E+00  0.00000000000E+00  0.75095162741E+02  0.75095162784E+02  0.25500000920E-02 0.  1.
        2   -1    0    0  501    0  0.00000000000E+00  0.00000000000E+00 -0.12071655507E+04  0.12071655507E+04  0.25500000920E-02 0. -1.
    10030    2    1    2    0    0  0.00000000000E+00  0.00000000000E+00 -0.11320703880E+04  0.12822607135E+04  0.60217038624E+03 0.  0.
        4    1    3    3  502    0 -0.17800815073E+03 -0.21409833760E+03 -0.32207562319E+03  0.42574560461E+03  0.12699999809E+01 0. -1.
       -4    1    3    3    0  502  0.17800815073E+03  0.21409833760E+03 -0.80999476481E+03  0.85651510892E+03  0.12699999809E+01 0.  1.
</event>
<event>
 5   0  0.2309055E-02  0.5986642E+03  0.7818609E-02  0.9908181E-01
       -1   -1    0    0    0  501  0.00000000000E+00  0.00000000000E+00  0.20329892263E+03  0.20329892269E+03  0.50400001928E-02 0. -1.
        1   -1    0    0  501    0  0.00000000000E+00  0.00000000000E+00 -0.44072884742E+03  0.44072884744E+03  0.50400001928E-02 0.  1.
    10030    2    1    2    0    0  0.00000000000E+00  0.00000000000E+00 -0.23742992479E+03  0.64402777013E+03  0.59866417925E+03 0.  0.
        4    1    3    3  502    0 -0.29191561202E+03  0.36129321413E+02 -0.17839898246E+03  0.34401724121E+03  0.12699999809E+01 0. -1.
       -4    1    3    3    0  502  0.29191561202E+03 -0.36129321413E+02 -0.59030942331E+02  0.30001052892E+03  0.12699999809E+01 0.  1.
</event>
<event>
 5   0  0.2276105E-02  0.6257318E+03  0.7818609E-02  0.9853413E-01
        1   -1    0    0  501    0  0.00000000000E+00  0.00000000000E+00  0.53628819485E+03  0.53628819487E+03  0.50400001928E-02 0. -1.
       -1   -1    0    0    0  501  0.00000000000E+00  0.00000000000E+00 -0.18252328094E+03  0.18252328101E+03  0.50400001928E-02 0.  1.
    10030    2    1    2    0    0  0.00000000000E+00  0.00000000000E+00  0.35376491391E+03  0.71881147588E+03  0.62573183037E+03 0.  0.
        1    1    3    3  502    0 -0.15813952375E+03  0.18711093276E+03  0.40042190233E+03  0.46942125008E+03  0.50400001928E-02 0. -1.
       -1    1    3    3    0  502  0.15813952375E+03 -0.18711093276E+03 -0.46656988420E+02  0.24939022580E+03  0.50400001928E-02 0.  1.
</event>
<event>
 5   0  0.2382531E-02  0.5989491E+03  0.7818609E-02  0.9907589E-01
        1   -1    0    0  501    0  0.00000000000E+00  0.00000000000E+00  0.26426298419E+03  0.26426298424E+03  0.50400001928E-02 0. -1.
       -1   -1    0    0    0  501  0.00000000000E+00  0.00000000000E+00 -0.33937780732E+03  0.33937780735E+03  0.50400001928E-02 0.  1.
    10030    2    1    2    0    0  0.00000000000E+00  0.00000000000E+00 -0.75114823128E+02  0.60364079159E+03  0.59894905344E+03 0.  0.
        5    1    3    3  502    0  0.10318237776E+03  0.68168005578E+02  0.23728636053E+03  0.26761985531E+03  0.46999998093E+01 0. -1.
       -5    1    3    3    0  502 -0.10318237776E+03 -0.68168005578E+02 -0.31240118366E+03  0.33602093628E+03  0.46999998093E+01 0.  1.
</event>
<event>
 5   0  0.3724066E-02  0.5990751E+03  0.7818609E-02  0.9907327E-01
        2   -1    0    0  501    0  0.00000000000E+00  0.00000000000E+00  0.10538835288E+03  0.10538835291E+03  0.25500000920E-02 0.  1.
       -2   -1    0    0    0  501  0.00000000000E+00  0.00000000000E+00 -0.85135348707E+03  0.85135348707E+03  0.25500000920E-02 0. -1.
    10030    2    1    2    0    0  0.00000000000E+00  0.00000000000E+00 -0.74596513419E+03  0.95674183998E+03  0.59907509290E+03 0.  0.
        4    1    3    3  502    0  0.11432228960E+03 -0.10908146262E+02 -0.81479365403E+03  0.82284803281E+03  0.12699999809E+01 0. -1.
       -4    1    3    3    0  502 -0.11432228960E+03  0.10908146262E+02  0.68828519839E+02  0.13389380717E+03  0.12699999809E+01 0.  1.
</event>
<event>
 5   0  0.3798925E-02  0.5899530E+03  0.7818609E-02  0.9926473E-01
       -2   -1    0    0    0  501  0.00000000000E+00  0.00000000000E+00  0.81677810723E+02  0.81677810763E+02  0.25500000920E-02 0.  1.
        2   -1    0    0  501    0  0.00000000000E+00  0.00000000000E+00 -0.10652969366E+04  0.10652969366E+04  0.25500000920E-02 0. -1.
    10030    2    1    2    0    0  0.00000000000E+00  0.00000000000E+00 -0.98361912587E+03  0.11469747474E+04  0.58995295262E+03 0.  0.
        2    1    3    3  502    0  0.11364802283E+03  0.11794288800E+03 -0.96876698633E+03  0.98251507455E+03  0.25500000920E-02 0. -1.
       -2    1    3    3    0  502 -0.11364802283E+03 -0.11794288800E+03 -0.14852139540E+02  0.16445967280E+03  0.25500000920E-02 0.  1.
</event>
<event>
 5   0  0.2382531E-02  0.5996931E+03  0.7818609E-02  0.9906043E-01
       -1   -1    0    0    0  501  0.00000000000E+00  0.00000000000E+00  0.12415671934E+03  0.12415671944E+03  0.50400001928E-02 0. -1.
        1   -1    0    0  501    0  0.00000000000E+00  0.00000000000E+00 -0.72414890404E+03  0.72414890406E+03  0.50400001928E-02 0.  1.
    10030    2    1    2    0    0  0.00000000000E+00  0.00000000000E+00 -0.59999218470E+03  0.84830562350E+03  0.59969309581E+03 0.  0.
        5    1    3    3  502    0 -0.20925254950E+03  0.19435391829E+03 -0.42906925511E+03  0.51544407137E+03  0.46999998093E+01 0.  1.
       -5    1    3    3    0  502  0.20925254950E+03 -0.19435391829E+03 -0.17092292959E+03  0.33286155213E+03  0.46999998093E+01 0. -1.
</event>
<event>
 5   0  0.2276105E-02  0.6109641E+03  0.7818609E-02  0.9882917E-01
       -1   -1    0    0    0  501  0.00000000000E+00  0.00000000000E+00  0.78977083632E+02  0.78977083793E+02  0.50400001928E-02 0.  1.
        1   -1    0    0  501    0  0.00000000000E+00  0.00000000000E+00 -0.11815993125E+04  0.11815993125E+04  0.50400001928E-02 0. -1.
    10030    2    1    2    0    0  0.00000000000E+00  0.00000000000E+00 -0.11026222289E+04  0.12605763963E+04  0.61096405076E+03 0.  0.
        1    1    3    3  502    0  0.25431576735E+03  0.12262928877E+03 -0.79196886177E+03  0.84079077660E+03  0.50400001928E-02 0. -1.
       -1    1    3    3    0  502 -0.25431576735E+03 -0.12262928877E+03 -0.31065336710E+03  0.41978561970E+03  0.50400001928E-02 0.  1.
</event>
<event>
 5   0  0.3832191E-02  0.5956346E+03  0.7818609E-02  0.9914504E-01
        2   -1    0    0  501    0  0.00000000000E+00  0.00000000000E+00  0.11925576538E+04  0.11925576538E+04  0.25500000920E-02 0. -1.
       -2   -1    0    0    0  501  0.00000000000E+00  0.00000000000E+00 -0.74373892749E+02  0.74373892793E+02  0.25500000920E-02 0.  1.
    10030    2    1    2    0    0  0.00000000000E+00  0.00000000000E+00  0.11181837611E+04  0.12669315466E+04  0.59563463657E+03 0.  0.
        3    1    3    3  502    0  0.15274905183E+03  0.12465024257E+03  0.84306122049E+02  0.21442361863E+03  0.10100000352E+00 0.  1.
       -3    1    3    3    0  502 -0.15274905183E+03 -0.12465024257E+03  0.10338776390E+04  0.10525079280E+04  0.10100000352E+00 0. -1.
</event>
<event>
 5   0  0.3724066E-02  0.6416352E+03  0.7818609E-02  0.9822603E-01
       -2   -1    0    0    0  501  0.00000000000E+00  0.00000000000E+00  0.18895292655E+03  0.18895292657E+03  0.25500000920E-02 0. -1.
        2   -1    0    0  501    0  0.00000000000E+00  0.00000000000E+00 -0.54470678567E+03  0.54470678568E+03  0.25500000920E-02 0.  1.
    10030    2    1    2    0    0  0.00000000000E+00  0.00000000000E+00 -0.35575385912E+03  0.73365971224E+03  0.64163522744E+03 0.  0.
        4    1    3    3  502    0 -0.26253178697E+03 -0.14756271153E+03 -0.51454413807E+02  0.30552718799E+03  0.12699999809E+01 0.  1.
       -4    1    3    3    0  502  0.26253178697E+03  0.14756271153E+03 -0.30429944532E+03  0.42813252425E+03  0.12699999809E+01 0. -1.
</event>
<event>
 5   0  0.3724066E-02  0.6004583E+03  0.7818609E-02  0.9904456E-01
       -2   -1    0    0    0  501  0.00000000000E+00  0.00000000000E+00  0.50232643988E+02  0.50232644053E+02  0.25500000920E-02 0.  1.
        2   -1    0    0  501    0  0.00000000000E+00  0.00000000000E+00 -0.17944015271E+04  0.17944015271E+04  0.25500000920E-02 0. -1.
    10030    2    1    2    0    0  0.00000000000E+00  0.00000000000E+00 -0.17441688831E+04  0.18446341711E+04  0.60045826880E+03 0.  0.
        4    1    3    3  502    0 -0.18196886226E+03  0.19979728793E+03 -0.12738567831E+04  0.13022074872E+04  0.12699999809E+01 0. -1.
       -4    1    3    3    0  502  0.18196886226E+03 -0.19979728793E+03 -0.47031210004E+03  0.54242668393E+03  0.12699999809E+01 0.  1.
</event>
<event>
 5   0  0.2295179E-02  0.6005878E+03  0.7818609E-02  0.9904187E-01
       -1   -1    0    0    0  501  0.00000000000E+00  0.00000000000E+00  0.46939853089E+02  0.46939853360E+02  0.50400001928E-02 0. -1.
        1   -1    0    0  501    0  0.00000000000E+00  0.00000000000E+00 -0.19211056026E+04  0.19211056026E+04  0.50400001928E-02 0.  1.
    10030    2    1    2    0    0  0.00000000000E+00  0.00000000000E+00 -0.18741657495E+04  0.19680454560E+04  0.60058776221E+03 0.  0.
        3    1    3    3  502    0  0.62049141781E+02 -0.19407579709E+03 -0.16599337105E+04  0.16723921324E+04  0.10100000352E+00 0.  1.
       -3    1    3    3    0  502 -0.62049141781E+02  0.19407579709E+03 -0.21423203905E+03  0.29565332362E+03  0.10100000352E+00 0. -1.
</event>
<event>
 5   0  0.2295179E-02  0.5966478E+03  0.7818609E-02  0.9912385E-01
       -1   -1    0    0    0  501  0.00000000000E+00  0.00000000000E+00  0.13120200872E+03  0.13120200882E+03  0.50400001928E-02 0. -1.
        1   -1    0    0  501    0  0.00000000000E+00  0.00000000000E+00 -0.67832151254E+03  0.67832151255E+03  0.50400001928E-02 0.  1.
    10030    2    1    2    0    0  0.00000000000E+00  0.00000000000E+00 -0.54711950382E+03  0.80952352137E+03  0.59664778571E+03 0.  0.
        3    1    3    3  502    0 -0.23726687820E+03 -0.12103302123E+03 -0.91262143447E+02  0.28155523925E+03  0.10100000352E+00 0. -1.
       -3    1    3    3    0  502  0.23726687820E+03  0.12103302123E+03 -0.45585736037E+03  0.52796828212E+03  0.10100000352E+00 0.  1.
</event>
<event>
 5   0  0.2276105E-02  0.6032361E+03  0.7818609E-02  0.9898715E-01
        1   -1    0    0  501    0  0.00000000000E+00  0.00000000000E+00  0.21833020558E+03  0.21833020564E+03  0.50400001928E-02 0.  1.
       -1   -1    0    0    0  501  0.00000000000E+00  0.00000000000E+00 -0.41667821294E+03  0.41667821297E+03  0.50400001928E-02 0. -1.
    10030    2    1    2    0    0  0.00000000000E+00  0.00000000000E+00 -0.19834800735E+03  0.63500841861E+03  0.60323607293E+03 0.  0.
        1    1    3    3  502    0 -0.29555881229E+03  0.51517219850E+02 -0.13186451982E+03  0.32771525304E+03  0.50400001928E-02 0. -1.
       -1    1    3    3    0  502  0.29555881229E+03 -0.51517219850E+02 -0.66483487533E+02  0.30729316557E+03  0.50400001928E-02 0.  1.
</event>
<event>
 5   0  0.1521750E-02  0.6223101E+03  0.7818609E-02  0.9860171E-01
       -4   -1    0    0    0  501  0.00000000000E+00  0.00000000000E+00  0.35209512272E+03  0.35209741314E+03  0.12699999809E+01 0. -1.
        4   -1    0    0  501    0  0.00000000000E+00  0.00000000000E+00 -0.27497063307E+03  0.27497356592E+03  0.12699999809E+01 0.  1.
    10030    2    1    2    0    0  0.00000000000E+00  0.00000000000E+00  0.77124489644E+02  0.62707097906E+03  0.62231007213E+03 0.  0.
        3    1    3    3  502    0  0.97802595798E+02 -0.85073727487E+02  0.32359474417E+03  0.34859210477E+03  0.10100000352E+00 0. -1.
       -3    1    3    3    0  502 -0.97802595798E+02  0.85073727487E+02 -0.24647025453E+03  0.27847887428E+03  0.10100000352E+00 0.  1.
</event>
<event>
 5   0  0.3832191E-02  0.6017630E+03  0.7818609E-02  0.9901755E-01
        2   -1    0    0  501    0  0.00000000000E+00  0.00000000000E+00  0.44489496410E+03  0.44489496410E+03  0.25500000920E-02 0.  1.
       -2   -1    0    0    0  501  0.00000000000E+00  0.00000000000E+00 -0.20348550179E+03  0.20348550180E+03  0.25500000920E-02 0. -1.
    10030    2    1    2    0    0  0.00000000000E+00  0.00000000000E+00  0.24140946231E+03  0.64838046591E+03  0.60176299328E+03 0.  0.
        3    1    3    3  502    0 -0.10971061522E+03  0.84028089822E+02  0.40867818111E+03  0.43141048305E+03  0.10100000352E+00 0.  1.
       -3    1    3    3    0  502  0.10971061522E+03 -0.84028089822E+02 -0.16726871880E+03  0.21696998286E+03  0.10100000352E+00 0. -1.
</event>
<event>
 5   0  0.3832191E-02  0.5992502E+03  0.7818609E-02  0.9906963E-01
        2   -1    0    0  501    0  0.00000000000E+00  0.00000000000E+00  0.10856592701E+04  0.10856592701E+04  0.25500000920E-02 0.  1.
       -2   -1    0    0    0  501  0.00000000000E+00  0.00000000000E+00 -0.82691886951E+02  0.82691886990E+02  0.25500000920E-02 0. -1.
    10030    2    1    2    0    0  0.00000000000E+00  0.00000000000E+00  0.10029673832E+04  0.11683511571E+04  0.59925024374E+03 0.  0.
        3    1    3    3  502    0 -0.17719341183E+03 -0.18805059632E+03  0.79726284643E+03  0.83808626553E+03  0.10100000352E+00 0.  1.
       -3    1    3    3    0  502  0.17719341183E+03  0.18805059632E+03  0.20570453673E+03  0.33026489157E+03  0.10100000352E+00 0. -1.
</event>
<event>
 5   0  0.1521750E-02  0.5968119E+03  0.7818609E-02  0.9912042E-01
       -3   -1    0    0    0  501  0.00000000000E+00  0.00000000000E+00  0.19594745061E+03  0.19594747664E+03  0.10100000352E+00 0.  1.
        3   -1    0    0  501    0  0.00000000000E+00  0.00000000000E+00 -0.45443870195E+03  0.45443871318E+03  0.10100000352E+00 0. -1.
    10030    2    1    2    0    0  0.00000000000E+00  0.00000000000E+00 -0.25849125134E+03  0.65038618982E+03  0.59681192087E+03 0.  0.
        1    1    3    3  502    0  0.37652487574E+02  0.15822251631E+02  0.19288723552E+03  0.19716373683E+03  0.50400001928E-02 0.  1.
       -1    1    3    3    0  502 -0.37652487574E+02 -0.15822251631E+02 -0.45137848686E+03  0.45322245299E+03  0.50400001928E-02 0. -1.
</event>
<event>
 5   0  0.2295179E-02  0.6007890E+03  0.7818609E-02  0.9903770E-01
       -1   -1    0    0    0  501  0.00000000000E+00  0.00000000000E+00  0.39119016055E+03  0.39119016058E+03  0.50400001928E-02 0.  1.
        1   -1    0    0  501    0  0.00000000000E+00  0.00000000000E+00 -0.23067264337E+03  0.23067264342E+03  0.50400001928E-02 0. -1.
    10030    2    1    2    0    0  0.00000000000E+00  0.00000000000E+00  0.16051751718E+03  0.62186280400E+03  0.60078904258E+03 0.  0.
        3    1    3    3  502    0 -0.98068087211E+02  0.15734461322E+03  0.32490104224E+03  0.37407936923E+03  0.10100000352E+00 0.  1.
       -3    1    3    3    0  502  0.98068087211E+02 -0.15734461322E+03 -0.16438352505E+03  0.24778343477E+03  0.10100000352E+00 0. -1.
</event>
<event>
 5   0  0.3798925E-02  0.5988188E+03  0.7818609E-02  0.9907860E-01
       -2   -1    0    0    0  501  0.00000000000E+00  0.00000000000E+00  0.13279077173E+03  0.13279077175E+03  0.25500000920E-02 0.  1.
        2   -1    0    0  501    0  0.00000000000E+00  0.00000000000E+00 -0.67509194991E+03  0.67509194991E+03  0.25500000920E-02 0. -1.
    10030    2    1    2    0    0  0.00000000000E+00  0.00000000000E+00 -0.54230117818E+03  0.80788272167E+03  0.59881877402E+03 0.  0.
        2    1    3    3  502    0  0.23289656126E+03  0.14056827505E+01 -0.52499882632E+03  0.57434010119E+03  0.25500000920E-02 0. -1.
       -2    1    3    3    0  502 -0.23289656126E+03 -0.14056827505E+01 -0.17302351861E+02  0.23354262048E+03  0.25500000920E-02 0.  1.
</event>
<event>
 5   0  0.3934634E-02  0.6106882E+03  0.7818609E-02  0.9883476E-01
        2   -1    0    0  501    0  0.00000000000E+00  0.00000000000E+00  0.19308772018E+04  0.19308772018E+04  0.25500000920E-02 0. -1.
       -2   -1    0    0    0  501  0.00000000000E+00  0.00000000000E+00 -0.48286351092E+02  0.48286351160E+02  0.25500000920E-02 0.  1.
    10030    2    1    2    0    0  0.00000000000E+00  0.00000000000E+00  0.18825908507E+04  0.19791635530E+04  0.61068818411E+03 0.  0.
        1    1    3    3  502    0 -0.25846497457E+03  0.10251363443E+03  0.53235635342E+03  0.60059676604E+03  0.50400001928E-02 0.  1.
       -1    1    3    3    0  502  0.25846497457E+03 -0.10251363443E+03  0.13502344973E+04  0.13785667869E+04  0.50400001928E-02 0. -1.
</event>
<event>
 5   0  0.3724066E-02  0.6065884E+03  0.7818609E-02  0.9891831E-01
       -2   -1    0    0    0  501  0.00000000000E+00  0.00000000000E+00  0.10279478484E+03  0.10279478487E+03  0.25500000920E-02 0.  1.
        2   -1    0    0  501    0  0.00000000000E+00  0.00000000000E+00 -0.89486407891E+03  0.89486407891E+03  0.25500000920E-02 0. -1.
    10030    2    1    2    0    0  0.00000000000E+00  0.00000000000E+00 -0.79206929407E+03  0.99765886378E+03  0.60658836279E+03 0.  0.
        4    1    3    3  502    0  0.12042742691E+03  0.20501849435E+03 -0.86365058270E+02  0.25297407845E+03  0.12699999809E+01 0.  1.
       -4    1    3    3    0  502 -0.12042742691E+03 -0.20501849435E+03 -0.70570423580E+03  0.74468478533E+03  0.12699999809E+01 0. -1.
</event>
<event>
 5   0  0.1521750E-02  0.5843442E+03  0.7818609E-02  0.9938430E-01
       -3   -1    0    0    0  501  0.00000000000E+00  0.00000000000E+00  0.19673129611E+03  0.19673132204E+03  0.10100000352E+00 0. -1.
        3   -1    0    0  501    0  0.00000000000E+00  0.00000000000E+00 -0.43391427402E+03  0.43391428578E+03  0.10100000352E+00 0.  1.
    10030    2    1    2    0    0  0.00000000000E+00  0.00000000000E+00 -0.23718297791E+03  0.63064560782E+03  0.58434417739E+03 0.  0.
        1    1    3    3  502    0 -0.20069416961E+03  0.12792124806E+03  0.64314543943E+02  0.24653266722E+03  0.50400001928E-02 0. -1.
       -1    1    3    3    0  502  0.20069416961E+03 -0.12792124806E+03 -0.30149752186E+03  0.38411294059E+03  0.50400001928E-02 0.  1.
</event>
<event>
 5   0  0.2382531E-02  0.6005162E+03  0.7818609E-02  0.9904336E-01
       -1   -1    0    0    0  501  0.00000000000E+00  0.00000000000E+00  0.22153918763E+03  0.22153918769E+03  0.50400001928E-02 0.  1.
        1   -1    0    0  501    0  0.00000000000E+00  0.00000000000E+00 -0.40694796648E+03  0.40694796651E+03  0.50400001928E-02 0. -1.
    10030    2    1    2    0    0  0.00000000000E+00  0.00000000000E+00 -0.18540877884E+03  0.62848715419E+03  0.60051618439E+03 0.  0.
        5    1    3    3  502    0  0.10228671480E+03  0.16680831191E+03 -0.33100555295E+03  0.38454434209E+03  0.46999998093E+01 0. -1.
       -5    1    3    3    0  502 -0.10228671480E+03 -0.16680831191E+03  0.14559677411E+03  0.24394281211E+03  0.46999998093E+01 0.  1.
</event>
<event>
 5   0  0.3934634E-02  0.6027090E+03  0.7818609E-02  0.9899802E-01
       -2   -1    0    0    0  501  0.00000000000E+00  0.00000000000E+00  0.39708073994E+03  0.39708073995E+03  0.25500000920E-02 0.  1.
        2   -1    0    0  501    0  0.00000000000E+00  0.00000000000E+00 -0.22870543894E+03  0.22870543895E+03  0.25500000920E-02 0. -1.
    10030    2    1    2    0    0  0.00000000000E+00  0.00000000000E+00  0.16837530100E+03  0.62578617890E+03  0.60270896768E+03 0.  0.
        1    1    3    3  502    0  0.55202057834E+02  0.28130999194E+03  0.18065329605E+03  0.33884833208E+03  0.50400001928E-02 0. -1.
       -1    1    3    3    0  502 -0.55202057834E+02 -0.28130999194E+03 -0.12277995045E+02  0.28693784683E+03  0.50400001928E-02 0.  1.
</event>
<event>
 5   0  0.3832191E-02  0.6004505E+03  0.7818609E-02  0.9904472E-01
        2   -1    0    0  501    0  0.00000000000E+00  0.00000000000E+00  0.15400307377E+03  0.15400307379E+03  0.25500000920E-02 0. -1.
       -2   -1    0    0    0  501  0.00000000000E+00  0.00000000000E+00 -0.58528173512E+03  0.58528173512E+03  0.25500000920E-02 0.  1.
    10030    2    1    2    0    0  0.00000000000E+00  0.00000000000E+00 -0.43127866135E+03  0.73928480891E+03  0.60045045170E+03 0.  0.
        3    1    3    3  502    0 -0.17412452843E+03  0.23663146038E+03 -0.13952883929E+03  0.32524161271E+03  0.10100000352E+00 0.  1.
       -3    1    3    3    0  502  0.17412452843E+03 -0.23663146038E+03 -0.29174982206E+03  0.41404319620E+03  0.10100000352E+00 0. -1.
</event>
<event>
 5   0  0.2309055E-02  0.6042655E+03  0.7818609E-02  0.9896596E-01
       -1   -1    0    0    0  501  0.00000000000E+00  0.00000000000E+00  0.97157606349E+02  0.97157606480E+02  0.50400001928E-02 0.  1.
        1   -1    0    0  501    0  0.00000000000E+00  0.00000000000E+00 -0.93954775102E+03  0.93954775103E+03  0.50400001928E-02 0. -1.
    10030    2    1    2    0    0  0.00000000000E+00  0.00000000000E+00 -0.84239014467E+03  0.10367053575E+04  0.60426553969E+03 0.  0.
        4    1    3    3  502    0  0.44774677496E+02  0.22695711313E+03 -0.75461473175E+03  0.78927771362E+03  0.12699999809E+01 0. -1.
       -4    1    3    3    0  502 -0.44774677496E+02 -0.22695711313E+03 -0.87775412920E+02  0.24742764389E+03  0.12699999809E+01 0.  1.
</event>
<event>
 5   0  0.1521750E-02  0.5974114E+03  0.7818609E-02  0.9910791E-01
       -3   -1    0    0    0  501  0.00000000000E+00  0.00000000000E+00  0.56717060637E+03  0.56717061536E+03  0.10100000352E+00 0. -1.
        3   -1    0    0  501    0  0.00000000000E+00  0.00000000000E+00 -0.15731614420E+03  0.15731617663E+03  0.10100000352E+00 0.  1.
    10030    2    1    2    0    0  0.00000000000E+00  0.00000000000E+00  0.40985446216E+03  0.72448679199E+03  0.59741144248E+03 0.  0.
        5    1    3    3  502    0 -0.45129602089E+02  0.12260835163E+03  0.53063305612E+03  0.54650070368E+03  0.46999998093E+01 0. -1.
       -5    1    3    3    0  502  0.45129602089E+02 -0.12260835163E+03 -0.12077859396E+03  0.17798608831E+03  0.46999998093E+01 0.  1.
</event>
<event>
 5   0  0.3737642E-02  0.5989617E+03  0.7818609E-02  0.9907563E-01
        2   -1    0    0  501    0  0.00000000000E+00  0.00000000000E+00  0.63184513960E+03  0.63184513960E+03  0.25500000920E-02 0.  1.
       -2   -1    0    0    0  501  0.00000000000E+00  0.00000000000E+00 -0.14194739520E+03  0.14194739522E+03  0.25500000920E-02 0. -1.
    10030    2    1    2    0    0  0.00000000000E+00  0.00000000000E+00  0.48989774440E+03  0.77379253482E+03  0.59896167405E+03 0.  0.
        5    1    3    3  502    0  0.14798573581E+03  0.16585158767E+03  0.50416571743E+03  0.55100969844E+03  0.46999998093E+01 0.  1.
       -5    1    3    3    0  502 -0.14798573581E+03 -0.16585158767E+03 -0.14267973035E+02  0.22278283639E+03  0.46999998093E+01 0. -1.
</event>
<event>
 5   0  0.3798925E-02  0.5960180E+03  0.7818609E-02  0.9913702E-01
       -2   -1    0    0    0  501  0.00000000000E+00  0.00000000000E+00  0.38170902929E+02  0.38170903014E+02  0.25500000920E-02 0. -1.
        2   -1    0    0  501    0  0.00000000000E+00  0.00000000000E+00 -0.23266244106E+04  0.23266244106E+04  0.25500000920E-02 0.  1.
    10030    2    1    2    0    0  0.00000000000E+00  0.00000000000E+00 -0.22884535077E+04  0.23647953136E+04  0.59601796829E+03 0.  0.
        2    1    3    3  502    0 -0.59833983714E+02 -0.82192470644E+02 -0.22556925976E+04  0.22579824629E+04  0.25500000920E-02 0.  1.
       -2    1    3    3    0  502  0.59833983714E+02  0.82192470644E+02 -0.32760910019E+02  0.10681285068E+03  0.25500000920E-02 0. -1.
</event>
<event>
 5   0  0.3798925E-02  0.6043053E+03  0.7818609E-02  0.9896514E-01
       -2   -1    0    0    0  501  0.00000000000E+00  0.00000000000E+00  0.19439843115E+03  0.19439843117E+03  0.25500000920E-02 0. -1.
        2   -1    0    0  501    0  0.00000000000E+00  0.00000000000E+00 -0.46963461495E+03  0.46963461496E+03  0.25500000920E-02 0.  1.
    10030    2    1    2    0    0  0.00000000000E+00  0.00000000000E+00 -0.27523618380E+03  0.66403304613E+03  0.60430532802E+03 0.  0.
        2    1    3    3  502    0  0.11585487599E+03  0.15001167844E+02 -0.44381497796E+03  0.45893258982E+03  0.25500000920E-02 0.  1.
       -2    1    3    3    0  502 -0.11585487599E+03 -0.15001167844E+02  0.16857879417E+03  0.20510045631E+03  0.25500000920E-02 0. -1.
</event>
<event>
 5   0  0.2295179E-02  0.6002823E+03  0.7818609E-02  0.9904820E-01
       -1   -1    0    0    0  501  0.00000000000E+00  0.00000000000E+00  0.18262326470E+03  0.18262326477E+03  0.50400001928E-02 0. -1.
        1   -1    0    0  501    0  0.00000000000E+00  0.00000000000E+00 -0.49328173553E+03  0.49328173556E+03  0.50400001928E-02 0.  1.
    10030    2    1    2    0    0  0.00000000000E+00  0.00000000000E+00 -0.31065847083E+03  0.67590500033E+03  0.60028233688E+03 0.  0.
        3    1    3    3  502    0 -0.17922400069E+02  0.15303035116E+03  0.13469539451E+03  0.20465180259E+03  0.10100000352E+00 0. -1.
       -3    1    3    3    0  502  0.17922400069E+02 -0.15303035116E+03 -0.44535386534E+03  0.47125319774E+03  0.10100000352E+00 0.  1.
</event>
<event>
 5   0  0.2225808E-02  0.6064302E+03  0.7818609E-02  0.9892155E-01
        1   -1    0    0  501    0  0.00000000000E+00  0.00000000000E+00  0.55755242991E+03  0.55755242993E+03  0.50400001928E-02 0. -1.
       -1   -1    0    0    0  501  0.00000000000E+00  0.00000000000E+00 -0.16489818240E+03  0.16489818248E+03  0.50400001928E-02 0.  1.
    10030    2    1    2    0    0  0.00000000000E+00  0.00000000000E+00  0.39265424751E+03  0.72245061241E+03  0.60643015202E+03 0.  0.
        2    1    3    3  502    0  0.86411055013E+02  0.14803382690E+03 -0.10164149890E+03  0.19927839481E+03  0.25500000920E-02 0.  1.
       -2    1    3    3    0  502 -0.86411055013E+02 -0.14803382690E+03  0.49429574641E+03  0.52317221760E+03  0.25500000920E-02 0. -1.
</event>
<event>
 5   0  0.3934634E-02  0.6032349E+03  0.7818609E-02  0.9898717E-01
       -2   -1    0    0    0  501  0.00000000000E+00  0.00000000000E+00  0.32630881754E+03  0.32630881755E+03  0.25500000920E-02 0. -1.
        2   -1    0    0  501    0  0.00000000000E+00  0.00000000000E+00 -0.27879441106E+03  0.27879441107E+03  0.25500000920E-02 0.  1.
    10030    2    1    2    0    0  0.00000000000E+00  0.00000000000E+00  0.47514406486E+02  0.60510322862E+03  0.60323486178E+03 0.  0.
        1    1    3    3  502    0  0.11457145995E+03  0.20746909546E+03  0.21089071319E+03  0.31724586355E+03  0.50400001928E-02 0. -1.
       -1    1    3    3    0  502 -0.11457145995E+03 -0.20746909546E+03 -0.16337630671E+03  0.28785736507E+03  0.50400001928E-02 0.  1.
</event>
<event>
 5   0  0.1521750E-02  0.6064339E+03  0.7818609E-02  0.9892147E-01
        4   -1    0    0  501    0  0.00000000000E+00  0.00000000000E+00  0.76866295810E+02  0.76876786688E+02  0.12699999809E+01 0.  1.
       -4   -1    0    0    0  501  0.00000000000E+00  0.00000000000E+00 -0.11960171025E+04  0.11960177768E+04  0.12699999809E+01 0. -1.
    10030    2    1    2    0    0  0.00000000000E+00  0.00000000000E+00 -0.11191508067E+04  0.12728945635E+04  0.60643387240E+03 0.  0.
        1    1    3    3  502    0  0.22301066362E+03 -0.11965312579E+03 -0.91011116640E+03  0.94464435733E+03  0.50400001928E-02 0. -1.
       -1    1    3    3    0  502 -0.22301066362E+03  0.11965312579E+03 -0.20903964031E+03  0.32825020616E+03  0.50400001928E-02 0.  1.
</event>
<event>
 5   0  0.2382531E-02  0.5662488E+03  0.7818609E-02  0.9978014E-01
       -1   -1    0    0    0  501  0.00000000000E+00  0.00000000000E+00  0.33439925371E+03  0.33439925375E+03  0.50400001928E-02 0.  1.
        1   -1    0    0  501    0  0.00000000000E+00  0.00000000000E+00 -0.23971169951E+03  0.23971169957E+03  0.50400001928E-02 0. -1.
    10030    2    1    2    0    0  0.00000000000E+00  0.00000000000E+00  0.94687554195E+02  0.57411095331E+03  0.56624875611E+03 0.  0.
        5    1    3    3  502    0 -0.75712006150E+02 -0.22816542858E+03 -0.10421605763E+03  0.26205886236E+03  0.46999998093E+01 0. -1.
       -5    1    3    3    0  502  0.75712006150E+02  0.22816542858E+03  0.19890361183E+03  0.31205209096E+03  0.46999998093E+01 0.  1.
</event>
<event>
 5   0  0.3737642E-02  0.6006629E+03  0.7818609E-02  0.9904032E-01
        2   -1    0    0  501    0  0.00000000000E+00  0.00000000000E+00  0.21226254448E+03  0.21226254450E+03  0.25500000920E-02 0. -1.
       -2   -1    0    0    0  501  0.00000000000E+00  0.00000000000E+00 -0.42494060951E+03  0.42494060952E+03  0.25500000920E-02 0.  1.
    10030    2    1    2    0    0  0.00000000000E+00  0.00000000000E+00 -0.21267806503E+03  0.63720315401E+03  0.60066288394E+03 0.  0.
        5    1    3    3  502    0  0.11564075697E+03 -0.19695782136E+03  0.10048731538E+03  0.24956954666E+03  0.46999998093E+01 0. -1.
       -5    1    3    3    0  502 -0.11564075697E+03  0.19695782136E+03 -0.31316538041E+03  0.38763360736E+03  0.46999998093E+01 0.  1.
</event>
<event>
 5   0  0.1521750E-02  0.5988345E+03  0.7818609E-02  0.9907827E-01
       -4   -1    0    0    0  501  0.00000000000E+00  0.00000000000E+00  0.11160370968E+03  0.11161093546E+03  0.12699999809E+01 0.  1.
        4   -1    0    0  501    0  0.00000000000E+00  0.00000000000E+00 -0.80326113427E+03  0.80326213824E+03  0.12699999809E+01 0. -1.
    10030    2    1    2    0    0  0.00000000000E+00  0.00000000000E+00 -0.69165742459E+03  0.91487307370E+03  0.59883449131E+03 0.  0.
        3    1    3    3  502    0 -0.13994380909E+03 -0.24360358327E+03 -0.18762145793E+03  0.33782953862E+03  0.10100000352E+00 0.  1.
       -3    1    3    3    0  502  0.13994380909E+03  0.24360358327E+03 -0.50403596666E+03  0.57704353508E+03  0.10100000352E+00 0. -1.
</event>
<event>
 5   0  0.2295179E-02  0.6079309E+03  0.7818609E-02  0.9889087E-01
       -1   -1    0    0    0  501  0.00000000000E+00  0.00000000000E+00  0.74832695862E+02  0.74832696032E+02  0.50400001928E-02 0.  1.
        1   -1    0    0  501    0  0.00000000000E+00  0.00000000000E+00 -0.12346876305E+04  0.12346876305E+04  0.50400001928E-02 0. -1.
    10030    2    1    2    0    0  0.00000000000E+00  0.00000000000E+00 -0.11598549346E+04  0.13095203265E+04  0.60793093046E+03 0.  0.
        3    1    3    3  502    0 -0.10325485507E+03  0.10857229262E+03 -0.10238446050E+02  0.15018103675E+03  0.10100000352E+00 0.  1.
       -3    1    3    3    0  502  0.10325485507E+03 -0.10857229262E+03 -0.11496164886E+04  0.11593392898E+04  0.10100000352E+00 0. -1.
</event>
<event>
 5   0  0.2295179E-02  0.5874060E+03  0.7818609E-02  0.9931885E-01
       -1   -1    0    0    0  501  0.00000000000E+00  0.00000000000E+00  0.19535755337E+03  0.19535755343E+03  0.50400001928E-02 0. -1.
        1   -1    0    0  501    0  0.00000000000E+00  0.00000000000E+00 -0.44155681003E+03  0.44155681006E+03  0.50400001928E-02 0.  1.
    10030    2    1    2    0    0  0.00000000000E+00  0.00000000000E+00 -0.24619925666E+03  0.63691436349E+03  0.58740602009E+03 0.  0.
        3    1    3    3  502    0 -0.20004385570E+02  0.80578218726E+02  0.18236893752E+03  0.20037830308E+03  0.10100000352E+00 0. -1.
       -3    1    3    3    0  502  0.20004385570E+02 -0.80578218726E+02 -0.42856819418E+03  0.43653606041E+03  0.10100000352E+00 0.  1.
</event>
<event>
 5   0  0.3798925E-02  0.6014747E+03  0.7818609E-02  0.9902351E-01
       -2   -1    0    0    0  501  0.00000000000E+00  0.00000000000E+00  0.10491276936E+04  0.10491276936E+04  0.25500000920E-02 0. -1.
        2   -1    0    0  501    0  0.00000000000E+00  0.00000000000E+00 -0.86207756135E+02  0.86207756172E+02  0.25500000920E-02 0.  1.
    10030    2    1    2    0    0  0.00000000000E+00  0.00000000000E+00  0.96291993743E+03  0.11353354497E+04  0.60147466907E+03 0.  0.
        2    1    3    3  502    0  0.12758233179E+03 -0.25515659473E+03  0.66113604393E+03  0.72005764200E+03  0.25500000920E-02 0. -1.
       -2    1    3    3    0  502 -0.12758233179E+03  0.25515659473E+03  0.30178389351E+03  0.41527780774E+03  0.25500000920E-02 0.  1.
</event>
<event>
 5   0  0.3832191E-02  0.5949059E+03  0.7818609E-02  0.9916031E-01
       -2   -1    0    0    0  501  0.00000000000E+00  0.00000000000E+00  0.15777603603E+03  0.15777603605E+03  0.25500000920E-02 0.  1.
        2   -1    0    0  501    0  0.00000000000E+00  0.00000000000E+00 -0.56078388957E+03  0.56078388957E+03  0.25500000920E-02 0. -1.
    10030    2    1    2    0    0  0.00000000000E+00  0.00000000000E+00 -0.40300785353E+03  0.71855992562E+03  0.59490590575E+03 0.  0.
        3    1    3    3  502    0 -0.26279456057E+03  0.13813871188E+03 -0.17939773656E+03  0.34688159776E+03  0.10100000352E+00 0. -1.
       -3    1    3    3    0  502  0.26279456057E+03 -0.13813871188E+03 -0.22361011698E+03  0.37167832786E+03  0.10100000352E+00 0.  1.
</event>
<event>
 5   0  0.2276105E-02  0.6098471E+03  0.7818609E-02  0.9885184E-01
        1   -1    0    0  501    0  0.00000000000E+00  0.00000000000E+00  0.63219117832E+03  0.63219117834E+03  0.50400001928E-02 0. -1.
       -1   -1    0    0    0  501  0.00000000000E+00  0.00000000000E+00 -0.14707319310E+03  0.14707319319E+03  0.50400001928E-02 0.  1.
    10030    2    1    2    0    0  0.00000000000E+00  0.00000000000E+00  0.48511798522E+03  0.77926437153E+03  0.60984711293E+03 0.  0.
        1    1    3    3  502    0 -0.33052018639E+02  0.57230038576E+02 -0.13781151741E+03  0.15283889429E+03  0.50400001928E-02 0.  1.
       -1    1    3    3    0  502  0.33052018639E+02 -0.57230038576E+02  0.62292950264E+03  0.62642547724E+03  0.50400001928E-02 0. -1.
</event>
<event>
 5   0  0.3934634E-02  0.6222134E+03  0.7818609E-02  0.9860363E-01
        2   -1    0    0  501    0  0.00000000000E+00  0.00000000000E+00  0.15769124245E+04  0.15769124246E+04  0.25500000920E-02 0.  1.
       -2   -1    0    0    0  501  0.00000000000E+00  0.00000000000E+00 -0.61377780520E+02  0.61377780573E+02  0.25500000920E-02 0. -1.
    10030    2    1    2    0    0  0.00000000000E+00  0.00000000000E+00  0.15155346440E+04  0.16382902051E+04  0.62221341914E+03 0.  0.
        1    1    3    3  502    0  0.13016551472E+03 -0.38407142294E+02  0.14948635854E+04  0.15010114286E+04  0.50400001928E-02 0.  1.
       -1    1    3    3    0  502 -0.13016551472E+03  0.38407142294E+02  0.20671058665E+02  0.13727877656E+03  0.50400001928E-02 0. -1.
</event>
<event>
 5   0  0.3934634E-02  0.5989954E+03  0.7818609E-02  0.9907492E-01
        2   -1    0    0  501    0  0.00000000000E+00  0.00000000000E+00  0.51212117247E+03  0.51212117248E+03  0.25500000920E-02 0. -1.
       -2   -1    0    0    0  501  0.00000000000E+00  0.00000000000E+00 -0.17515165588E+03  0.17515165590E+03  0.25500000920E-02 0.  1.
    10030    2    1    2    0    0  0.00000000000E+00  0.00000000000E+00  0.33696951660E+03  0.68727282838E+03  0.59899539690E+03 0.  0.
        1    1    3    3  502    0 -0.23747939763E+03  0.86389475220E+02  0.35292079129E+03  0.43406530693E+03  0.50400001928E-02 0. -1.
       -1    1    3    3    0  502  0.23747939763E+03 -0.86389475220E+02 -0.15951274696E+02  0.25320752145E+03  0.50400001928E-02 0.  1.
</event>
<event>
 5   0  0.3737642E-02  0.6458248E+03  0.7818609E-02  0.9814645E-01
       -2   -1    0    0    0  501  0.00000000000E+00  0.00000000000E+00  0.22214935219E+03  0.22214935220E+03  0.25500000920E-02 0.  1.
        2   -1    0    0  501    0  0.00000000000E+00  0.00000000000E+00 -0.46937977662E+03  0.46937977663E+03  0.25500000920E-02 0. -1.
    10030    2    1    2    0    0  0.00000000000E+00  0.00000000000E+00 -0.24723042443E+03  0.69152912883E+03  0.64582478526E+03 0.  0.
        5    1    3    3  502    0  0.27545602735E+03 -0.11902904529E+03 -0.25124075025E+03  0.39139231113E+03  0.46999998093E+01 0. -1.
       -5    1    3    3    0  502 -0.27545602735E+03  0.11902904529E+03  0.40103258142E+01  0.30013681770E+03  0.46999998093E+01 0.  1.
</event>
<event>
 5   0  0.3832191E-02  0.6013748E+03  0.7818609E-02  0.9902558E-01
       -2   -1    0    0    0  501  0.00000000000E+00  0.00000000000E+00  0.12052344533E+03  0.12052344535E+03  0.25500000920E-02 0. -1.
        2   -1    0    0  501    0  0.00000000000E+00  0.00000000000E+00 -0.75016856198E+03  0.75016856198E+03  0.25500000920E-02 0.  1.
    10030    2    1    2    0    0  0.00000000000E+00  0.00000000000E+00 -0.62964511665E+03  0.87069200733E+03  0.60137475730E+03 0.  0.
        3    1    3    3  502    0 -0.75402968605E+02  0.57234829284E+02 -0.72803062332E+03  0.73415940507E+03  0.10100000352E+00 0.  1.
       -3    1    3    3    0  502  0.75402968605E+02 -0.57234829284E+02  0.98385506671E+02  0.13653260227E+03  0.10100000352E+00 0. -1.
</event>
<event>
 5   0  0.2309055E-02  0.6031134E+03  0.7818609E-02  0.9898968E-01
        1   -1    0    0  501    0  0.00000000000E+00  0.00000000000E+00  0.14044475700E+03  0.14044475709E+03  0.50400001928E-02 0.  1.
       -1   -1    0    0    0  501  0.00000000000E+00  0.00000000000E+00 -0.64748916222E+03  0.64748916224E+03  0.50400001928E-02 0. -1.
    10030    2    1    2    0    0  0.00000000000E+00  0.00000000000E+00 -0.50704440522E+03  0.78793391934E+03  0.60311344901E+03 0.  0.
        4    1    3    3  502    0 -0.19741041559E+03  0.22391140281E+03 -0.19767028413E+03  0.35802561727E+03  0.12699999809E+01 0.  1.
       -4    1    3    3    0  502  0.19741041559E+03 -0.22391140281E+03 -0.30937412109E+03  0.42990830207E+03  0.12699999809E+01 0. -1.
</event>
<event>
 5   0  0.2276105E-02  0.6038101E+03  0.7818609E-02  0.9897533E-01
        1   -1    0    0  501    0  0.00000000000E+00  0.00000000000E+00  0.36676293760E+03  0.36676293763E+03  0.50400001928E-02 0. -1.
       -1   -1    0    0    0  501  0.00000000000E+00  0.00000000000E+00 -0.24851651387E+03  0.24851651392E+03  0.50400001928E-02 0.  1.
    10030    2    1    2    0    0  0.00000000000E+00  0.00000000000E+00  0.11824642373E+03  0.61527945156E+03  0.60381005853E+03 0.  0.
        1    1    3    3  502    0  0.79076296753E+02 -0.21971522400E+03 -0.13587209521E+03  0.27016488789E+03  0.50400001928E-02 0.  1.
       -1    1    3    3    0  502 -0.79076296753E+02  0.21971522400E+03  0.25411851894E+03  0.34511456367E+03  0.50400001928E-02 0. -1.
</event>
<event>
 5   0  0.2276105E-02  0.5983854E+03  0.7818609E-02  0.9908762E-01
       -1   -1    0    0    0  501  0.00000000000E+00  0.00000000000E+00  0.11675468618E+03  0.11675468629E+03  0.50400001928E-02 0.  1.
        1   -1    0    0  501    0  0.00000000000E+00  0.00000000000E+00 -0.76670381650E+03  0.76670381652E+03  0.50400001928E-02 0. -1.
    10030    2    1    2    0    0  0.00000000000E+00  0.00000000000E+00 -0.64994913032E+03  0.88345850281E+03  0.59838537264E+03 0.  0.
        1    1    3    3  502    0  0.24653912588E+02 -0.27375233305E+02  0.11339321273E+03  0.11922767935E+03  0.50400001928E-02 0.  1.
       -1    1    3    3    0  502 -0.24653912588E+02  0.27375233305E+02 -0.76334234305E+03  0.76423082346E+03  0.50400001928E-02 0. -1.
</event>
<event>
 5   0  0.3737642E-02  0.5927603E+03  0.7818609E-02  0.9920541E-01
       -2   -1    0    0    0  501  0.00000000000E+00  0.00000000000E+00  0.17706356178E+03  0.17706356180E+03  0.25500000920E-02 0.  1.
        2   -1    0    0  501    0  0.00000000000E+00  0.00000000000E+00 -0.49609979596E+03  0.49609979597E+03  0.25500000920E-02 0. -1.
    10030    2    1    2    0    0  0.00000000000E+00  0.00000000000E+00 -0.31903623418E+03  0.67316335777E+03  0.59276031203E+03 0.  0.
        5    1    3    3  502    0  0.12132842257E+03 -0.19763461867E+03 -0.36904041367E+03  0.43588180226E+03  0.46999998093E+01 0. -1.
       -5    1    3    3    0  502 -0.12132842257E+03  0.19763461867E+03  0.50004179485E+02  0.23728155551E+03  0.46999998093E+01 0.  1.
</event>
<event>
 5   0  0.3934634E-02  0.5980179E+03  0.7818609E-02  0.9909527E-01
       -2   -1    0    0    0  501  0.00000000000E+00  0.00000000000E+00  0.94478983709E+02  0.94478983744E+02  0.25500000920E-02 0.  1.
        2   -1    0    0  501    0  0.00000000000E+00  0.00000000000E+00 -0.94630951579E+03  0.94630951580E+03  0.25500000920E-02 0. -1.
    10030    2    1    2    0    0  0.00000000000E+00  0.00000000000E+00 -0.85183053208E+03  0.10407884995E+04  0.59801793066E+03 0.  0.
        1    1    3    3  502    0 -0.25014243102E+03  0.94220444673E+02 -0.65913904538E+03  0.71127562109E+03  0.50400001928E-02 0. -1.
       -1    1    3    3    0  502  0.25014243102E+03 -0.94220444673E+02 -0.19269148670E+03  0.32951287845E+03  0.50400001928E-02 0.  1.
</event>
<event>
 5   0  0.2295179E-02  0.5995684E+03  0.7818609E-02  0.9906302E-01
        1   -1    0    0  501    0  0.00000000000E+00  0.00000000000E+00  0.28634125104E+03  0.28634125109E+03  0.50400001928E-02 0.  1.
       -1   -1    0    0    0  501  0.00000000000E+00  0.00000000000E+00 -0.31385828030E+03  0.31385828034E+03  0.50400001928E-02 0. -1.
    10030    2    1    2    0    0  0.00000000000E+00  0.00000000000E+00 -0.27517029260E+02  0.60019953143E+03  0.59956842030E+03 0.  0.
        3    1    3    3  502    0  0.11006792300E+03  0.27668696030E+03 -0.48435138608E+02  0.30168956648E+03  0.10100000352E+00 0.  1.
       -3    1    3    3    0  502 -0.11006792300E+03 -0.27668696030E+03  0.20918109348E+02  0.29850996494E+03  0.10100000352E+00 0. -1.
</event>
<event>
 5   0  0.2295179E-02  0.6287995E+03  0.7818609E-02  0.9847394E-01
        1   -1    0    0  501    0  0.00000000000E+00  0.00000000000E+00  0.39210950695E+03  0.39210950698E+03  0.50400001928E-02 0.  1.
       -1   -1    0    0    0  501  0.00000000000E+00  0.00000000000E+00 -0.25209080932E+03  0.25209080937E+03  0.50400001928E-02 0. -1.
    10030    2    1    2    0    0  0.00000000000E+00  0.00000000000E+00  0.14001869763E+03  0.64420031635E+03  0.62879950056E+03 0.  0.
        3    1    3    3  502    0  0.25562328971E+03  0.16772475287E+03  0.14510075558E+03  0.33842148046E+03  0.10100000352E+00 0.  1.
       -3    1    3    3    0  502 -0.25562328971E+03 -0.16772475287E+03 -0.50820579591E+01  0.30577883589E+03  0.10100000352E+00 0. -1.
</event>
<event>
 5   0  0.3934634E-02  0.6007683E+03  0.7818609E-02  0.9903813E-01
        2   -1    0    0  501    0  0.00000000000E+00  0.00000000000E+00  0.19702467839E+03  0.19702467841E+03  0.25500000920E-02 0. -1.
       -2   -1    0    0    0  501  0.00000000000E+00  0.00000000000E+00 -0.45796618407E+03  0.45796618408E+03  0.25500000920E-02 0.  1.
    10030    2    1    2    0    0  0.00000000000E+00  0.00000000000E+00 -0.26094150568E+03  0.65499086248E+03  0.60076830854E+03 0.  0.
        1    1    3    3  502    0  0.34435988716E+02  0.89858833418E+02  0.17976426212E+03  0.20390104763E+03  0.50400001928E-02 0. -1.
       -1    1    3    3    0  502 -0.34435988716E+02 -0.89858833418E+02 -0.44070576780E+03  0.45108981485E+03  0.50400001928E-02 0.  1.
</event>
<event>
 5   0  0.2276105E-02  0.5978112E+03  0.7818609E-02  0.9909958E-01
        1   -1    0    0  501    0  0.00000000000E+00  0.00000000000E+00  0.46967169136E+03  0.46967169139E+03  0.50400001928E-02 0.  1.
       -1   -1    0    0    0  501  0.00000000000E+00  0.00000000000E+00 -0.19022766229E+03  0.19022766235E+03  0.50400001928E-02 0. -1.
    10030    2    1    2    0    0  0.00000000000E+00  0.00000000000E+00  0.27944402908E+03  0.65989935374E+03  0.59781116725E+03 0.  0.
        1    1    3    3  502    0  0.10003659469E+02  0.16770236254E+03 -0.13318000280E+03  0.21438532780E+03  0.50400001928E-02 0. -1.
       -1    1    3    3    0  502 -0.10003659469E+02 -0.16770236254E+03  0.41262403187E+03  0.44551402594E+03  0.50400001928E-02 0.  1.
</event>
<event>
 5   0  0.2225808E-02  0.5978496E+03  0.7818609E-02  0.9909878E-01
       -1   -1    0    0    0  501  0.00000000000E+00  0.00000000000E+00  0.29226706594E+03  0.29226706598E+03  0.50400001928E-02 0. -1.
        1   -1    0    0  501    0  0.00000000000E+00  0.00000000000E+00 -0.30573418059E+03  0.30573418063E+03  0.50400001928E-02 0.  1.
    10030    2    1    2    0    0  0.00000000000E+00  0.00000000000E+00 -0.13467114648E+02  0.59800124661E+03  0.59784958624E+03 0.  0.
        2    1    3    3  502    0  0.25242277300E+02  0.24935932098E+03 -0.16968218314E+03  0.30267026085E+03  0.25500000920E-02 0.  1.
       -2    1    3    3    0  502 -0.25242277300E+02 -0.24935932098E+03  0.15621506849E+03  0.29533098576E+03  0.25500000920E-02 0. -1.
</event>
<event>
 5   0  0.2309055E-02  0.6189719E+03  0.7818609E-02  0.9866809E-01
        1   -1    0    0  501    0  0.00000000000E+00  0.00000000000E+00  0.39226084980E+03  0.39226084983E+03  0.50400001928E-02 0. -1.
       -1   -1    0    0    0  501  0.00000000000E+00  0.00000000000E+00 -0.24417822997E+03  0.24417823003E+03  0.50400001928E-02 0.  1.
    10030    2    1    2    0    0  0.00000000000E+00  0.00000000000E+00  0.14808261983E+03  0.63643907986E+03  0.61897192188E+03 0.  0.
        4    1    3    3  502    0  0.13772132161E+03  0.18046253230E+02 -0.21032624082E+03  0.25205469676E+03  0.12699999809E+01 0.  1.
       -4    1    3    3    0  502 -0.13772132161E+03 -0.18046253230E+02  0.35840886065E+03  0.38438438310E+03  0.12699999809E+01 0. -1.
</event>
<event>
 5   0  0.2225808E-02  0.5975453E+03  0.7818609E-02  0.9910512E-01
        1   -1    0    0  501    0  0.00000000000E+00  0.00000000000E+00  0.30336793976E+03  0.30336793981E+03  0.50400001928E-02 0.  1.
       -1   -1    0    0    0  501  0.00000000000E+00  0.00000000000E+00 -0.29424696071E+03  0.29424696076E+03  0.50400001928E-02 0. -1.
    10030    2    1    2    0    0  0.00000000000E+00  0.00000000000E+00  0.91209790516E+01  0.59761490056E+03  0.59754529294E+03 0.  0.
        2    1    3    3  502    0 -0.12056857966E+03  0.21908948805E+03  0.16806686720E+03  0.30130293399E+03  0.25500000920E-02 0.  1.
       -2    1    3    3    0  502  0.12056857966E+03 -0.21908948805E+03 -0.15894588814E+03  0.29631196658E+03  0.25500000920E-02 0. -1.
</event>
<event>
 5   0  0.2276105E-02  0.5959732E+03  0.7818609E-02  0.9913796E-01
        1   -1    0    0  501    0  0.00000000000E+00  0.00000000000E+00  0.90713212223E+03  0.90713212225E+03  0.50400001928E-02 0. -1.
       -1   -1    0    0    0  501  0.00000000000E+00  0.00000000000E+00 -0.97886526233E+02  0.97886526363E+02  0.50400001928E-02 0.  1.
    10030    2    1    2    0    0  0.00000000000E+00  0.00000000000E+00  0.80924559600E+03  0.10050186486E+04  0.59597319521E+03 0.  0.
        1    1    3    3  502    0  0.19942396713E+03  0.22041431673E+03  0.36910432843E+03  0.47390969074E+03  0.50400001928E-02 0.  1.
       -1    1    3    3    0  502 -0.19942396713E+03 -0.22041431673E+03  0.44014126757E+03  0.53110895787E+03  0.50400001928E-02 0. -1.
</event>
<event>
 5   0  0.2295179E-02  0.5994256E+03  0.7818609E-02  0.9906598E-01
       -1   -1    0    0    0  501  0.00000000000E+00  0.00000000000E+00  0.51162790087E+03  0.51162790090E+03  0.50400001928E-02 0. -1.
        1   -1    0    0  501    0  0.00000000000E+00  0.00000000000E+00 -0.17557244781E+03  0.17557244788E+03  0.50400001928E-02 0.  1.
    10030    2    1    2    0    0  0.00000000000E+00  0.00000000000E+00  0.33605545307E+03  0.68720034878E+03  0.59942560158E+03 0.  0.
        3    1    3    3  502    0  0.80269895640E+02  0.18727613822E+03 -0.83958174429E+02  0.22037375830E+03  0.10100000352E+00 0.  1.
       -3    1    3    3    0  502 -0.80269895640E+02 -0.18727613822E+03  0.42001362749E+03  0.46682659048E+03  0.10100000352E+00 0. -1.
</event>
<event>
 5   0  0.2309055E-02  0.6091002E+03  0.7818609E-02  0.9886704E-01
        1   -1    0    0  501    0  0.00000000000E+00  0.00000000000E+00  0.36344729811E+03  0.36344729814E+03  0.50400001928E-02 0. -1.
       -1   -1    0    0    0  501  0.00000000000E+00  0.00000000000E+00 -0.25519725055E+03  0.25519725060E+03  0.50400001928E-02 0.  1.
    10030    2    1    2    0    0  0.00000000000E+00  0.00000000000E+00  0.10825004756E+03  0.61864454874E+03  0.60910015999E+03 0.  0.
        4    1    3    3  502    0 -0.14521084348E+03 -0.60707428610E+02 -0.21068550859E+03  0.26298588819E+03  0.12699999809E+01 0.  1.
       -4    1    3    3    0  502  0.14521084348E+03  0.60707428610E+02  0.31893555615E+03  0.35565866056E+03  0.12699999809E+01 0. -1.
</event>
<event>
 5   0  0.3737642E-02  0.6023324E+03  0.7818609E-02  0.9900579E-01
       -2   -1    0    0    0  501  0.00000000000E+00  0.00000000000E+00  0.30290775675E+03  0.30290775676E+03  0.25500000920E-02 0.  1.
        2   -1    0    0  501    0  0.00000000000E+00  0.00000000000E+00 -0.29943461822E+03  0.29943461823E+03  0.25500000920E-02 0. -1.
    10030    2    1    2    0    0  0.00000000000E+00  0.00000000000E+00  0.34731385302E+01  0.60234237499E+03  0.60233236176E+03 0.  0.
        5    1    3    3  502    0 -0.27691582977E+03  0.82777317319E+02 -0.82790083410E+02  0.30068380227E+03  0.46999998093E+01 0.  1.
       -5    1    3    3    0  502  0.27691582977E+03 -0.82777317319E+02  0.86263221940E+02  0.30165857272E+03  0.46999998093E+01 0. -1.
</event>
<event>
 5   0  0.2225808E-02  0.5989863E+03  0.7818609E-02  0.9907511E-01
       -1   -1    0    0    0  501  0.00000000000E+00  0.00000000000E+00  0.51472907669E+03  0.51472907672E+03  0.50400001928E-02 0.  1.
        1   -1    0    0  501    0  0.00000000000E+00  0.00000000000E+00 -0.17425892213E+03  0.17425892221E+03  0.50400001928E-02 0. -1.
    10030    2    1    2    0    0  0.00000000000E+00  0.00000000000E+00  0.34047015456E+03  0.68898799892E+03  0.59898625737E+03 0.  0.
        2    1    3    3  502    0  0.21538123180E+03  0.56131442797E+02 -0.60265359849E+02  0.23058995530E+03  0.25500000920E-02 0. -1.
       -2    1    3    3    0  502 -0.21538123180E+03 -0.56131442797E+02  0.40073551441E+03  0.45839804362E+03  0.25500000920E-02 0.  1.
</event>
<event>
 5   0  0.2295179E-02  0.5871317E+03  0.7818609E-02  0.9932469E-01
        1   -1    0    0  501    0  0.00000000000E+00  0.00000000000E+00  0.12769134701E+04  0.12769134701E+04  0.50400001928E-02 0.  1.
       -1   -1    0    0    0  501  0.00000000000E+00  0.00000000000E+00 -0.67491580490E+02  0.67491580678E+02  0.50400001928E-02 0. -1.
    10030    2    1    2    0    0  0.00000000000E+00  0.00000000000E+00  0.12094218896E+04  0.13444050508E+04  0.58713170032E+03 0.  0.
        3    1    3    3  502    0  0.51188287980E+02  0.15741577678E+02 -0.56211693665E+02  0.77638925803E+02  0.10100000352E+00 0. -1.
       -3    1    3    3    0  502 -0.51188287980E+02 -0.15741577678E+02  0.12656335833E+04  0.12667661250E+04  0.10100000352E+00 0.  1.
</event>
<event>
 5   0  0.1521750E-02  0.5955742E+03  0.7818609E-02  0.9914631E-01
       -4   -1    0    0    0  501  0.00000000000E+00  0.00000000000E+00  0.27446932213E+03  0.27447226033E+03  0.12699999809E+01 0. -1.
        4   -1    0    0  501    0  0.00000000000E+00  0.00000000000E+00 -0.32307996899E+03  0.32308246511E+03  0.12699999809E+01 0.  1.
    10030    2    1    2    0    0  0.00000000000E+00  0.00000000000E+00 -0.48610646859E+02  0.59755472545E+03  0.59557422284E+03 0.  0.
        3    1    3    3  502    0  0.20469203037E+03  0.18933188874E+03  0.80597427979E+02  0.29024359939E+03  0.10100000352E+00 0. -1.
       -3    1    3    3    0  502 -0.20469203037E+03 -0.18933188874E+03 -0.12920807484E+03  0.30731112605E+03  0.10100000352E+00 0.  1.
</event>
<event>
 5   0  0.3934634E-02  0.6016283E+03  0.7818609E-02  0.9902034E-01
        2   -1    0    0  501    0  0.00000000000E+00  0.00000000000E+00  0.15208327983E+04  0.15208327983E+04  0.25500000920E-02 0. -1.
       -2   -1    0    0    0  501  0.00000000000E+00  0.00000000000E+00 -0.59499733114E+02  0.59499733168E+02  0.25500000920E-02 0.  1.
    10030    2    1    2    0    0  0.00000000000E+00  0.00000000000E+00  0.14613330652E+04  0.15803325315E+04  0.60162827611E+03 0.  0.
        1    1    3    3  502    0 -0.27355950276E+03 -0.73564661935E+02  0.99650940476E+03  0.10359910979E+04  0.50400001928E-02 0. -1.
       -1    1    3    3    0  502  0.27355950276E+03  0.73564661935E+02  0.46482366043E+03  0.54434143362E+03  0.50400001928E-02 0.  1.
</event>
<event>
 5   0  0.1521750E-02  0.6007852E+03  0.7818609E-02  0.9903778E-01
       -3   -1    0    0    0  501  0.00000000000E+00  0.00000000000E+00  0.57814590094E+02  0.57814678316E+02  0.10100000352E+00 0. -1.
        3   -1    0    0  501    0  0.00000000000E+00  0.00000000000E+00 -0.15607761014E+04  0.15607761047E+04  0.10100000352E+00 0.  1.
    10030    2    1    2    0    0  0.00000000000E+00  0.00000000000E+00 -0.15029615113E+04  0.16185907830E+04  0.60078516817E+03 0.  0.
        1    1    3    3  502    0  0.40391718878E+02 -0.29660662578E+03 -0.81903421307E+03  0.87202294901E+03  0.50400001928E-02 0.  1.
       -1    1    3    3    0  502 -0.40391718878E+02  0.29660662578E+03 -0.68392729823E+03  0.74656783396E+03  0.50400001928E-02 0. -1.
</event>
<event>
 5   0  0.2276105E-02  0.6015009E+03  0.7818609E-02  0.9902297E-01
       -1   -1    0    0    0  501  0.00000000000E+00  0.00000000000E+00  0.16561139523E+03  0.16561139531E+03  0.50400001928E-02 0.  1.
        1   -1    0    0  501    0  0.00000000000E+00  0.00000000000E+00 -0.54616313234E+03  0.54616313237E+03  0.50400001928E-02 0. -1.
    10030    2    1    2    0    0  0.00000000000E+00  0.00000000000E+00 -0.38055173711E+03  0.71177452767E+03  0.60150091739E+03 0.  0.
        1    1    3    3  502    0 -0.22179115866E+03  0.24201273271E-02  0.50087474132E+02  0.22737650089E+03  0.50400001928E-02 0.  1.
       -1    1    3    3    0  502  0.22179115866E+03 -0.24201273271E-02 -0.43063921125E+03  0.48439802679E+03  0.50400001928E-02 0. -1.
</event>
<event>
 5   0  0.3798925E-02  0.6017392E+03  0.7818609E-02  0.9901804E-01
        2   -1    0    0  501    0  0.00000000000E+00  0.00000000000E+00  0.35572339613E+03  0.35572339614E+03  0.25500000920E-02 0.  1.
       -2   -1    0    0    0  501  0.00000000000E+00  0.00000000000E+00 -0.25447446316E+03  0.25447446318E+03  0.25500000920E-02 0. -1.
    10030    2    1    2    0    0  0.00000000000E+00  0.00000000000E+00  0.10124893297E+03  0.61019785932E+03  0.60173921352E+03 0.  0.
        2    1    3    3  502    0 -0.25527834720E+03 -0.15855945527E+03  0.35776758404E+02  0.30263527860E+03  0.25500000920E-02 0. -1.
       -2    1    3    3    0  502  0.25527834720E+03  0.15855945527E+03  0.65472174563E+02  0.30756258071E+03  0.25500000920E-02 0.  1.
</event>
<event>
 5   0  0.2382531E-02  0.6055025E+03  0.7818609E-02  0.9894055E-01
        1   -1    0    0  501    0  0.00000000000E+00  0.00000000000E+00  0.22321168538E+03  0.22321168543E+03  0.50400001928E-02 0. -1.
       -1   -1    0    0    0  501  0.00000000000E+00  0.00000000000E+00 -0.41063409731E+03  0.41063409734E+03  0.50400001928E-02 0.  1.
    10030    2    1    2    0    0  0.00000000000E+00  0.00000000000E+00 -0.18742241193E+03  0.63384578277E+03  0.60550253166E+03 0.  0.
        5    1    3    3  502    0  0.16717303894E+03  0.24756597650E+03 -0.14499954253E+03  0.33208838432E+03  0.46999998093E+01 0.  1.
       -5    1    3    3    0  502 -0.16717303894E+03 -0.24756597650E+03 -0.42422869406E+02  0.30175739845E+03  0.46999998093E+01 0. -1.
</event>
<event>
 5   0  0.2309055E-02  0.5918287E+03  0.7818609E-02  0.9922506E-01
        1   -1    0    0  501    0  0.00000000000E+00  0.00000000000E+00  0.87578759938E+03  0.87578759939E+03  0.50400001928E-02 0. -1.
       -1   -1    0    0    0  501  0.00000000000E+00  0.00000000000E+00 -0.99984619072E+02  0.99984619199E+02  0.50400001928E-02 0.  1.
    10030    2    1    2    0    0  0.00000000000E+00  0.00000000000E+00  0.77580298031E+03  0.97577221859E+03  0.59182865622E+03 0.  0.
        4    1    3    3  502    0  0.50562413619E+02 -0.11680955813E+03  0.82834268483E+03  0.83806577723E+03  0.12699999809E+01 0. -1.
       -4    1    3    3    0  502 -0.50562413619E+02  0.11680955813E+03 -0.52539704529E+02  0.13770644136E+03  0.12699999809E+01 0.  1.
</event>
<event>
 5   0  0.2295179E-02  0.6086479E+03  0.7818609E-02  0.9887625E-01
        1   -1    0    0  501    0  0.00000000000E+00  0.00000000000E+00  0.18269816407E+03  0.18269816414E+03  0.50400001928E-02 0. -1.
       -1   -1    0    0    0  501  0.00000000000E+00  0.00000000000E+00 -0.50691844571E+03  0.50691844574E+03  0.50400001928E-02 0.  1.
    10030    2    1    2    0    0  0.00000000000E+00  0.00000000000E+00 -0.32422028164E+03  0.68961660988E+03  0.60864790938E+03 0.  0.
        3    1    3    3  502    0 -0.43226236739E+02 -0.12686320491E+03 -0.47167902080E+03  0.49035078175E+03  0.10100000352E+00 0.  1.
       -3    1    3    3    0  502  0.43226236739E+02  0.12686320491E+03  0.14745873916E+03  0.19926582812E+03  0.10100000352E+00 0. -1.
</event>
<event>
 5   0  0.1521750E-02  0.6022913E+03  0.7818609E-02  0.9900664E-01
        3   -1    0    0  501    0  0.00000000000E+00  0.00000000000E+00  0.17692338868E+03  0.17692341751E+03  0.10100000352E+00 0. -1.
       -3   -1    0    0    0  501  0.00000000000E+00  0.00000000000E+00 -0.51258741923E+03  0.51258742918E+03  0.10100000352E+00 0.  1.
    10030    2    1    2    0    0  0.00000000000E+00  0.00000000000E+00 -0.33566403055E+03  0.68951084669E+03  0.60229134669E+03 0.  0.
        2    1    3    3  502    0  0.13297608797E+03 -0.22168594490E+03  0.90088401920E+01  0.25866669160E+03  0.25500000920E-02 0.  1.
       -2    1    3    3    0  502 -0.13297608797E+03  0.22168594490E+03 -0.34467287075E+03  0.43084415508E+03  0.25500000920E-02 0. -1.
</event>
<event>
 5   0  0.3832191E-02  0.6112017E+03  0.7818609E-02  0.9882435E-01
        2   -1    0    0  501    0  0.00000000000E+00  0.00000000000E+00  0.77175752559E+03  0.77175752559E+03  0.25500000920E-02 0.  1.
       -2   -1    0    0    0  501  0.00000000000E+00  0.00000000000E+00 -0.12101195486E+03  0.12101195489E+03  0.25500000920E-02 0. -1.
    10030    2    1    2    0    0  0.00000000000E+00  0.00000000000E+00  0.65074557073E+03  0.89276948048E+03  0.61120172403E+03 0.  0.
        3    1    3    3  502    0  0.20668127667E+03  0.28265149599E+02 -0.83906703177E+00  0.20860676653E+03  0.10100000352E+00 0. -1.
       -3    1    3    3    0  502 -0.20668127667E+03 -0.28265149599E+02  0.65158463776E+03  0.68416271396E+03  0.10100000352E+00 0.  1.
</event>
<event>
 5   0  0.3724066E-02  0.6013780E+03  0.7818609E-02  0.9902551E-01
        2   -1    0    0  501    0  0.00000000000E+00  0.00000000000E+00  0.22037846238E+03  0.22037846239E+03  0.25500000920E-02 0. -1.
       -2   -1    0    0    0  501  0.00000000000E+00  0.00000000000E+00 -0.41026636252E+03  0.41026636253E+03  0.25500000920E-02 0.  1.
    10030    2    1    2    0    0  0.00000000000E+00  0.00000000000E+00 -0.18988790015E+03  0.63064482492E+03  0.60137798478E+03 0.  0.
        4    1    3    3  502    0 -0.21540119209E+03 -0.15635180670E+03 -0.24163994490E+03  0.35949274942E+03  0.12699999809E+01 0.  1.
       -4    1    3    3    0  502  0.21540119209E+03  0.15635180670E+03  0.51752044754E+02  0.27115207550E+03  0.12699999809E+01 0. -1.
</event>
<event>
 5   0  0.2309055E-02  0.5911874E+03  0.7818609E-02  0.9923860E-01
       -1   -1    0    0    0  501  0.00000000000E+00  0.00000000000E+00  0.12268898873E+03  0.12268898883E+03  0.50400001928E-02 0. -1.
        1   -1    0    0  501    0  0.00000000000E+00  0.00000000000E+00 -0.71217177398E+03  0.71217177399E+03  0.50400001928E-02 0.  1.
    10030    2    1    2    0    0  0.00000000000E+00  0.00000000000E+00 -0.58948278525E+03  0.83486076283E+03  0.59118739771E+03 0.  0.
        4    1    3    3  502    0 -0.22178396089E+03 -0.92708250005E+02 -0.53766474653E+03  0.58895495370E+03  0.12699999809E+01 0.  1.
       -4    1    3    3    0  502  0.22178396089E+03  0.92708250005E+02 -0.51818038721E+02  0.24590580913E+03  0.12699999809E+01 0. -1.
</event>
<event>
 5   0  0.2295179E-02  0.6067128E+03  0.7818609E-02  0.9891576E-01
        1   -1    0    0  501    0  0.00000000000E+00  0.00000000000E+00  0.40078138222E+03  0.40078138226E+03  0.50400001928E-02 0.  1.
       -1   -1    0    0    0  501  0.00000000000E+00  0.00000000000E+00 -0.22961423564E+03  0.22961423570E+03  0.50400001928E-02 0. -1.
    10030    2    1    2    0    0  0.00000000000E+00  0.00000000000E+00  0.17116714658E+03  0.63039561796E+03  0.60671281762E+03 0.  0.
        3    1    3    3  502    0  0.21519404515E+03  0.10379740286E+03 -0.10864288286E+03  0.26246078584E+03  0.10100000352E+00 0. -1.
       -3    1    3    3    0  502 -0.21519404515E+03 -0.10379740286E+03  0.27981002944E+03  0.36793483211E+03  0.10100000352E+00 0.  1.
</event>
<event>
 5   0  0.3832191E-02  0.5861335E+03  0.7818609E-02  0.9934600E-01
        2   -1    0    0  501    0  0.00000000000E+00  0.00000000000E+00  0.11957388201E+04  0.11957388201E+04  0.25500000920E-02 0. -1.
       -2   -1    0    0    0  501  0.00000000000E+00  0.00000000000E+00 -0.71828483394E+02  0.71828483439E+02  0.25500000920E-02 0.  1.
    10030    2    1    2    0    0  0.00000000000E+00  0.00000000000E+00  0.11239103367E+04  0.12675673036E+04  0.58613345243E+03 0.  0.
        3    1    3    3  502    0 -0.14921396422E+03  0.18534796392E+03  0.93193801120E+03  0.96183529867E+03  0.10100000352E+00 0. -1.
       -3    1    3    3    0  502  0.14921396422E+03 -0.18534796392E+03  0.19197232554E+03  0.30573200490E+03  0.10100000352E+00 0.  1.
</event>
<event>
 5   0  0.2225808E-02  0.6016888E+03  0.7818609E-02  0.9901909E-01
        1   -1    0    0  501    0  0.00000000000E+00  0.00000000000E+00  0.45907070552E+03  0.45907070555E+03  0.50400001928E-02 0. -1.
       -1   -1    0    0    0  501  0.00000000000E+00  0.00000000000E+00 -0.19715341080E+03  0.19715341086E+03  0.50400001928E-02 0.  1.
    10030    2    1    2    0    0  0.00000000000E+00  0.00000000000E+00  0.26191729472E+03  0.65622411641E+03  0.60168880801E+03 0.  0.
        2    1    3    3  502    0  0.18062386444E+03 -0.13930237244E+03  0.34489378437E+03  0.41349952101E+03  0.25500000920E-02 0. -1.
       -2    1    3    3    0  502 -0.18062386444E+03  0.13930237244E+03 -0.82976489649E+02  0.24272459540E+03  0.25500000920E-02 0.  1.
</event>
<event>
 5   0  0.3832191E-02  0.6001822E+03  0.7818609E-02  0.9905028E-01
        2   -1    0    0  501    0  0.00000000000E+00  0.00000000000E+00  0.20491531965E+04  0.20491531965E+04  0.25500000920E-02 0.  1.
       -2   -1    0    0    0  501  0.00000000000E+00  0.00000000000E+00 -0.43947263340E+02  0.43947263414E+02  0.25500000920E-02 0. -1.
    10030    2    1    2    0    0  0.00000000000E+00  0.00000000000E+00  0.20052059332E+04  0.20931004599E+04  0.60018222309E+03 0.  0.
        3    1    3    3  502    0 -0.58653081835E+02  0.14893277835E+03  0.18878466477E+04  0.18946203134E+04  0.10100000352E+00 0. -1.
       -3    1    3    3    0  502  0.58653081835E+02 -0.14893277835E+03  0.11735928543E+03  0.19848014649E+03  0.10100000352E+00 0.  1.
</event>
<event>
 5   0  0.2382531E-02  0.6009225E+03  0.7818609E-02  0.9903494E-01
       -1   -1    0    0    0  501  0.00000000000E+00  0.00000000000E+00  0.48884906066E+02  0.48884906326E+02  0.50400001928E-02 0. -1.
        1   -1    0    0  501    0  0.00000000000E+00  0.00000000000E+00 -0.18467247847E+04  0.18467247847E+04  0.50400001928E-02 0.  1.
    10030    2    1    2    0    0  0.00000000000E+00  0.00000000000E+00 -0.17978398786E+04  0.18956096910E+04  0.60092251708E+03 0.  0.
        5    1    3    3  502    0 -0.13570019255E+03 -0.64455377632E+02 -0.78229538300E+02  0.16944317226E+03  0.46999998093E+01 0. -1.
       -5    1    3    3    0  502  0.13570019255E+03  0.64455377632E+02 -0.17196103403E+04  0.17261665188E+04  0.46999998093E+01 0.  1.
</event>
<event>
 5   0  0.2225808E-02  0.6051163E+03  0.7818609E-02  0.9894848E-01
       -1   -1    0    0    0  501  0.00000000000E+00  0.00000000000E+00  0.55218456141E+03  0.55218456143E+03  0.50400001928E-02 0.  1.
        1   -1    0    0  501    0  0.00000000000E+00  0.00000000000E+00 -0.16578049241E+03  0.16578049249E+03  0.50400001928E-02 0. -1.
    10030    2    1    2    0    0  0.00000000000E+00  0.00000000000E+00  0.38640406900E+03  0.71796505392E+03  0.60511628148E+03 0.  0.
        2    1    3    3  502    0 -0.10524444085E+03 -0.15409527329E+03  0.47577549155E+03  0.51106170268E+03  0.25500000920E-02 0.  1.
       -2    1    3    3    0  502  0.10524444085E+03  0.15409527329E+03 -0.89371422550E+02  0.20690335124E+03  0.25500000920E-02 0. -1.
</event>
<event>
 5   0  0.3737642E-02  0.5927729E+03  0.7818609E-02  0.9920514E-01
       -2   -1    0    0    0  501  0.00000000000E+00  0.00000000000E+00  0.12326229446E+03  0.12326229449E+03  0.25500000920E-02 0. -1.
        2   -1    0    0  501    0  0.00000000000E+00  0.00000000000E+00 -0.71266673056E+03  0.71266673057E+03  0.25500000920E-02 0.  1.
    10030    2    1    2    0    0  0.00000000000E+00  0.00000000000E+00 -0.58940443610E+03  0.83592902505E+03  0.59277292923E+03 0.  0.
        5    1    3    3  502    0 -0.11685525382E+03  0.40880327681E+02  0.84996864415E+02  0.15024283176E+03  0.46999998093E+01 0. -1.
       -5    1    3    3    0  502  0.11685525382E+03 -0.40880327681E+02 -0.67440130052E+03  0.68568619329E+03  0.46999998093E+01 0.  1.
</event>
<event>
 5   0  0.2276105E-02  0.6020719E+03  0.7818609E-02  0.9901117E-01
       -1   -1    0    0    0  501  0.00000000000E+00  0.00000000000E+00  0.14109734743E+03  0.14109734752E+03  0.50400001928E-02 0.  1.
        1   -1    0    0  501    0  0.00000000000E+00  0.00000000000E+00 -0.64227030029E+03  0.64227030031E+03  0.50400001928E-02 0. -1.
    10030    2    1    2    0    0  0.00000000000E+00  0.00000000000E+00 -0.50117295286E+03  0.78336764783E+03  0.60207187526E+03 0.  0.
        1    1    3    3  502    0 -0.21731379893E+03  0.20053396023E+03 -0.32399868792E+03  0.43865055136E+03  0.50400001928E-02 0.  1.
       -1    1    3    3    0  502  0.21731379893E+03 -0.20053396023E+03 -0.17717426494E+03  0.34471709646E+03  0.50400001928E-02 0. -1.
</event>
<event>
 5   0  0.2276105E-02  0.6000145E+03  0.7818609E-02  0.9905376E-01
       -1   -1    0    0    0  501  0.00000000000E+00  0.00000000000E+00  0.31576877342E+03  0.31576877346E+03  0.50400001928E-02 0. -1.
        1   -1    0    0  501    0  0.00000000000E+00  0.00000000000E+00 -0.28503245729E+03  0.28503245733E+03  0.50400001928E-02 0.  1.
    10030    2    1    2    0    0  0.00000000000E+00  0.00000000000E+00  0.30736316132E+02  0.60080123080E+03  0.60001449799E+03 0.  0.
        1    1    3    3  502    0 -0.11407828446E+03  0.21562190371E+03 -0.15949669838E+03  0.29145472575E+03  0.50400001928E-02 0.  1.
       -1    1    3    3    0  502  0.11407828446E+03 -0.21562190371E+03  0.19023301451E+03  0.30934650504E+03  0.50400001928E-02 0. -1.
</event>
<event>
 5   0  0.3832191E-02  0.5814594E+03  0.7818609E-02  0.9944636E-01
        2   -1    0    0  501    0  0.00000000000E+00  0.00000000000E+00  0.68279894662E+03  0.68279894662E+03  0.25500000920E-02 0.  1.
       -2   -1    0    0    0  501  0.00000000000E+00  0.00000000000E+00 -0.12379011111E+03  0.12379011113E+03  0.25500000920E-02 0. -1.
    10030    2    1    2    0    0  0.00000000000E+00  0.00000000000E+00  0.55900883551E+03  0.80658905776E+03  0.58145939661E+03 0.  0.
        3    1    3    3  502    0 -0.24641565879E+03  0.11204212799E+03  0.13237412827E+03  0.30132546421E+03  0.10100000352E+00 0. -1.
       -3    1    3    3    0  502  0.24641565879E+03 -0.11204212799E+03  0.42663470724E+03  0.50526359355E+03  0.10100000352E+00 0.  1.
</event>
<event>
 5   0  0.2225808E-02  0.6010749E+03  0.7818609E-02  0.9903179E-01
       -1   -1    0    0    0  501  0.00000000000E+00  0.00000000000E+00  0.40411264419E+03  0.40411264422E+03  0.50400001928E-02 0.  1.
        1   -1    0    0  501    0  0.00000000000E+00  0.00000000000E+00 -0.22350884210E+03  0.22350884216E+03  0.50400001928E-02 0. -1.
    10030    2    1    2    0    0  0.00000000000E+00  0.00000000000E+00  0.18060380209E+03  0.62762148638E+03  0.60107486791E+03 0.  0.
        2    1    3    3  502    0  0.26289659409E+03  0.35092648899E+02 -0.57279086339E+02  0.27134296919E+03  0.25500000920E-02 0.  1.
       -2    1    3    3    0  502 -0.26289659409E+03 -0.35092648899E+02  0.23788288842E+03  0.35627851718E+03  0.25500000920E-02 0. -1.
</event>
<event>
 5   0  0.2276105E-02  0.5917427E+03  0.7818609E-02  0.9922687E-01
       -1   -1    0    0    0  501  0.00000000000E+00  0.00000000000E+00  0.12896057409E+03  0.12896057419E+03  0.50400001928E-02 0.  1.
        1   -1    0    0  501    0  0.00000000000E+00  0.00000000000E+00 -0.67881106384E+03  0.67881106386E+03  0.50400001928E-02 0. -1.
    10030    2    1    2    0    0  0.00000000000E+00  0.00000000000E+00 -0.54985048974E+03  0.80777163805E+03  0.59174272971E+03 0.  0.
        1    1    3    3  502    0  0.12647928935E+03  0.25516969491E+03 -0.38439758496E+03  0.47840368642E+03  0.50400001928E-02 0.  1.
       -1    1    3    3    0  502 -0.12647928935E+03 -0.25516969491E+03 -0.16545290479E+03  0.32936795163E+03  0.50400001928E-02 0. -1.
</event>
<event>
 5   0  0.3737642E-02  0.6015556E+03  0.7818609E-02  0.9902184E-01
       -2   -1    0    0    0  501  0.00000000000E+00  0.00000000000E+00  0.15139219061E+03  0.15139219063E+03  0.25500000920E-02 0.  1.
        2   -1    0    0  501    0  0.00000000000E+00  0.00000000000E+00 -0.59756899923E+03  0.59756899923E+03  0.25500000920E-02 0. -1.
    10030    2    1    2    0    0  0.00000000000E+00  0.00000000000E+00 -0.44617680862E+03  0.74896118986E+03  0.60155558294E+03 0.  0.
        5    1    3    3  502    0  0.57515401999E+02 -0.79554112235E+02  0.13083686269E+03  0.16363756560E+03  0.46999998093E+01 0.  1.
       -5    1    3    3    0  502 -0.57515401999E+02  0.79554112235E+02 -0.57701367131E+03  0.58532362426E+03  0.46999998093E+01 0. -1.
</event>
<event>
 5   0  0.2382531E-02  0.6015064E+03  0.7818609E-02  0.9902286E-01
        1   -1    0    0  501    0  0.00000000000E+00  0.00000000000E+00  0.55697194459E+03  0.55697194461E+03  0.50400001928E-02 0.  1.
       -1   -1    0    0    0  501  0.00000000000E+00  0.00000000000E+00 -0.16240042295E+03  0.16240042303E+03  0.50400001928E-02 0. -1.
    10030    2    1    2    0    0  0.00000000000E+00  0.00000000000E+00  0.39457152164E+03  0.71937236764E+03  0.60150637373E+03 0.  0.
        5    1    3    3  502    0 -0.22344143407E+02  0.90319256937E+02  0.53928093042E+03  0.54726852717E+03  0.46999998093E+01 0.  1.
       -5    1    3    3    0  502  0.22344143407E+02 -0.90319256937E+02 -0.14470940878E+03  0.17210384047E+03  0.46999998093E+01 0. -1.
</event>
<event>
 5   0  0.3832191E-02  0.6032860E+03  0.7818609E-02  0.9898612E-01
        2   -1    0    0  501    0  0.00000000000E+00  0.00000000000E+00  0.34447233128E+03  0.34447233129E+03  0.25500000920E-02 0. -1.
       -2   -1    0    0    0  501  0.00000000000E+00  0.00000000000E+00 -0.26413879770E+03  0.26413879771E+03  0.25500000920E-02 0.  1.
    10030    2    1    2    0    0  0.00000000000E+00  0.00000000000E+00  0.80333533582E+02  0.60861112900E+03  0.60328602646E+03 0.  0.
        3    1    3    3  502    0  0.22771097046E+03  0.18575852968E+03  0.10881133417E+03  0.31336629375E+03  0.10100000352E+00 0. -1.
       -3    1    3    3    0  502 -0.22771097046E+03 -0.18575852968E+03 -0.28477800585E+02  0.29524483525E+03  0.10100000352E+00 0.  1.
</event>
<event>
 5   0  0.2225808E-02  0.5995613E+03  0.7818609E-02  0.9906317E-01
       -1   -1    0    0    0  501  0.00000000000E+00  0.00000000000E+00  0.15710221976E+03  0.15710221984E+03  0.50400001928E-02 0. -1.
        1   -1    0    0  501    0  0.00000000000E+00  0.00000000000E+00 -0.57203790328E+03  0.57203790330E+03  0.50400001928E-02 0.  1.
    10030    2    1    2    0    0  0.00000000000E+00  0.00000000000E+00 -0.41493568352E+03  0.72914012315E+03  0.59956125436E+03 0.  0.
        2    1    3    3  502    0 -0.16046136742E+03 -0.21207226095E+02 -0.51433307349E+03  0.53919950608E+03  0.25500000920E-02 0.  1.
       -2    1    3    3    0  502  0.16046136742E+03  0.21207226095E+02  0.99397389969E+02  0.18994061706E+03  0.25500000920E-02 0. -1.
</event>
<event>
 5   0  0.2225808E-02  0.5981825E+03  0.7818609E-02  0.9909184E-01
        1   -1    0    0  501    0  0.00000000000E+00  0.00000000000E+00  0.14888868936E+03  0.14888868945E+03  0.50400001928E-02 0.  1.
       -1   -1    0    0    0  501  0.00000000000E+00  0.00000000000E+00 -0.60082174609E+03  0.60082174611E+03  0.50400001928E-02 0. -1.
    10030    2    1    2    0    0  0.00000000000E+00  0.00000000000E+00 -0.45193305672E+03  0.74971043556E+03  0.59818245496E+03 0.  0.
        2    1    3    3  502    0 -0.15840652136E+03  0.56189991510E+02 -0.53603352334E+03  0.56176674813E+03  0.25500000920E-02 0. -1.
       -2    1    3    3    0  502  0.15840652136E+03 -0.56189991510E+02  0.84100466613E+02  0.18794368743E+03  0.25500000920E-02 0.  1.
</event>
<event>
 5   0  0.2309055E-02  0.5982327E+03  0.7818609E-02  0.9909079E-01
       -1   -1    0    0    0  501  0.00000000000E+00  0.00000000000E+00  0.67410035226E+02  0.67410035415E+02  0.50400001928E-02 0. -1.
        1   -1    0    0  501    0  0.00000000000E+00  0.00000000000E+00 -0.13272592456E+04  0.13272592456E+04  0.50400001928E-02 0.  1.
    10030    2    1    2    0    0  0.00000000000E+00  0.00000000000E+00 -0.12598492104E+04  0.13946692810E+04  0.59823270602E+03 0.  0.
        4    1    3    3  502    0  0.24045314454E+03 -0.17515191742E+03 -0.55720134956E+03  0.63164140598E+03  0.12699999809E+01 0. -1.
       -4    1    3    3    0  502 -0.24045314454E+03  0.17515191742E+03 -0.70264786082E+03  0.76302787505E+03  0.12699999809E+01 0.  1.
</event>
<event>
 5   0  0.2309055E-02  0.5930142E+03  0.7818609E-02  0.9920006E-01
        1   -1    0    0  501    0  0.00000000000E+00  0.00000000000E+00  0.42436938641E+03  0.42436938644E+03  0.50400001928E-02 0.  1.
       -1   -1    0    0    0  501  0.00000000000E+00  0.00000000000E+00 -0.20716966920E+03  0.20716966927E+03  0.50400001928E-02 0. -1.
    10030    2    1    2    0    0  0.00000000000E+00  0.00000000000E+00  0.21719971721E+03  0.63153905571E+03  0.59301421714E+03 0.  0.
        4    1    3    3  502    0  0.25025077060E+03 -0.50942034742E+02 -0.51833114726E+02  0.26059321513E+03  0.12699999809E+01 0. -1.
       -4    1    3    3    0  502 -0.25025077060E+03  0.50942034742E+02  0.26903283194E+03  0.37094584058E+03  0.12699999809E+01 0.  1.
</event>
<event>
 5   0  0.3798925E-02  0.6000073E+03  0.7818609E-02  0.9905391E-01
       -2   -1    0    0    0  501  0.00000000000E+00  0.00000000000E+00  0.13434274985E+03  0.13434274988E+03  0.25500000920E-02 0.  1.
        2   -1    0    0  501    0  0.00000000000E+00  0.00000000000E+00 -0.66994447408E+03  0.66994447408E+03  0.25500000920E-02 0. -1.
    10030    2    1    2    0    0  0.00000000000E+00  0.00000000000E+00 -0.53560172423E+03  0.80428722396E+03  0.60000727631E+03 0.  0.
        2    1    3    3  502    0 -0.12776669427E+02 -0.27593941789E+03 -0.11092450057E+03  0.29767440343E+03  0.25500000920E-02 0.  1.
       -2    1    3    3    0  502  0.12776669427E+02  0.27593941789E+03 -0.42467722366E+03  0.50661282053E+03  0.25500000920E-02 0. -1.
</event>
<event>
 5   0  0.3934634E-02  0.5510764E+03  0.7818609E-02  0.1001245E+00
        2   -1    0    0  501    0  0.00000000000E+00  0.00000000000E+00  0.65538403737E+03  0.65538403738E+03  0.25500000920E-02 0.  1.
       -2   -1    0    0    0  501  0.00000000000E+00  0.00000000000E+00 -0.11584245623E+03  0.11584245626E+03  0.25500000920E-02 0. -1.
    10030    2    1    2    0    0  0.00000000000E+00  0.00000000000E+00  0.53954158114E+03  0.77122649364E+03  0.55107638918E+03 0.  0.
        1    1    3    3  502    0  0.11144406556E+03  0.22964214015E+03  0.41498108705E+03  0.48720077475E+03  0.50400001928E-02 0.  1.
       -1    1    3    3    0  502 -0.11144406556E+03 -0.22964214015E+03  0.12456049409E+03  0.28402571890E+03  0.50400001928E-02 0. -1.
</event>
<event>
 5   0  0.3832191E-02  0.5990424E+03  0.7818609E-02  0.9907395E-01
       -2   -1    0    0    0  501  0.00000000000E+00  0.00000000000E+00  0.61576673965E+02  0.61576674018E+02  0.25500000920E-02 0.  1.
        2   -1    0    0  501    0  0.00000000000E+00  0.00000000000E+00 -0.14569308403E+04  0.14569308403E+04  0.25500000920E-02 0. -1.
    10030    2    1    2    0    0  0.00000000000E+00  0.00000000000E+00 -0.13953541664E+04  0.15185075143E+04  0.59904242049E+03 0.  0.
        3    1    3    3  502    0  0.22009933124E+03  0.10168368561E+03 -0.25187004119E+03  0.34960236753E+03  0.10100000352E+00 0.  1.
       -3    1    3    3    0  502 -0.22009933124E+03 -0.10168368561E+03 -0.11434841252E+04  0.11689051468E+04  0.10100000352E+00 0. -1.
</event>
<event>
 5   0  0.3934634E-02  0.6013339E+03  0.7818609E-02  0.9902642E-01
       -2   -1    0    0    0  501  0.00000000000E+00  0.00000000000E+00  0.77762193052E+02  0.77762193094E+02  0.25500000920E-02 0.  1.
        2   -1    0    0  501    0  0.00000000000E+00  0.00000000000E+00 -0.11625267215E+04  0.11625267215E+04  0.25500000920E-02 0. -1.
    10030    2    1    2    0    0  0.00000000000E+00  0.00000000000E+00 -0.10847645285E+04  0.12402889146E+04  0.60133394175E+03 0.  0.
        1    1    3    3  502    0 -0.11599681597E+03  0.43926114402E+02 -0.11072980332E+04  0.11142233614E+04  0.50400001928E-02 0. -1.
       -1    1    3    3    0  502  0.11599681597E+03 -0.43926114402E+02  0.22533504710E+02  0.12606555319E+03  0.50400001928E-02 0.  1.
</event>
<event>
 5   0  0.3724066E-02  0.6038890E+03  0.7818609E-02  0.9897370E-01
        2   -1    0    0  501    0  0.00000000000E+00  0.00000000000E+00  0.56002148317E+03  0.56002148318E+03  0.25500000920E-02 0.  1.
       -2   -1    0    0    0  501  0.00000000000E+00  0.00000000000E+00 -0.16279819887E+03  0.16279819889E+03  0.25500000920E-02 0. -1.
    10030    2    1    2    0    0  0.00000000000E+00  0.00000000000E+00  0.39722328430E+03  0.72281968207E+03  0.60388902556E+03 0.  0.
        4    1    3    3  502    0  0.12402262493E+03  0.18199290100E+03 -0.48625107446E+02  0.22554166241E+03  0.12699999809E+01 0.  1.
       -4    1    3    3    0  502 -0.12402262493E+03 -0.18199290100E+03  0.44584839175E+03  0.49727801966E+03  0.12699999809E+01 0. -1.
</event>
<event>
 5   0  0.2276105E-02  0.5888439E+03  0.7818609E-02  0.9928826E-01
        1   -1    0    0  501    0  0.00000000000E+00  0.00000000000E+00  0.63607185842E+03  0.63607185844E+03  0.50400001928E-02 0. -1.
       -1   -1    0    0    0  501  0.00000000000E+00  0.00000000000E+00 -0.13628064395E+03  0.13628064404E+03  0.50400001928E-02 0.  1.
    10030    2    1    2    0    0  0.00000000000E+00  0.00000000000E+00  0.49979121448E+03  0.77235250248E+03  0.58884389275E+03 0.  0.
        1    1    3    3  502    0  0.20721375456E+03 -0.16275971239E+03  0.42219576727E+03  0.49767211092E+03  0.50400001928E-02 0.  1.
       -1    1    3    3    0  502 -0.20721375456E+03  0.16275971239E+03  0.77595447205E+02  0.27468039156E+03  0.50400001928E-02 0. -1.
</event>
<event>
 5   0  0.2276105E-02  0.6088091E+03  0.7818609E-02  0.9887297E-01
       -1   -1    0    0    0  501  0.00000000000E+00  0.00000000000E+00  0.28875468703E+03  0.28875468707E+03  0.50400001928E-02 0. -1.
        1   -1    0    0  501    0  0.00000000000E+00  0.00000000000E+00 -0.32090264257E+03  0.32090264261E+03  0.50400001928E-02 0.  1.
    10030    2    1    2    0    0  0.00000000000E+00  0.00000000000E+00 -0.32147955541E+02  0.60965732968E+03  0.60880913970E+03 0.  0.
        1    1    3    3  502    0 -0.24029109776E+03  0.18223584098E+02  0.17016962740E+03  0.29500781820E+03  0.50400001928E-02 0. -1.
       -1    1    3    3    0  502  0.24029109776E+03 -0.18223584098E+02 -0.20231758294E+03  0.31464951148E+03  0.50400001928E-02 0.  1.
</event>
<event>
 5   0  0.2382531E-02  0.6386844E+03  0.7818609E-02  0.9828247E-01
       -1   -1    0    0    0  501  0.00000000000E+00  0.00000000000E+00  0.23501160501E+03  0.23501160506E+03  0.50400001928E-02 0.  1.
        1   -1    0    0  501    0  0.00000000000E+00  0.00000000000E+00 -0.43393363089E+03  0.43393363092E+03  0.50400001928E-02 0. -1.
    10030    2    1    2    0    0  0.00000000000E+00  0.00000000000E+00 -0.19892202588E+03  0.66894523599E+03  0.63868439496E+03 0.  0.
        5    1    3    3  502    0 -0.81516182874E+02  0.21198304268E+03 -0.33454042414E+03  0.40437740273E+03  0.46999998093E+01 0. -1.
       -5    1    3    3    0  502  0.81516182874E+02 -0.21198304268E+03  0.13561839826E+03  0.26456783326E+03  0.46999998093E+01 0.  1.
</event>
<event>
 5   0  0.2309055E-02  0.5993904E+03  0.7818609E-02  0.9906672E-01
        1   -1    0    0  501    0  0.00000000000E+00  0.00000000000E+00  0.52685202728E+03  0.52685202731E+03  0.50400001928E-02 0. -1.
       -1   -1    0    0    0  501  0.00000000000E+00  0.00000000000E+00 -0.17047898510E+03  0.17047898518E+03  0.50400001928E-02 0.  1.
    10030    2    1    2    0    0  0.00000000000E+00  0.00000000000E+00  0.35637304218E+03  0.69733101248E+03  0.59939035342E+03 0.  0.
        4    1    3    3  502    0  0.12116527206E+03  0.34861038137E+02 -0.13811994368E+03  0.18701616741E+03  0.12699999809E+01 0.  1.
       -4    1    3    3    0  502 -0.12116527206E+03 -0.34861038137E+02  0.49449298586E+03  0.51031484507E+03  0.12699999809E+01 0. -1.
</event>
<event>
 5   0  0.2309055E-02  0.5989668E+03  0.7818609E-02  0.9907552E-01
        1   -1    0    0  501    0  0.00000000000E+00  0.00000000000E+00  0.70340914078E+03  0.70340914080E+03  0.50400001928E-02 0.  1.
       -1   -1    0    0    0  501  0.00000000000E+00  0.00000000000E+00 -0.12750803101E+03  0.12750803111E+03  0.50400001928E-02 0. -1.
    10030    2    1    2    0    0  0.00000000000E+00  0.00000000000E+00  0.57590110977E+03  0.83091717190E+03  0.59896682573E+03 0.  0.
        4    1    3    3  502    0  0.25219727352E+03  0.14066217165E+03  0.39805484123E+03  0.49177086212E+03  0.12699999809E+01 0.  1.
       -4    1    3    3    0  502 -0.25219727352E+03 -0.14066217165E+03  0.17784626855E+03  0.33914630979E+03  0.12699999809E+01 0. -1.
</event>
<event>
 5   0  0.2295179E-02  0.6016512E+03  0.7818609E-02  0.9901986E-01
        1   -1    0    0  501    0  0.00000000000E+00  0.00000000000E+00  0.86938943750E+03  0.86938943751E+03  0.50400001928E-02 0. -1.
       -1   -1    0    0    0  501  0.00000000000E+00  0.00000000000E+00 -0.10409148918E+03  0.10409148930E+03  0.50400001928E-02 0.  1.
    10030    2    1    2    0    0  0.00000000000E+00  0.00000000000E+00  0.76529794832E+03  0.97348092682E+03  0.60165119893E+03 0.  0.
        3    1    3    3  502    0  0.17503495772E+03  0.24217214444E+03  0.32633257316E+03  0.44246756093E+03  0.10100000352E+00 0. -1.
       -3    1    3    3    0  502 -0.17503495772E+03 -0.24217214444E+03  0.43896537516E+03  0.53101336589E+03  0.10100000352E+00 0.  1.
</event>
<event>
 5   0  0.3724066E-02  0.5880185E+03  0.7818609E-02  0.9930580E-01
       -2   -1    0    0    0  501  0.00000000000E+00  0.00000000000E+00  0.41330572714E+03  0.41330572715E+03  0.25500000920E-02 0. -1.
        2   -1    0    0  501    0  0.00000000000E+00  0.00000000000E+00 -0.20914648260E+03  0.20914648261E+03  0.25500000920E-02 0.  1.
    10030    2    1    2    0    0  0.00000000000E+00  0.00000000000E+00  0.20415924455E+03  0.62245220976E+03  0.58801849997E+03 0.  0.
        4    1    3    3  502    0 -0.20005870113E+03  0.21355566249E+03  0.13221271099E+03  0.32110951205E+03  0.12699999809E+01 0. -1.
       -4    1    3    3    0  502  0.20005870113E+03 -0.21355566249E+03  0.71946533556E+02  0.30134269772E+03  0.12699999809E+01 0.  1.
</event>
<event>
 5   0  0.2225808E-02  0.6213381E+03  0.7818609E-02  0.9862099E-01
       -1   -1    0    0    0  501  0.00000000000E+00  0.00000000000E+00  0.17485843618E+03  0.17485843626E+03  0.50400001928E-02 0. -1.
        1   -1    0    0  501    0  0.00000000000E+00  0.00000000000E+00 -0.55196225889E+03  0.55196225892E+03  0.50400001928E-02 0.  1.
    10030    2    1    2    0    0  0.00000000000E+00  0.00000000000E+00 -0.37710382271E+03  0.72682069517E+03  0.62133809623E+03 0.  0.
        2    1    3    3  502    0 -0.70381022691E+02 -0.26776910005E+03 -0.35340803575E+03  0.44894433846E+03  0.25500000920E-02 0. -1.
       -2    1    3    3    0  502  0.70381022691E+02  0.26776910005E+03 -0.23695786963E+02  0.27787635671E+03  0.25500000920E-02 0.  1.
</event>
<event>
 5   0  0.2295179E-02  0.5963206E+03  0.7818609E-02  0.9913069E-01
        1   -1    0    0  501    0  0.00000000000E+00  0.00000000000E+00  0.61253188077E+03  0.61253188079E+03  0.50400001928E-02 0. -1.
       -1   -1    0    0    0  501  0.00000000000E+00  0.00000000000E+00 -0.14513458486E+03  0.14513458495E+03  0.50400001928E-02 0.  1.
    10030    2    1    2    0    0  0.00000000000E+00  0.00000000000E+00  0.46739729591E+03  0.75766646574E+03  0.59632058583E+03 0.  0.
        3    1    3    3  502    0  0.64599905812E+02  0.19646534004E+03 -0.39186252103E+02  0.21049311205E+03  0.10100000352E+00 0.  1.
       -3    1    3    3    0  502 -0.64599905812E+02 -0.19646534004E+03  0.50658354801E+03  0.54717335369E+03  0.10100000352E+00 0. -1.
</event>
<event>
 5   0  0.3737642E-02  0.6019007E+03  0.7818609E-02  0.9901470E-01
        2   -1    0    0  501    0  0.00000000000E+00  0.00000000000E+00  0.15026907541E+04  0.15026907541E+04  0.25500000920E-02 0.  1.
       -2   -1    0    0    0  501  0.00000000000E+00  0.00000000000E+00 -0.60272627846E+02  0.60272627900E+02  0.25500000920E-02 0. -1.
    10030    2    1    2    0    0  0.00000000000E+00  0.00000000000E+00  0.14424181263E+04  0.15629633820E+04  0.60190072482E+03 0.  0.
        5    1    3    3  502    0  0.41733781203E+02 -0.43390264830E+02  0.14867973935E+04  0.14880231863E+04  0.46999998093E+01 0.  1.
       -5    1    3    3    0  502 -0.41733781203E+02  0.43390264830E+02 -0.44379267248E+02  0.74940195725E+02  0.46999998093E+01 0. -1.
</event>
<event>
 5   0  0.2225808E-02  0.5988212E+03  0.7818609E-02  0.9907855E-01
       -1   -1    0    0    0  501  0.00000000000E+00  0.00000000000E+00  0.51077141348E+03  0.51077141350E+03  0.50400001928E-02 0.  1.
        1   -1    0    0  501    0  0.00000000000E+00  0.00000000000E+00 -0.17551238040E+03  0.17551238048E+03  0.50400001928E-02 0. -1.
    10030    2    1    2    0    0  0.00000000000E+00  0.00000000000E+00  0.33525903307E+03  0.68628379398E+03  0.59882119754E+03 0.  0.
        2    1    3    3  502    0  0.35889070080E+02  0.63859229934E+02 -0.16508411428E+03  0.18060673131E+03  0.25500000920E-02 0. -1.
       -2    1    3    3    0  502 -0.35889070080E+02 -0.63859229934E+02  0.50034314735E+03  0.50567706267E+03  0.25500000920E-02 0.  1.
</event>
<event>
 5   0  0.2295179E-02  0.5979817E+03  0.7818609E-02  0.9909602E-01
       -1   -1    0    0    0  501  0.00000000000E+00  0.00000000000E+00  0.88642776454E+02  0.88642776598E+02  0.50400001928E-02 0. -1.
        1   -1    0    0  501    0  0.00000000000E+00  0.00000000000E+00 -0.10084918679E+04  0.10084918679E+04  0.50400001928E-02 0.  1.
    10030    2    1    2    0    0  0.00000000000E+00  0.00000000000E+00 -0.91984909144E+03  0.10971346445E+04  0.59798166957E+03 0.  0.
        3    1    3    3  502    0  0.16224885229E+03  0.12089513759E+03 -0.86379509445E+03  0.88717658883E+03  0.10100000352E+00 0.  1.
       -3    1    3    3    0  502 -0.16224885229E+03 -0.12089513759E+03 -0.56053996984E+02  0.20995805567E+03  0.10100000352E+00 0. -1.
</event>
<event>
 5   0  0.2382531E-02  0.6020832E+03  0.7818609E-02  0.9901094E-01
        1   -1    0    0  501    0  0.00000000000E+00  0.00000000000E+00  0.48368822723E+03  0.48368822725E+03  0.50400001928E-02 0. -1.
       -1   -1    0    0    0  501  0.00000000000E+00  0.00000000000E+00 -0.18736457688E+03  0.18736457695E+03  0.50400001928E-02 0.  1.
    10030    2    1    2    0    0  0.00000000000E+00  0.00000000000E+00  0.29632365034E+03  0.67105280420E+03  0.60208318385E+03 0.  0.
        5    1    3    3  502    0 -0.97882457922E+02 -0.22076259148E+03  0.34843051387E+03  0.42396109534E+03  0.46999998093E+01 0. -1.
       -5    1    3    3    0  502  0.97882457922E+02  0.22076259148E+03 -0.52106863531E+02  0.24709170887E+03  0.46999998093E+01 0.  1.
</event>
<event>
 5   0  0.1521750E-02  0.6016615E+03  0.7818609E-02  0.9901965E-01
        3   -1    0    0  501    0  0.00000000000E+00  0.00000000000E+00  0.24533900748E+03  0.24533902827E+03  0.10100000352E+00 0. -1.
       -3   -1    0    0    0  501  0.00000000000E+00  0.00000000000E+00 -0.36887384218E+03  0.36887385601E+03  0.10100000352E+00 0.  1.
    10030    2    1    2    0    0  0.00000000000E+00  0.00000000000E+00 -0.12353483471E+03  0.61421288427E+03  0.60166154258E+03 0.  0.
        5    1    3    3  502    0  0.86901483972E+02  0.25598094067E+03  0.72889363431E+02  0.28002331903E+03  0.46999998093E+01 0. -1.
       -5    1    3    3    0  502 -0.86901483972E+02 -0.25598094067E+03 -0.19642419814E+03  0.33418956524E+03  0.46999998093E+01 0.  1.
</event>
<event>
 5   0  0.3798925E-02  0.5992063E+03  0.7818609E-02  0.9907054E-01
        2   -1    0    0  501    0  0.00000000000E+00  0.00000000000E+00  0.22395217273E+03  0.22395217275E+03  0.25500000920E-02 0.  1.
       -2   -1    0    0    0  501  0.00000000000E+00  0.00000000000E+00 -0.40080901230E+03  0.40080901231E+03  0.25500000920E-02 0. -1.
    10030    2    1    2    0    0  0.00000000000E+00  0.00000000000E+00 -0.17685683957E+03  0.62476118506E+03  0.59920630559E+03 0.  0.
        2    1    3    3  502    0  0.17901606641E+03 -0.84549586355E+02 -0.32288899123E+03  0.37875148218E+03  0.25500000920E-02 0. -1.
       -2    1    3    3    0  502 -0.17901606641E+03  0.84549586355E+02  0.14603215166E+03  0.24600970288E+03  0.25500000920E-02 0.  1.
</event>
<event>
 5   0  0.3798925E-02  0.5939834E+03  0.7818609E-02  0.9917968E-01
       -2   -1    0    0    0  501  0.00000000000E+00  0.00000000000E+00  0.12675572455E+03  0.12675572458E+03  0.25500000920E-02 0. -1.
        2   -1    0    0  501    0  0.00000000000E+00  0.00000000000E+00 -0.69585873791E+03  0.69585873791E+03  0.25500000920E-02 0.  1.
    10030    2    1    2    0    0  0.00000000000E+00  0.00000000000E+00 -0.56910301336E+03  0.82261446249E+03  0.59398342913E+03 0.  0.
        2    1    3    3  502    0 -0.14247108082E+03  0.25890529509E+03 -0.24360592942E+03  0.38298016861E+03  0.25500000920E-02 0.  1.
       -2    1    3    3    0  502  0.14247108082E+03 -0.25890529509E+03 -0.32549708394E+03  0.43963429388E+03  0.25500000920E-02 0. -1.
</event>
<event>
 5   0  0.3737642E-02  0.5935958E+03  0.7818609E-02  0.9918783E-01
       -2   -1    0    0    0  501  0.00000000000E+00  0.00000000000E+00  0.11512052538E+03  0.11512052540E+03  0.25500000920E-02 0.  1.
        2   -1    0    0  501    0  0.00000000000E+00  0.00000000000E+00 -0.76518918496E+03  0.76518918497E+03  0.25500000920E-02 0. -1.
    10030    2    1    2    0    0  0.00000000000E+00  0.00000000000E+00 -0.65006865958E+03  0.88030971037E+03  0.59359575807E+03 0.  0.
        5    1    3    3  502    0  0.14081010980E+03  0.24489799108E+03 -0.19021573733E+03  0.34059746003E+03  0.46999998093E+01 0. -1.
       -5    1    3    3    0  502 -0.14081010980E+03 -0.24489799108E+03 -0.45985292226E+03  0.53971225034E+03  0.46999998093E+01 0.  1.
</event>
<event>
 5   0  0.3724066E-02  0.5789627E+03  0.7818609E-02  0.9950039E-01
        2   -1    0    0  501    0  0.00000000000E+00  0.00000000000E+00  0.15090612784E+04  0.15090612784E+04  0.25500000920E-02 0. -1.
       -2   -1    0    0    0  501  0.00000000000E+00  0.00000000000E+00 -0.55530852449E+02  0.55530852508E+02  0.25500000920E-02 0.  1.
    10030    2    1    2    0    0  0.00000000000E+00  0.00000000000E+00  0.14535304260E+04  0.15645921309E+04  0.57896272500E+03 0.  0.
        4    1    3    3  502    0  0.16360918808E+03 -0.85353920702E+02  0.12403431192E+03  0.22234968324E+03  0.12699999809E+01 0.  1.
       -4    1    3    3    0  502 -0.16360918808E+03  0.85353920702E+02  0.13294961140E+04  0.13422424477E+04  0.12699999809E+01 0. -1.
</event>
<event>
 5   0  0.2276105E-02  0.5997316E+03  0.7818609E-02  0.9905963E-01
        1   -1    0    0  501    0  0.00000000000E+00  0.00000000000E+00  0.21048232112E+03  0.21048232118E+03  0.50400001928E-02 0. -1.
       -1   -1    0    0    0  501  0.00000000000E+00  0.00000000000E+00 -0.42720693752E+03  0.42720693755E+03  0.50400001928E-02 0.  1.
    10030    2    1    2    0    0  0.00000000000E+00  0.00000000000E+00 -0.21672461640E+03  0.63768925874E+03  0.59973163278E+03 0.  0.
        1    1    3    3  502    0  0.53635693548E+01 -0.29980528859E+03 -0.11127984942E+03  0.31983618285E+03  0.50400001928E-02 0.  1.
       -1    1    3    3    0  502 -0.53635693548E+01  0.29980528859E+03 -0.10544476698E+03  0.31785307589E+03  0.50400001928E-02 0. -1.
</event>
<event>
 5   0  0.3724066E-02  0.6007468E+03  0.7818609E-02  0.9903858E-01
       -2   -1    0    0    0  501  0.00000000000E+00  0.00000000000E+00  0.41537648414E+03  0.41537648415E+03  0.25500000920E-02 0. -1.
        2   -1    0    0  501    0  0.00000000000E+00  0.00000000000E+00 -0.21721059076E+03  0.21721059077E+03  0.25500000920E-02 0.  1.
    10030    2    1    2    0    0  0.00000000000E+00  0.00000000000E+00  0.19816589338E+03  0.63258707492E+03  0.60074677366E+03 0.  0.
        4    1    3    3  502    0  0.46446536579E+02 -0.23855148332E+02  0.41055815659E+03  0.41386708217E+03  0.12699999809E+01 0. -1.
       -4    1    3    3    0  502 -0.46446536579E+02  0.23855148332E+02 -0.21239226320E+03  0.21871999276E+03  0.12699999809E+01 0.  1.
</event>
<event>
 5   0  0.2309055E-02  0.5953569E+03  0.7818609E-02  0.9915086E-01
        1   -1    0    0  501    0  0.00000000000E+00  0.00000000000E+00  0.80175944878E+03  0.80175944880E+03  0.50400001928E-02 0.  1.
       -1   -1    0    0    0  501  0.00000000000E+00  0.00000000000E+00 -0.11052248419E+03  0.11052248431E+03  0.50400001928E-02 0. -1.
    10030    2    1    2    0    0  0.00000000000E+00  0.00000000000E+00  0.69123696459E+03  0.91228193311E+03  0.59535685455E+03 0.  0.
        4    1    3    3  502    0  0.81160903127E+02 -0.24923192162E+03  0.56181898482E+03  0.61995631101E+03  0.12699999809E+01 0.  1.
       -4    1    3    3    0  502 -0.81160903127E+02  0.24923192162E+03  0.12941797977E+03  0.29232562210E+03  0.12699999809E+01 0. -1.
</event>
<event>
 5   0  0.3934634E-02  0.5906839E+03  0.7818609E-02  0.9924925E-01
       -2   -1    0    0    0  501  0.00000000000E+00  0.00000000000E+00  0.23175892109E+03  0.23175892110E+03  0.25500000920E-02 0.  1.
        2   -1    0    0  501    0  0.00000000000E+00  0.00000000000E+00 -0.37636899899E+03  0.37636899900E+03  0.25500000920E-02 0. -1.
    10030    2    1    2    0    0  0.00000000000E+00  0.00000000000E+00 -0.14461007790E+03  0.60812792010E+03  0.59068391934E+03 0.  0.
        1    1    3    3  502    0 -0.14416133145E+03 -0.11515686135E+03  0.16512045928E+03  0.24760524691E+03  0.50400001928E-02 0.  1.
       -1    1    3    3    0  502  0.14416133145E+03  0.11515686135E+03 -0.30973053718E+03  0.36052267319E+03  0.50400001928E-02 0. -1.
</event>
<event>
 5   0  0.2295179E-02  0.5953019E+03  0.7818609E-02  0.9915201E-01
        1   -1    0    0  501    0  0.00000000000E+00  0.00000000000E+00  0.28357959752E+03  0.28357959757E+03  0.50400001928E-02 0. -1.
       -1   -1    0    0    0  501  0.00000000000E+00  0.00000000000E+00 -0.31242057349E+03  0.31242057353E+03  0.50400001928E-02 0.  1.
    10030    2    1    2    0    0  0.00000000000E+00  0.00000000000E+00 -0.28840975962E+02  0.59600017109E+03  0.59530194192E+03 0.  0.
        3    1    3    3  502    0  0.17205635390E+03  0.68467817588E+02 -0.24772784386E+03  0.30929003506E+03  0.10100000352E+00 0.  1.
       -3    1    3    3    0  502 -0.17205635390E+03 -0.68467817588E+02  0.21888686790E+03  0.28671013603E+03  0.10100000352E+00 0. -1.
</event>
<event>
 5   0  0.3832191E-02  0.6110818E+03  0.7818609E-02  0.9882678E-01
       -2   -1    0    0    0  501  0.00000000000E+00  0.00000000000E+00  0.37117353908E+03  0.37117353909E+03  0.25500000920E-02 0.  1.
        2   -1    0    0  501    0  0.00000000000E+00  0.00000000000E+00 -0.25151373211E+03  0.25151373212E+03  0.25500000920E-02 0. -1.
    10030    2    1    2    0    0  0.00000000000E+00  0.00000000000E+00  0.11965980698E+03  0.62268727121E+03  0.61108180167E+03 0.  0.
        3    1    3    3  502    0  0.17265652753E+03  0.60489013867E+02  0.30919370845E+03  0.35926307470E+03  0.10100000352E+00 0.  1.
       -3    1    3    3    0  502 -0.17265652753E+03 -0.60489013867E+02 -0.18953390148E+03  0.26342419651E+03  0.10100000352E+00 0. -1.
</event>
<event>
 5   0  0.2382531E-02  0.5925201E+03  0.7818609E-02  0.9921047E-01
        1   -1    0    0  501    0  0.00000000000E+00  0.00000000000E+00  0.28177066290E+03  0.28177066295E+03  0.50400001928E-02 0. -1.
       -1   -1    0    0    0  501  0.00000000000E+00  0.00000000000E+00 -0.31149448526E+03  0.31149448530E+03  0.50400001928E-02 0.  1.
    10030    2    1    2    0    0  0.00000000000E+00  0.00000000000E+00 -0.29723822355E+02  0.59326514825E+03  0.59252006760E+03 0.  0.
        5    1    3    3  502    0 -0.14673397451E+02 -0.50965971161E+02  0.27694079790E+03  0.28201264927E+03  0.46999998093E+01 0. -1.
       -5    1    3    3    0  502  0.14673397451E+02  0.50965971161E+02 -0.30666462025E+03  0.31125249898E+03  0.46999998093E+01 0.  1.
</event>
<event>
 5   0  0.3934634E-02  0.6103539E+03  0.7818609E-02  0.9884155E-01
        2   -1    0    0  501    0  0.00000000000E+00  0.00000000000E+00  0.10660853298E+04  0.10660853298E+04  0.25500000920E-02 0. -1.
       -2   -1    0    0    0  501  0.00000000000E+00  0.00000000000E+00 -0.87359779600E+02  0.87359779637E+02  0.25500000920E-02 0.  1.
    10030    2    1    2    0    0  0.00000000000E+00  0.00000000000E+00  0.97872555018E+03  0.11534451094E+04  0.61035392837E+03 0.  0.
        1    1    3    3  502    0 -0.81122556966E+01 -0.12224437075E+03  0.10175720112E+04  0.10249206276E+04  0.50400001928E-02 0. -1.
       -1    1    3    3    0  502  0.81122556966E+01  0.12224437075E+03 -0.38846461005E+02  0.12852448184E+03  0.50400001928E-02 0.  1.
</event>
<event>
 5   0  0.3832191E-02  0.5549778E+03  0.7818609E-02  0.1000348E+00
       -2   -1    0    0    0  501  0.00000000000E+00  0.00000000000E+00  0.10331763682E+03  0.10331763686E+03  0.25500000920E-02 0.  1.
        2   -1    0    0  501    0  0.00000000000E+00  0.00000000000E+00 -0.74527543665E+03  0.74527543665E+03  0.25500000920E-02 0. -1.
    10030    2    1    2    0    0  0.00000000000E+00  0.00000000000E+00 -0.64195779982E+03  0.84859307351E+03  0.55497782627E+03 0.  0.
        3    1    3    3  502    0 -0.14972439089E+03  0.14678332705E+03 -0.43054649768E+02  0.21404777830E+03  0.10100000352E+00 0.  1.
       -3    1    3    3    0  502  0.14972439089E+03 -0.14678332705E+03 -0.59890315005E+03  0.63454529521E+03  0.10100000352E+00 0. -1.
</event>
<event>
 5   0  0.2382531E-02  0.5996712E+03  0.7818609E-02  0.9906088E-01
        1   -1    0    0  501    0  0.00000000000E+00  0.00000000000E+00  0.59871886768E+03  0.59871886770E+03  0.50400001928E-02 0.  1.
       -1   -1    0    0    0  501  0.00000000000E+00  0.00000000000E+00 -0.15015626250E+03  0.15015626258E+03  0.50400001928E-02 0. -1.
    10030    2    1    2    0    0  0.00000000000E+00  0.00000000000E+00  0.44856260518E+03  0.74887513029E+03  0.59967120157E+03 0.  0.
        5    1    3    3  502    0 -0.23909606723E+03  0.10403874470E+03  0.39523704246E+02  0.26377111851E+03  0.46999998093E+01 0. -1.
       -5    1    3    3    0  502  0.23909606723E+03 -0.10403874470E+03  0.40903890094E+03  0.48510401178E+03  0.46999998093E+01 0.  1.
</event>
<event>
 5   0  0.2309055E-02  0.5977903E+03  0.7818609E-02  0.9910001E-01
       -1   -1    0    0    0  501  0.00000000000E+00  0.00000000000E+00  0.54919287563E+03  0.54919287565E+03  0.50400001928E-02 0.  1.
        1   -1    0    0  501    0  0.00000000000E+00  0.00000000000E+00 -0.16267200325E+03  0.16267200333E+03  0.50400001928E-02 0. -1.
    10030    2    1    2    0    0  0.00000000000E+00  0.00000000000E+00  0.38652087238E+03  0.71186487898E+03  0.59779028191E+03 0.  0.
        4    1    3    3  502    0  0.12982364189E+03  0.26868795300E+03  0.17300592981E+03  0.34493486157E+03  0.12699999809E+01 0.  1.
       -4    1    3    3    0  502 -0.12982364189E+03 -0.26868795300E+03  0.21351494257E+03  0.36693001741E+03  0.12699999809E+01 0. -1.
</event>
<event>
 5   0  0.2225808E-02  0.5996696E+03  0.7818609E-02  0.9906092E-01
        1   -1    0    0  501    0  0.00000000000E+00  0.00000000000E+00  0.38853140412E+03  0.38853140415E+03  0.50400001928E-02 0.  1.
       -1   -1    0    0    0  501  0.00000000000E+00  0.00000000000E+00 -0.23138646321E+03  0.23138646327E+03  0.50400001928E-02 0. -1.
    10030    2    1    2    0    0  0.00000000000E+00  0.00000000000E+00  0.15714494091E+03  0.61991786742E+03  0.59966960061E+03 0.  0.
        2    1    3    3  502    0  0.14907720881E+03  0.19381543482E+03 -0.10081632522E+03  0.26448510052E+03  0.25500000920E-02 0. -1.
       -2    1    3    3    0  502 -0.14907720881E+03 -0.19381543482E+03  0.25796126613E+03  0.35543276690E+03  0.25500000920E-02 0.  1.
</event>
<event>
 5   0  0.3724066E-02  0.6007431E+03  0.7818609E-02  0.9903866E-01
        2   -1    0    0  501    0  0.00000000000E+00  0.00000000000E+00  0.82343572467E+03  0.82343572467E+03  0.25500000920E-02 0. -1.
       -2   -1    0    0    0  501  0.00000000000E+00  0.00000000000E+00 -0.10956903634E+03  0.10956903637E+03  0.25500000920E-02 0.  1.
    10030    2    1    2    0    0  0.00000000000E+00  0.00000000000E+00  0.71386668833E+03  0.93300476104E+03  0.60074306938E+03 0.  0.
        4    1    3    3  502    0  0.78949964844E+01  0.24219409909E+03  0.63258346063E+03  0.67740959557E+03  0.12699999809E+01 0. -1.
       -4    1    3    3    0  502 -0.78949964844E+01 -0.24219409909E+03  0.81283227703E+02  0.25559516547E+03  0.12699999809E+01 0.  1.
</event>
<event>
 5   0  0.3934634E-02  0.6005106E+03  0.7818609E-02  0.9904347E-01
        2   -1    0    0  501    0  0.00000000000E+00  0.00000000000E+00  0.19439150801E+04  0.19439150801E+04  0.25500000920E-02 0.  1.
       -2   -1    0    0    0  501  0.00000000000E+00  0.00000000000E+00 -0.46377146853E+02  0.46377146923E+02  0.25500000920E-02 0. -1.
    10030    2    1    2    0    0  0.00000000000E+00  0.00000000000E+00  0.18975379333E+04  0.19902922271E+04  0.60051056681E+03 0.  0.
        1    1    3    3  502    0 -0.96874204408E+02  0.36498608118E+02  0.14641427046E+02  0.10455205060E+03  0.50400001928E-02 0. -1.
       -1    1    3    3    0  502  0.96874204408E+02 -0.36498608118E+02  0.18828965062E+04  0.18857401765E+04  0.50400001928E-02 0.  1.
</event>
<event>
 5   0  0.2276105E-02  0.5338924E+03  0.7818609E-02  0.1005293E+00
        1   -1    0    0  501    0  0.00000000000E+00  0.00000000000E+00  0.91307281292E+03  0.91307281293E+03  0.50400001928E-02 0.  1.
       -1   -1    0    0    0  501  0.00000000000E+00  0.00000000000E+00 -0.78044448628E+02  0.78044448791E+02  0.50400001928E-02 0. -1.
    10030    2    1    2    0    0  0.00000000000E+00  0.00000000000E+00  0.83502836429E+03  0.99111726172E+03  0.53389236492E+03 0.  0.
        1    1    3    3  502    0 -0.46235532759E+02  0.26244566034E+03  0.38846790325E+03  0.47108678713E+03  0.50400001928E-02 0. -1.
       -1    1    3    3    0  502  0.46235532759E+02 -0.26244566034E+03  0.44656046104E+03  0.52003047460E+03  0.50400001928E-02 0.  1.
</event>
<event>
 5   0  0.3737642E-02  0.5975982E+03  0.7818609E-02  0.9910402E-01
        2   -1    0    0  501    0  0.00000000000E+00  0.00000000000E+00  0.34954417726E+03  0.34954417727E+03  0.25500000920E-02 0.  1.
       -2   -1    0    0    0  501  0.00000000000E+00  0.00000000000E+00 -0.25542095204E+03  0.25542095206E+03  0.25500000920E-02 0. -1.
    10030    2    1    2    0    0  0.00000000000E+00  0.00000000000E+00  0.94123225214E+02  0.60496512932E+03  0.59759821467E+03 0.  0.
        5    1    3    3  502    0  0.44299886561E+01 -0.73509656618E+02 -0.24605139226E+03  0.25687871077E+03  0.46999998093E+01 0. -1.
       -5    1    3    3    0  502 -0.44299886561E+01  0.73509656618E+02  0.34017461747E+03  0.34808641856E+03  0.46999998093E+01 0.  1.
</event>
<event>
 5   0  0.2309055E-02  0.6047265E+03  0.7818609E-02  0.9895648E-01
        1   -1    0    0  501    0  0.00000000000E+00  0.00000000000E+00  0.33433242541E+03  0.33433242545E+03  0.50400001928E-02 0. -1.
       -1   -1    0    0    0  501  0.00000000000E+00  0.00000000000E+00 -0.27345096118E+03  0.27345096123E+03  0.50400001928E-02 0.  1.
    10030    2    1    2    0    0  0.00000000000E+00  0.00000000000E+00  0.60881464230E+02  0.60778338668E+03  0.60472646083E+03 0.  0.
        4    1    3    3  502    0  0.70131225396E+02 -0.53500959249E+02 -0.26022905928E+03  0.27477539484E+03  0.12699999809E+01 0.  1.
       -4    1    3    3    0  502 -0.70131225396E+02  0.53500959249E+02  0.32111052351E+03  0.33300799183E+03  0.12699999809E+01 0. -1.
</event>
<event>
 5   0  0.2295179E-02  0.6041330E+03  0.7818609E-02  0.9896868E-01
       -1   -1    0    0    0  501  0.00000000000E+00  0.00000000000E+00  0.23714957599E+03  0.23714957605E+03  0.50400001928E-02 0. -1.
        1   -1    0    0  501    0  0.00000000000E+00  0.00000000000E+00 -0.38475372346E+03  0.38475372350E+03  0.50400001928E-02 0.  1.
    10030    2    1    2    0    0  0.00000000000E+00  0.00000000000E+00 -0.14760414747E+03  0.62190329954E+03  0.60413303968E+03 0.  0.
        3    1    3    3  502    0 -0.56781347976E+02 -0.52806061069E+02 -0.37433393368E+03  0.38228066347E+03  0.10100000352E+00 0.  1.
       -3    1    3    3    0  502  0.56781347976E+02  0.52806061069E+02  0.22672978621E+03  0.23962263607E+03  0.10100000352E+00 0. -1.
</event>
<event>
 5   0  0.1521750E-02  0.6351699E+03  0.7818609E-02  0.9835012E-01
        3   -1    0    0  501    0  0.00000000000E+00  0.00000000000E+00  0.22334968987E+04  0.22334969009E+04  0.10100000352E+00 0. -1.
       -3   -1    0    0    0  501  0.00000000000E+00  0.00000000000E+00 -0.45157914120E+02  0.45158027068E+02  0.10100000352E+00 0.  1.
    10030    2    1    2    0    0  0.00000000000E+00  0.00000000000E+00  0.21883389845E+04  0.22786549280E+04  0.63516987468E+03 0.  0.
        2    1    3    3  502    0 -0.12790611763E+03  0.24363706886E+03  0.16629983732E+04  0.16856104489E+04  0.25500000920E-02 0. -1.
       -2    1    3    3    0  502  0.12790611763E+03 -0.24363706886E+03  0.52534061138E+03  0.59304447912E+03  0.25500000920E-02 0.  1.
</event>
<event>
 5   0  0.2225808E-02  0.6087708E+03  0.7818609E-02  0.9887375E-01
       -1   -1    0    0    0  501  0.00000000000E+00  0.00000000000E+00  0.46761609088E+03  0.46761609090E+03  0.50400001928E-02 0.  1.
        1   -1    0    0  501    0  0.00000000000E+00  0.00000000000E+00 -0.19813364612E+03  0.19813364618E+03  0.50400001928E-02 0. -1.
    10030    2    1    2    0    0  0.00000000000E+00  0.00000000000E+00  0.26948244476E+03  0.66574973709E+03  0.60877083077E+03 0.  0.
        2    1    3    3  502    0 -0.29288107242E+03 -0.44666246950E+02  0.58376496383E+02  0.30196392422E+03  0.25500000920E-02 0. -1.
       -2    1    3    3    0  502  0.29288107242E+03  0.44666246950E+02  0.21110594838E+03  0.36378581287E+03  0.25500000920E-02 0.  1.
</event>
<event>
 5   0  0.1521750E-02  0.5924942E+03  0.7818609E-02  0.9921102E-01
       -3   -1    0    0    0  501  0.00000000000E+00  0.00000000000E+00  0.58780639794E+03  0.58780640662E+03  0.10100000352E+00 0.  1.
        3   -1    0    0  501    0  0.00000000000E+00  0.00000000000E+00 -0.14930480325E+03  0.14930483741E+03  0.10100000352E+00 0. -1.
    10030    2    1    2    0    0  0.00000000000E+00  0.00000000000E+00  0.43850159469E+03  0.73711124403E+03  0.59249416666E+03 0.  0.
        4    1    3    3  502    0  0.84914049189E+02 -0.23788985600E+03  0.26684196706E+02  0.25399928856E+03  0.12699999809E+01 0.  1.
       -4    1    3    3    0  502 -0.84914049189E+02  0.23788985600E+03  0.41181739799E+03  0.48311195547E+03  0.12699999809E+01 0. -1.
</event>
<event>
 5   0  0.3724066E-02  0.5979913E+03  0.7818609E-02  0.9909582E-01
        2   -1    0    0  501    0  0.00000000000E+00  0.00000000000E+00  0.85808327657E+03  0.85808327658E+03  0.25500000920E-02 0.  1.
       -2   -1    0    0    0  501  0.00000000000E+00  0.00000000000E+00 -0.10418382801E+03  0.10418382804E+03  0.25500000920E-02 0. -1.
    10030    2    1    2    0    0  0.00000000000E+00  0.00000000000E+00  0.75389944857E+03  0.96226710461E+03  0.59799130602E+03 0.  0.
        4    1    3    3  502    0  0.16975651688E+03 -0.20723927653E+03  0.16327945102E+03  0.31373107080E+03  0.12699999809E+01 0. -1.
       -4    1    3    3    0  502 -0.16975651688E+03  0.20723927653E+03  0.59061999754E+03  0.64853603382E+03  0.12699999809E+01 0.  1.
</event>
<event>
 5   0  0.2276105E-02  0.6017203E+03  0.7818609E-02  0.9901843E-01
        1   -1    0    0  501    0  0.00000000000E+00  0.00000000000E+00  0.20592218394E+03  0.20592218400E+03  0.50400001928E-02 0. -1.
       -1   -1    0    0    0  501  0.00000000000E+00  0.00000000000E+00 -0.43956806545E+03  0.43956806548E+03  0.50400001928E-02 0.  1.
    10030    2    1    2    0    0  0.00000000000E+00  0.00000000000E+00 -0.23364588151E+03  0.64549024948E+03  0.60172025413E+03 0.  0.
        1    1    3    3  502    0  0.22849381098E+02  0.13850147400E+03 -0.40228518857E+03  0.42607291100E+03  0.50400001928E-02 0.  1.
       -1    1    3    3    0  502 -0.22849381098E+02 -0.13850147400E+03  0.16863930706E+03  0.21941733849E+03  0.50400001928E-02 0. -1.
</event>
<event>
 5   0  0.2295179E-02  0.6017261E+03  0.7818609E-02  0.9901831E-01
        1   -1    0    0  501    0  0.00000000000E+00  0.00000000000E+00  0.16740581871E+03  0.16740581879E+03  0.50400001928E-02 0. -1.
       -1   -1    0    0    0  501  0.00000000000E+00  0.00000000000E+00 -0.54071344828E+03  0.54071344831E+03  0.50400001928E-02 0.  1.
    10030    2    1    2    0    0  0.00000000000E+00  0.00000000000E+00 -0.37330762957E+03  0.70811926710E+03  0.60172610891E+03 0.  0.
        3    1    3    3  502    0 -0.12821060471E+03  0.27084713646E+03 -0.15502320975E+03  0.33738455248E+03  0.10100000352E+00 0. -1.
       -3    1    3    3    0  502  0.12821060471E+03 -0.27084713646E+03 -0.21828441982E+03  0.37073471462E+03  0.10100000352E+00 0.  1.
</event>
<event>
 5   0  0.3798925E-02  0.5888947E+03  0.7818609E-02  0.9928718E-01
        2   -1    0    0  501    0  0.00000000000E+00  0.00000000000E+00  0.32991319984E+03  0.32991319985E+03  0.25500000920E-02 0.  1.
       -2   -1    0    0    0  501  0.00000000000E+00  0.00000000000E+00 -0.26279413811E+03  0.26279413812E+03  0.25500000920E-02 0. -1.
    10030    2    1    2    0    0  0.00000000000E+00  0.00000000000E+00  0.67119061727E+02  0.59270733797E+03  0.58889474445E+03 0.  0.
        2    1    3    3  502    0 -0.57296022127E+02  0.13013696521E+03  0.29306750959E+03  0.32574073901E+03  0.25500000920E-02 0.  1.
       -2    1    3    3    0  502  0.57296022127E+02 -0.13013696521E+03 -0.22594844786E+03  0.26696659897E+03  0.25500000920E-02 0. -1.
</event>
<event>
 5   0  0.3724066E-02  0.5900855E+03  0.7818609E-02  0.9926192E-01
       -2   -1    0    0    0  501  0.00000000000E+00  0.00000000000E+00  0.25743760196E+03  0.25743760197E+03  0.25500000920E-02 0. -1.
        2   -1    0    0  501    0  0.00000000000E+00  0.00000000000E+00 -0.33814111494E+03  0.33814111495E+03  0.25500000920E-02 0.  1.
    10030    2    1    2    0    0  0.00000000000E+00  0.00000000000E+00 -0.80703512978E+02  0.59557871692E+03  0.59008554553E+03 0.  0.
        4    1    3    3  502    0  0.27698395359E+03 -0.53729885564E+02  0.46716080320E+02  0.28599128694E+03  0.12699999809E+01 0. -1.
       -4    1    3    3    0  502 -0.27698395359E+03  0.53729885564E+02 -0.12741959330E+03  0.30958742998E+03  0.12699999809E+01 0.  1.
</event>
<event>
 5   0  0.2382531E-02  0.6033206E+03  0.7818609E-02  0.9898541E-01
        1   -1    0    0  501    0  0.00000000000E+00  0.00000000000E+00  0.97183144689E+03  0.97183144691E+03  0.50400001928E-02 0. -1.
       -1   -1    0    0    0  501  0.00000000000E+00  0.00000000000E+00 -0.93636557403E+02  0.93636557539E+02  0.50400001928E-02 0.  1.
    10030    2    1    2    0    0  0.00000000000E+00  0.00000000000E+00  0.87819488949E+03  0.10654680044E+04  0.60332064822E+03 0.  0.
        5    1    3    3  502    0  0.10847137999E+03 -0.34970005367E+02 -0.54083049151E+02  0.12623790142E+03  0.46999998093E+01 0.  1.
       -5    1    3    3    0  502 -0.10847137999E+03  0.34970005367E+02  0.93227793864E+03  0.93923010303E+03  0.46999998093E+01 0. -1.
</event>
<event>
 5   0  0.3724066E-02  0.5973008E+03  0.7818609E-02  0.9911022E-01
        2   -1    0    0  501    0  0.00000000000E+00  0.00000000000E+00  0.12280872288E+03  0.12280872291E+03  0.25500000920E-02 0. -1.
       -2   -1    0    0    0  501  0.00000000000E+00  0.00000000000E+00 -0.72626803560E+03  0.72626803561E+03  0.25500000920E-02 0.  1.
    10030    2    1    2    0    0  0.00000000000E+00  0.00000000000E+00 -0.60345931272E+03  0.84907675852E+03  0.59730076155E+03 0.  0.
        4    1    3    3  502    0 -0.63338710007E+01  0.40435347594E+02  0.11879927750E+03  0.12565833236E+03  0.12699999809E+01 0. -1.
       -4    1    3    3    0  502  0.63338710007E+01 -0.40435347594E+02 -0.72225859022E+03  0.72341842616E+03  0.12699999809E+01 0.  1.
</event>
<event>
 5   0  0.2225808E-02  0.5954429E+03  0.7818609E-02  0.9914906E-01
       -1   -1    0    0    0  501  0.00000000000E+00  0.00000000000E+00  0.96895148677E+02  0.96895148808E+02  0.50400001928E-02 0.  1.
        1   -1    0    0  501    0  0.00000000000E+00  0.00000000000E+00 -0.91478321358E+03  0.91478321360E+03  0.50400001928E-02 0. -1.
    10030    2    1    2    0    0  0.00000000000E+00  0.00000000000E+00 -0.81788806491E+03  0.10116783624E+04  0.59544287908E+03 0.  0.
        2    1    3    3  502    0 -0.14720558377E+02 -0.28043108826E+03 -0.57696619698E+03  0.64167615085E+03  0.25500000920E-02 0. -1.
       -2    1    3    3    0  502  0.14720558377E+02  0.28043108826E+03 -0.24092186793E+03  0.37000221155E+03  0.25500000920E-02 0.  1.
</event>
<event>
 5   0  0.3737642E-02  0.6042357E+03  0.7818609E-02  0.9896657E-01
       -2   -1    0    0    0  501  0.00000000000E+00  0.00000000000E+00  0.12524837003E+03  0.12524837005E+03  0.25500000920E-02 0. -1.
        2   -1    0    0  501    0  0.00000000000E+00  0.00000000000E+00 -0.72875359773E+03  0.72875359774E+03  0.25500000920E-02 0.  1.
    10030    2    1    2    0    0  0.00000000000E+00  0.00000000000E+00 -0.60350522771E+03  0.85400196779E+03  0.60423571652E+03 0.  0.
        5    1    3    3  502    0 -0.17681644374E+03 -0.16045221032E+03 -0.40208088450E+02  0.24217296907E+03  0.46999998093E+01 0. -1.
       -5    1    3    3    0  502  0.17681644374E+03  0.16045221032E+03 -0.56329713926E+03  0.61182899871E+03  0.46999998093E+01 0.  1.
</event>
<event>
 5   0  0.2225808E-02  0.5979821E+03  0.7818609E-02  0.9909601E-01
       -1   -1    0    0    0  501  0.00000000000E+00  0.00000000000E+00  0.13842745100E+04  0.13842745100E+04  0.50400001928E-02 0.  1.
        1   -1    0    0  501    0  0.00000000000E+00  0.00000000000E+00 -0.64579426987E+02  0.64579427184E+02  0.50400001928E-02 0. -1.
    10030    2    1    2    0    0  0.00000000000E+00  0.00000000000E+00  0.13196950830E+04  0.14488539372E+04  0.59798212280E+03 0.  0.
        2    1    3    3  502    0 -0.67066922910E+01 -0.17348778267E+03  0.70067126869E+02  0.18722284244E+03  0.25500000920E-02 0. -1.
       -2    1    3    3    0  502  0.67066922910E+01  0.17348778267E+03  0.12496279562E+04  0.12616310948E+04  0.25500000920E-02 0.  1.
</event>
<event>
 5   0  0.3832191E-02  0.6007665E+03  0.7818609E-02  0.9903817E-01
        2   -1    0    0  501    0  0.00000000000E+00  0.00000000000E+00  0.42128124471E+03  0.42128124472E+03  0.25500000920E-02 0. -1.
       -2   -1    0    0    0  501  0.00000000000E+00  0.00000000000E+00 -0.21418019565E+03  0.21418019567E+03  0.25500000920E-02 0.  1.
    10030    2    1    2    0    0  0.00000000000E+00  0.00000000000E+00  0.20710104906E+03  0.63546144039E+03  0.60076650847E+03 0.  0.
        3    1    3    3  502    0  0.22123244503E+03 -0.20121586948E+03  0.73661458522E+02  0.30798967765E+03  0.10100000352E+00 0.  1.
       -3    1    3    3    0  502 -0.22123244503E+03  0.20121586948E+03  0.13343959054E+03  0.32747176274E+03  0.10100000352E+00 0. -1.
</event>
<event>
 5   0  0.1521750E-02  0.5972499E+03  0.7818609E-02  0.9911128E-01
       -4   -1    0    0    0  501  0.00000000000E+00  0.00000000000E+00  0.10824366400E+04  0.10824373851E+04  0.12699999809E+01 0. -1.
        4   -1    0    0  501    0  0.00000000000E+00  0.00000000000E+00 -0.82379615214E+02  0.82389404069E+02  0.12699999809E+01 0.  1.
    10030    2    1    2    0    0  0.00000000000E+00  0.00000000000E+00  0.10000570248E+04  0.11648267891E+04  0.59724986044E+03 0.  0.
        4    1    3    3  502    0 -0.22059154123E+03 -0.36714859282E+02  0.11404977624E+03  0.25103301240E+03  0.12699999809E+01 0.  1.
       -4    1    3    3    0  502  0.22059154123E+03  0.36714859282E+02  0.88600724859E+03  0.91379377674E+03  0.12699999809E+01 0. -1.
</event>
<event>
 5   0  0.3798925E-02  0.5875568E+03  0.7818609E-02  0.9931563E-01
        2   -1    0    0  501    0  0.00000000000E+00  0.00000000000E+00  0.22265744264E+04  0.22265744264E+04  0.25500000920E-02 0.  1.
       -2   -1    0    0    0  501  0.00000000000E+00  0.00000000000E+00 -0.38761676133E+02  0.38761676217E+02  0.25500000920E-02 0. -1.
    10030    2    1    2    0    0  0.00000000000E+00  0.00000000000E+00  0.21878127502E+04  0.22653361026E+04  0.58755682924E+03 0.  0.
        2    1    3    3  502    0 -0.75704285324E+02 -0.10597019178E+03  0.21091964609E+04  0.21132133189E+04  0.25500000920E-02 0.  1.
       -2    1    3    3    0  502  0.75704285324E+02  0.10597019178E+03  0.78616289273E+02  0.15212278366E+03  0.25500000920E-02 0. -1.
</event>
<event>
 5   0  0.2382531E-02  0.5970054E+03  0.7818609E-02  0.9911638E-01
        1   -1    0    0  501    0  0.00000000000E+00  0.00000000000E+00  0.46023712700E+03  0.46023712703E+03  0.50400001928E-02 0. -1.
       -1   -1    0    0    0  501  0.00000000000E+00  0.00000000000E+00 -0.19360425960E+03  0.19360425967E+03  0.50400001928E-02 0.  1.
    10030    2    1    2    0    0  0.00000000000E+00  0.00000000000E+00  0.26663286740E+03  0.65384138669E+03  0.59700542123E+03 0.  0.
        5    1    3    3  502    0 -0.94380318821E+02 -0.94905907140E+02 -0.15885211887E+03  0.20777598865E+03  0.46999998093E+01 0.  1.
       -5    1    3    3    0  502  0.94380318821E+02  0.94905907140E+02  0.42548498627E+03  0.44606539804E+03  0.46999998093E+01 0. -1.
</event>
<event>
 5   0  0.3724066E-02  0.5978809E+03  0.7818609E-02  0.9909812E-01
       -2   -1    0    0    0  501  0.00000000000E+00  0.00000000000E+00  0.62541912198E+03  0.62541912199E+03  0.25500000920E-02 0.  1.
        2   -1    0    0  501    0  0.00000000000E+00  0.00000000000E+00 -0.14288879499E+03  0.14288879501E+03  0.25500000920E-02 0. -1.
    10030    2    1    2    0    0  0.00000000000E+00  0.00000000000E+00  0.48253032699E+03  0.76830791700E+03  0.59788087346E+03 0.  0.
        4    1    3    3  502    0 -0.10951707529E+03 -0.10603288207E+03 -0.89187635048E+02  0.17661542686E+03  0.12699999809E+01 0. -1.
       -4    1    3    3    0  502  0.10951707529E+03  0.10603288207E+03  0.57171796204E+03  0.59169249013E+03  0.12699999809E+01 0.  1.
</event>
<event>
 5   0  0.3737642E-02  0.6094035E+03  0.7818609E-02  0.9886087E-01
       -2   -1    0    0    0  501  0.00000000000E+00  0.00000000000E+00  0.11841207310E+03  0.11841207312E+03  0.25500000920E-02 0.  1.
        2   -1    0    0  501    0  0.00000000000E+00  0.00000000000E+00 -0.78406826078E+03  0.78406826078E+03  0.25500000920E-02 0. -1.
    10030    2    1    2    0    0  0.00000000000E+00  0.00000000000E+00 -0.66565618768E+03  0.90248033390E+03  0.60940347299E+03 0.  0.
        5    1    3    3  502    0 -0.12725421154E+03 -0.26405302253E+03 -0.20978276464E+03  0.36048374638E+03  0.46999998093E+01 0.  1.
       -5    1    3    3    0  502  0.12725421154E+03  0.26405302253E+03 -0.45587342304E+03  0.54199658753E+03  0.46999998093E+01 0. -1.
</event>
<event>
 5   0  0.2309055E-02  0.5999936E+03  0.7818609E-02  0.9905419E-01
        1   -1    0    0  501    0  0.00000000000E+00  0.00000000000E+00  0.30081776029E+03  0.30081776033E+03  0.50400001928E-02 0. -1.
       -1   -1    0    0    0  501  0.00000000000E+00  0.00000000000E+00 -0.29917810948E+03  0.29917810953E+03  0.50400001928E-02 0.  1.
    10030    2    1    2    0    0  0.00000000000E+00  0.00000000000E+00  0.16396508061E+01  0.59999586986E+03  0.59999362946E+03 0.  0.
        4    1    3    3  502    0 -0.22093944390E+03 -0.79569815246E+02  0.18750443337E+03  0.30050810106E+03  0.12699999809E+01 0. -1.
       -4    1    3    3    0  502  0.22093944390E+03  0.79569815246E+02 -0.18586478256E+03  0.29948776881E+03  0.12699999809E+01 0.  1.
</event>
<event>
 5   0  0.1521750E-02  0.6075619E+03  0.7818609E-02  0.9889840E-01
        4   -1    0    0  501    0  0.00000000000E+00  0.00000000000E+00  0.51058181978E+03  0.51058339925E+03  0.12699999809E+01 0. -1.
       -4   -1    0    0    0  501  0.00000000000E+00  0.00000000000E+00 -0.18073654009E+03  0.18074100206E+03  0.12699999809E+01 0.  1.
    10030    2    1    2    0    0  0.00000000000E+00  0.00000000000E+00  0.32984527969E+03  0.69132440130E+03  0.60756194689E+03 0.  0.
        1    1    3    3  502    0  0.84419494746E+01  0.54546563340E+02  0.50483117020E+03  0.50783964448E+03  0.50400001928E-02 0. -1.
       -1    1    3    3    0  502 -0.84419494746E+01 -0.54546563340E+02 -0.17498589051E+03  0.18348475682E+03  0.50400001928E-02 0.  1.
</event>
<event>
 5   0  0.3737642E-02  0.5906542E+03  0.7818609E-02  0.9924988E-01
       -2   -1    0    0    0  501  0.00000000000E+00  0.00000000000E+00  0.65917049721E+02  0.65917049770E+02  0.25500000920E-02 0. -1.
        2   -1    0    0  501    0  0.00000000000E+00  0.00000000000E+00 -0.13231492708E+04  0.13231492708E+04  0.25500000920E-02 0.  1.
    10030    2    1    2    0    0  0.00000000000E+00  0.00000000000E+00 -0.12572322211E+04  0.13890663206E+04  0.59065420106E+03 0.  0.
        5    1    3    3  502    0  0.33271908902E+01  0.19197538989E+02 -0.13215479981E+04  0.13216999724E+04  0.46999998093E+01 0.  1.
       -5    1    3    3    0  502 -0.33271908902E+01 -0.19197538989E+02  0.64315777001E+02  0.67366348215E+02  0.46999998093E+01 0. -1.
</event>
<event>
 5   0  0.2295179E-02  0.5992227E+03  0.7818609E-02  0.9907020E-01
        1   -1    0    0  501    0  0.00000000000E+00  0.00000000000E+00  0.28122928611E+03  0.28122928616E+03  0.50400001928E-02 0. -1.
       -1   -1    0    0    0  501  0.00000000000E+00  0.00000000000E+00 -0.31919495664E+03  0.31919495668E+03  0.50400001928E-02 0.  1.
    10030    2    1    2    0    0  0.00000000000E+00  0.00000000000E+00 -0.37965670526E+02  0.60042424284E+03  0.59922272925E+03 0.  0.
        3    1    3    3  502    0  0.10747636709E+03 -0.12994024816E+03 -0.26713102076E+03  0.31590288069E+03  0.10100000352E+00 0.  1.
       -3    1    3    3    0  502 -0.10747636709E+03  0.12994024816E+03  0.22916535023E+03  0.28452136215E+03  0.10100000352E+00 0. -1.
</event>
<event>
 5   0  0.3934634E-02  0.5966276E+03  0.7818609E-02  0.9912428E-01
        2   -1    0    0  501    0  0.00000000000E+00  0.00000000000E+00  0.76823512555E+03  0.76823512555E+03  0.25500000920E-02 0. -1.
       -2   -1    0    0    0  501  0.00000000000E+00  0.00000000000E+00 -0.11583839340E+03  0.11583839343E+03  0.25500000920E-02 0.  1.
    10030    2    1    2    0    0  0.00000000000E+00  0.00000000000E+00  0.65239673215E+03  0.88407351898E+03  0.59662759813E+03 0.  0.
        1    1    3    3  502    0  0.25862919551E+03 -0.99171160283E+02  0.49031656999E+03  0.56314680025E+03  0.50400001928E-02 0. -1.
       -1    1    3    3    0  502 -0.25862919551E+03  0.99171160283E+02  0.16208016216E+03  0.32092671873E+03  0.50400001928E-02 0.  1.
</event>
<event>
 5   0  0.2276105E-02  0.5940741E+03  0.7818609E-02  0.9917777E-01
       -1   -1    0    0    0  501  0.00000000000E+00  0.00000000000E+00  0.26315844599E+03  0.26315844604E+03  0.50400001928E-02 0. -1.
        1   -1    0    0  501    0  0.00000000000E+00  0.00000000000E+00 -0.33527716041E+03  0.33527716045E+03  0.50400001928E-02 0.  1.
    10030    2    1    2    0    0  0.00000000000E+00  0.00000000000E+00 -0.72118714417E+02  0.59843560648E+03  0.59407412512E+03 0.  0.
        1    1    3    3  502    0 -0.20576055396E+03 -0.20563131717E+03  0.24459766613E+02  0.29192451828E+03  0.50400001928E-02 0. -1.
       -1    1    3    3    0  502  0.20576055396E+03  0.20563131717E+03 -0.96578481030E+02  0.30651108820E+03  0.50400001928E-02 0.  1.
</event>
<event>
 5   0  0.3934634E-02  0.6024653E+03  0.7818609E-02  0.9900304E-01
        2   -1    0    0  501    0  0.00000000000E+00  0.00000000000E+00  0.23360811638E+03  0.23360811640E+03  0.25500000920E-02 0.  1.
       -2   -1    0    0    0  501  0.00000000000E+00  0.00000000000E+00 -0.38843304621E+03  0.38843304622E+03  0.25500000920E-02 0. -1.
    10030    2    1    2    0    0  0.00000000000E+00  0.00000000000E+00 -0.15482492983E+03  0.62204116262E+03  0.60246530945E+03 0.  0.
        1    1    3    3  502    0 -0.15044654300E+03 -0.25356484226E+03 -0.14115851983E+03  0.32688686006E+03  0.50400001928E-02 0.  1.
       -1    1    3    3    0  502  0.15044654300E+03  0.25356484226E+03 -0.13666409997E+02  0.29515430256E+03  0.50400001928E-02 0. -1.
</event>
<event>
 5   0  0.3934634E-02  0.5987040E+03  0.7818609E-02  0.9908098E-01
        2   -1    0    0  501    0  0.00000000000E+00  0.00000000000E+00  0.32624726614E+03  0.32624726615E+03  0.25500000920E-02 0.  1.
       -2   -1    0    0    0  501  0.00000000000E+00  0.00000000000E+00 -0.27467394218E+03  0.27467394219E+03  0.25500000920E-02 0. -1.
    10030    2    1    2    0    0  0.00000000000E+00  0.00000000000E+00  0.51573323954E+02  0.60092120834E+03  0.59870400942E+03 0.  0.
        1    1    3    3  502    0 -0.51546588582E+02 -0.21640303143E+02  0.32096123714E+03  0.32579359921E+03  0.50400001928E-02 0.  1.
       -1    1    3    3    0  502  0.51546588582E+02  0.21640303143E+02 -0.26938791318E+03  0.27512760914E+03  0.50400001928E-02 0. -1.
</event>
<event>
 5   0  0.3737642E-02  0.5935419E+03  0.7818609E-02  0.9918896E-01
        2   -1    0    0  501    0  0.00000000000E+00  0.00000000000E+00  0.73163413286E+03  0.73163413287E+03  0.25500000920E-02 0.  1.
       -2   -1    0    0    0  501  0.00000000000E+00  0.00000000000E+00 -0.12037845732E+03  0.12037845735E+03  0.25500000920E-02 0. -1.
    10030    2    1    2    0    0  0.00000000000E+00  0.00000000000E+00  0.61125567554E+03  0.85201259021E+03  0.59354187131E+03 0.  0.
        5    1    3    3  502    0  0.43941281519E+02  0.20285575119E+03  0.61003452808E+03  0.64439545891E+03  0.46999998093E+01 0.  1.
       -5    1    3    3    0  502 -0.43941281519E+02 -0.20285575119E+03  0.12211474665E+01  0.20761713131E+03  0.46999998093E+01 0. -1.
</event>
<event>
 5   0  0.3832191E-02  0.6008230E+03  0.7818609E-02  0.9903700E-01
        2   -1    0    0  501    0  0.00000000000E+00  0.00000000000E+00  0.86332426105E+03  0.86332426105E+03  0.25500000920E-02 0.  1.
       -2   -1    0    0    0  501  0.00000000000E+00  0.00000000000E+00 -0.10453436612E+03  0.10453436615E+03  0.25500000920E-02 0. -1.
    10030    2    1    2    0    0  0.00000000000E+00  0.00000000000E+00  0.75878989492E+03  0.96785862720E+03  0.60082295031E+03 0.  0.
        3    1    3    3  502    0  0.27392195660E+02  0.25434021405E+03  0.12567228965E+03  0.28501370398E+03  0.10100000352E+00 0. -1.
       -3    1    3    3    0  502 -0.27392195660E+02 -0.25434021405E+03  0.63311760528E+03  0.68284492323E+03  0.10100000352E+00 0.  1.
</event>
<event>
 5   0  0.2225808E-02  0.5943743E+03  0.7818609E-02  0.9917147E-01
       -1   -1    0    0    0  501  0.00000000000E+00  0.00000000000E+00  0.22620353333E+03  0.22620353339E+03  0.50400001928E-02 0. -1.
        1   -1    0    0  501    0  0.00000000000E+00  0.00000000000E+00 -0.39044566208E+03  0.39044566211E+03  0.50400001928E-02 0.  1.
    10030    2    1    2    0    0  0.00000000000E+00  0.00000000000E+00 -0.16424212875E+03  0.61664919550E+03  0.59437425369E+03 0.  0.
        2    1    3    3  502    0  0.20332988624E+02  0.15764938260E+03  0.17839381838E+03  0.23893746609E+03  0.25500000920E-02 0. -1.
       -2    1    3    3    0  502 -0.20332988624E+02 -0.15764938260E+03 -0.34263594713E+03  0.37771172941E+03  0.25500000920E-02 0.  1.
</event>
<event>
 5   0  0.2295179E-02  0.5942501E+03  0.7818609E-02  0.9917408E-01
        1   -1    0    0  501    0  0.00000000000E+00  0.00000000000E+00  0.12833697394E+04  0.12833697394E+04  0.50400001928E-02 0.  1.
       -1   -1    0    0    0  501  0.00000000000E+00  0.00000000000E+00 -0.68790221469E+02  0.68790221654E+02  0.50400001928E-02 0. -1.
    10030    2    1    2    0    0  0.00000000000E+00  0.00000000000E+00  0.12145795179E+04  0.13521599611E+04  0.59425007777E+03 0.  0.
        3    1    3    3  502    0 -0.87870039917E+02 -0.49376883463E+02 -0.28701609432E+02  0.10479987176E+03  0.10100000352E+00 0. -1.
       -3    1    3    3    0  502  0.87870039917E+02  0.49376883463E+02  0.12432811274E+04  0.12473600893E+04  0.10100000352E+00 0.  1.
</event>
<event>
 5   0  0.2382531E-02  0.6033743E+03  0.7818609E-02  0.9898430E-01
        1   -1    0    0  501    0  0.00000000000E+00  0.00000000000E+00  0.43619413095E+03  0.43619413098E+03  0.50400001928E-02 0.  1.
       -1   -1    0    0    0  501  0.00000000000E+00  0.00000000000E+00 -0.20865739553E+03  0.20865739560E+03  0.50400001928E-02 0. -1.
    10030    2    1    2    0    0  0.00000000000E+00  0.00000000000E+00  0.22753673542E+03  0.64485152658E+03  0.60337428298E+03 0.  0.
        5    1    3    3  502    0 -0.72037182818E+01 -0.27722480102E+03 -0.13081724481E+02  0.27766653628E+03  0.46999998093E+01 0. -1.
       -5    1    3    3    0  502  0.72037182818E+01  0.27722480102E+03  0.24061845990E+03  0.36718499030E+03  0.46999998093E+01 0.  1.
</event>
<event>
 5   0  0.1521750E-02  0.5970144E+03  0.7818609E-02  0.9911620E-01
        3   -1    0    0  501    0  0.00000000000E+00  0.00000000000E+00  0.14399071405E+03  0.14399074947E+03  0.10100000352E+00 0.  1.
       -3   -1    0    0    0  501  0.00000000000E+00  0.00000000000E+00 -0.61883534575E+03  0.61883535399E+03  0.10100000352E+00 0. -1.
    10030    2    1    2    0    0  0.00000000000E+00  0.00000000000E+00 -0.47484463170E+03  0.76282610346E+03  0.59701443858E+03 0.  0.
        1    1    3    3  502    0 -0.39934896797E+01 -0.25759397028E+03 -0.44759747741E+02  0.26148429499E+03  0.50400001928E-02 0.  1.
       -1    1    3    3    0  502  0.39934896797E+01  0.25759397028E+03 -0.43008488396E+03  0.50134180847E+03  0.50400001928E-02 0. -1.
</event>
<event>
 5   0  0.2225808E-02  0.5974873E+03  0.7818609E-02  0.9910633E-01
       -1   -1    0    0    0  501  0.00000000000E+00  0.00000000000E+00  0.75800317209E+02  0.75800317377E+02  0.50400001928E-02 0. -1.
        1   -1    0    0  501    0  0.00000000000E+00  0.00000000000E+00 -0.11774063854E+04  0.11774063854E+04  0.50400001928E-02 0.  1.
    10030    2    1    2    0    0  0.00000000000E+00  0.00000000000E+00 -0.11016060682E+04  0.12532067028E+04  0.59748733078E+03 0.  0.
        2    1    3    3  502    0  0.16609988103E+03 -0.95716262044E+01 -0.30366264126E+02  0.16912390875E+03  0.25500000920E-02 0. -1.
       -2    1    3    3    0  502 -0.16609988103E+03  0.95716262044E+01 -0.10712398041E+04  0.10840827940E+04  0.25500000920E-02 0.  1.
</event>
<event>
 5   0  0.2276105E-02  0.6018436E+03  0.7818609E-02  0.9901588E-01
       -1   -1    0    0    0  501  0.00000000000E+00  0.00000000000E+00  0.98636775410E+02  0.98636775538E+02  0.50400001928E-02 0. -1.
        1   -1    0    0  501    0  0.00000000000E+00  0.00000000000E+00 -0.91805451653E+03  0.91805451654E+03  0.50400001928E-02 0.  1.
    10030    2    1    2    0    0  0.00000000000E+00  0.00000000000E+00 -0.81941774112E+03  0.10166912921E+04  0.60184362498E+03 0.  0.
        1    1    3    3  502    0 -0.47862381039E+02 -0.13693973950E+03  0.35671502592E+02  0.14938459056E+03  0.50400001928E-02 0. -1.
       -1    1    3    3    0  502  0.47862381039E+02  0.13693973950E+03 -0.85508924371E+03  0.86730670152E+03  0.50400001928E-02 0.  1.
</event>
<event>
 5   0  0.3934634E-02  0.6001457E+03  0.7818609E-02  0.9905104E-01
       -2   -1    0    0    0  501  0.00000000000E+00  0.00000000000E+00  0.18010471727E+03  0.18010471728E+03  0.25500000920E-02 0. -1.
        2   -1    0    0  501    0  0.00000000000E+00  0.00000000000E+00 -0.49995197971E+03  0.49995197971E+03  0.25500000920E-02 0.  1.
    10030    2    1    2    0    0  0.00000000000E+00  0.00000000000E+00 -0.31984726244E+03  0.68005669700E+03  0.60014568218E+03 0.  0.
        1    1    3    3  502    0 -0.27352951472E+03 -0.72492443393E+02 -0.46777553531E+02  0.28681298666E+03  0.50400001928E-02 0. -1.
       -1    1    3    3    0  502  0.27352951472E+03  0.72492443393E+02 -0.27306970891E+03  0.39324371034E+03  0.50400001928E-02 0.  1.
</event>
<event>
 5   0  0.2295179E-02  0.5989628E+03  0.7818609E-02  0.9907560E-01
        1   -1    0    0  501    0  0.00000000000E+00  0.00000000000E+00  0.71567018383E+03  0.71567018384E+03  0.50400001928E-02 0.  1.
       -1   -1    0    0    0  501  0.00000000000E+00  0.00000000000E+00 -0.12532185565E+03  0.12532185575E+03  0.50400001928E-02 0. -1.
    10030    2    1    2    0    0  0.00000000000E+00  0.00000000000E+00  0.59034832817E+03  0.84099203960E+03  0.59896282196E+03 0.  0.
        3    1    3    3  502    0 -0.82695090752E+02  0.22406680060E+03  0.41487093166E+02  0.24241616750E+03  0.10100000352E+00 0. -1.
       -3    1    3    3    0  502  0.82695090752E+02 -0.22406680060E+03  0.54886123501E+03  0.59857587210E+03  0.10100000352E+00 0.  1.
</event>
<event>
 5   0  0.3798925E-02  0.6079578E+03  0.7818609E-02  0.9889032E-01
        2   -1    0    0  501    0  0.00000000000E+00  0.00000000000E+00  0.87364174388E+03  0.87364174388E+03  0.25500000920E-02 0.  1.
       -2   -1    0    0    0  501  0.00000000000E+00  0.00000000000E+00 -0.10576780577E+03  0.10576780580E+03  0.25500000920E-02 0. -1.
    10030    2    1    2    0    0  0.00000000000E+00  0.00000000000E+00  0.76787393810E+03  0.97940954968E+03  0.60795779557E+03 0.  0.
        2    1    3    3  502    0  0.16228337874E+02 -0.14011909690E+03 -0.49852718938E+02  0.14960619593E+03  0.25500000920E-02 0. -1.
       -2    1    3    3    0  502 -0.16228337874E+02  0.14011909690E+03  0.81772665704E+03  0.82980335376E+03  0.25500000920E-02 0.  1.
</event>
<event>
 5   0  0.2382531E-02  0.5965146E+03  0.7818609E-02  0.9912664E-01
       -1   -1    0    0    0  501  0.00000000000E+00  0.00000000000E+00  0.32262880127E+03  0.32262880131E+03  0.50400001928E-02 0. -1.
        1   -1    0    0  501    0  0.00000000000E+00  0.00000000000E+00 -0.27572682508E+03  0.27572682513E+03  0.50400001928E-02 0.  1.
    10030    2    1    2    0    0  0.00000000000E+00  0.00000000000E+00  0.46901976191E+02  0.59835562644E+03  0.59651459355E+03 0.  0.
        5    1    3    3  502    0 -0.10380153348E+03  0.27754282554E+03 -0.10276388573E+02  0.29653410010E+03  0.46999998093E+01 0. -1.
       -5    1    3    3    0  502  0.10380153348E+03 -0.27754282554E+03  0.57178364764E+02  0.30182152634E+03  0.46999998093E+01 0.  1.
</event>
<event>
 5   0  0.3724066E-02  0.6042915E+03  0.7818609E-02  0.9896542E-01
       -2   -1    0    0    0  501  0.00000000000E+00  0.00000000000E+00  0.12003951277E+03  0.12003951280E+03  0.25500000920E-02 0. -1.
        2   -1    0    0  501    0  0.00000000000E+00  0.00000000000E+00 -0.76051664767E+03  0.76051664767E+03  0.25500000920E-02 0.  1.
    10030    2    1    2    0    0  0.00000000000E+00  0.00000000000E+00 -0.64047713490E+03  0.88055616047E+03  0.60429147886E+03 0.  0.
        4    1    3    3  502    0  0.77620827716E+02  0.93008387013E+02  0.83097591445E+02  0.14690941275E+03  0.12699999809E+01 0. -1.
       -4    1    3    3    0  502 -0.77620827716E+02 -0.93008387013E+02 -0.72357472634E+03  0.73364674773E+03  0.12699999809E+01 0.  1.
</event>
<event>
 5   0  0.3934634E-02  0.6007958E+03  0.7818609E-02  0.9903756E-01
        2   -1    0    0  501    0  0.00000000000E+00  0.00000000000E+00  0.38141001270E+03  0.38141001271E+03  0.25500000920E-02 0.  1.
       -2   -1    0    0    0  501  0.00000000000E+00  0.00000000000E+00 -0.23659288541E+03  0.23659288543E+03  0.25500000920E-02 0. -1.
    10030    2    1    2    0    0  0.00000000000E+00  0.00000000000E+00  0.14481712728E+03  0.61800289813E+03  0.60079579038E+03 0.  0.
        1    1    3    3  502    0 -0.27934507705E+03  0.10140103495E+03  0.11751715945E+03  0.31957178341E+03  0.50400001928E-02 0. -1.
       -1    1    3    3    0  502  0.27934507705E+03 -0.10140103495E+03  0.27299967837E+02  0.29843111472E+03  0.50400001928E-02 0.  1.
</event>
<event>
 5   0  0.3934634E-02  0.6010994E+03  0.7818609E-02  0.9903128E-01
       -2   -1    0    0    0  501  0.00000000000E+00  0.00000000000E+00  0.85337529827E+02  0.85337529865E+02  0.25500000920E-02 0.  1.
        2   -1    0    0  501    0  0.00000000000E+00  0.00000000000E+00 -0.10585042067E+04  0.10585042067E+04  0.25500000920E-02 0. -1.
    10030    2    1    2    0    0  0.00000000000E+00  0.00000000000E+00 -0.97316667683E+03  0.11438417365E+04  0.60109944046E+03 0.  0.
        1    1    3    3  502    0 -0.23904260294E+03 -0.15580964108E+03 -0.30694036847E+03  0.41908280816E+03  0.50400001928E-02 0.  1.
       -1    1    3    3    0  502  0.23904260294E+03  0.15580964108E+03 -0.66622630836E+03  0.72475892837E+03  0.50400001928E-02 0. -1.
</event>
<event>
 5   0  0.2225808E-02  0.6179214E+03  0.7818609E-02  0.9868907E-01
       -1   -1    0    0    0  501  0.00000000000E+00  0.00000000000E+00  0.14437952192E+03  0.14437952201E+03  0.50400001928E-02 0.  1.
        1   -1    0    0  501    0  0.00000000000E+00  0.00000000000E+00 -0.66115143123E+03  0.66115143124E+03  0.50400001928E-02 0. -1.
    10030    2    1    2    0    0  0.00000000000E+00  0.00000000000E+00 -0.51677190930E+03  0.80553095326E+03  0.61792144356E+03 0.  0.
        2    1    3    3  502    0 -0.28943658123E+03 -0.22016384205E+02 -0.12043384440E+03  0.31426512153E+03  0.25500000920E-02 0.  1.
       -2    1    3    3    0  502  0.28943658123E+03  0.22016384205E+02 -0.39633806490E+03  0.49126583172E+03  0.25500000920E-02 0. -1.
</event>
<event>
 5   0  0.3724066E-02  0.5889092E+03  0.7818609E-02  0.9928687E-01
       -2   -1    0    0    0  501  0.00000000000E+00  0.00000000000E+00  0.87508804695E+02  0.87508804732E+02  0.25500000920E-02 0.  1.
        2   -1    0    0  501    0  0.00000000000E+00  0.00000000000E+00 -0.99079767041E+03  0.99079767041E+03  0.25500000920E-02 0. -1.
    10030    2    1    2    0    0  0.00000000000E+00  0.00000000000E+00 -0.90328886571E+03  0.10783064751E+04  0.58890922850E+03 0.  0.
        4    1    3    3  502    0 -0.12920937543E+02  0.25309498880E+03 -0.17712597153E+03  0.30919127846E+03  0.12699999809E+01 0.  1.
       -4    1    3    3    0  502  0.12920937543E+02 -0.25309498880E+03 -0.72616289418E+03  0.76911519668E+03  0.12699999809E+01 0. -1.
</event>
<event>
 5   0  0.3724066E-02  0.5993158E+03  0.7818609E-02  0.9906827E-01
        2   -1    0    0  501    0  0.00000000000E+00  0.00000000000E+00  0.49628728554E+03  0.49628728555E+03  0.25500000920E-02 0.  1.
       -2   -1    0    0    0  501  0.00000000000E+00  0.00000000000E+00 -0.18093319747E+03  0.18093319749E+03  0.25500000920E-02 0. -1.
    10030    2    1    2    0    0  0.00000000000E+00  0.00000000000E+00  0.31535408807E+03  0.67722048304E+03  0.59931576133E+03 0.  0.
        4    1    3    3  502    0  0.15132259598E+03  0.22524383575E+03  0.14030899168E+02  0.27172006298E+03  0.12699999809E+01 0. -1.
       -4    1    3    3    0  502 -0.15132259598E+03 -0.22524383575E+03  0.30132318890E+03  0.40550042005E+03  0.12699999809E+01 0.  1.
</event>
<event>
 5   0  0.1521750E-02  0.6058768E+03  0.7818609E-02  0.9893288E-01
       -4   -1    0    0    0  501  0.00000000000E+00  0.00000000000E+00  0.23729185209E+03  0.23729525062E+03  0.12699999809E+01 0.  1.
        4   -1    0    0  501    0  0.00000000000E+00  0.00000000000E+00 -0.38673879678E+03  0.38674088203E+03  0.12699999809E+01 0. -1.
    10030    2    1    2    0    0  0.00000000000E+00  0.00000000000E+00 -0.14944694470E+03  0.62403613265E+03  0.60587680726E+03 0.  0.
        1    1    3    3  502    0  0.26938135484E+03  0.13269370188E+03 -0.33553654994E+02  0.30215853561E+03  0.50400001928E-02 0.  1.
       -1    1    3    3    0  502 -0.26938135484E+03 -0.13269370188E+03 -0.11589328970E+03  0.32187759704E+03  0.50400001928E-02 0. -1.
</event>
<event>
 5   0  0.3934634E-02  0.6015826E+03  0.7818609E-02  0.9902128E-01
       -2   -1    0    0    0  501  0.00000000000E+00  0.00000000000E+00  0.14346676073E+03  0.14346676076E+03  0.25500000920E-02 0. -1.
        2   -1    0    0  501    0  0.00000000000E+00  0.00000000000E+00 -0.63063662383E+03  0.63063662384E+03  0.25500000920E-02 0.  1.
    10030    2    1    2    0    0  0.00000000000E+00  0.00000000000E+00 -0.48716986310E+03  0.77410338459E+03  0.60158255837E+03 0.  0.
        1    1    3    3  502    0  0.10374188028E+03  0.16790526805E+03  0.48490605758E+02  0.20323851908E+03  0.50400001928E-02 0. -1.
       -1    1    3    3    0  502 -0.10374188028E+03 -0.16790526805E+03 -0.53566046885E+03  0.57086486552E+03  0.50400001928E-02 0.  1.
</event>
<event>
 5   0  0.2295179E-02  0.5989063E+03  0.7818609E-02  0.9907678E-01
       -1   -1    0    0    0  501  0.00000000000E+00  0.00000000000E+00  0.94561738425E+02  0.94561738560E+02  0.50400001928E-02 0. -1.
        1   -1    0    0  501    0  0.00000000000E+00  0.00000000000E+00 -0.94829261046E+03  0.94829261048E+03  0.50400001928E-02 0.  1.
    10030    2    1    2    0    0  0.00000000000E+00  0.00000000000E+00 -0.85373087204E+03  0.10428543490E+04  0.59890632943E+03 0.  0.
        3    1    3    3  502    0 -0.32817315143E+02 -0.30302352190E+02  0.88728192944E+02  0.99337360271E+02  0.10100000352E+00 0. -1.
       -3    1    3    3    0  502  0.32817315143E+02  0.30302352190E+02 -0.94245906498E+03  0.94351698876E+03  0.10100000352E+00 0.  1.
</event>
<event>
 5   0  0.2382531E-02  0.6174027E+03  0.7818609E-02  0.9869945E-01
       -1   -1    0    0    0  501  0.00000000000E+00  0.00000000000E+00  0.63038701387E+03  0.63038701389E+03  0.50400001928E-02 0.  1.
        1   -1    0    0  501    0  0.00000000000E+00  0.00000000000E+00 -0.15117145788E+03  0.15117145796E+03  0.50400001928E-02 0. -1.
    10030    2    1    2    0    0  0.00000000000E+00  0.00000000000E+00  0.47921555600E+03  0.78155847185E+03  0.61740270150E+03 0.  0.
        5    1    3    3  502    0  0.26384826936E+03 -0.60295825176E+02  0.42746616085E+03  0.50596531941E+03  0.46999998093E+01 0. -1.
       -5    1    3    3    0  502 -0.26384826936E+03  0.60295825176E+02  0.51749395144E+02  0.27559315244E+03  0.46999998093E+01 0.  1.
</event>
<event>
 5   0  0.2295179E-02  0.6129232E+03  0.7818609E-02  0.9878951E-01
       -1   -1    0    0    0  501  0.00000000000E+00  0.00000000000E+00  0.22888917012E+03  0.22888917017E+03  0.50400001928E-02 0.  1.
        1   -1    0    0  501    0  0.00000000000E+00  0.00000000000E+00 -0.41032399347E+03  0.41032399350E+03  0.50400001928E-02 0. -1.
    10030    2    1    2    0    0  0.00000000000E+00  0.00000000000E+00 -0.18143482336E+03  0.63921316368E+03  0.61292321990E+03 0.  0.
        3    1    3    3  502    0  0.22609654986E+03 -0.20247306768E+03 -0.46425582571E+02  0.30703475033E+03  0.10100000352E+00 0.  1.
       -3    1    3    3    0  502 -0.22609654986E+03  0.20247306768E+03 -0.13500924078E+03  0.33217841334E+03  0.10100000352E+00 0. -1.
</event>
<event>
 5   0  0.1521750E-02  0.5967982E+03  0.7818609E-02  0.9912071E-01
       -4   -1    0    0    0  501  0.00000000000E+00  0.00000000000E+00  0.29372669726E+03  0.29372944282E+03  0.12699999809E+01 0.  1.
        4   -1    0    0  501    0  0.00000000000E+00  0.00000000000E+00 -0.30314037363E+03  0.30314303394E+03  0.12699999809E+01 0. -1.
    10030    2    1    2    0    0  0.00000000000E+00  0.00000000000E+00 -0.94136763724E+01  0.59687247676E+03  0.59679823744E+03 0.  0.
        5    1    3    3  502    0  0.29238532468E+03  0.58635086492E+02  0.49220589164E+01  0.29828437458E+03  0.46999998093E+01 0. -1.
       -5    1    3    3    0  502 -0.29238532468E+03 -0.58635086492E+02 -0.14335735289E+02  0.29858810218E+03  0.46999998093E+01 0.  1.
</event>
<event>
 5   0  0.3832191E-02  0.6007042E+03  0.7818609E-02  0.9903946E-01
       -2   -1    0    0    0  501  0.00000000000E+00  0.00000000000E+00  0.40029921712E+02  0.40029921793E+02  0.25500000920E-02 0.  1.
        2   -1    0    0  501    0  0.00000000000E+00  0.00000000000E+00 -0.22535988612E+04  0.22535988612E+04  0.25500000920E-02 0. -1.
    10030    2    1    2    0    0  0.00000000000E+00  0.00000000000E+00 -0.22135689395E+04  0.22936287830E+04  0.60070420700E+03 0.  0.
        3    1    3    3  502    0  0.28101385485E+03 -0.10569039360E+03 -0.11392124803E+04  0.11781104920E+04  0.10100000352E+00 0. -1.
       -3    1    3    3    0  502 -0.28101385485E+03  0.10569039360E+03 -0.10743564592E+04  0.11155182910E+04  0.10100000352E+00 0.  1.
</event>
<event>
 5   0  0.3737642E-02  0.5888357E+03  0.7818609E-02  0.9928843E-01
       -2   -1    0    0    0  501  0.00000000000E+00  0.00000000000E+00  0.92528597987E+02  0.92528598023E+02  0.25500000920E-02 0.  1.
        2   -1    0    0  501    0  0.00000000000E+00  0.00000000000E+00 -0.93681166215E+03  0.93681166215E+03  0.25500000920E-02 0. -1.
    10030    2    1    2    0    0  0.00000000000E+00  0.00000000000E+00 -0.84428306416E+03  0.10293402602E+04  0.58883569762E+03 0.  0.
        5    1    3    3  502    0 -0.15914744621E+02  0.93674718356E+02  0.64920135185E+02  0.11517354690E+03  0.46999998093E+01 0.  1.
       -5    1    3    3    0  502  0.15914744621E+02 -0.93674718356E+02 -0.90920319935E+03  0.91416671327E+03  0.46999998093E+01 0. -1.
</event>
<event>
 5   0  0.3798925E-02  0.6033893E+03  0.7818609E-02  0.9898399E-01
       -2   -1    0    0    0  501  0.00000000000E+00  0.00000000000E+00  0.95701749812E+02  0.95701749846E+02  0.25500000920E-02 0. -1.
        2   -1    0    0  501    0  0.00000000000E+00  0.00000000000E+00 -0.95107623990E+03  0.95107623990E+03  0.25500000920E-02 0.  1.
    10030    2    1    2    0    0  0.00000000000E+00  0.00000000000E+00 -0.85537449009E+03  0.10467779897E+04  0.60338929517E+03 0.  0.
        2    1    3    3  502    0  0.11584961654E+03 -0.40330341546E+02  0.50484305115E+02  0.13265117855E+03  0.25500000920E-02 0. -1.
       -2    1    3    3    0  502 -0.11584961654E+03  0.40330341546E+02 -0.90585879520E+03  0.91412681120E+03  0.25500000920E-02 0.  1.
</event>
<event>
 5   0  0.2225808E-02  0.5907570E+03  0.7818609E-02  0.9924770E-01
        1   -1    0    0  501    0  0.00000000000E+00  0.00000000000E+00  0.60815327828E+03  0.60815327830E+03  0.50400001928E-02 0. -1.
       -1   -1    0    0    0  501  0.00000000000E+00  0.00000000000E+00 -0.14346456948E+03  0.14346456957E+03  0.50400001928E-02 0.  1.
    10030    2    1    2    0    0  0.00000000000E+00  0.00000000000E+00  0.46468870880E+03  0.75161784787E+03  0.59075696624E+03 0.  0.
        2    1    3    3  502    0 -0.20321772670E+01 -0.21208836929E+03 -0.29213389464E+02  0.21410050973E+03  0.25500000920E-02 0.  1.
       -2    1    3    3    0  502  0.20321772670E+01  0.21208836929E+03  0.49390209826E+03  0.53751733815E+03  0.25500000920E-02 0. -1.
</event>
<event>
 5   0  0.3934634E-02  0.5990693E+03  0.7818609E-02  0.9907339E-01
       -2   -1    0    0    0  501  0.00000000000E+00  0.00000000000E+00  0.11234482273E+03  0.11234482276E+03  0.25500000920E-02 0. -1.
        2   -1    0    0  501    0  0.00000000000E+00  0.00000000000E+00 -0.79862151887E+03  0.79862151887E+03  0.25500000920E-02 0.  1.
    10030    2    1    2    0    0  0.00000000000E+00  0.00000000000E+00 -0.68627669613E+03  0.91096634163E+03  0.59906925470E+03 0.  0.
        1    1    3    3  502    0  0.23846940311E+03  0.12358151630E+03 -0.14151240385E+03  0.30358822089E+03  0.50400001928E-02 0. -1.
       -1    1    3    3    0  502 -0.23846940311E+03 -0.12358151630E+03 -0.54476429228E+03  0.60737812074E+03  0.50400001928E-02 0.  1.
</event>
<event>
 5   0  0.2382531E-02  0.6010399E+03  0.7818609E-02  0.9903251E-01
        1   -1    0    0  501    0  0.00000000000E+00  0.00000000000E+00  0.60738333654E+02  0.60738333863E+02  0.50400001928E-02 0. -1.
       -1   -1    0    0    0  501  0.00000000000E+00  0.00000000000E+00 -0.14869068382E+04  0.14869068382E+04  0.50400001928E-02 0.  1.
    10030    2    1    2    0    0  0.00000000000E+00  0.00000000000E+00 -0.14261685046E+04  0.15476451721E+04  0.60103991156E+03 0.  0.
        5    1    3    3  502    0  0.26824066862E+03  0.39314905488E+02 -0.10467502877E+04  0.10812987436E+04  0.46999998093E+01 0. -1.
       -5    1    3    3    0  502 -0.26824066862E+03 -0.39314905488E+02 -0.37941821690E+03  0.46634642854E+03  0.46999998093E+01 0.  1.
</event>
<event>
 5   0  0.1521750E-02  0.5981543E+03  0.7818609E-02  0.9909243E-01
       -4   -1    0    0    0  501  0.00000000000E+00  0.00000000000E+00  0.12791798213E+03  0.12792428641E+03  0.12699999809E+01 0. -1.
        4   -1    0    0  501    0  0.00000000000E+00  0.00000000000E+00 -0.69922966210E+03  0.69923081544E+03  0.12699999809E+01 0.  1.
    10030    2    1    2    0    0  0.00000000000E+00  0.00000000000E+00 -0.57131167996E+03  0.82715510184E+03  0.59815426676E+03 0.  0.
        4    1    3    3  502    0 -0.16907337704E+03 -0.18204273507E+03 -0.51589096014E+03  0.57259973792E+03  0.12699999809E+01 0.  1.
       -4    1    3    3    0  502  0.16907337704E+03  0.18204273507E+03 -0.55420719822E+02  0.25455536392E+03  0.12699999809E+01 0. -1.
</event>
<event>
 5   0  0.2276105E-02  0.5961419E+03  0.7818609E-02  0.9913443E-01
        1   -1    0    0  501    0  0.00000000000E+00  0.00000000000E+00  0.69985024866E+03  0.69985024868E+03  0.50400001928E-02 0. -1.
       -1   -1    0    0    0  501  0.00000000000E+00  0.00000000000E+00 -0.12695041062E+03  0.12695041072E+03  0.50400001928E-02 0.  1.
    10030    2    1    2    0    0  0.00000000000E+00  0.00000000000E+00  0.57289983804E+03  0.82680065940E+03  0.59614185054E+03 0.  0.
        1    1    3    3  502    0  0.19497170889E+03 -0.59379474185E+02 -0.15205474093E+02  0.20437978298E+03  0.50400001928E-02 0.  1.
       -1    1    3    3    0  502 -0.19497170889E+03  0.59379474185E+02  0.58810531213E+03  0.62242087642E+03  0.50400001928E-02 0. -1.
</event>
<event>
 5   0  0.1521750E-02  0.5893480E+03  0.7818609E-02  0.9927755E-01
       -3   -1    0    0    0  501  0.00000000000E+00  0.00000000000E+00  0.94237499808E+03  0.94237500349E+03  0.10100000352E+00 0. -1.
        3   -1    0    0  501    0  0.00000000000E+00  0.00000000000E+00 -0.92142439809E+02  0.92142495164E+02  0.10100000352E+00 0.  1.
    10030    2    1    2    0    0  0.00000000000E+00  0.00000000000E+00  0.85023255827E+03  0.10345174987E+04  0.58934798878E+03 0.  0.
        1    1    3    3  502    0  0.46987596860E+02 -0.23572407969E+03  0.72434757779E+03  0.76318614340E+03  0.50400001928E-02 0. -1.
       -1    1    3    3    0  502 -0.46987596860E+02  0.23572407969E+03  0.12588498047E+03  0.27133135525E+03  0.50400001928E-02 0.  1.
</event>
<event>
 5   0  0.2295179E-02  0.6022013E+03  0.7818609E-02  0.9900850E-01
       -1   -1    0    0    0  501  0.00000000000E+00  0.00000000000E+00  0.77061518057E+02  0.77061518222E+02  0.50400001928E-02 0. -1.
        1   -1    0    0  501    0  0.00000000000E+00  0.00000000000E+00 -0.11764834030E+04  0.11764834030E+04  0.50400001928E-02 0.  1.
    10030    2    1    2    0    0  0.00000000000E+00  0.00000000000E+00 -0.10994218849E+04  0.12535449212E+04  0.60220128566E+03 0.  0.
        3    1    3    3  502    0  0.24019511371E+03  0.13141431846E+02 -0.17274393192E+03  0.29615345026E+03  0.10100000352E+00 0.  1.
       -3    1    3    3    0  502 -0.24019511371E+03 -0.13141431846E+02 -0.92667795299E+03  0.95739147095E+03  0.10100000352E+00 0. -1.
</event>
<event>
 5   0  0.2225808E-02  0.6011265E+03  0.7818609E-02  0.9903072E-01
        1   -1    0    0  501    0  0.00000000000E+00  0.00000000000E+00  0.91765114063E+03  0.91765114064E+03  0.50400001928E-02 0.  1.
       -1   -1    0    0    0  501  0.00000000000E+00  0.00000000000E+00 -0.98445106208E+02  0.98445106337E+02  0.50400001928E-02 0. -1.
    10030    2    1    2    0    0  0.00000000000E+00  0.00000000000E+00  0.81920603442E+03  0.10160962470E+04  0.60112648943E+03 0.  0.
        2    1    3    3  502    0 -0.11193417878E+03  0.12507040511E+01  0.88110067836E+03  0.88818310616E+03  0.25500000920E-02 0.  1.
       -2    1    3    3    0  502  0.11193417878E+03 -0.12507040511E+01 -0.61894643947E+02  0.12791314082E+03  0.25500000920E-02 0. -1.
</event>
<event>
 5   0  0.2295179E-02  0.5998547E+03  0.7818609E-02  0.9905707E-01
        1   -1    0    0  501    0  0.00000000000E+00  0.00000000000E+00  0.18967282184E+03  0.18967282191E+03  0.50400001928E-02 0.  1.
       -1   -1    0    0    0  501  0.00000000000E+00  0.00000000000E+00 -0.47427157390E+03  0.47427157393E+03  0.50400001928E-02 0. -1.
    10030    2    1    2    0    0  0.00000000000E+00  0.00000000000E+00 -0.28459875206E+03  0.66394439583E+03  0.59985474165E+03 0.  0.
        3    1    3    3  502    0  0.69949799178E+02  0.91969405837E+01  0.18035760225E+03  0.19366577657E+03  0.10100000352E+00 0.  1.
       -3    1    3    3    0  502 -0.69949799178E+02 -0.91969405837E+01 -0.46495635431E+03  0.47027861927E+03  0.10100000352E+00 0. -1.
</event>
<event>
 5   0  0.2309055E-02  0.6051577E+03  0.7818609E-02  0.9894763E-01
        1   -1    0    0  501    0  0.00000000000E+00  0.00000000000E+00  0.11490219488E+03  0.11490219499E+03  0.50400001928E-02 0.  1.
       -1   -1    0    0    0  501  0.00000000000E+00  0.00000000000E+00 -0.79679915233E+03  0.79679915234E+03  0.50400001928E-02 0. -1.
    10030    2    1    2    0    0  0.00000000000E+00  0.00000000000E+00 -0.68189695745E+03  0.91170134734E+03  0.60515773659E+03 0.  0.
        4    1    3    3  502    0 -0.21011772135E+03 -0.19438170823E+03 -0.19319383376E+03  0.34533921820E+03  0.12699999809E+01 0. -1.
       -4    1    3    3    0  502  0.21011772135E+03  0.19438170823E+03 -0.48870312369E+03  0.56636212914E+03  0.12699999809E+01 0.  1.
</event>
<event>
 5   0  0.1521750E-02  0.5984227E+03  0.7818609E-02  0.9908684E-01
       -4   -1    0    0    0  501  0.00000000000E+00  0.00000000000E+00  0.32984767781E+03  0.32985012271E+03  0.12699999809E+01 0. -1.
        4   -1    0    0  501    0  0.00000000000E+00  0.00000000000E+00 -0.27141559746E+03  0.27141856871E+03  0.12699999809E+01 0.  1.
    10030    2    1    2    0    0  0.00000000000E+00  0.00000000000E+00  0.58432080349E+02  0.60126869143E+03  0.59842270284E+03 0.  0.
        5    1    3    3  502    0  0.11589912664E+03 -0.21400761121E+03 -0.14560418903E+03  0.28364508646E+03  0.46999998093E+01 0.  1.
       -5    1    3    3    0  502 -0.11589912664E+03  0.21400761121E+03  0.20403626938E+03  0.31762360497E+03  0.46999998093E+01 0. -1.
</event>
<event>
 5   0  0.3798925E-02  0.5989720E+03  0.7818609E-02  0.9907541E-01
        2   -1    0    0  501    0  0.00000000000E+00  0.00000000000E+00  0.96738768089E+02  0.96738768123E+02  0.25500000920E-02 0. -1.
       -2   -1    0    0    0  501  0.00000000000E+00  0.00000000000E+00 -0.92715546559E+03  0.92715546559E+03  0.25500000920E-02 0.  1.
    10030    2    1    2    0    0  0.00000000000E+00  0.00000000000E+00 -0.83041669750E+03  0.10238942337E+04  0.59897204472E+03 0.  0.
        2    1    3    3  502    0  0.25735573029E+03  0.10794982315E+03 -0.60095182464E+03  0.66259205532E+03  0.25500000920E-02 0.  1.
       -2    1    3    3    0  502 -0.25735573029E+03 -0.10794982315E+03 -0.22946487286E+03  0.36130217839E+03  0.25500000920E-02 0. -1.
</event>
<event>
 5   0  0.2225808E-02  0.6071136E+03  0.7818609E-02  0.9890757E-01
       -1   -1    0    0    0  501  0.00000000000E+00  0.00000000000E+00  0.13004619423E+03  0.13004619433E+03  0.50400001928E-02 0.  1.
        1   -1    0    0  501    0  0.00000000000E+00  0.00000000000E+00 -0.70856911576E+03  0.70856911578E+03  0.50400001928E-02 0. -1.
    10030    2    1    2    0    0  0.00000000000E+00  0.00000000000E+00 -0.57852292153E+03  0.83861531011E+03  0.60711355413E+03 0.  0.
        2    1    3    3  502    0  0.16028632512E+03  0.60890915478E+02  0.56749936842E+02  0.18060998019E+03  0.25500000920E-02 0.  1.
       -2    1    3    3    0  502 -0.16028632512E+03 -0.60890915478E+02 -0.63527285837E+03  0.65800532991E+03  0.25500000920E-02 0. -1.
</event>
<event>
 5   0  0.2382531E-02  0.5957544E+03  0.7818609E-02  0.9914254E-01
       -1   -1    0    0    0  501  0.00000000000E+00  0.00000000000E+00  0.11957803651E+04  0.11957803651E+04  0.50400001928E-02 0.  1.
        1   -1    0    0  501    0  0.00000000000E+00  0.00000000000E+00 -0.74203292374E+02  0.74203292545E+02  0.50400001928E-02 0. -1.
    10030    2    1    2    0    0  0.00000000000E+00  0.00000000000E+00  0.11215770727E+04  0.12699836576E+04  0.59575444660E+03 0.  0.
        5    1    3    3  502    0  0.19791025221E+03  0.11109783737E+03  0.97192691996E+03  0.99808578046E+03  0.46999998093E+01 0.  1.
       -5    1    3    3    0  502 -0.19791025221E+03 -0.11109783737E+03  0.14965015274E+03  0.27189787717E+03  0.46999998093E+01 0. -1.
</event>
<event>
 5   0  0.2382531E-02  0.6012684E+03  0.7818609E-02  0.9902778E-01
       -1   -1    0    0    0  501  0.00000000000E+00  0.00000000000E+00  0.64090699651E+02  0.64090699849E+02  0.50400001928E-02 0.  1.
        1   -1    0    0  501    0  0.00000000000E+00  0.00000000000E+00 -0.14102034188E+04  0.14102034188E+04  0.50400001928E-02 0. -1.
    10030    2    1    2    0    0  0.00000000000E+00  0.00000000000E+00 -0.13461127191E+04  0.14742941186E+04  0.60126840566E+03 0.  0.
        5    1    3    3  502    0 -0.18822146351E+03  0.56279746009E+02 -0.12309226285E+04  0.12465100628E+04  0.46999998093E+01 0. -1.
       -5    1    3    3    0  502  0.18822146351E+03 -0.56279746009E+02 -0.11519009059E+03  0.22778405586E+03  0.46999998093E+01 0.  1.
</event>
<event>
 5   0  0.3832191E-02  0.6063771E+03  0.7818609E-02  0.9892263E-01
       -2   -1    0    0    0  501  0.00000000000E+00  0.00000000000E+00  0.11634765372E+03  0.11634765375E+03  0.25500000920E-02 0.  1.
        2   -1    0    0  501    0  0.00000000000E+00  0.00000000000E+00 -0.79007423891E+03  0.79007423891E+03  0.25500000920E-02 0. -1.
    10030    2    1    2    0    0  0.00000000000E+00  0.00000000000E+00 -0.67372658519E+03  0.90642189266E+03  0.60637705754E+03 0.  0.
        3    1    3    3  502    0 -0.21081320423E+03 -0.19478830148E+03 -0.48285547017E+03  0.56172422481E+03  0.10100000352E+00 0. -1.
       -3    1    3    3    0  502  0.21081320423E+03  0.19478830148E+03 -0.19087111502E+03  0.34469766785E+03  0.10100000352E+00 0.  1.
</event>
<event>
 5   0  0.3832191E-02  0.6008785E+03  0.7818609E-02  0.9903585E-01
        2   -1    0    0  501    0  0.00000000000E+00  0.00000000000E+00  0.19701000549E+03  0.19701000551E+03  0.25500000920E-02 0.  1.
       -2   -1    0    0    0  501  0.00000000000E+00  0.00000000000E+00 -0.45816828066E+03  0.45816828067E+03  0.25500000920E-02 0. -1.
    10030    2    1    2    0    0  0.00000000000E+00  0.00000000000E+00 -0.26115827517E+03  0.65517828618E+03  0.60087847522E+03 0.  0.
        3    1    3    3  502    0 -0.59652840579E+02 -0.24628348768E+03  0.45405304310E+02  0.25744061364E+03  0.10100000352E+00 0.  1.
       -3    1    3    3    0  502  0.59652840579E+02  0.24628348768E+03 -0.30656357948E+03  0.39773767254E+03  0.10100000352E+00 0. -1.
</event>
<event>
 5   0  0.3724066E-02  0.5967529E+03  0.7818609E-02  0.9912166E-01
        2   -1    0    0  501    0  0.00000000000E+00  0.00000000000E+00  0.13316105375E+04  0.13316105375E+04  0.25500000920E-02 0.  1.
       -2   -1    0    0    0  501  0.00000000000E+00  0.00000000000E+00 -0.66857766288E+02  0.66857766337E+02  0.25500000920E-02 0. -1.
    10030    2    1    2    0    0  0.00000000000E+00  0.00000000000E+00  0.12647527712E+04  0.13984683038E+04  0.59675290074E+03 0.  0.
        4    1    3    3  502    0  0.15054081103E+03 -0.15455580646E+03  0.14939066388E+03  0.26242945042E+03  0.12699999809E+01 0. -1.
       -4    1    3    3    0  502 -0.15054081103E+03  0.15455580646E+03  0.11153621073E+04  0.11360388534E+04  0.12699999809E+01 0.  1.
</event>
<event>
 5   0  0.3832191E-02  0.6073717E+03  0.7818609E-02  0.9890229E-01
       -2   -1    0    0    0  501  0.00000000000E+00  0.00000000000E+00  0.47943453305E+02  0.47943453373E+02  0.25500000920E-02 0. -1.
        2   -1    0    0  501    0  0.00000000000E+00  0.00000000000E+00 -0.19236222856E+04  0.19236222856E+04  0.25500000920E-02 0.  1.
    10030    2    1    2    0    0  0.00000000000E+00  0.00000000000E+00 -0.18756788322E+04  0.19715657389E+04  0.60737169935E+03 0.  0.
        3    1    3    3  502    0  0.26935591219E+03  0.24447148562E+02 -0.13861581356E+04  0.14122976519E+04  0.10100000352E+00 0. -1.
       -3    1    3    3    0  502 -0.26935591219E+03 -0.24447148562E+02 -0.48952069663E+03  0.55926808700E+03  0.10100000352E+00 0.  1.
</event>
<event>
 5   0  0.3934634E-02  0.6026832E+03  0.7818609E-02  0.9899855E-01
        2   -1    0    0  501    0  0.00000000000E+00  0.00000000000E+00  0.65872522832E+03  0.65872522833E+03  0.25500000920E-02 0. -1.
       -2   -1    0    0    0  501  0.00000000000E+00  0.00000000000E+00 -0.13785225780E+03  0.13785225782E+03  0.25500000920E-02 0.  1.
    10030    2    1    2    0    0  0.00000000000E+00  0.00000000000E+00  0.52087297053E+03  0.79657748615E+03  0.60268320037E+03 0.  0.
        1    1    3    3  502    0 -0.27819854221E+03 -0.76915800544E+02  0.14600062144E+03  0.32346043150E+03  0.50400001928E-02 0.  1.
       -1    1    3    3    0  502  0.27819854221E+03  0.76915800544E+02  0.37487234909E+03  0.47311705465E+03  0.50400001928E-02 0. -1.
</event>
<event>
 5   0  0.3737642E-02  0.5986814E+03  0.7818609E-02  0.9908146E-01
       -2   -1    0    0    0  501  0.00000000000E+00  0.00000000000E+00  0.16101066573E+03  0.16101066575E+03  0.25500000920E-02 0. -1.
        2   -1    0    0  501    0  0.00000000000E+00  0.00000000000E+00 -0.55651500711E+03  0.55651500711E+03  0.25500000920E-02 0.  1.
    10030    2    1    2    0    0  0.00000000000E+00  0.00000000000E+00 -0.39550434138E+03  0.71752567286E+03  0.59868139036E+03 0.  0.
        5    1    3    3  502    0  0.20776688386E+03  0.13997778773E+03 -0.14674576156E+01  0.25056955624E+03  0.46999998093E+01 0. -1.
       -5    1    3    3    0  502 -0.20776688386E+03 -0.13997778773E+03 -0.39403688376E+03  0.46695611662E+03  0.46999998093E+01 0.  1.
</event>
<event>
 5   0  0.3737642E-02  0.6026262E+03  0.7818609E-02  0.9899973E-01
        2   -1    0    0  501    0  0.00000000000E+00  0.00000000000E+00  0.14857455439E+04  0.14857455439E+04  0.25500000920E-02 0. -1.
       -2   -1    0    0    0  501  0.00000000000E+00  0.00000000000E+00 -0.61107083834E+02  0.61107083887E+02  0.25500000920E-02 0.  1.
    10030    2    1    2    0    0  0.00000000000E+00  0.00000000000E+00  0.14246384600E+04  0.15468526278E+04  0.60262617782E+03 0.  0.
        5    1    3    3  502    0 -0.27525133244E+03 -0.11307159272E+03  0.59140421634E+03  0.66206458763E+03  0.46999998093E+01 0.  1.
       -5    1    3    3    0  502  0.27525133244E+03  0.11307159272E+03  0.83323424370E+03  0.88478804013E+03  0.46999998093E+01 0. -1.
</event>
<event>
 5   0  0.2295179E-02  0.5956501E+03  0.7818609E-02  0.9914472E-01
       -1   -1    0    0    0  501  0.00000000000E+00  0.00000000000E+00  0.91883326224E+02  0.91883326362E+02  0.50400001928E-02 0. -1.
        1   -1    0    0  501    0  0.00000000000E+00  0.00000000000E+00 -0.96535218347E+03  0.96535218348E+03  0.50400001928E-02 0.  1.
    10030    2    1    2    0    0  0.00000000000E+00  0.00000000000E+00 -0.87346885724E+03  0.10572355098E+04  0.59565013112E+03 0.  0.
        3    1    3    3  502    0  0.17792204321E+03 -0.37900734573E+02 -0.18186313878E+02  0.18282087231E+03  0.10100000352E+00 0. -1.
       -3    1    3    3    0  502 -0.17792204321E+03  0.37900734573E+02 -0.85528254336E+03  0.87441463753E+03  0.10100000352E+00 0.  1.
</event>
<event>
 5   0  0.1521750E-02  0.5989047E+03  0.7818609E-02  0.9907681E-01
        3   -1    0    0  501    0  0.00000000000E+00  0.00000000000E+00  0.82515777418E+03  0.82515778036E+03  0.10100000352E+00 0. -1.
       -3   -1    0    0    0  501  0.00000000000E+00  0.00000000000E+00 -0.10867215438E+03  0.10867220132E+03  0.10100000352E+00 0.  1.
    10030    2    1    2    0    0  0.00000000000E+00  0.00000000000E+00  0.71648561980E+03  0.93382998168E+03  0.59890465962E+03 0.  0.
        1    1    3    3  502    0 -0.18717154043E+03  0.11025427702E+03  0.67962010295E+03  0.71349329044E+03  0.50400001928E-02 0. -1.
       -1    1    3    3    0  502  0.18717154043E+03 -0.11025427702E+03  0.36865516846E+02  0.22033669124E+03  0.50400001928E-02 0.  1.
</event>
<event>
 5   0  0.2276105E-02  0.6065051E+03  0.7818609E-02  0.9892001E-01
       -1   -1    0    0    0  501  0.00000000000E+00  0.00000000000E+00  0.58092849586E+03  0.58092849589E+03  0.50400001928E-02 0.  1.
        1   -1    0    0  501    0  0.00000000000E+00  0.00000000000E+00 -0.15830193679E+03  0.15830193687E+03  0.50400001928E-02 0. -1.
    10030    2    1    2    0    0  0.00000000000E+00  0.00000000000E+00  0.42262655908E+03  0.73923043275E+03  0.60650509006E+03 0.  0.
        1    1    3    3  502    0  0.41328551625E+00  0.27939964678E+03  0.35500044869E+03  0.45176282718E+03  0.50400001928E-02 0.  1.
       -1    1    3    3    0  502 -0.41328551625E+00 -0.27939964678E+03  0.67626110381E+02  0.28746760557E+03  0.50400001928E-02 0. -1.
</event>
<event>
 5   0  0.2295179E-02  0.5977349E+03  0.7818609E-02  0.9910117E-01
        1   -1    0    0  501    0  0.00000000000E+00  0.00000000000E+00  0.66480206524E+03  0.66480206526E+03  0.50400001928E-02 0. -1.
       -1   -1    0    0    0  501  0.00000000000E+00  0.00000000000E+00 -0.13435842688E+03  0.13435842697E+03  0.50400001928E-02 0.  1.
    10030    2    1    2    0    0  0.00000000000E+00  0.00000000000E+00  0.53044363837E+03  0.79916049223E+03  0.59773492357E+03 0.  0.
        3    1    3    3  502    0  0.12426527150E+02 -0.16507570856E+03  0.59790552073E+03  0.62039941172E+03  0.10100000352E+00 0. -1.
       -3    1    3    3    0  502 -0.12426527150E+02  0.16507570856E+03 -0.67461882368E+02  0.17876108051E+03  0.10100000352E+00 0.  1.
</event>
<event>
 5   0  0.2309055E-02  0.5985336E+03  0.7818609E-02  0.9908453E-01
       -1   -1    0    0    0  501  0.00000000000E+00  0.00000000000E+00  0.10208544984E+03  0.10208544996E+03  0.50400001928E-02 0. -1.
        1   -1    0    0  501    0  0.00000000000E+00  0.00000000000E+00 -0.87731041522E+03  0.87731041524E+03  0.50400001928E-02 0.  1.
    10030    2    1    2    0    0  0.00000000000E+00  0.00000000000E+00 -0.77522496538E+03  0.97939586520E+03  0.59853363633E+03 0.  0.
        4    1    3    3  502    0 -0.11617039424E+03  0.52594452141E+02  0.55397619391E+02  0.13904044746E+03  0.12699999809E+01 0. -1.
       -4    1    3    3    0  502  0.11617039424E+03 -0.52594452141E+02 -0.83062258478E+03  0.84035541775E+03  0.12699999809E+01 0.  1.
</event>
<event>
 5   0  0.2309055E-02  0.6169264E+03  0.7818609E-02  0.9870898E-01
       -1   -1    0    0    0  501  0.00000000000E+00  0.00000000000E+00  0.15820008036E+03  0.15820008044E+03  0.50400001928E-02 0.  1.
        1   -1    0    0  501    0  0.00000000000E+00  0.00000000000E+00 -0.60145074387E+03  0.60145074389E+03  0.50400001928E-02 0. -1.
    10030    2    1    2    0    0  0.00000000000E+00  0.00000000000E+00 -0.44325066351E+03  0.75965082432E+03  0.61692643337E+03 0.  0.
        4    1    3    3  502    0 -0.69066100738E+02 -0.29907334759E+03 -0.25923588613E+03  0.40177089375E+03  0.12699999809E+01 0. -1.
       -4    1    3    3    0  502  0.69066100738E+02  0.29907334759E+03 -0.18401477738E+03  0.35787993057E+03  0.12699999809E+01 0.  1.
</event>
<event>
 5   0  0.3724066E-02  0.5962079E+03  0.7818609E-02  0.9913305E-01
        2   -1    0    0  501    0  0.00000000000E+00  0.00000000000E+00  0.74832490927E+03  0.74832490928E+03  0.25500000920E-02 0.  1.
       -2   -1    0    0    0  501  0.00000000000E+00  0.00000000000E+00 -0.11875316478E+03  0.11875316481E+03  0.25500000920E-02 0. -1.
    10030    2    1    2    0    0  0.00000000000E+00  0.00000000000E+00  0.62957174449E+03  0.86707807408E+03  0.59620785393E+03 0.  0.
        4    1    3    3  502    0  0.29510435148E+03 -0.14815415520E+02  0.37219500294E+03  0.47522290339E+03  0.12699999809E+01 0. -1.
       -4    1    3    3    0  502 -0.29510435148E+03  0.14815415520E+02  0.25737674156E+03  0.39185517069E+03  0.12699999809E+01 0.  1.
</event>
<event>
 5   0  0.3737642E-02  0.5861305E+03  0.7818609E-02  0.9934606E-01
       -2   -1    0    0    0  501  0.00000000000E+00  0.00000000000E+00  0.58516264440E+03  0.58516264441E+03  0.25500000920E-02 0. -1.
        2   -1    0    0  501    0  0.00000000000E+00  0.00000000000E+00 -0.14677498193E+03  0.14677498195E+03  0.25500000920E-02 0.  1.
    10030    2    1    2    0    0  0.00000000000E+00  0.00000000000E+00  0.43838766248E+03  0.73193762636E+03  0.58613048570E+03 0.  0.
        5    1    3    3  502    0  0.48466563131E+02  0.19745957196E+03 -0.44309374372E+02  0.20814586461E+03  0.46999998093E+01 0.  1.
       -5    1    3    3    0  502 -0.48466563131E+02 -0.19745957196E+03  0.48269703685E+03  0.52379176175E+03  0.46999998093E+01 0. -1.
</event>
<event>
 5   0  0.2309055E-02  0.6022580E+03  0.7818609E-02  0.9900732E-01
       -1   -1    0    0    0  501  0.00000000000E+00  0.00000000000E+00  0.22023528558E+03  0.22023528564E+03  0.50400001928E-02 0. -1.
        1   -1    0    0  501    0  0.00000000000E+00  0.00000000000E+00 -0.41173549841E+03  0.41173549844E+03  0.50400001928E-02 0.  1.
    10030    2    1    2    0    0  0.00000000000E+00  0.00000000000E+00 -0.19150021283E+03  0.63197078408E+03  0.60225803474E+03 0.  0.
        4    1    3    3  502    0 -0.16949642005E+03  0.74584795444E+02 -0.34492067660E+03  0.39148922611E+03  0.12699999809E+01 0.  1.
       -4    1    3    3    0  502  0.16949642005E+03 -0.74584795444E+02  0.15342046376E+03  0.24048155796E+03  0.12699999809E+01 0. -1.
</event>
<event>
 5   0  0.3832191E-02  0.5996740E+03  0.7818609E-02  0.9906083E-01
       -2   -1    0    0    0  501  0.00000000000E+00  0.00000000000E+00  0.15091928976E+03  0.15091928978E+03  0.25500000920E-02 0. -1.
        2   -1    0    0  501    0  0.00000000000E+00  0.00000000000E+00 -0.59569738781E+03  0.59569738782E+03  0.25500000920E-02 0.  1.
    10030    2    1    2    0    0  0.00000000000E+00  0.00000000000E+00 -0.44477809805E+03  0.74661667759E+03  0.59967400040E+03 0.  0.
        3    1    3    3  502    0  0.22164815210E+03 -0.17105232823E+03 -0.35599390652E+03  0.45290007066E+03  0.10100000352E+00 0.  1.
       -3    1    3    3    0  502 -0.22164815210E+03  0.17105232823E+03 -0.88784191537E+02  0.29371660694E+03  0.10100000352E+00 0. -1.
</event>
<event>
 5   0  0.3934634E-02  0.5960205E+03  0.7818609E-02  0.9913697E-01
        2   -1    0    0  501    0  0.00000000000E+00  0.00000000000E+00  0.14596141495E+04  0.14596141495E+04  0.25500000920E-02 0. -1.
       -2   -1    0    0    0  501  0.00000000000E+00  0.00000000000E+00 -0.60844924956E+02  0.60844925010E+02  0.25500000920E-02 0.  1.
    10030    2    1    2    0    0  0.00000000000E+00  0.00000000000E+00  0.13987692245E+04  0.15204590745E+04  0.59602051452E+03 0.  0.
        1    1    3    3  502    0  0.21622097815E+03  0.20506704022E+03  0.69307836832E+03  0.75442801316E+03  0.50400001928E-02 0.  1.
       -1    1    3    3    0  502 -0.21622097815E+03 -0.20506704022E+03  0.70569085619E+03  0.76603106132E+03  0.50400001928E-02 0. -1.
</event>
<event>
 5   0  0.1521750E-02  0.5948434E+03  0.7818609E-02  0.9916163E-01
       -3   -1    0    0    0  501  0.00000000000E+00  0.00000000000E+00  0.82084239545E+02  0.82084301682E+02  0.10100000352E+00 0.  1.
        3   -1    0    0  501    0  0.00000000000E+00  0.00000000000E+00 -0.10776687246E+04  0.10776687293E+04  0.10100000352E+00 0. -1.
    10030    2    1    2    0    0  0.00000000000E+00  0.00000000000E+00 -0.99558448507E+03  0.11597530310E+04  0.59484336263E+03 0.  0.
        3    1    3    3  502    0  0.70231288331E+02  0.22704753314E+02  0.63944158546E+02  0.97656568119E+02  0.10100000352E+00 0.  1.
       -3    1    3    3    0  502 -0.70231288331E+02 -0.22704753314E+02 -0.10595286436E+04  0.10620964629E+04  0.10100000352E+00 0. -1.
</event>
<event>
 5   0  0.3798925E-02  0.5951636E+03  0.7818609E-02  0.9915491E-01
       -2   -1    0    0    0  501  0.00000000000E+00  0.00000000000E+00  0.70487488044E+02  0.70487488090E+02  0.25500000920E-02 0. -1.
        2   -1    0    0  501    0  0.00000000000E+00  0.00000000000E+00 -0.12563211890E+04  0.12563211890E+04  0.25500000920E-02 0.  1.
    10030    2    1    2    0    0  0.00000000000E+00  0.00000000000E+00 -0.11858337009E+04  0.13268086771E+04  0.59516359035E+03 0.  0.
        2    1    3    3  502    0  0.28142892426E+01  0.62000125116E+02 -0.12417324995E+04  0.12432825648E+04  0.25500000920E-02 0.  1.
       -2    1    3    3    0  502 -0.28142892426E+01 -0.62000125116E+02  0.55898798554E+02  0.83526112232E+02  0.25500000920E-02 0. -1.
</event>
<event>
 5   0  0.1521750E-02  0.5991777E+03  0.7818609E-02  0.9907114E-01
       -4   -1    0    0    0  501  0.00000000000E+00  0.00000000000E+00  0.31437816727E+03  0.31438073248E+03  0.12699999809E+01 0. -1.
        4   -1    0    0  501    0  0.00000000000E+00  0.00000000000E+00 -0.28549011656E+03  0.28549294134E+03  0.12699999809E+01 0.  1.
    10030    2    1    2    0    0  0.00000000000E+00  0.00000000000E+00  0.28888050706E+02  0.59987367382E+03  0.59917769073E+03 0.  0.
        1    1    3    3  502    0 -0.13969215426E+03 -0.70063240356E+02  0.27033966887E+03  0.31225997535E+03  0.50400001928E-02 0. -1.
       -1    1    3    3    0  502  0.13969215426E+03  0.70063240356E+02 -0.24145161817E+03  0.28761369848E+03  0.50400001928E-02 0.  1.
</event>
<event>
 5   0  0.2309055E-02  0.5971271E+03  0.7818609E-02  0.9911384E-01
        1   -1    0    0  501    0  0.00000000000E+00  0.00000000000E+00  0.37545612837E+03  0.37545612841E+03  0.50400001928E-02 0.  1.
       -1   -1    0    0    0  501  0.00000000000E+00  0.00000000000E+00 -0.23741842930E+03  0.23741842935E+03  0.50400001928E-02 0. -1.
    10030    2    1    2    0    0  0.00000000000E+00  0.00000000000E+00  0.13803769908E+03  0.61287455776E+03  0.59712713653E+03 0.  0.
        4    1    3    3  502    0 -0.26305027020E+03 -0.64224461185E+02 -0.60069065211E+02  0.27736281575E+03  0.12699999809E+01 0.  1.
       -4    1    3    3    0  502  0.26305027020E+03  0.64224461185E+02  0.19810676429E+03  0.33551174201E+03  0.12699999809E+01 0. -1.
</event>
<event>
 5   0  0.3737642E-02  0.5982269E+03  0.7818609E-02  0.9909092E-01
        2   -1    0    0  501    0  0.00000000000E+00  0.00000000000E+00  0.11968990185E+04  0.11968990185E+04  0.25500000920E-02 0. -1.
       -2   -1    0    0    0  501  0.00000000000E+00  0.00000000000E+00 -0.74750538711E+02  0.74750538754E+02  0.25500000920E-02 0.  1.
    10030    2    1    2    0    0  0.00000000000E+00  0.00000000000E+00  0.11221484798E+04  0.12716495573E+04  0.59822686816E+03 0.  0.
        5    1    3    3  502    0  0.10231204876E+03 -0.20691310526E+03  0.96532568089E+03  0.99255052700E+03  0.46999998093E+01 0. -1.
       -5    1    3    3    0  502 -0.10231204876E+03  0.20691310526E+03  0.15682279894E+03  0.27909903030E+03  0.46999998093E+01 0.  1.
</event>
<event>
 5   0  0.1521750E-02  0.6012622E+03  0.7818609E-02  0.9902791E-01
       -4   -1    0    0    0  501  0.00000000000E+00  0.00000000000E+00  0.11023171602E+03  0.11023903173E+03  0.12699999809E+01 0.  1.
        4   -1    0    0  501    0  0.00000000000E+00  0.00000000000E+00 -0.81986555660E+03  0.81986654023E+03  0.12699999809E+01 0. -1.
    10030    2    1    2    0    0  0.00000000000E+00  0.00000000000E+00 -0.70963384058E+03  0.93010557196E+03  0.60126216187E+03 0.  0.
        4    1    3    3  502    0 -0.16098751757E+03  0.59360897711E+01 -0.74745852277E+03  0.76462283129E+03  0.12699999809E+01 0. -1.
       -4    1    3    3    0  502  0.16098751757E+03 -0.59360897711E+01  0.37824682189E+02  0.16548274067E+03  0.12699999809E+01 0.  1.
</event>
<event>
 5   0  0.2382531E-02  0.6042117E+03  0.7818609E-02  0.9896707E-01
        1   -1    0    0  501    0  0.00000000000E+00  0.00000000000E+00  0.24076877801E+03  0.24076877806E+03  0.50400001928E-02 0.  1.
       -1   -1    0    0    0  501  0.00000000000E+00  0.00000000000E+00 -0.37906879070E+03  0.37906879073E+03  0.50400001928E-02 0. -1.
    10030    2    1    2    0    0  0.00000000000E+00  0.00000000000E+00 -0.13830001269E+03  0.61983756879E+03  0.60421165014E+03 0.  0.
        5    1    3    3  502    0 -0.12829441810E+03 -0.57076362370E+02  0.20521510037E+03  0.24870162098E+03  0.46999998093E+01 0.  1.
       -5    1    3    3    0  502  0.12829441810E+03  0.57076362370E+02 -0.34351511306E+03  0.37113594781E+03  0.46999998093E+01 0. -1.
</event>
<event>
 5   0  0.2309055E-02  0.5988250E+03  0.7818609E-02  0.9907847E-01
       -1   -1    0    0    0  501  0.00000000000E+00  0.00000000000E+00  0.17287030303E+03  0.17287030310E+03  0.50400001928E-02 0.  1.
        1   -1    0    0  501    0  0.00000000000E+00  0.00000000000E+00 -0.51858438347E+03  0.51858438349E+03  0.50400001928E-02 0. -1.
    10030    2    1    2    0    0  0.00000000000E+00  0.00000000000E+00 -0.34571408043E+03  0.69145468659E+03  0.59882498128E+03 0.  0.
        4    1    3    3  502    0  0.22444918028E+03  0.16632144253E+03 -0.29725250139E+03  0.40792268784E+03  0.12699999809E+01 0.  1.
       -4    1    3    3    0  502 -0.22444918028E+03 -0.16632144253E+03 -0.48461579047E+02  0.28353199875E+03  0.12699999809E+01 0. -1.
</event>
<event>
 5   0  0.2295179E-02  0.6004143E+03  0.7818609E-02  0.9904547E-01
        1   -1    0    0  501    0  0.00000000000E+00  0.00000000000E+00  0.23064904719E+03  0.23064904724E+03  0.50400001928E-02 0. -1.
       -1   -1    0    0    0  501  0.00000000000E+00  0.00000000000E+00 -0.39074227231E+03  0.39074227235E+03  0.50400001928E-02 0.  1.
    10030    2    1    2    0    0  0.00000000000E+00  0.00000000000E+00 -0.16009322513E+03  0.62139131959E+03  0.60041429974E+03 0.  0.
        3    1    3    3  502    0  0.96091601554E+02  0.68638149848E+02  0.20560277863E+03  0.23710188587E+03  0.10100000352E+00 0. -1.
       -3    1    3    3    0  502 -0.96091601554E+02 -0.68638149848E+02 -0.36569600375E+03  0.38428943372E+03  0.10100000352E+00 0.  1.
</event>
<event>
 5   0  0.1521750E-02  0.5999110E+03  0.7818609E-02  0.9905591E-01
       -3   -1    0    0    0  501  0.00000000000E+00  0.00000000000E+00  0.14694955003E+04  0.14694955037E+04  0.10100000352E+00 0.  1.
        3   -1    0    0  501    0  0.00000000000E+00  0.00000000000E+00 -0.61227298500E+02  0.61227381804E+02  0.10100000352E+00 0. -1.
    10030    2    1    2    0    0  0.00000000000E+00  0.00000000000E+00  0.14082682018E+04  0.15307228855E+04  0.59991101358E+03 0.  0.
        3    1    3    3  502    0  0.15207849573E+03 -0.69596566461E+02  0.13394821435E+04  0.13498829482E+04  0.10100000352E+00 0.  1.
       -3    1    3    3    0  502 -0.15207849573E+03  0.69596566461E+02  0.68786058297E+02  0.18083993736E+03  0.10100000352E+00 0. -1.
</event>
<event>
 5   0  0.1521750E-02  0.5996805E+03  0.7818609E-02  0.9906069E-01
        3   -1    0    0  501    0  0.00000000000E+00  0.00000000000E+00  0.15644015018E+03  0.15644018278E+03  0.10100000352E+00 0.  1.
       -3   -1    0    0    0  501  0.00000000000E+00  0.00000000000E+00 -0.57468716901E+03  0.57468717788E+03  0.10100000352E+00 0. -1.
    10030    2    1    2    0    0  0.00000000000E+00  0.00000000000E+00 -0.41824701882E+03  0.73112736067E+03  0.59968045554E+03 0.  0.
        2    1    3    3  502    0  0.29073417951E+03  0.52569527482E+02 -0.27146055099E+03  0.40122406347E+03  0.25500000920E-02 0. -1.
       -2    1    3    3    0  502 -0.29073417951E+03 -0.52569527482E+02 -0.14678646783E+03  0.32990329720E+03  0.25500000920E-02 0.  1.
</event>
<event>
 5   0  0.2382531E-02  0.5962216E+03  0.7818609E-02  0.9913276E-01
       -1   -1    0    0    0  501  0.00000000000E+00  0.00000000000E+00  0.20062723124E+03  0.20062723131E+03  0.50400001928E-02 0. -1.
        1   -1    0    0  501    0  0.00000000000E+00  0.00000000000E+00 -0.44296106439E+03  0.44296106441E+03  0.50400001928E-02 0.  1.
    10030    2    1    2    0    0  0.00000000000E+00  0.00000000000E+00 -0.24233383314E+03  0.64358829572E+03  0.59622160956E+03 0.  0.
        5    1    3    3  502    0  0.93124133578E+02 -0.28088973898E+03 -0.15973818655E+03  0.33631759983E+03  0.46999998093E+01 0. -1.
       -5    1    3    3    0  502 -0.93124133578E+02  0.28088973898E+03 -0.82595646597E+02  0.30727069589E+03  0.46999998093E+01 0.  1.
</event>
<event>
 5   0  0.2309055E-02  0.5991384E+03  0.7818609E-02  0.9907195E-01
       -1   -1    0    0    0  501  0.00000000000E+00  0.00000000000E+00  0.48926094017E+03  0.48926094019E+03  0.50400001928E-02 0. -1.
        1   -1    0    0  501    0  0.00000000000E+00  0.00000000000E+00 -0.18342299127E+03  0.18342299134E+03  0.50400001928E-02 0.  1.
    10030    2    1    2    0    0  0.00000000000E+00  0.00000000000E+00  0.30583794890E+03  0.67268393153E+03  0.59913839866E+03 0.  0.
        4    1    3    3  502    0 -0.84617736126E+02  0.12180897121E+03 -0.13930411456E+03  0.20348178288E+03  0.12699999809E+01 0.  1.
       -4    1    3    3    0  502  0.84617736126E+02 -0.12180897121E+03  0.44514206346E+03  0.46920214864E+03  0.12699999809E+01 0. -1.
</event>
<event>
 5   0  0.2382531E-02  0.5982708E+03  0.7818609E-02  0.9909000E-01
       -1   -1    0    0    0  501  0.00000000000E+00  0.00000000000E+00  0.14617671346E+03  0.14617671354E+03  0.50400001928E-02 0.  1.
        1   -1    0    0  501    0  0.00000000000E+00  0.00000000000E+00 -0.61214942641E+03  0.61214942643E+03  0.50400001928E-02 0. -1.
    10030    2    1    2    0    0  0.00000000000E+00  0.00000000000E+00 -0.46597271295E+03  0.75832613997E+03  0.59827081271E+03 0.  0.
        5    1    3    3  502    0  0.24348195579E+03  0.59306998683E+01 -0.12927449803E+02  0.24394229841E+03  0.46999998093E+01 0.  1.
       -5    1    3    3    0  502 -0.24348195579E+03 -0.59306998683E+01 -0.45304526315E+03  0.51438384156E+03  0.46999998093E+01 0. -1.
</event>
<event>
 5   0  0.3934634E-02  0.6695434E+03  0.7818609E-02  0.9770783E-01
        2   -1    0    0  501    0  0.00000000000E+00  0.00000000000E+00  0.26393561520E+03  0.26393561522E+03  0.25500000920E-02 0.  1.
       -2   -1    0    0    0  501  0.00000000000E+00  0.00000000000E+00 -0.42461902779E+03  0.42461902779E+03  0.25500000920E-02 0. -1.
    10030    2    1    2    0    0  0.00000000000E+00  0.00000000000E+00 -0.16068341258E+03  0.68855464301E+03  0.66954337972E+03 0.  0.
        1    1    3    3  502    0  0.88108189864E+02  0.17885027208E+03 -0.35690448999E+03  0.40881693696E+03  0.50400001928E-02 0. -1.
       -1    1    3    3    0  502 -0.88108189864E+02 -0.17885027208E+03  0.19622107741E+03  0.27973770605E+03  0.50400001928E-02 0.  1.
</event>
<event>
 5   0  0.2276105E-02  0.6011567E+03  0.7818609E-02  0.9903009E-01
       -1   -1    0    0    0  501  0.00000000000E+00  0.00000000000E+00  0.10929883388E+04  0.10929883388E+04  0.50400001928E-02 0.  1.
        1   -1    0    0  501    0  0.00000000000E+00  0.00000000000E+00 -0.82660860904E+02  0.82660861058E+02  0.50400001928E-02 0. -1.
    10030    2    1    2    0    0  0.00000000000E+00  0.00000000000E+00  0.10103274779E+04  0.11756491999E+04  0.60115674209E+03 0.  0.
        1    1    3    3  502    0 -0.11651011374E+03  0.24147060857E+03  0.23942118290E+03  0.35945119871E+03  0.50400001928E-02 0. -1.
       -1    1    3    3    0  502  0.11651011374E+03 -0.24147060857E+03  0.77090629498E+03  0.81619800114E+03  0.50400001928E-02 0.  1.
</event>
<event>
 5   0  0.3724066E-02  0.5997322E+03  0.7818609E-02  0.9905962E-01
       -2   -1    0    0    0  501  0.00000000000E+00  0.00000000000E+00  0.65708576115E+02  0.65708576165E+02  0.25500000920E-02 0.  1.
        2   -1    0    0  501    0  0.00000000000E+00  0.00000000000E+00 -0.13684616745E+04  0.13684616745E+04  0.25500000920E-02 0. -1.
    10030    2    1    2    0    0  0.00000000000E+00  0.00000000000E+00 -0.13027530984E+04  0.14341702507E+04  0.59973216735E+03 0.  0.
        4    1    3    3  502    0  0.22462729798E+03  0.16515733236E+03 -0.38741981442E+03  0.47731550670E+03  0.12699999809E+01 0.  1.
       -4    1    3    3    0  502 -0.22462729798E+03 -0.16515733236E+03 -0.91533328401E+03  0.95685474401E+03  0.12699999809E+01 0. -1.
</event>
<event>
 5   0  0.3737642E-02  0.6070927E+03  0.7818609E-02  0.9890799E-01
        2   -1    0    0  501    0  0.00000000000E+00  0.00000000000E+00  0.43625948605E+03  0.43625948606E+03  0.25500000920E-02 0. -1.
       -2   -1    0    0    0  501  0.00000000000E+00  0.00000000000E+00 -0.21120546007E+03  0.21120546009E+03  0.25500000920E-02 0.  1.
    10030    2    1    2    0    0  0.00000000000E+00  0.00000000000E+00  0.22505402598E+03  0.64746494615E+03  0.60709269628E+03 0.  0.
        5    1    3    3  502    0  0.14187480090E+02 -0.17116260995E+03  0.37940888397E+03  0.41649863730E+03  0.46999998093E+01 0. -1.
       -5    1    3    3    0  502 -0.14187480090E+02  0.17116260995E+03 -0.15435485799E+03  0.23096630885E+03  0.46999998093E+01 0.  1.
</event>
<event>
 5   0  0.1521750E-02  0.6015458E+03  0.7818609E-02  0.9902204E-01
       -4   -1    0    0    0  501  0.00000000000E+00  0.00000000000E+00  0.27881474286E+03  0.27881763527E+03  0.12699999809E+01 0. -1.
        4   -1    0    0  501    0  0.00000000000E+00  0.00000000000E+00 -0.32445454477E+03  0.32445703032E+03  0.12699999809E+01 0.  1.
    10030    2    1    2    0    0  0.00000000000E+00  0.00000000000E+00 -0.45639801911E+02  0.60327466559E+03  0.60154578431E+03 0.  0.
        5    1    3    3  502    0 -0.12019658551E+03 -0.23834381870E+03 -0.16173605133E+03  0.31214681703E+03  0.46999998093E+01 0.  1.
       -5    1    3    3    0  502  0.12019658551E+03  0.23834381870E+03  0.11609624942E+03  0.29112784856E+03  0.46999998093E+01 0. -1.
</event>
<event>
 5   0  0.2276105E-02  0.5974575E+03  0.7818609E-02  0.9910695E-01
        1   -1    0    0  501    0  0.00000000000E+00  0.00000000000E+00  0.48793820372E+03  0.48793820375E+03  0.50400001928E-02 0. -1.
       -1   -1    0    0    0  501  0.00000000000E+00  0.00000000000E+00 -0.18288966384E+03  0.18288966391E+03  0.50400001928E-02 0.  1.
    10030    2    1    2    0    0  0.00000000000E+00  0.00000000000E+00  0.30504853988E+03  0.67082786767E+03  0.59745745987E+03 0.  0.
        1    1    3    3  502    0  0.14847935220E+03 -0.25808717210E+03  0.17965220103E+03  0.34774993859E+03  0.50400001928E-02 0.  1.
       -1    1    3    3    0  502 -0.14847935220E+03  0.25808717210E+03  0.12539633885E+03  0.32307792907E+03  0.50400001928E-02 0. -1.
</event>
<event>
 5   0  0.3798925E-02  0.6011739E+03  0.7818609E-02  0.9902974E-01
       -2   -1    0    0    0  501  0.00000000000E+00  0.00000000000E+00  0.60830421548E+03  0.60830421548E+03  0.25500000920E-02 0. -1.
        2   -1    0    0  501    0  0.00000000000E+00  0.00000000000E+00 -0.14853177656E+03  0.14853177658E+03  0.25500000920E-02 0.  1.
    10030    2    1    2    0    0  0.00000000000E+00  0.00000000000E+00  0.45977243892E+03  0.75683599206E+03  0.60117387109E+03 0.  0.
        2    1    3    3  502    0  0.13717060715E+03 -0.26691242272E+03  0.20828211930E+03  0.36529366008E+03  0.25500000920E-02 0. -1.
       -2    1    3    3    0  502 -0.13717060715E+03  0.26691242272E+03  0.25149031962E+03  0.39154233198E+03  0.25500000920E-02 0.  1.
</event>
<event>
 5   0  0.2295179E-02  0.5990261E+03  0.7818609E-02  0.9907429E-01
       -1   -1    0    0    0  501  0.00000000000E+00  0.00000000000E+00  0.63440277194E+02  0.63440277394E+02  0.50400001928E-02 0.  1.
        1   -1    0    0  501    0  0.00000000000E+00  0.00000000000E+00 -0.14140551764E+04  0.14140551764E+04  0.50400001928E-02 0. -1.
    10030    2    1    2    0    0  0.00000000000E+00  0.00000000000E+00 -0.13506148992E+04  0.14774954538E+04  0.59902605122E+03 0.  0.
        3    1    3    3  502    0  0.11376467177E+03  0.17646434328E+03 -0.14845799668E+03  0.25714169629E+03  0.10100000352E+00 0.  1.
       -3    1    3    3    0  502 -0.11376467177E+03 -0.17646434328E+03 -0.12021569025E+04  0.12203537575E+04  0.10100000352E+00 0. -1.
</event>
<event>
 5   0  0.2295179E-02  0.5930561E+03  0.7818609E-02  0.9919918E-01
        1   -1    0    0  501    0  0.00000000000E+00  0.00000000000E+00  0.10853400323E+04  0.10853400323E+04  0.50400001928E-02 0. -1.
       -1   -1    0    0    0  501  0.00000000000E+00  0.00000000000E+00 -0.81015050077E+02  0.81015050233E+02  0.50400001928E-02 0.  1.
    10030    2    1    2    0    0  0.00000000000E+00  0.00000000000E+00  0.10043249823E+04  0.11663550826E+04  0.59305607549E+03 0.  0.
        3    1    3    3  502    0  0.24049842703E+03  0.68945619817E+02  0.18912022317E+03  0.31362311922E+03  0.10100000352E+00 0.  1.
       -3    1    3    3    0  502 -0.24049842703E+03 -0.68945619817E+02  0.81520475909E+03  0.85273196336E+03  0.10100000352E+00 0. -1.
</event>
<event>
 5   0  0.3798925E-02  0.5997404E+03  0.7818609E-02  0.9905945E-01
        2   -1    0    0  501    0  0.00000000000E+00  0.00000000000E+00  0.66974042958E+03  0.66974042958E+03  0.25500000920E-02 0.  1.
       -2   -1    0    0    0  501  0.00000000000E+00  0.00000000000E+00 -0.13426414493E+03  0.13426414496E+03  0.25500000920E-02 0. -1.
    10030    2    1    2    0    0  0.00000000000E+00  0.00000000000E+00  0.53547628464E+03  0.80400457454E+03  0.59974036421E+03 0.  0.
        2    1    3    3  502    0 -0.16245129819E+03 -0.24831873442E+03  0.32570221603E+03  0.44060702636E+03  0.25500000920E-02 0.  1.
       -2    1    3    3    0  502  0.16245129819E+03  0.24831873442E+03  0.20977406862E+03  0.36339754818E+03  0.25500000920E-02 0. -1.
</event>
<event>
 5   0  0.2295179E-02  0.6010663E+03  0.7818609E-02  0.9903196E-01
        1   -1    0    0  501    0  0.00000000000E+00  0.00000000000E+00  0.62759061839E+03  0.62759061841E+03  0.50400001928E-02 0. -1.
       -1   -1    0    0    0  501  0.00000000000E+00  0.00000000000E+00 -0.14391577048E+03  0.14391577056E+03  0.50400001928E-02 0.  1.
    10030    2    1    2    0    0  0.00000000000E+00  0.00000000000E+00  0.48367484792E+03  0.77150638898E+03  0.60106634387E+03 0.  0.
        3    1    3    3  502    0 -0.26705572535E+03 -0.68178043935E+02  0.88060543208E+02  0.28934698130E+03  0.10100000352E+00 0.  1.
       -3    1    3    3    0  502  0.26705572535E+03  0.68178043935E+02  0.39561430471E+03  0.48215940768E+03  0.10100000352E+00 0. -1.
</event>
<event>
 5   0  0.3832191E-02  0.6025199E+03  0.7818609E-02  0.9900192E-01
       -2   -1    0    0    0  501  0.00000000000E+00  0.00000000000E+00  0.96988739200E+03  0.96988739200E+03  0.25500000920E-02 0.  1.
        2   -1    0    0  501    0  0.00000000000E+00  0.00000000000E+00 -0.93575360347E+02  0.93575360382E+02  0.25500000920E-02 0. -1.
    10030    2    1    2    0    0  0.00000000000E+00  0.00000000000E+00  0.87631203165E+03  0.10634627524E+04  0.60251991576E+03 0.  0.
        3    1    3    3  502    0 -0.20808824468E+03 -0.68661113056E+02  0.80306181537E+03  0.83242017967E+03  0.10100000352E+00 0.  1.
       -3    1    3    3    0  502  0.20808824468E+03  0.68661113056E+02  0.73250216285E+02  0.23104257272E+03  0.10100000352E+00 0. -1.
</event>
<event>
 5   0  0.3832191E-02  0.5989479E+03  0.7818609E-02  0.9907591E-01
        2   -1    0    0  501    0  0.00000000000E+00  0.00000000000E+00  0.84576678510E+03  0.84576678510E+03  0.25500000920E-02 0.  1.
       -2   -1    0    0    0  501  0.00000000000E+00  0.00000000000E+00 -0.10603946882E+03  0.10603946886E+03  0.25500000920E-02 0. -1.
    10030    2    1    2    0    0  0.00000000000E+00  0.00000000000E+00  0.73972731628E+03  0.95180625396E+03  0.59894794651E+03 0.  0.
        3    1    3    3  502    0  0.16094796363E+03 -0.98289355278E+02  0.17443781524E+00  0.18858707535E+03  0.10100000352E+00 0. -1.
       -3    1    3    3    0  502 -0.16094796363E+03  0.98289355278E+02  0.73955287846E+03  0.76321917861E+03  0.10100000352E+00 0.  1.
</event>
<event>
 5   0  0.3798925E-02  0.5984884E+03  0.7818609E-02  0.9908547E-01
       -2   -1    0    0    0  501  0.00000000000E+00  0.00000000000E+00  0.24213472876E+03  0.24213472877E+03  0.25500000920E-02 0.  1.
        2   -1    0    0  501    0  0.00000000000E+00  0.00000000000E+00 -0.36982337028E+03  0.36982337029E+03  0.25500000920E-02 0. -1.
    10030    2    1    2    0    0  0.00000000000E+00  0.00000000000E+00 -0.12768864153E+03  0.61195809906E+03  0.59848836733E+03 0.  0.
        2    1    3    3  502    0  0.10367054328E+03 -0.64716786560E+02 -0.34314249376E+03  0.36425624914E+03  0.25500000920E-02 0. -1.
       -2    1    3    3    0  502 -0.10367054328E+03  0.64716786560E+02  0.21545385223E+03  0.24770184992E+03  0.25500000920E-02 0.  1.
</event>
<event>
 5   0  0.2309055E-02  0.5934566E+03  0.7818609E-02  0.9919075E-01
        1   -1    0    0  501    0  0.00000000000E+00  0.00000000000E+00  0.95670665384E+03  0.95670665385E+03  0.50400001928E-02 0. -1.
       -1   -1    0    0    0  501  0.00000000000E+00  0.00000000000E+00 -0.92032068837E+02  0.92032068975E+02  0.50400001928E-02 0.  1.
    10030    2    1    2    0    0  0.00000000000E+00  0.00000000000E+00  0.86467458500E+03  0.10487387228E+04  0.59345662926E+03 0.  0.
        4    1    3    3  502    0 -0.69991034589E+02 -0.15194469868E+03  0.86542065578E+03  0.88144226171E+03  0.12699999809E+01 0. -1.
       -4    1    3    3    0  502  0.69991034589E+02  0.15194469868E+03 -0.74607078399E+00  0.16729646111E+03  0.12699999809E+01 0.  1.
</event>
<event>
 5   0  0.3934634E-02  0.6019249E+03  0.7818609E-02  0.9901420E-01
        2   -1    0    0  501    0  0.00000000000E+00  0.00000000000E+00  0.40788695767E+03  0.40788695768E+03  0.25500000920E-02 0. -1.
       -2   -1    0    0    0  501  0.00000000000E+00  0.00000000000E+00 -0.22206742722E+03  0.22206742724E+03  0.25500000920E-02 0.  1.
    10030    2    1    2    0    0  0.00000000000E+00  0.00000000000E+00  0.18581953045E+03  0.62995438492E+03  0.60192493650E+03 0.  0.
        1    1    3    3  502    0  0.85152358935E+02 -0.61603350726E+02 -0.20223773727E+03  0.22791665023E+03  0.50400001928E-02 0.  1.
       -1    1    3    3    0  502 -0.85152358935E+02  0.61603350726E+02  0.38805726772E+03  0.40203773468E+03  0.50400001928E-02 0. -1.
</event>
<event>
 5   0  0.3798925E-02  0.5951354E+03  0.7818609E-02  0.9915550E-01
       -2   -1    0    0    0  501  0.00000000000E+00  0.00000000000E+00  0.23085224293E+03  0.23085224294E+03  0.25500000920E-02 0.  1.
        2   -1    0    0  501    0  0.00000000000E+00  0.00000000000E+00 -0.38356374190E+03  0.38356374191E+03  0.25500000920E-02 0. -1.
    10030    2    1    2    0    0  0.00000000000E+00  0.00000000000E+00 -0.15271149897E+03  0.61441598485E+03  0.59513544720E+03 0.  0.
        2    1    3    3  502    0 -0.19414430316E+03  0.18861663017E+03 -0.20396562844E+03  0.33892509676E+03  0.25500000920E-02 0.  1.
       -2    1    3    3    0  502  0.19414430316E+03 -0.18861663017E+03  0.51254129464E+02  0.27549088809E+03  0.25500000920E-02 0. -1.
</event>
<event>
 5   0  0.3934634E-02  0.6018313E+03  0.7818609E-02  0.9901614E-01
        2   -1    0    0  501    0  0.00000000000E+00  0.00000000000E+00  0.11335302153E+04  0.11335302153E+04  0.25500000920E-02 0.  1.
       -2   -1    0    0    0  501  0.00000000000E+00  0.00000000000E+00 -0.79883393525E+02  0.79883393566E+02  0.25500000920E-02 0. -1.
    10030    2    1    2    0    0  0.00000000000E+00  0.00000000000E+00  0.10536468218E+04  0.12134136089E+04  0.60183133946E+03 0.  0.
        1    1    3    3  502    0 -0.22037186839E+03 -0.62169354683E+01  0.11388164585E+03  0.24813593039E+03  0.50400001928E-02 0. -1.
       -1    1    3    3    0  502  0.22037186839E+03  0.62169354683E+01  0.93976517592E+03  0.96527767847E+03  0.50400001928E-02 0.  1.
</event>
<event>
 5   0  0.3832191E-02  0.6123881E+03  0.7818609E-02  0.9880033E-01
        2   -1    0    0  501    0  0.00000000000E+00  0.00000000000E+00  0.10594168240E+04  0.10594168240E+04  0.25500000920E-02 0. -1.
       -2   -1    0    0    0  501  0.00000000000E+00  0.00000000000E+00 -0.88496616032E+02  0.88496616069E+02  0.25500000920E-02 0.  1.
    10030    2    1    2    0    0  0.00000000000E+00  0.00000000000E+00  0.97092020792E+03  0.11479134400E+04  0.61238812500E+03 0.  0.
        3    1    3    3  502    0  0.22584934420E+03  0.20593561280E+03  0.51989105407E+03  0.60307886814E+03  0.10100000352E+00 0. -1.
       -3    1    3    3    0  502 -0.22584934420E+03 -0.20593561280E+03  0.45102915385E+03  0.54483457189E+03  0.10100000352E+00 0.  1.
</event>
<event>
 5   0  0.1521750E-02  0.5993414E+03  0.7818609E-02  0.9906773E-01
       -4   -1    0    0    0  501  0.00000000000E+00  0.00000000000E+00  0.42870153141E+03  0.42870341255E+03  0.12699999809E+01 0. -1.
        4   -1    0    0  501    0  0.00000000000E+00  0.00000000000E+00 -0.20947141002E+03  0.20947525992E+03  0.12699999809E+01 0.  1.
    10030    2    1    2    0    0  0.00000000000E+00  0.00000000000E+00  0.21923012139E+03  0.63817867247E+03  0.59934144848E+03 0.  0.
        3    1    3    3  502    0 -0.19449097484E+03 -0.19008950696E+03  0.24363513783E+03  0.36512853975E+03  0.10100000352E+00 0. -1.
       -3    1    3    3    0  502  0.19449097484E+03  0.19008950696E+03 -0.24405016440E+02  0.27305013272E+03  0.10100000352E+00 0.  1.
</event>
<event>
 5   0  0.3832191E-02  0.6018419E+03  0.7818609E-02  0.9901592E-01
       -2   -1    0    0    0  501  0.00000000000E+00  0.00000000000E+00  0.55951608977E+03  0.55951608977E+03  0.25500000920E-02 0.  1.
        2   -1    0    0  501    0  0.00000000000E+00  0.00000000000E+00 -0.16184240200E+03  0.16184240202E+03  0.25500000920E-02 0. -1.
    10030    2    1    2    0    0  0.00000000000E+00  0.00000000000E+00  0.39767368776E+03  0.72135849179E+03  0.60184193253E+03 0.  0.
        3    1    3    3  502    0  0.25536627415E+03 -0.35118851538E+02  0.12735012021E+02  0.25808420804E+03  0.10100000352E+00 0. -1.
       -3    1    3    3    0  502 -0.25536627415E+03  0.35118851538E+02  0.38493867574E+03  0.46327428376E+03  0.10100000352E+00 0.  1.
</event>
<event>
 5   0  0.3724066E-02  0.5969098E+03  0.7818609E-02  0.9911838E-01
        2   -1    0    0  501    0  0.00000000000E+00  0.00000000000E+00  0.36862722087E+03  0.36862722088E+03  0.25500000920E-02 0. -1.
       -2   -1    0    0    0  501  0.00000000000E+00  0.00000000000E+00 -0.24164068869E+03  0.24164068871E+03  0.25500000920E-02 0.  1.
    10030    2    1    2    0    0  0.00000000000E+00  0.00000000000E+00  0.12698653217E+03  0.61026790958E+03  0.59690982745E+03 0.  0.
        4    1    3    3  502    0 -0.14013578061E+03 -0.78420719735E+02 -0.19370332231E+03  0.25161565187E+03  0.12699999809E+01 0.  1.
       -4    1    3    3    0  502  0.14013578061E+03  0.78420719735E+02  0.32068985449E+03  0.35865225771E+03  0.12699999809E+01 0. -1.
</event>
<event>
 5   0  0.2276105E-02  0.6064694E+03  0.7818609E-02  0.9892074E-01
       -1   -1    0    0    0  501  0.00000000000E+00  0.00000000000E+00  0.32265991183E+03  0.32265991187E+03  0.50400001928E-02 0.  1.
        1   -1    0    0  501    0  0.00000000000E+00  0.00000000000E+00 -0.28497894535E+03  0.28497894539E+03  0.50400001928E-02 0. -1.
    10030    2    1    2    0    0  0.00000000000E+00  0.00000000000E+00  0.37680966482E+02  0.60763885726E+03  0.60646939380E+03 0.  0.
        1    1    3    3  502    0  0.12127484815E+03 -0.93347994250E+02  0.28112733671E+03  0.32008438933E+03  0.50400001928E-02 0.  1.
       -1    1    3    3    0  502 -0.12127484815E+03  0.93347994250E+02 -0.24344637022E+03  0.28755446793E+03  0.50400001928E-02 0. -1.
</event>
<event>
 5   0  0.2225808E-02  0.5966329E+03  0.7818609E-02  0.9912416E-01
       -1   -1    0    0    0  501  0.00000000000E+00  0.00000000000E+00  0.16800293796E+03  0.16800293803E+03  0.50400001928E-02 0.  1.
        1   -1    0    0  501    0  0.00000000000E+00  0.00000000000E+00 -0.52970924801E+03  0.52970924804E+03  0.50400001928E-02 0. -1.
    10030    2    1    2    0    0  0.00000000000E+00  0.00000000000E+00 -0.36170631006E+03  0.69771218607E+03  0.59663291885E+03 0.  0.
        2    1    3    3  502    0  0.73722925579E+02 -0.95335857446E+01 -0.51870465458E+03  0.52400427260E+03  0.25500000920E-02 0. -1.
       -2    1    3    3    0  502 -0.73722925579E+02  0.95335857446E+01  0.15699834452E+03  0.17370791347E+03  0.25500000920E-02 0.  1.
</event>
<event>
 5   0  0.2382531E-02  0.6043775E+03  0.7818609E-02  0.9896366E-01
        1   -1    0    0  501    0  0.00000000000E+00  0.00000000000E+00  0.77282939386E+03  0.77282939388E+03  0.50400001928E-02 0.  1.
       -1   -1    0    0    0  501  0.00000000000E+00  0.00000000000E+00 -0.11816066212E+03  0.11816066223E+03  0.50400001928E-02 0. -1.
    10030    2    1    2    0    0  0.00000000000E+00  0.00000000000E+00  0.65466873174E+03  0.89099005611E+03  0.60437747457E+03 0.  0.
        5    1    3    3  502    0  0.74923609445E+02  0.21205825010E+03  0.62479865996E+03  0.66406152138E+03  0.46999998093E+01 0.  1.
       -5    1    3    3    0  502 -0.74923609445E+02 -0.21205825010E+03  0.29870071779E+02  0.22692853473E+03  0.46999998093E+01 0. -1.
</event>
<event>
 5   0  0.2382531E-02  0.6007600E+03  0.7818609E-02  0.9903831E-01
       -1   -1    0    0    0  501  0.00000000000E+00  0.00000000000E+00  0.12116933097E+03  0.12116933107E+03  0.50400001928E-02 0. -1.
        1   -1    0    0  501    0  0.00000000000E+00  0.00000000000E+00 -0.74464507509E+03  0.74464507510E+03  0.50400001928E-02 0.  1.
    10030    2    1    2    0    0  0.00000000000E+00  0.00000000000E+00 -0.62347574412E+03  0.86581440618E+03  0.60076000402E+03 0.  0.
        5    1    3    3  502    0 -0.28115010837E+03  0.14721091772E+02 -0.16096921132E+03  0.32433820461E+03  0.46999998093E+01 0. -1.
       -5    1    3    3    0  502  0.28115010837E+03 -0.14721091772E+02 -0.46250653280E+03  0.54147620157E+03  0.46999998093E+01 0.  1.
</event>
<event>
 5   0  0.2276105E-02  0.6037747E+03  0.7818609E-02  0.9897606E-01
        1   -1    0    0  501    0  0.00000000000E+00  0.00000000000E+00  0.62046678570E+03  0.62046678572E+03  0.50400001928E-02 0.  1.
       -1   -1    0    0    0  501  0.00000000000E+00  0.00000000000E+00 -0.14688292885E+03  0.14688292894E+03  0.50400001928E-02 0. -1.
    10030    2    1    2    0    0  0.00000000000E+00  0.00000000000E+00  0.47358385684E+03  0.76734971466E+03  0.60377472216E+03 0.  0.
        1    1    3    3  502    0  0.84036129014E+02 -0.15757014541E+03 -0.72555352350E+02  0.19275554696E+03  0.50400001928E-02 0. -1.
       -1    1    3    3    0  502 -0.84036129014E+02  0.15757014541E+03  0.54613920919E+03  0.57459416769E+03  0.50400001928E-02 0.  1.
</event>
<event>
 5   0  0.3724066E-02  0.5938828E+03  0.7818609E-02  0.9918179E-01
        2   -1    0    0  501    0  0.00000000000E+00  0.00000000000E+00  0.28747690379E+03  0.28747690380E+03  0.25500000920E-02 0.  1.
       -2   -1    0    0    0  501  0.00000000000E+00  0.00000000000E+00 -0.30671748560E+03  0.30671748561E+03  0.25500000920E-02 0. -1.
    10030    2    1    2    0    0  0.00000000000E+00  0.00000000000E+00 -0.19240581811E+02  0.59419438941E+03  0.59388279350E+03 0.  0.
        4    1    3    3  502    0  0.52110369102E+02  0.28929861006E+03  0.32394644187E+02  0.29573671098E+03  0.12699999809E+01 0.  1.
       -4    1    3    3    0  502 -0.52110369102E+02 -0.28929861006E+03 -0.51635225998E+02  0.29845767843E+03  0.12699999809E+01 0. -1.
</event>
<event>
 5   0  0.2276105E-02  0.5992035E+03  0.7818609E-02  0.9907060E-01
        1   -1    0    0  501    0  0.00000000000E+00  0.00000000000E+00  0.54970416700E+03  0.54970416702E+03  0.50400001928E-02 0.  1.
       -1   -1    0    0    0  501  0.00000000000E+00  0.00000000000E+00 -0.16329002911E+03  0.16329002919E+03  0.50400001928E-02 0. -1.
    10030    2    1    2    0    0  0.00000000000E+00  0.00000000000E+00  0.38641413789E+03  0.71299419621E+03  0.59920350288E+03 0.  0.
        1    1    3    3  502    0  0.11835246270E+03 -0.17034113886E+03  0.45045138409E+03  0.49591315618E+03  0.50400001928E-02 0.  1.
       -1    1    3    3    0  502 -0.11835246270E+03  0.17034113886E+03 -0.64037246196E+02  0.21708104003E+03  0.50400001928E-02 0. -1.
</event>
<event>
 5   0  0.3737642E-02  0.5995961E+03  0.7818609E-02  0.9906244E-01
        2   -1    0    0  501    0  0.00000000000E+00  0.00000000000E+00  0.95878254772E+03  0.95878254772E+03  0.25500000920E-02 0. -1.
       -2   -1    0    0    0  501  0.00000000000E+00  0.00000000000E+00 -0.93742711436E+02  0.93742711470E+02  0.25500000920E-02 0.  1.
    10030    2    1    2    0    0  0.00000000000E+00  0.00000000000E+00  0.86503983628E+03  0.10525252592E+04  0.59959611647E+03 0.  0.
        5    1    3    3  502    0  0.12810892651E+03 -0.12894332908E+03  0.14093956427E+02  0.18237052605E+03  0.46999998093E+01 0.  1.
       -5    1    3    3    0  502 -0.12810892651E+03  0.12894332908E+03  0.85094587986E+03  0.87015473314E+03  0.46999998093E+01 0. -1.
</event>
<event>
 5   0  0.3737642E-02  0.6033889E+03  0.7818609E-02  0.9898400E-01
       -2   -1    0    0    0  501  0.00000000000E+00  0.00000000000E+00  0.61537578720E+02  0.61537578773E+02  0.25500000920E-02 0.  1.
        2   -1    0    0  501    0  0.00000000000E+00  0.00000000000E+00 -0.14790887449E+04  0.14790887449E+04  0.25500000920E-02 0. -1.
    10030    2    1    2    0    0  0.00000000000E+00  0.00000000000E+00 -0.14175511662E+04  0.15406263236E+04  0.60338889653E+03 0.  0.
        5    1    3    3  502    0  0.90503732840E+02 -0.14623068226E+03 -0.13415747637E+04  0.13525602666E+04  0.46999998093E+01 0. -1.
       -5    1    3    3    0  502 -0.90503732840E+02  0.14623068226E+03 -0.75976402416E+02  0.18806605705E+03  0.46999998093E+01 0.  1.
</event>
<event>
 5   0  0.3737642E-02  0.5921684E+03  0.7818609E-02  0.9921789E-01
       -2   -1    0    0    0  501  0.00000000000E+00  0.00000000000E+00  0.29295334757E+03  0.29295334758E+03  0.25500000920E-02 0.  1.
        2   -1    0    0  501    0  0.00000000000E+00  0.00000000000E+00 -0.29924851784E+03  0.29924851785E+03  0.25500000920E-02 0. -1.
    10030    2    1    2    0    0  0.00000000000E+00  0.00000000000E+00 -0.62951702779E+01  0.59220186543E+03  0.59216840531E+03 0.  0.
        5    1    3    3  502    0  0.15020346684E+03 -0.86023506520E+02  0.23703809048E+03  0.29354773284E+03  0.46999998093E+01 0.  1.
       -5    1    3    3    0  502 -0.15020346684E+03  0.86023506520E+02 -0.24333326075E+03  0.29865413259E+03  0.46999998093E+01 0. -1.
</event>
<event>
 5   0  0.1521750E-02  0.5992873E+03  0.7818609E-02  0.9906886E-01
        3   -1    0    0  501    0  0.00000000000E+00  0.00000000000E+00  0.73520662958E+03  0.73520663652E+03  0.10100000352E+00 0.  1.
       -3   -1    0    0    0  501  0.00000000000E+00  0.00000000000E+00 -0.12212389536E+03  0.12212393713E+03  0.10100000352E+00 0. -1.
    10030    2    1    2    0    0  0.00000000000E+00  0.00000000000E+00  0.61308273421E+03  0.85733057365E+03  0.59928730465E+03 0.  0.
        5    1    3    3  502    0 -0.20430900937E+03  0.80322022478E+01 -0.67451368647E+01  0.20463204649E+03  0.46999998093E+01 0. -1.
       -5    1    3    3    0  502  0.20430900937E+03 -0.80322022478E+01  0.61982787108E+03  0.65269852715E+03  0.46999998093E+01 0.  1.
</event>
<event>
 5   0  0.3798925E-02  0.5944527E+03  0.7818609E-02  0.9916982E-01
       -2   -1    0    0    0  501  0.00000000000E+00  0.00000000000E+00  0.27798708521E+03  0.27798708522E+03  0.25500000920E-02 0. -1.
        2   -1    0    0  501    0  0.00000000000E+00  0.00000000000E+00 -0.31779712862E+03  0.31779712863E+03  0.25500000920E-02 0.  1.
    10030    2    1    2    0    0  0.00000000000E+00  0.00000000000E+00 -0.39810043411E+02  0.59578421386E+03  0.59445268098E+03 0.  0.
        2    1    3    3  502    0 -0.69650258993E+02  0.17745740908E+03  0.20864349825E+03  0.28262059370E+03  0.25500000920E-02 0. -1.
       -2    1    3    3    0  502  0.69650258993E+02 -0.17745740908E+03 -0.24845354166E+03  0.31316362015E+03  0.25500000920E-02 0.  1.
</event>
<event>
 5   0  0.2309055E-02  0.5985293E+03  0.7818609E-02  0.9908462E-01
       -1   -1    0    0    0  501  0.00000000000E+00  0.00000000000E+00  0.51193262546E+02  0.51193262795E+02  0.50400001928E-02 0. -1.
        1   -1    0    0  501    0  0.00000000000E+00  0.00000000000E+00 -0.17494355988E+04  0.17494355988E+04  0.50400001928E-02 0.  1.
    10030    2    1    2    0    0  0.00000000000E+00  0.00000000000E+00 -0.16982423363E+04  0.18006288616E+04  0.59852925124E+03 0.  0.
        4    1    3    3  502    0  0.67677727836E+02 -0.20355255810E+03 -0.14768931271E+04  0.14923903110E+04  0.12699999809E+01 0.  1.
       -4    1    3    3    0  502 -0.67677727836E+02  0.20355255810E+03 -0.22134920918E+03  0.30823855057E+03  0.12699999809E+01 0. -1.
</event>
<event>
 5   0  0.3934634E-02  0.6044204E+03  0.7818609E-02  0.9896277E-01
        2   -1    0    0  501    0  0.00000000000E+00  0.00000000000E+00  0.75799973917E+03  0.75799973918E+03  0.25500000920E-02 0. -1.
       -2   -1    0    0    0  501  0.00000000000E+00  0.00000000000E+00 -0.12048948981E+03  0.12048948984E+03  0.25500000920E-02 0.  1.
    10030    2    1    2    0    0  0.00000000000E+00  0.00000000000E+00  0.63751024936E+03  0.87848922902E+03  0.60442038968E+03 0.  0.
        1    1    3    3  502    0  0.74708507273E+01 -0.29270232253E+03  0.42752590209E+03  0.51817840577E+03  0.50400001928E-02 0.  1.
       -1    1    3    3    0  502 -0.74708507273E+01  0.29270232253E+03  0.20998434727E+03  0.36031082324E+03  0.50400001928E-02 0. -1.
</event>
<event>
 5   0  0.3737642E-02  0.5915629E+03  0.7818609E-02  0.9923067E-01
       -2   -1    0    0    0  501  0.00000000000E+00  0.00000000000E+00  0.25615127995E+03  0.25615127996E+03  0.25500000920E-02 0. -1.
        2   -1    0    0  501    0  0.00000000000E+00  0.00000000000E+00 -0.34154293294E+03  0.34154293295E+03  0.25500000920E-02 0.  1.
    10030    2    1    2    0    0  0.00000000000E+00  0.00000000000E+00 -0.85391652992E+02  0.59769421291E+03  0.59156287726E+03 0.  0.
        5    1    3    3  502    0 -0.19918146044E+03 -0.21377991977E+03  0.34885718050E+01  0.29224881250E+03  0.46999998093E+01 0.  1.
       -5    1    3    3    0  502  0.19918146044E+03  0.21377991977E+03 -0.88880224797E+02  0.30544540041E+03  0.46999998093E+01 0. -1.
</event>
<event>
 5   0  0.3724066E-02  0.6024151E+03  0.7818609E-02  0.9900408E-01
       -2   -1    0    0    0  501  0.00000000000E+00  0.00000000000E+00  0.92854651992E+02  0.92854652027E+02  0.25500000920E-02 0. -1.
        2   -1    0    0  501    0  0.00000000000E+00  0.00000000000E+00 -0.97707518012E+03  0.97707518013E+03  0.25500000920E-02 0.  1.
    10030    2    1    2    0    0  0.00000000000E+00  0.00000000000E+00 -0.88422052813E+03  0.10699298322E+04  0.60241505904E+03 0.  0.
        4    1    3    3  502    0 -0.25805324168E+01  0.19907077409E+03 -0.40669765444E+02  0.20320303877E+03  0.12699999809E+01 0. -1.
       -4    1    3    3    0  502  0.25805324168E+01 -0.19907077409E+03 -0.84355076269E+03  0.86672679339E+03  0.12699999809E+01 0.  1.
</event>
<event>
 5   0  0.3737642E-02  0.5888654E+03  0.7818609E-02  0.9928780E-01
       -2   -1    0    0    0  501  0.00000000000E+00  0.00000000000E+00  0.19497500089E+03  0.19497500091E+03  0.25500000920E-02 0. -1.
        2   -1    0    0  501    0  0.00000000000E+00  0.00000000000E+00 -0.44462428748E+03  0.44462428749E+03  0.25500000920E-02 0.  1.
    10030    2    1    2    0    0  0.00000000000E+00  0.00000000000E+00 -0.24964928659E+03  0.63959928840E+03  0.58886542047E+03 0.  0.
        5    1    3    3  502    0 -0.14591526681E+02  0.27505746804E+03 -0.11953261793E+02  0.27574352910E+03  0.46999998093E+01 0. -1.
       -5    1    3    3    0  502  0.14591526681E+02 -0.27505746804E+03 -0.23769602480E+03  0.36385575930E+03  0.46999998093E+01 0.  1.
</event>
<event>
 5   0  0.3737642E-02  0.6120618E+03  0.7818609E-02  0.9880693E-01
        2   -1    0    0  501    0  0.00000000000E+00  0.00000000000E+00  0.70953433006E+03  0.70953433007E+03  0.25500000920E-02 0.  1.
       -2   -1    0    0    0  501  0.00000000000E+00  0.00000000000E+00 -0.13199490993E+03  0.13199490995E+03  0.25500000920E-02 0. -1.
    10030    2    1    2    0    0  0.00000000000E+00  0.00000000000E+00  0.57753942014E+03  0.84152924002E+03  0.61206182694E+03 0.  0.
        5    1    3    3  502    0  0.21059605466E+03 -0.12744887183E+02 -0.15950856789E+02  0.21163565441E+03  0.46999998093E+01 0. -1.
       -5    1    3    3    0  502 -0.21059605466E+03  0.12744887183E+02  0.59349027693E+03  0.62989358561E+03  0.46999998093E+01 0.  1.
</event>
<event>
 5   0  0.2309055E-02  0.6067563E+03  0.7818609E-02  0.9891487E-01
       -1   -1    0    0    0  501  0.00000000000E+00  0.00000000000E+00  0.72087393527E+03  0.72087393528E+03  0.50400001928E-02 0.  1.
        1   -1    0    0  501    0  0.00000000000E+00  0.00000000000E+00 -0.12767601507E+03  0.12767601517E+03  0.50400001928E-02 0. -1.
    10030    2    1    2    0    0  0.00000000000E+00  0.00000000000E+00  0.59319792020E+03  0.84854995045E+03  0.60675633155E+03 0.  0.
        4    1    3    3  502    0  0.31569523585E+02  0.15144903732E+03  0.66156043532E+03  0.67940949965E+03  0.12699999809E+01 0.  1.
       -4    1    3    3    0  502 -0.31569523585E+02 -0.15144903732E+03 -0.68362515121E+02  0.16914045081E+03  0.12699999809E+01 0. -1.
</event>
<event>
 5   0  0.2295179E-02  0.5986328E+03  0.7818609E-02  0.9908247E-01
        1   -1    0    0  501    0  0.00000000000E+00  0.00000000000E+00  0.23739326190E+04  0.23739326190E+04  0.50400001928E-02 0. -1.
       -1   -1    0    0    0  501  0.00000000000E+00  0.00000000000E+00 -0.37739192683E+02  0.37739193019E+02  0.50400001928E-02 0.  1.
    10030    2    1    2    0    0  0.00000000000E+00  0.00000000000E+00  0.23361934263E+04  0.24116718120E+04  0.59863277871E+03 0.  0.
        3    1    3    3  502    0  0.42959598947E+02 -0.28415554450E+03  0.83102769522E+03  0.87931617808E+03  0.10100000352E+00 0. -1.
       -3    1    3    3    0  502 -0.42959598947E+02  0.28415554450E+03  0.15051657311E+04  0.15323556339E+04  0.10100000352E+00 0.  1.
</event>
<event>
 5   0  0.2382531E-02  0.6026133E+03  0.7818609E-02  0.9899999E-01
       -1   -1    0    0    0  501  0.00000000000E+00  0.00000000000E+00  0.36576347481E+03  0.36576347484E+03  0.50400001928E-02 0. -1.
        1   -1    0    0  501    0  0.00000000000E+00  0.00000000000E+00 -0.24820873127E+03  0.24820873132E+03  0.50400001928E-02 0.  1.
    10030    2    1    2    0    0  0.00000000000E+00  0.00000000000E+00  0.11755474354E+03  0.61397220616E+03  0.60261326920E+03 0.  0.
        5    1    3    3  502    0  0.11678390829E+03 -0.27573803858E+03  0.92471124074E+02  0.31343730783E+03  0.46999998093E+01 0. -1.
       -5    1    3    3    0  502 -0.11678390829E+03  0.27573803858E+03  0.25083619461E+02  0.30053489834E+03  0.46999998093E+01 0.  1.
</event>
<event>
 5   0  0.3934634E-02  0.6031181E+03  0.7818609E-02  0.9898958E-01
       -2   -1    0    0    0  501  0.00000000000E+00  0.00000000000E+00  0.24453380051E+03  0.24453380052E+03  0.25500000920E-02 0.  1.
        2   -1    0    0  501    0  0.00000000000E+00  0.00000000000E+00 -0.37188253675E+03  0.37188253675E+03  0.25500000920E-02 0. -1.
    10030    2    1    2    0    0  0.00000000000E+00  0.00000000000E+00 -0.12734873624E+03  0.61641633727E+03  0.60311806492E+03 0.  0.
        1    1    3    3  502    0  0.11816352264E+03  0.15389296093E+03 -0.29961545815E+03  0.35695249585E+03  0.50400001928E-02 0. -1.
       -1    1    3    3    0  502 -0.11816352264E+03 -0.15389296093E+03  0.17226672191E+03  0.25946384143E+03  0.50400001928E-02 0.  1.
</event>
<event>
 5   0  0.3737642E-02  0.6059215E+03  0.7818609E-02  0.9893196E-01
        2   -1    0    0  501    0  0.00000000000E+00  0.00000000000E+00  0.41471550057E+03  0.41471550057E+03  0.25500000920E-02 0. -1.
       -2   -1    0    0    0  501  0.00000000000E+00  0.00000000000E+00 -0.22132092351E+03  0.22132092352E+03  0.25500000920E-02 0.  1.
    10030    2    1    2    0    0  0.00000000000E+00  0.00000000000E+00  0.19339457706E+03  0.63603642410E+03  0.60592150510E+03 0.  0.
        5    1    3    3  502    0  0.17104982973E+03  0.19512691182E+03 -0.67373941878E+02  0.26813036756E+03  0.46999998093E+01 0.  1.
       -5    1    3    3    0  502 -0.17104982973E+03 -0.19512691182E+03  0.26076851894E+03  0.36790605653E+03  0.46999998093E+01 0. -1.
</event>
<event>
 5   0  0.2382531E-02  0.5935637E+03  0.7818609E-02  0.9918850E-01
        1   -1    0    0  501    0  0.00000000000E+00  0.00000000000E+00  0.14263433204E+03  0.14263433213E+03  0.50400001928E-02 0.  1.
       -1   -1    0    0    0  501  0.00000000000E+00  0.00000000000E+00 -0.61751945569E+03  0.61751945571E+03  0.50400001928E-02 0. -1.
    10030    2    1    2    0    0  0.00000000000E+00  0.00000000000E+00 -0.47488512364E+03  0.76015378784E+03  0.59356372911E+03 0.  0.
        5    1    3    3  502    0  0.20360081333E+03 -0.15718438085E+03 -0.47934343600E+02  0.26168685880E+03  0.46999998093E+01 0.  1.
       -5    1    3    3    0  502 -0.20360081333E+03  0.15718438085E+03 -0.42695078004E+03  0.49846692904E+03  0.46999998093E+01 0. -1.
</event>
<event>
 5   0  0.2276105E-02  0.5674809E+03  0.7818609E-02  0.9975269E-01
       -1   -1    0    0    0  501  0.00000000000E+00  0.00000000000E+00  0.16650660373E+03  0.16650660381E+03  0.50400001928E-02 0.  1.
        1   -1    0    0  501    0  0.00000000000E+00  0.00000000000E+00 -0.48351618265E+03  0.48351618268E+03  0.50400001928E-02 0. -1.
    10030    2    1    2    0    0  0.00000000000E+00  0.00000000000E+00 -0.31700957892E+03  0.65002278649E+03  0.56748088058E+03 0.  0.
        1    1    3    3  502    0  0.25671210575E+03  0.51606271261E+02 -0.33318100703E+02  0.26395910352E+03  0.50400001928E-02 0.  1.
       -1    1    3    3    0  502 -0.25671210575E+03 -0.51606271261E+02 -0.28369147821E+03  0.38606368297E+03  0.50400001928E-02 0. -1.
</event>
<event>
 5   0  0.1521750E-02  0.5994626E+03  0.7818609E-02  0.9906522E-01
       -3   -1    0    0    0  501  0.00000000000E+00  0.00000000000E+00  0.16937089292E+03  0.16937092303E+03  0.10100000352E+00 0.  1.
        3   -1    0    0  501    0  0.00000000000E+00  0.00000000000E+00 -0.53042668446E+03  0.53042669408E+03  0.10100000352E+00 0. -1.
    10030    2    1    2    0    0  0.00000000000E+00  0.00000000000E+00 -0.36105579154E+03  0.69979761711E+03  0.59946260960E+03 0.  0.
        5    1    3    3  502    0  0.19065036792E+03  0.10347770356E+03 -0.42192784030E+03  0.47444745794E+03  0.46999998093E+01 0. -1.
       -5    1    3    3    0  502 -0.19065036792E+03 -0.10347770356E+03  0.60872048759E+02  0.22535015918E+03  0.46999998093E+01 0.  1.
</event>
<event>
 5   0  0.3724066E-02  0.6055077E+03  0.7818609E-02  0.9894045E-01
       -2   -1    0    0    0  501  0.00000000000E+00  0.00000000000E+00  0.17596237868E+03  0.17596237870E+03  0.25500000920E-02 0. -1.
        2   -1    0    0  501    0  0.00000000000E+00  0.00000000000E+00 -0.52090627906E+03  0.52090627907E+03  0.25500000920E-02 0.  1.
    10030    2    1    2    0    0  0.00000000000E+00  0.00000000000E+00 -0.34494390038E+03  0.69686865776E+03  0.60550774707E+03 0.  0.
        4    1    3    3  502    0  0.58345207541E+02 -0.22042508995E+03 -0.40168821009E+03  0.46189437597E+03  0.12699999809E+01 0.  1.
       -4    1    3    3    0  502 -0.58345207541E+02  0.22042508995E+03  0.56744309712E+02  0.23497428180E+03  0.12699999809E+01 0. -1.
</event>
<event>
 5   0  0.2309055E-02  0.6022509E+03  0.7818609E-02  0.9900747E-01
        1   -1    0    0  501    0  0.00000000000E+00  0.00000000000E+00  0.27562831567E+03  0.27562831572E+03  0.50400001928E-02 0.  1.
       -1   -1    0    0    0  501  0.00000000000E+00  0.00000000000E+00 -0.32898119301E+03  0.32898119305E+03  0.50400001928E-02 0. -1.
    10030    2    1    2    0    0  0.00000000000E+00  0.00000000000E+00 -0.53352877337E+02  0.60460950877E+03  0.60225088507E+03 0.  0.
        4    1    3    3  502    0 -0.12927172432E+03  0.26574503756E+03 -0.84724298193E+02  0.30742710242E+03  0.12699999809E+01 0. -1.
       -4    1    3    3    0  502  0.12927172432E+03 -0.26574503756E+03  0.31371420856E+02  0.29718240635E+03  0.12699999809E+01 0.  1.
</event>
<event>
 5   0  0.3724066E-02  0.6001419E+03  0.7818609E-02  0.9905112E-01
        2   -1    0    0  501    0  0.00000000000E+00  0.00000000000E+00  0.46137267013E+03  0.46137267013E+03  0.25500000920E-02 0.  1.
       -2   -1    0    0    0  501  0.00000000000E+00  0.00000000000E+00 -0.19516238096E+03  0.19516238097E+03  0.25500000920E-02 0. -1.
    10030    2    1    2    0    0  0.00000000000E+00  0.00000000000E+00  0.26621028917E+03  0.65653505111E+03  0.60014194594E+03 0.  0.
        4    1    3    3  502    0  0.23644143673E+02  0.24307353883E+03 -0.57625562652E+02  0.25093048674E+03  0.12699999809E+01 0. -1.
       -4    1    3    3    0  502 -0.23644143673E+02 -0.24307353883E+03  0.32383585182E+03  0.40560456436E+03  0.12699999809E+01 0.  1.
</event>
<event>
 5   0  0.3934634E-02  0.5991509E+03  0.7818609E-02  0.9907169E-01
        2   -1    0    0  501    0  0.00000000000E+00  0.00000000000E+00  0.19306822325E+04  0.19306822325E+04  0.25500000920E-02 0. -1.
       -2   -1    0    0    0  501  0.00000000000E+00  0.00000000000E+00 -0.46483798061E+02  0.46483798131E+02  0.25500000920E-02 0.  1.
    10030    2    1    2    0    0  0.00000000000E+00  0.00000000000E+00  0.18841984345E+04  0.19771660307E+04  0.59915087612E+03 0.  0.
        1    1    3    3  502    0  0.10922621203E+03 -0.13685305232E+03  0.17442396570E+04  0.17530063047E+04  0.50400001928E-02 0. -1.
       -1    1    3    3    0  502 -0.10922621203E+03  0.13685305232E+03  0.13995877752E+03  0.22415972599E+03  0.50400001928E-02 0.  1.
</event>
<event>
 5   0  0.1521750E-02  0.5990026E+03  0.7818609E-02  0.9907477E-01
       -4   -1    0    0    0  501  0.00000000000E+00  0.00000000000E+00  0.30946486855E+03  0.30946747449E+03  0.12699999809E+01 0. -1.
        4   -1    0    0  501    0  0.00000000000E+00  0.00000000000E+00 -0.28985334123E+03  0.28985612348E+03  0.12699999809E+01 0.  1.
    10030    2    1    2    0    0  0.00000000000E+00  0.00000000000E+00  0.19611527318E+02  0.59932359797E+03  0.59900264029E+03 0.  0.
        4    1    3    3  502    0 -0.28671963455E+03 -0.85683993431E+02  0.22040656119E+02  0.30006215854E+03  0.12699999809E+01 0.  1.
       -4    1    3    3    0  502  0.28671963455E+03  0.85683993431E+02 -0.24291288012E+01  0.29926143943E+03  0.12699999809E+01 0. -1.
</event>
<event>
 5   0  0.2276105E-02  0.5916625E+03  0.7818609E-02  0.9922856E-01
       -1   -1    0    0    0  501  0.00000000000E+00  0.00000000000E+00  0.26592310189E+03  0.26592310194E+03  0.50400001928E-02 0.  1.
        1   -1    0    0  501    0  0.00000000000E+00  0.00000000000E+00 -0.32910310076E+03  0.32910310080E+03  0.50400001928E-02 0. -1.
    10030    2    1    2    0    0  0.00000000000E+00  0.00000000000E+00 -0.63179998868E+02  0.59502620273E+03  0.59166246263E+03 0.  0.
        1    1    3    3  502    0  0.13914689069E+03  0.19681284232E+03  0.14090470669E+03  0.27919757965E+03  0.50400001928E-02 0.  1.
       -1    1    3    3    0  502 -0.13914689069E+03 -0.19681284232E+03 -0.20408470556E+03  0.31582862308E+03  0.50400001928E-02 0. -1.
</event>
<event>
 5   0  0.2382531E-02  0.6000746E+03  0.7818609E-02  0.9905251E-01
       -1   -1    0    0    0  501  0.00000000000E+00  0.00000000000E+00  0.18022856929E+03  0.18022856936E+03  0.50400001928E-02 0.  1.
        1   -1    0    0  501    0  0.00000000000E+00  0.00000000000E+00 -0.49949002790E+03  0.49949002792E+03  0.50400001928E-02 0. -1.
    10030    2    1    2    0    0  0.00000000000E+00  0.00000000000E+00 -0.31926145861E+03  0.67971859729E+03  0.60007457249E+03 0.  0.
        5    1    3    3  502    0 -0.23764420886E+03 -0.11423151074E+03 -0.32171976841E+03  0.41599195598E+03  0.46999998093E+01 0. -1.
       -5    1    3    3    0  502  0.23764420886E+03  0.11423151074E+03  0.24583098075E+01  0.26372664131E+03  0.46999998093E+01 0.  1.
</event>
<event>
 5   0  0.3724066E-02  0.5940570E+03  0.7818609E-02  0.9917813E-01
        2   -1    0    0  501    0  0.00000000000E+00  0.00000000000E+00  0.60938394314E+03  0.60938394314E+03  0.25500000920E-02 0.  1.
       -2   -1    0    0    0  501  0.00000000000E+00  0.00000000000E+00 -0.14477889399E+03  0.14477889402E+03  0.25500000920E-02 0. -1.
    10030    2    1    2    0    0  0.00000000000E+00  0.00000000000E+00  0.46460504914E+03  0.75416283716E+03  0.59405701179E+03 0.  0.
        4    1    3    3  502    0  0.21273548966E+02  0.28866254542E+03  0.14765648209E+03  0.32493488366E+03  0.12699999809E+01 0. -1.
       -4    1    3    3    0  502 -0.21273548966E+02 -0.28866254542E+03  0.31694856705E+03  0.42922795350E+03  0.12699999809E+01 0.  1.
</event>
<event>
 5   0  0.1521750E-02  0.5793764E+03  0.7818609E-02  0.9949142E-01
        3   -1    0    0  501    0  0.00000000000E+00  0.00000000000E+00  0.10944647098E+03  0.10944651758E+03  0.10100000352E+00 0. -1.
       -3   -1    0    0    0  501  0.00000000000E+00  0.00000000000E+00 -0.76676058454E+03  0.76676059119E+03  0.10100000352E+00 0.  1.
    10030    2    1    2    0    0  0.00000000000E+00  0.00000000000E+00 -0.65731411356E+03  0.87620710877E+03  0.57937643512E+03 0.  0.
        1    1    3    3  502    0  0.79043653273E+02 -0.10548030044E+03  0.61468626542E+02  0.14543859522E+03  0.50400001928E-02 0. -1.
       -1    1    3    3    0  502 -0.79043653273E+02  0.10548030044E+03 -0.71878274010E+03  0.73076851355E+03  0.50400001928E-02 0.  1.
</event>
<event>
 5   0  0.2309055E-02  0.6061994E+03  0.7818609E-02  0.9892627E-01
        1   -1    0    0  501    0  0.00000000000E+00  0.00000000000E+00  0.19440508369E+03  0.19440508375E+03  0.50400001928E-02 0.  1.
       -1   -1    0    0    0  501  0.00000000000E+00  0.00000000000E+00 -0.47256697610E+03  0.47256697613E+03  0.50400001928E-02 0. -1.
    10030    2    1    2    0    0  0.00000000000E+00  0.00000000000E+00 -0.27816189241E+03  0.66697205988E+03  0.60619938162E+03 0.  0.
        4    1    3    3  502    0  0.81945345259E+02  0.41855243501E+02 -0.45682508152E+03  0.46600179079E+03  0.12699999809E+01 0. -1.
       -4    1    3    3    0  502 -0.81945345259E+02 -0.41855243501E+02  0.17866318910E+03  0.20097026909E+03  0.12699999809E+01 0.  1.
</event>
<event>
 5   0  0.3724066E-02  0.6013831E+03  0.7818609E-02  0.9902541E-01
       -2   -1    0    0    0  501  0.00000000000E+00  0.00000000000E+00  0.16025381428E+03  0.16025381431E+03  0.25500000920E-02 0.  1.
        2   -1    0    0  501    0  0.00000000000E+00  0.00000000000E+00 -0.56420135440E+03  0.56420135441E+03  0.25500000920E-02 0. -1.
    10030    2    1    2    0    0  0.00000000000E+00  0.00000000000E+00 -0.40394754012E+03  0.72445516871E+03  0.60138313604E+03 0.  0.
        4    1    3    3  502    0 -0.24778679633E+03 -0.14920984714E+03 -0.10298765586E+03  0.30703411061E+03  0.12699999809E+01 0.  1.
       -4    1    3    3    0  502  0.24778679633E+03  0.14920984714E+03 -0.30095988426E+03  0.41742105811E+03  0.12699999809E+01 0. -1.
</event>
<event>
 5   0  0.1521750E-02  0.5986342E+03  0.7818609E-02  0.9908244E-01
        4   -1    0    0  501    0  0.00000000000E+00  0.00000000000E+00  0.15135758591E+04  0.15135763919E+04  0.12699999809E+01 0. -1.
       -4   -1    0    0    0  501  0.00000000000E+00  0.00000000000E+00 -0.59184070902E+02  0.59197695466E+02  0.12699999809E+01 0.  1.
    10030    2    1    2    0    0  0.00000000000E+00  0.00000000000E+00  0.14543917882E+04  0.15727740874E+04  0.59863415902E+03 0.  0.
        3    1    3    3  502    0 -0.24433630340E+03  0.54212448646E+02  0.29587926608E+03  0.38753550681E+03  0.10100000352E+00 0.  1.
       -3    1    3    3    0  502  0.24433630340E+03 -0.54212448646E+02  0.11585125221E+04  0.11852385806E+04  0.10100000352E+00 0. -1.
</event>
<event>
 5   0  0.3934634E-02  0.5961229E+03  0.7818609E-02  0.9913483E-01
        2   -1    0    0  501    0  0.00000000000E+00  0.00000000000E+00  0.23385493728E+03  0.23385493729E+03  0.25500000920E-02 0.  1.
       -2   -1    0    0    0  501  0.00000000000E+00  0.00000000000E+00 -0.37989633720E+03  0.37989633721E+03  0.25500000920E-02 0. -1.
    10030    2    1    2    0    0  0.00000000000E+00  0.00000000000E+00 -0.14604139992E+03  0.61375127450E+03  0.59612292060E+03 0.  0.
        1    1    3    3  502    0 -0.22568552728E+03  0.32460243604E+02 -0.27066899198E+03  0.35390581781E+03  0.50400001928E-02 0. -1.
       -1    1    3    3    0  502  0.22568552728E+03 -0.32460243604E+02  0.12462759205E+03  0.25984545669E+03  0.50400001928E-02 0.  1.
</event>
<event>
 5   0  0.2276105E-02  0.5952965E+03  0.7818609E-02  0.9915213E-01
        1   -1    0    0  501    0  0.00000000000E+00  0.00000000000E+00  0.63919808484E+03  0.63919808486E+03  0.50400001928E-02 0.  1.
       -1   -1    0    0    0  501  0.00000000000E+00  0.00000000000E+00 -0.13860256432E+03  0.13860256441E+03  0.50400001928E-02 0. -1.
    10030    2    1    2    0    0  0.00000000000E+00  0.00000000000E+00  0.50059552052E+03  0.77780064927E+03  0.59529654361E+03 0.  0.
        1    1    3    3  502    0 -0.28170353191E+03  0.89031431008E+02  0.20298924896E+03  0.35845238291E+03  0.50400001928E-02 0. -1.
       -1    1    3    3    0  502  0.28170353191E+03 -0.89031431008E+02  0.29760627156E+03  0.41934826635E+03  0.50400001928E-02 0.  1.
</event>
<event>
 5   0  0.2309055E-02  0.6004144E+03  0.7818609E-02  0.9904547E-01
        1   -1    0    0  501    0  0.00000000000E+00  0.00000000000E+00  0.25588510205E+03  0.25588510210E+03  0.50400001928E-02 0.  1.
       -1   -1    0    0    0  501  0.00000000000E+00  0.00000000000E+00 -0.35220639041E+03  0.35220639044E+03  0.50400001928E-02 0. -1.
    10030    2    1    2    0    0  0.00000000000E+00  0.00000000000E+00 -0.96321288357E+02  0.60809149255E+03  0.60041441748E+03 0.  0.
        4    1    3    3  502    0 -0.20766081427E+02 -0.27461657940E+02  0.25387624393E+03  0.25620330389E+03  0.12699999809E+01 0.  1.
       -4    1    3    3    0  502  0.20766081427E+02  0.27461657940E+02 -0.35019753229E+03  0.35188818865E+03  0.12699999809E+01 0. -1.
</event>
<event>
 5   0  0.2295179E-02  0.5935925E+03  0.7818609E-02  0.9918789E-01
       -1   -1    0    0    0  501  0.00000000000E+00  0.00000000000E+00  0.90611486383E+02  0.90611486523E+02  0.50400001928E-02 0. -1.
        1   -1    0    0  501    0  0.00000000000E+00  0.00000000000E+00 -0.97215059826E+03  0.97215059827E+03  0.50400001928E-02 0.  1.
    10030    2    1    2    0    0  0.00000000000E+00  0.00000000000E+00 -0.88153911188E+03  0.10627620848E+04  0.59359248910E+03 0.  0.
        3    1    3    3  502    0 -0.31180296565E+02  0.17121129665E+03 -0.87121775689E+03  0.88842889930E+03  0.10100000352E+00 0.  1.
       -3    1    3    3    0  502  0.31180296565E+02 -0.17121129665E+03 -0.10321354988E+02  0.17433318549E+03  0.10100000352E+00 0. -1.
</event>
<event>
 5   0  0.3832191E-02  0.5916121E+03  0.7818609E-02  0.9922963E-01
        2   -1    0    0  501    0  0.00000000000E+00  0.00000000000E+00  0.62586016342E+03  0.62586016342E+03  0.25500000920E-02 0.  1.
       -2   -1    0    0    0  501  0.00000000000E+00  0.00000000000E+00 -0.13980955031E+03  0.13980955033E+03  0.25500000920E-02 0. -1.
    10030    2    1    2    0    0  0.00000000000E+00  0.00000000000E+00  0.48605061311E+03  0.76566971375E+03  0.59161212974E+03 0.  0.
        3    1    3    3  502    0 -0.24967285149E+01 -0.16539368837E+03 -0.74359251795E+02  0.18135769720E+03  0.10100000352E+00 0. -1.
       -3    1    3    3    0  502  0.24967285149E+01  0.16539368837E+03  0.56040986491E+03  0.58431201656E+03  0.10100000352E+00 0.  1.
</event>
<event>
 5   0  0.3798925E-02  0.6030058E+03  0.7818609E-02  0.9899189E-01
       -2   -1    0    0    0  501  0.00000000000E+00  0.00000000000E+00  0.17153187759E+03  0.17153187761E+03  0.25500000920E-02 0. -1.
        2   -1    0    0  501    0  0.00000000000E+00  0.00000000000E+00 -0.52995404139E+03  0.52995404140E+03  0.25500000920E-02 0.  1.
    10030    2    1    2    0    0  0.00000000000E+00  0.00000000000E+00 -0.35842216380E+03  0.70148591900E+03  0.60300584330E+03 0.  0.
        2    1    3    3  502    0 -0.17476066013E+03 -0.20577343135E+03 -0.23049193525E+02  0.27095250268E+03  0.25500000920E-02 0. -1.
       -2    1    3    3    0  502  0.17476066013E+03  0.20577343135E+03 -0.33537297028E+03  0.43053341633E+03  0.25500000920E-02 0.  1.
</event>
<event>
 5   0  0.2225808E-02  0.6050567E+03  0.7818609E-02  0.9894970E-01
        1   -1    0    0  501    0  0.00000000000E+00  0.00000000000E+00  0.11427908434E+04  0.11427908434E+04  0.50400001928E-02 0.  1.
       -1   -1    0    0    0  501  0.00000000000E+00  0.00000000000E+00 -0.80087626562E+02  0.80087626721E+02  0.50400001928E-02 0. -1.
    10030    2    1    2    0    0  0.00000000000E+00  0.00000000000E+00  0.10627032169E+04  0.12228784702E+04  0.60505671275E+03 0.  0.
        2    1    3    3  502    0 -0.43308485575E+02  0.26226411851E+03  0.23940752796E+03  0.35773461844E+03  0.25500000920E-02 0. -1.
       -2    1    3    3    0  502  0.43308485575E+02 -0.26226411851E+03  0.82329568890E+03  0.86514385171E+03  0.25500000920E-02 0.  1.
</event>
<event>
 5   0  0.3934634E-02  0.6054744E+03  0.7818609E-02  0.9894113E-01
        2   -1    0    0  501    0  0.00000000000E+00  0.00000000000E+00  0.20558210398E+04  0.20558210398E+04  0.25500000920E-02 0.  1.
       -2   -1    0    0    0  501  0.00000000000E+00  0.00000000000E+00 -0.44580641459E+02  0.44580641532E+02  0.25500000920E-02 0. -1.
    10030    2    1    2    0    0  0.00000000000E+00  0.00000000000E+00  0.20112403983E+04  0.21004016813E+04  0.60547442805E+03 0.  0.
        1    1    3    3  502    0 -0.25997758977E+02 -0.94286773819E+02  0.19995040931E+04  0.20018947268E+04  0.50400001928E-02 0.  1.
       -1    1    3    3    0  502  0.25997758977E+02  0.94286773819E+02  0.11736305246E+02  0.98506954451E+02  0.50400001928E-02 0. -1.
</event>
<event>
 5   0  0.3737642E-02  0.5988150E+03  0.7818609E-02  0.9907868E-01
        2   -1    0    0  501    0  0.00000000000E+00  0.00000000000E+00  0.45786247653E+03  0.45786247654E+03  0.25500000920E-02 0. -1.
       -2   -1    0    0    0  501  0.00000000000E+00  0.00000000000E+00 -0.19578993809E+03  0.19578993811E+03  0.25500000920E-02 0.  1.
    10030    2    1    2    0    0  0.00000000000E+00  0.00000000000E+00  0.26207253844E+03  0.65365241465E+03  0.59881504972E+03 0.  0.
        5    1    3    3  502    0 -0.24070327394E+03 -0.46719328314E+02 -0.56454545883E+02  0.25165446047E+03  0.46999998093E+01 0.  1.
       -5    1    3    3    0  502  0.24070327394E+03  0.46719328314E+02  0.31852708432E+03  0.40199795418E+03  0.46999998093E+01 0. -1.
</event>
<event>
 5   0  0.2309055E-02  0.6185240E+03  0.7818609E-02  0.9867703E-01
       -1   -1    0    0    0  501  0.00000000000E+00  0.00000000000E+00  0.11547179432E+03  0.11547179443E+03  0.50400001928E-02 0.  1.
        1   -1    0    0  501    0  0.00000000000E+00  0.00000000000E+00 -0.82828014817E+03  0.82828014819E+03  0.50400001928E-02 0. -1.
    10030    2    1    2    0    0  0.00000000000E+00  0.00000000000E+00 -0.71280835385E+03  0.94375194262E+03  0.61852403339E+03 0.  0.
        4    1    3    3  502    0  0.22267807976E+03 -0.78178504625E+02 -0.66135297565E+03  0.70220137930E+03  0.12699999809E+01 0. -1.
       -4    1    3    3    0  502 -0.22267807976E+03  0.78178504625E+02 -0.51455378203E+02  0.24155056332E+03  0.12699999809E+01 0.  1.
</event>
<event>
 5   0  0.3934634E-02  0.6272083E+03  0.7818609E-02  0.9850512E-01
        2   -1    0    0  501    0  0.00000000000E+00  0.00000000000E+00  0.52267537757E+03  0.52267537758E+03  0.25500000920E-02 0.  1.
       -2   -1    0    0    0  501  0.00000000000E+00  0.00000000000E+00 -0.18816186476E+03  0.18816186478E+03  0.25500000920E-02 0. -1.
    10030    2    1    2    0    0  0.00000000000E+00  0.00000000000E+00  0.33451351280E+03  0.71083724236E+03  0.62720833451E+03 0.  0.
        1    1    3    3  502    0 -0.11529036278E+03  0.20389679575E+03  0.40358309301E+03  0.46663163636E+03  0.50400001928E-02 0.  1.
       -1    1    3    3    0  502  0.11529036278E+03 -0.20389679575E+03 -0.69069580207E+02  0.24420560600E+03  0.50400001928E-02 0. -1.
</event>
<event>
 5   0  0.2276105E-02  0.6137906E+03  0.7818609E-02  0.9877201E-01
        1   -1    0    0  501    0  0.00000000000E+00  0.00000000000E+00  0.52092434966E+03  0.52092434969E+03  0.50400001928E-02 0. -1.
       -1   -1    0    0    0  501  0.00000000000E+00  0.00000000000E+00 -0.18080305044E+03  0.18080305051E+03  0.50400001928E-02 0.  1.
    10030    2    1    2    0    0  0.00000000000E+00  0.00000000000E+00  0.34012129923E+03  0.70172740019E+03  0.61379055548E+03 0.  0.
        1    1    3    3  502    0  0.29002441060E+03  0.18412853541E+02  0.57278968755E+02  0.29619937915E+03  0.50400001928E-02 0.  1.
       -1    1    3    3    0  502 -0.29002441060E+03 -0.18412853541E+02  0.28284233047E+03  0.40552802104E+03  0.50400001928E-02 0. -1.
</event>
<event>
 5   0  0.3934634E-02  0.6013106E+03  0.7818609E-02  0.9902691E-01
       -2   -1    0    0    0  501  0.00000000000E+00  0.00000000000E+00  0.25511704436E+03  0.25511704438E+03  0.25500000920E-02 0.  1.
        2   -1    0    0  501    0  0.00000000000E+00  0.00000000000E+00 -0.35432211379E+03  0.35432211380E+03  0.25500000920E-02 0. -1.
    10030    2    1    2    0    0  0.00000000000E+00  0.00000000000E+00 -0.99205069427E+02  0.60943915818E+03  0.60131060336E+03 0.  0.
        1    1    3    3  502    0 -0.17098026310E+03 -0.23985505102E+03  0.11452272361E+02  0.29478102116E+03  0.50400001928E-02 0.  1.
       -1    1    3    3    0  502  0.17098026310E+03  0.23985505102E+03 -0.11065734179E+03  0.31465813701E+03  0.50400001928E-02 0. -1.
</event>
<event>
 5   0  0.2225808E-02  0.5978199E+03  0.7818609E-02  0.9909939E-01
       -1   -1    0    0    0  501  0.00000000000E+00  0.00000000000E+00  0.97929709374E+02  0.97929709503E+02  0.50400001928E-02 0. -1.
        1   -1    0    0  501    0  0.00000000000E+00  0.00000000000E+00 -0.91236006974E+03  0.91236006975E+03  0.50400001928E-02 0.  1.
    10030    2    1    2    0    0  0.00000000000E+00  0.00000000000E+00 -0.81443036037E+03  0.10102897793E+04  0.59781989444E+03 0.  0.
        2    1    3    3  502    0  0.10904896797E+03 -0.13962110508E+03 -0.35505606727E+00  0.17716053870E+03  0.25500000920E-02 0. -1.
       -2    1    3    3    0  502 -0.10904896797E+03  0.13962110508E+03 -0.81407530430E+03  0.83312924056E+03  0.25500000920E-02 0.  1.
</event>
<event>
 5   0  0.3798925E-02  0.6071646E+03  0.7818609E-02  0.9890652E-01
       -2   -1    0    0    0  501  0.00000000000E+00  0.00000000000E+00  0.36211333372E+03  0.36211333373E+03  0.25500000920E-02 0.  1.
        2   -1    0    0  501    0  0.00000000000E+00  0.00000000000E+00 -0.25451208476E+03  0.25451208478E+03  0.25500000920E-02 0. -1.
    10030    2    1    2    0    0  0.00000000000E+00  0.00000000000E+00  0.10760124896E+03  0.61662541851E+03  0.60716462180E+03 0.  0.
        2    1    3    3  502    0 -0.24835400175E+03 -0.12736649098E+03  0.17507780366E+03  0.32947559933E+03  0.25500000920E-02 0. -1.
       -2    1    3    3    0  502  0.24835400175E+03  0.12736649098E+03 -0.67476554703E+02  0.28714981918E+03  0.25500000920E-02 0.  1.
</event>
<event>
 5   0  0.3798925E-02  0.6007281E+03  0.7818609E-02  0.9903897E-01
       -2   -1    0    0    0  501  0.00000000000E+00  0.00000000000E+00  0.42513639946E+03  0.42513639947E+03  0.25500000920E-02 0.  1.
        2   -1    0    0  501    0  0.00000000000E+00  0.00000000000E+00 -0.21221085071E+03  0.21221085072E+03  0.25500000920E-02 0. -1.
    10030    2    1    2    0    0  0.00000000000E+00  0.00000000000E+00  0.21292554875E+03  0.63734725019E+03  0.60072808159E+03 0.  0.
        2    1    3    3  502    0 -0.43695943807E+02  0.13387774180E+03  0.38793868828E+03  0.41270935430E+03  0.25500000920E-02 0.  1.
       -2    1    3    3    0  502  0.43695943807E+02 -0.13387774180E+03 -0.17501313953E+03  0.22463789589E+03  0.25500000920E-02 0. -1.
</event>
<event>
 5   0  0.2309055E-02  0.6007114E+03  0.7818609E-02  0.9903931E-01
        1   -1    0    0  501    0  0.00000000000E+00  0.00000000000E+00  0.83294936874E+03  0.83294936876E+03  0.50400001928E-02 0. -1.
       -1   -1    0    0    0  501  0.00000000000E+00  0.00000000000E+00 -0.10830616789E+03  0.10830616800E+03  0.50400001928E-02 0.  1.
    10030    2    1    2    0    0  0.00000000000E+00  0.00000000000E+00  0.72464320086E+03  0.94125553676E+03  0.60071142568E+03 0.  0.
        4    1    3    3  502    0 -0.15180106412E+03 -0.11704456972E+03  0.14675142749E-02  0.19168882928E+03  0.12699999809E+01 0.  1.
       -4    1    3    3    0  502  0.15180106412E+03  0.11704456972E+03  0.72464173334E+03  0.74956670748E+03  0.12699999809E+01 0. -1.
</event>
<event>
 5   0  0.2382531E-02  0.5927187E+03  0.7818609E-02  0.9920629E-01
       -1   -1    0    0    0  501  0.00000000000E+00  0.00000000000E+00  0.36612743429E+03  0.36612743433E+03  0.50400001928E-02 0.  1.
        1   -1    0    0  501    0  0.00000000000E+00  0.00000000000E+00 -0.23988604513E+03  0.23988604519E+03  0.50400001928E-02 0. -1.
    10030    2    1    2    0    0  0.00000000000E+00  0.00000000000E+00  0.12624138916E+03  0.60601347951E+03  0.59271869298E+03 0.  0.
        5    1    3    3  502    0  0.96870637959E+02 -0.11205657234E+03  0.32552133246E+03  0.35766859492E+03  0.46999998093E+01 0.  1.
       -5    1    3    3    0  502 -0.96870637959E+02  0.11205657234E+03 -0.19927994330E+03  0.24834488459E+03  0.46999998093E+01 0. -1.
</event>
<event>
 5   0  0.1521750E-02  0.5990568E+03  0.7818609E-02  0.9907365E-01
       -4   -1    0    0    0  501  0.00000000000E+00  0.00000000000E+00  0.79725690791E+03  0.79725791944E+03  0.12699999809E+01 0. -1.
        4   -1    0    0  501    0  0.00000000000E+00  0.00000000000E+00 -0.11252776585E+03  0.11253493229E+03  0.12699999809E+01 0.  1.
    10030    2    1    2    0    0  0.00000000000E+00  0.00000000000E+00  0.68472914207E+03  0.90979285174E+03  0.59905678786E+03 0.  0.
        3    1    3    3  502    0 -0.14369205403E+03  0.14967809550E+03  0.14287214358E+02  0.20797854062E+03  0.10100000352E+00 0.  1.
       -3    1    3    3    0  502  0.14369205403E+03 -0.14967809550E+03  0.67044192771E+03  0.70181431112E+03  0.10100000352E+00 0. -1.
</event>
<event>
 5   0  0.3832191E-02  0.5995125E+03  0.7818609E-02  0.9906418E-01
       -2   -1    0    0    0  501  0.00000000000E+00  0.00000000000E+00  0.16539877556E+03  0.16539877558E+03  0.25500000920E-02 0. -1.
        2   -1    0    0  501    0  0.00000000000E+00  0.00000000000E+00 -0.54325550673E+03  0.54325550674E+03  0.25500000920E-02 0.  1.
    10030    2    1    2    0    0  0.00000000000E+00  0.00000000000E+00 -0.37785673117E+03  0.70865428232E+03  0.59951245404E+03 0.  0.
        3    1    3    3  502    0 -0.79365039282E+02  0.17781566976E+03 -0.45831299485E+03  0.49796388757E+03  0.10100000352E+00 0.  1.
       -3    1    3    3    0  502  0.79365039282E+02 -0.17781566976E+03  0.80456263680E+02  0.21069039475E+03  0.10100000352E+00 0. -1.
</event>
<event>
 5   0  0.1521750E-02  0.6061368E+03  0.7818609E-02  0.9892755E-01
       -4   -1    0    0    0  501  0.00000000000E+00  0.00000000000E+00  0.18132690879E+03  0.18133135623E+03  0.12699999809E+01 0.  1.
        4   -1    0    0  501    0  0.00000000000E+00  0.00000000000E+00 -0.50653478572E+03  0.50653637781E+03  0.12699999809E+01 0. -1.
    10030    2    1    2    0    0  0.00000000000E+00  0.00000000000E+00 -0.32520787693E+03  0.68786773403E+03  0.60613682969E+03 0.  0.
        5    1    3    3  502    0  0.42402869332E+02 -0.23574832147E+03 -0.37324760981E+03  0.44352129895E+03  0.46999998093E+01 0. -1.
       -5    1    3    3    0  502 -0.42402869332E+02  0.23574832147E+03  0.48039732877E+02  0.24434643508E+03  0.46999998093E+01 0.  1.
</event>
<event>
 5   0  0.2276105E-02  0.5970934E+03  0.7818609E-02  0.9911455E-01
       -1   -1    0    0    0  501  0.00000000000E+00  0.00000000000E+00  0.58096427309E+03  0.58096427311E+03  0.50400001928E-02 0.  1.
        1   -1    0    0  501    0  0.00000000000E+00  0.00000000000E+00 -0.15341755587E+03  0.15341755596E+03  0.50400001928E-02 0. -1.
    10030    2    1    2    0    0  0.00000000000E+00  0.00000000000E+00  0.42754671722E+03  0.73438182907E+03  0.59709335574E+03 0.  0.
        1    1    3    3  502    0 -0.19211093889E+03 -0.80514461191E+02 -0.49272923273E+02  0.21404908852E+03  0.50400001928E-02 0. -1.
       -1    1    3    3    0  502  0.19211093889E+03  0.80514461191E+02  0.47681964049E+03  0.52033274055E+03  0.50400001928E-02 0.  1.
</event>
<event>
 5   0  0.3934634E-02  0.5963865E+03  0.7818609E-02  0.9912931E-01
        2   -1    0    0  501    0  0.00000000000E+00  0.00000000000E+00  0.35954113330E+03  0.35954113331E+03  0.25500000920E-02 0. -1.
       -2   -1    0    0    0  501  0.00000000000E+00  0.00000000000E+00 -0.24731303915E+03  0.24731303916E+03  0.25500000920E-02 0.  1.
    10030    2    1    2    0    0  0.00000000000E+00  0.00000000000E+00  0.11222809415E+03  0.60685417247E+03  0.59638648671E+03 0.  0.
        1    1    3    3  502    0 -0.63832895492E+01 -0.11913223557E+03  0.33419809314E+03  0.35485433832E+03  0.50400001928E-02 0. -1.
       -1    1    3    3    0  502  0.63832895492E+01  0.11913223557E+03 -0.22196999899E+03  0.25199983416E+03  0.50400001928E-02 0.  1.
</event>
<event>
 5   0  0.2382531E-02  0.5990628E+03  0.7818609E-02  0.9907352E-01
       -1   -1    0    0    0  501  0.00000000000E+00  0.00000000000E+00  0.42152047965E+03  0.42152047968E+03  0.50400001928E-02 0.  1.
        1   -1    0    0  501    0  0.00000000000E+00  0.00000000000E+00 -0.21284626125E+03  0.21284626131E+03  0.50400001928E-02 0. -1.
    10030    2    1    2    0    0  0.00000000000E+00  0.00000000000E+00  0.20867421840E+03  0.63436674099E+03  0.59906279525E+03 0.  0.
        5    1    3    3  502    0 -0.28579253380E+02  0.50163113234E+02  0.41553315529E+03  0.41955095614E+03  0.46999998093E+01 0.  1.
       -5    1    3    3    0  502  0.28579253380E+02 -0.50163113234E+02 -0.20685893689E+03  0.21481578485E+03  0.46999998093E+01 0. -1.
</event>
<event>
 5   0  0.2382531E-02  0.6063626E+03  0.7818609E-02  0.9892293E-01
       -1   -1    0    0    0  501  0.00000000000E+00  0.00000000000E+00  0.66129503683E+02  0.66129503875E+02  0.50400001928E-02 0. -1.
        1   -1    0    0  501    0  0.00000000000E+00  0.00000000000E+00 -0.13899832691E+04  0.13899832691E+04  0.50400001928E-02 0.  1.
    10030    2    1    2    0    0  0.00000000000E+00  0.00000000000E+00 -0.13238537654E+04  0.14561127729E+04  0.60636261051E+03 0.  0.
        5    1    3    3  502    0  0.21215003145E+03 -0.15079096099E+03 -0.28873470598E+03  0.38876132806E+03  0.46999998093E+01 0. -1.
       -5    1    3    3    0  502 -0.21215003145E+03  0.15079096099E+03 -0.10351190594E+04  0.10673514449E+04  0.46999998093E+01 0.  1.
</event>
<event>
 5   0  0.3798925E-02  0.6065127E+03  0.7818609E-02  0.9891986E-01
       -2   -1    0    0    0  501  0.00000000000E+00  0.00000000000E+00  0.18941018750E+03  0.18941018752E+03  0.25500000920E-02 0.  1.
        2   -1    0    0  501    0  0.00000000000E+00  0.00000000000E+00 -0.48553049362E+03  0.48553049363E+03  0.25500000920E-02 0. -1.
    10030    2    1    2    0    0  0.00000000000E+00  0.00000000000E+00 -0.29612030613E+03  0.67494068115E+03  0.60651272647E+03 0.  0.
        2    1    3    3  502    0 -0.26780569884E+03 -0.12004640124E+02  0.97112301515E+01  0.26825046452E+03  0.25500000920E-02 0.  1.
       -2    1    3    3    0  502  0.26780569884E+03  0.12004640124E+02 -0.30583153628E+03  0.40669021663E+03  0.25500000920E-02 0. -1.
</event>
<event>
 5   0  0.3798925E-02  0.6008665E+03  0.7818609E-02  0.9903610E-01
        2   -1    0    0  501    0  0.00000000000E+00  0.00000000000E+00  0.26362995536E+03  0.26362995538E+03  0.25500000920E-02 0.  1.
       -2   -1    0    0    0  501  0.00000000000E+00  0.00000000000E+00 -0.34237435570E+03  0.34237435571E+03  0.25500000920E-02 0. -1.
    10030    2    1    2    0    0  0.00000000000E+00  0.00000000000E+00 -0.78744400334E+02  0.60600431108E+03  0.60086649471E+03 0.  0.
        2    1    3    3  502    0  0.39327003252E+02  0.76433879424E+02 -0.32970762214E+03  0.34072843616E+03  0.25500000920E-02 0. -1.
       -2    1    3    3    0  502 -0.39327003252E+02 -0.76433879424E+02  0.25096322180E+03  0.26527587492E+03  0.25500000920E-02 0.  1.
</event>
<event>
 5   0  0.2276105E-02  0.5978810E+03  0.7818609E-02  0.9909812E-01
       -1   -1    0    0    0  501  0.00000000000E+00  0.00000000000E+00  0.14947133388E+03  0.14947133396E+03  0.50400001928E-02 0.  1.
        1   -1    0    0  501    0  0.00000000000E+00  0.00000000000E+00 -0.59787672271E+03  0.59787672273E+03  0.50400001928E-02 0. -1.
    10030    2    1    2    0    0  0.00000000000E+00  0.00000000000E+00 -0.44840538883E+03  0.74734805669E+03  0.59788102923E+03 0.  0.
        1    1    3    3  502    0  0.96379168490E+02 -0.25096079521E+02  0.12812436253E+03  0.16227941837E+03  0.50400001928E-02 0.  1.
       -1    1    3    3    0  502 -0.96379168490E+02  0.25096079521E+02 -0.57652975136E+03  0.58506863832E+03  0.50400001928E-02 0. -1.
</event>
<event>
 5   0  0.3737642E-02  0.6030958E+03  0.7818609E-02  0.9899004E-01
       -2   -1    0    0    0  501  0.00000000000E+00  0.00000000000E+00  0.18835903804E+03  0.18835903806E+03  0.25500000920E-02 0. -1.
        2   -1    0    0  501    0  0.00000000000E+00  0.00000000000E+00 -0.48275436008E+03  0.48275436009E+03  0.25500000920E-02 0.  1.
    10030    2    1    2    0    0  0.00000000000E+00  0.00000000000E+00 -0.29439532204E+03  0.67111339815E+03  0.60309583611E+03 0.  0.
        5    1    3    3  502    0 -0.11370479113E+03 -0.14572468613E+03 -0.41227452419E+03  0.45183717971E+03  0.46999998093E+01 0.  1.
       -5    1    3    3    0  502  0.11370479113E+03  0.14572468613E+03  0.11787920215E+03  0.21927621844E+03  0.46999998093E+01 0. -1.
</event>
<event>
 5   0  0.2309055E-02  0.6062039E+03  0.7818609E-02  0.9892618E-01
       -1   -1    0    0    0  501  0.00000000000E+00  0.00000000000E+00  0.23719655929E+03  0.23719655934E+03  0.50400001928E-02 0.  1.
        1   -1    0    0  501    0  0.00000000000E+00  0.00000000000E+00 -0.38731924985E+03  0.38731924988E+03  0.50400001928E-02 0. -1.
    10030    2    1    2    0    0  0.00000000000E+00  0.00000000000E+00 -0.15012269057E+03  0.62451580922E+03  0.60620390443E+03 0.  0.
        4    1    3    3  502    0 -0.78315970671E+02 -0.94461931477E+02 -0.36058448831E+03  0.38089268025E+03  0.12699999809E+01 0. -1.
       -4    1    3    3    0  502  0.78315970671E+02  0.94461931477E+02  0.21046179774E+03  0.24362312897E+03  0.12699999809E+01 0.  1.
</event>
<event>
 5   0  0.3798925E-02  0.5984667E+03  0.7818609E-02  0.9908592E-01
       -2   -1    0    0    0  501  0.00000000000E+00  0.00000000000E+00  0.10603979763E+03  0.10603979766E+03  0.25500000920E-02 0.  1.
        2   -1    0    0  501    0  0.00000000000E+00  0.00000000000E+00 -0.84440572246E+03  0.84440572246E+03  0.25500000920E-02 0. -1.
    10030    2    1    2    0    0  0.00000000000E+00  0.00000000000E+00 -0.73836592482E+03  0.95044552012E+03  0.59846674743E+03 0.  0.
        2    1    3    3  502    0  0.25923841124E+03 -0.13882589021E+03 -0.28128249101E+03  0.40693613923E+03  0.25500000920E-02 0. -1.
       -2    1    3    3    0  502 -0.25923841124E+03  0.13882589021E+03 -0.45708343381E+03  0.54350938090E+03  0.25500000920E-02 0.  1.
</event>
<event>
 5   0  0.2295179E-02  0.6026093E+03  0.7818609E-02  0.9900007E-01
       -1   -1    0    0    0  501  0.00000000000E+00  0.00000000000E+00  0.20900450054E+03  0.20900450060E+03  0.50400001928E-02 0. -1.
        1   -1    0    0  501    0  0.00000000000E+00  0.00000000000E+00 -0.43436615074E+03  0.43436615077E+03  0.50400001928E-02 0.  1.
    10030    2    1    2    0    0  0.00000000000E+00  0.00000000000E+00 -0.22536165020E+03  0.64337065137E+03  0.60260926118E+03 0.  0.
        3    1    3    3  502    0  0.27174396320E+02 -0.10604626939E+03 -0.41238247553E+03  0.42666564825E+03  0.10100000352E+00 0.  1.
       -3    1    3    3    0  502 -0.27174396320E+02  0.10604626939E+03  0.18702082534E+03  0.21670500312E+03  0.10100000352E+00 0. -1.
</event>
<event>
 5   0  0.2382531E-02  0.5981930E+03  0.7818609E-02  0.9909162E-01
        1   -1    0    0  501    0  0.00000000000E+00  0.00000000000E+00  0.89114172028E+03  0.89114172030E+03  0.50400001928E-02 0.  1.
       -1   -1    0    0    0  501  0.00000000000E+00  0.00000000000E+00 -0.10038663254E+03  0.10038663267E+03  0.50400001928E-02 0. -1.
    10030    2    1    2    0    0  0.00000000000E+00  0.00000000000E+00  0.79075508774E+03  0.99152835297E+03  0.59819300058E+03 0.  0.
        5    1    3    3  502    0  0.99674326494E+02 -0.27960907694E+03  0.33514659167E+03  0.44772931016E+03  0.46999998093E+01 0. -1.
       -5    1    3    3    0  502 -0.99674326494E+02  0.27960907694E+03  0.45560849607E+03  0.54379904281E+03  0.46999998093E+01 0.  1.
</event>
<event>
 5   0  0.1521750E-02  0.5941744E+03  0.7818609E-02  0.9917567E-01
       -4   -1    0    0    0  501  0.00000000000E+00  0.00000000000E+00  0.15487536568E+03  0.15488057269E+03  0.12699999809E+01 0. -1.
        4   -1    0    0  501    0  0.00000000000E+00  0.00000000000E+00 -0.56986733806E+03  0.56986875321E+03  0.12699999809E+01 0.  1.
    10030    2    1    2    0    0  0.00000000000E+00  0.00000000000E+00 -0.41499197237E+03  0.72474932589E+03  0.59417442578E+03 0.  0.
        5    1    3    3  502    0  0.97615464602E+02 -0.21225231523E+03  0.16285322979E+02  0.23423732835E+03  0.46999998093E+01 0.  1.
       -5    1    3    3    0  502 -0.97615464602E+02  0.21225231523E+03 -0.43127729535E+03  0.49051199754E+03  0.46999998093E+01 0. -1.
</event>
<event>
 5   0  0.2382531E-02  0.5989125E+03  0.7818609E-02  0.9907665E-01
       -1   -1    0    0    0  501  0.00000000000E+00  0.00000000000E+00  0.47606612290E+03  0.47606612293E+03  0.50400001928E-02 0. -1.
        1   -1    0    0  501    0  0.00000000000E+00  0.00000000000E+00 -0.18836468688E+03  0.18836468695E+03  0.50400001928E-02 0.  1.
    10030    2    1    2    0    0  0.00000000000E+00  0.00000000000E+00  0.28770143602E+03  0.66443080988E+03  0.59891250182E+03 0.  0.
        5    1    3    3  502    0  0.59969154815E+02 -0.26740027775E+03  0.27768238592E+03  0.39016510033E+03  0.46999998093E+01 0. -1.
       -5    1    3    3    0  502 -0.59969154815E+02  0.26740027775E+03  0.10019050103E+02  0.27426570955E+03  0.46999998093E+01 0.  1.
</event>
<event>
 5   0  0.3798925E-02  0.5924744E+03  0.7818609E-02  0.9921144E-01
        2   -1    0    0  501    0  0.00000000000E+00  0.00000000000E+00  0.22755369230E+04  0.22755369230E+04  0.25500000920E-02 0. -1.
       -2   -1    0    0    0  501  0.00000000000E+00  0.00000000000E+00 -0.38565168654E+02  0.38565168739E+02  0.25500000920E-02 0.  1.
    10030    2    1    2    0    0  0.00000000000E+00  0.00000000000E+00  0.22369717544E+04  0.23141020918E+04  0.59247435494E+03 0.  0.
        2    1    3    3  502    0 -0.12015003255E+03  0.33343606258E+02  0.68925232681E+02  0.14247285393E+03  0.25500000920E-02 0.  1.
       -2    1    3    3    0  502  0.12015003255E+03 -0.33343606258E+02  0.21680465217E+04  0.21716292379E+04  0.25500000920E-02 0. -1.
</event>
<event>
 5   0  0.3798925E-02  0.5985698E+03  0.7818609E-02  0.9908378E-01
       -2   -1    0    0    0  501  0.00000000000E+00  0.00000000000E+00  0.13899568587E+03  0.13899568589E+03  0.25500000920E-02 0.  1.
        2   -1    0    0  501    0  0.00000000000E+00  0.00000000000E+00 -0.64441892364E+03  0.64441892364E+03  0.25500000920E-02 0. -1.
    10030    2    1    2    0    0  0.00000000000E+00  0.00000000000E+00 -0.50542323777E+03  0.78341460953E+03  0.59856979639E+03 0.  0.
        2    1    3    3  502    0 -0.25104908814E+01  0.15219640179E+03 -0.58997213118E+03  0.60929234597E+03  0.25500000920E-02 0. -1.
       -2    1    3    3    0  502  0.25104908814E+01 -0.15219640179E+03  0.84548893416E+02  0.17412226356E+03  0.25500000920E-02 0.  1.
</event>
<event>
 5   0  0.2225808E-02  0.5994892E+03  0.7818609E-02  0.9906466E-01
        1   -1    0    0  501    0  0.00000000000E+00  0.00000000000E+00  0.12875518096E+04  0.12875518096E+04  0.50400001928E-02 0.  1.
       -1   -1    0    0    0  501  0.00000000000E+00  0.00000000000E+00 -0.69781141784E+02  0.69781141966E+02  0.50400001928E-02 0. -1.
    10030    2    1    2    0    0  0.00000000000E+00  0.00000000000E+00  0.12177706678E+04  0.13573329516E+04  0.59948923430E+03 0.  0.
        2    1    3    3  502    0 -0.17838045626E+03 -0.13028176579E+03  0.10676418713E+04  0.10902532234E+04  0.25500000920E-02 0.  1.
       -2    1    3    3    0  502  0.17838045626E+03  0.13028176579E+03  0.15012879650E+03  0.26707972821E+03  0.25500000920E-02 0. -1.
</event>
<event>
 5   0  0.3724066E-02  0.5824528E+03  0.7818609E-02  0.9942495E-01
       -2   -1    0    0    0  501  0.00000000000E+00  0.00000000000E+00  0.24522900863E+03  0.24522900865E+03  0.25500000920E-02 0.  1.
        2   -1    0    0  501    0  0.00000000000E+00  0.00000000000E+00 -0.34585143112E+03  0.34585143113E+03  0.25500000920E-02 0. -1.
    10030    2    1    2    0    0  0.00000000000E+00  0.00000000000E+00 -0.10062242249E+03  0.59108043978E+03  0.58245275721E+03 0.  0.
        4    1    3    3  502    0  0.26535436967E+03 -0.85557349221E+02 -0.13568940553E+03  0.31007455424E+03  0.12699999809E+01 0.  1.
       -4    1    3    3    0  502 -0.26535436967E+03  0.85557349221E+02  0.35066983039E+02  0.28100588554E+03  0.12699999809E+01 0. -1.
</event>
<event>
 5   0  0.2382531E-02  0.5929286E+03  0.7818609E-02  0.9920187E-01
       -1   -1    0    0    0  501  0.00000000000E+00  0.00000000000E+00  0.12606561301E+03  0.12606561311E+03  0.50400001928E-02 0.  1.
        1   -1    0    0  501    0  0.00000000000E+00  0.00000000000E+00 -0.69718519643E+03  0.69718519645E+03  0.50400001928E-02 0. -1.
    10030    2    1    2    0    0  0.00000000000E+00  0.00000000000E+00 -0.57111958342E+03  0.82325080955E+03  0.59292859340E+03 0.  0.
        5    1    3    3  502    0  0.30681883444E+02  0.25945765230E+03 -0.47998887895E+03  0.54650806510E+03  0.46999998093E+01 0. -1.
       -5    1    3    3    0  502 -0.30681883444E+02 -0.25945765230E+03 -0.91130704474E+02  0.27674274445E+03  0.46999998093E+01 0.  1.
</event>
<event>
 5   0  0.2382531E-02  0.5971858E+03  0.7818609E-02  0.9911262E-01
        1   -1    0    0  501    0  0.00000000000E+00  0.00000000000E+00  0.36908772850E+03  0.36908772854E+03  0.50400001928E-02 0. -1.
       -1   -1    0    0    0  501  0.00000000000E+00  0.00000000000E+00 -0.24156241499E+03  0.24156241505E+03  0.50400001928E-02 0.  1.
    10030    2    1    2    0    0  0.00000000000E+00  0.00000000000E+00  0.12752531351E+03  0.61065014358E+03  0.59718581051E+03 0.  0.
        5    1    3    3  502    0  0.28875712958E+03 -0.63709756975E+02  0.10587393995E+03  0.31411939477E+03  0.46999998093E+01 0. -1.
       -5    1    3    3    0  502 -0.28875712958E+03  0.63709756975E+02  0.21651373563E+02  0.29653074881E+03  0.46999998093E+01 0.  1.
</event>
<event>
 5   0  0.2295179E-02  0.5960897E+03  0.7818609E-02  0.9913552E-01
        1   -1    0    0  501    0  0.00000000000E+00  0.00000000000E+00  0.94748527019E+03  0.94748527021E+03  0.50400001928E-02 0. -1.
       -1   -1    0    0    0  501  0.00000000000E+00  0.00000000000E+00 -0.93754200442E+02  0.93754200578E+02  0.50400001928E-02 0.  1.
    10030    2    1    2    0    0  0.00000000000E+00  0.00000000000E+00  0.85373106975E+03  0.10412394708E+04  0.59608967116E+03 0.  0.
        3    1    3    3  502    0  0.82189921294E+02 -0.26115302277E+03  0.63262021439E+03  0.68932171758E+03  0.10100000352E+00 0. -1.
       -3    1    3    3    0  502 -0.82189921294E+02  0.26115302277E+03  0.22111085536E+03  0.35191775321E+03  0.10100000352E+00 0.  1.
</event>
<event>
 5   0  0.3798925E-02  0.6000132E+03  0.7818609E-02  0.9905379E-01
        2   -1    0    0  501    0  0.00000000000E+00  0.00000000000E+00  0.40869594553E+03  0.40869594554E+03  0.25500000920E-02 0. -1.
       -2   -1    0    0    0  501  0.00000000000E+00  0.00000000000E+00 -0.22022232297E+03  0.22022232299E+03  0.25500000920E-02 0.  1.
    10030    2    1    2    0    0  0.00000000000E+00  0.00000000000E+00  0.18847362256E+03  0.62891826852E+03  0.60001323492E+03 0.  0.
        2    1    3    3  502    0 -0.85655936577E+02  0.27419081655E+03  0.18492916679E+03  0.34163773224E+03  0.25500000920E-02 0. -1.
       -2    1    3    3    0  502  0.85655936577E+02 -0.27419081655E+03  0.35444557654E+01  0.28728053628E+03  0.25500000920E-02 0.  1.
</event>
<event>
 5   0  0.2309055E-02  0.6016088E+03  0.7818609E-02  0.9902074E-01
       -1   -1    0    0    0  501  0.00000000000E+00  0.00000000000E+00  0.32432846451E+03  0.32432846455E+03  0.50400001928E-02 0. -1.
        1   -1    0    0  501    0  0.00000000000E+00  0.00000000000E+00 -0.27898661062E+03  0.27898661066E+03  0.50400001928E-02 0.  1.
    10030    2    1    2    0    0  0.00000000000E+00  0.00000000000E+00  0.45341853892E+02  0.60331507521E+03  0.60160883991E+03 0.  0.
        4    1    3    3  502    0 -0.13935568668E+03 -0.14048880424E+03 -0.20452087055E+03  0.28458304749E+03  0.12699999809E+01 0.  1.
       -4    1    3    3    0  502  0.13935568668E+03  0.14048880424E+03  0.24986272444E+03  0.31873202772E+03  0.12699999809E+01 0. -1.
</event>
<event>
 5   0  0.3798925E-02  0.5996732E+03  0.7818609E-02  0.9906084E-01
        2   -1    0    0  501    0  0.00000000000E+00  0.00000000000E+00  0.66097265932E+03  0.66097265932E+03  0.25500000920E-02 0. -1.
       -2   -1    0    0    0  501  0.00000000000E+00  0.00000000000E+00 -0.13601466672E+03  0.13601466675E+03  0.25500000920E-02 0.  1.
    10030    2    1    2    0    0  0.00000000000E+00  0.00000000000E+00  0.52495799259E+03  0.79698732607E+03  0.59967316426E+03 0.  0.
        2    1    3    3  502    0  0.27029762379E+03 -0.11813216847E+03  0.19108165267E+03  0.35146580580E+03  0.25500000920E-02 0. -1.
       -2    1    3    3    0  502 -0.27029762379E+03  0.11813216847E+03  0.33387633992E+03  0.44552152027E+03  0.25500000920E-02 0.  1.
</event>
<event>
 5   0  0.3798925E-02  0.5978554E+03  0.7818609E-02  0.9909866E-01
       -2   -1    0    0    0  501  0.00000000000E+00  0.00000000000E+00  0.99578204923E+02  0.99578204956E+02  0.25500000920E-02 0.  1.
        2   -1    0    0  501    0  0.00000000000E+00  0.00000000000E+00 -0.89736261216E+03  0.89736261216E+03  0.25500000920E-02 0. -1.
    10030    2    1    2    0    0  0.00000000000E+00  0.00000000000E+00 -0.79778440724E+03  0.99694081712E+03  0.59785536078E+03 0.  0.
        2    1    3    3  502    0 -0.12547537079E+03 -0.48749738463E+02 -0.84396036257E+03  0.85462839836E+03  0.25500000920E-02 0. -1.
       -2    1    3    3    0  502  0.12547537079E+03  0.48749738463E+02  0.46175955338E+02  0.14231241876E+03  0.25500000920E-02 0.  1.
</event>
<event>
 5   0  0.2295179E-02  0.5981465E+03  0.7818609E-02  0.9909259E-01
       -1   -1    0    0    0  501  0.00000000000E+00  0.00000000000E+00  0.60493745368E+03  0.60493745370E+03  0.50400001928E-02 0. -1.
        1   -1    0    0  501    0  0.00000000000E+00  0.00000000000E+00 -0.14785793721E+03  0.14785793730E+03  0.50400001928E-02 0.  1.
    10030    2    1    2    0    0  0.00000000000E+00  0.00000000000E+00  0.45707951646E+03  0.75279539100E+03  0.59814648402E+03 0.  0.
        3    1    3    3  502    0 -0.86098901298E+02 -0.10474820876E+03 -0.10695113290E+03  0.17269557919E+03  0.10100000352E+00 0.  1.
       -3    1    3    3    0  502  0.86098901298E+02  0.10474820876E+03  0.56403064936E+03  0.58009981181E+03  0.10100000352E+00 0. -1.
</event>
<event>
 5   0  0.2276105E-02  0.6001263E+03  0.7818609E-02  0.9905144E-01
       -1   -1    0    0    0  501  0.00000000000E+00  0.00000000000E+00  0.42188747824E+03  0.42188747827E+03  0.50400001928E-02 0.  1.
        1   -1    0    0  501    0  0.00000000000E+00  0.00000000000E+00 -0.21341682543E+03  0.21341682549E+03  0.50400001928E-02 0. -1.
    10030    2    1    2    0    0  0.00000000000E+00  0.00000000000E+00  0.20847065281E+03  0.63530430375E+03  0.60012627445E+03 0.  0.
        1    1    3    3  502    0  0.26690181599E+02 -0.15530520384E+03 -0.16608724944E+03  0.22894769399E+03  0.50400001928E-02 0. -1.
       -1    1    3    3    0  502 -0.26690181599E+02  0.15530520384E+03  0.37455790225E+03  0.40635660976E+03  0.50400001928E-02 0.  1.
</event>
<event>
 5   0  0.2295179E-02  0.6035273E+03  0.7818609E-02  0.9898115E-01
        1   -1    0    0  501    0  0.00000000000E+00  0.00000000000E+00  0.64054895358E+03  0.64054895360E+03  0.50400001928E-02 0.  1.
       -1   -1    0    0    0  501  0.00000000000E+00  0.00000000000E+00 -0.14216134933E+03  0.14216134941E+03  0.50400001928E-02 0. -1.
    10030    2    1    2    0    0  0.00000000000E+00  0.00000000000E+00  0.49838760426E+03  0.78271030302E+03  0.60352731038E+03 0.  0.
        3    1    3    3  502    0 -0.12269344820E+03  0.49574299863E+02 -0.10252489986E+03  0.16739969752E+03  0.10100000352E+00 0. -1.
       -3    1    3    3    0  502  0.12269344820E+03 -0.49574299863E+02  0.60091250411E+03  0.61531060550E+03  0.10100000352E+00 0.  1.
</event>
<event>
 5   0  0.2382531E-02  0.6031529E+03  0.7818609E-02  0.9898886E-01
       -1   -1    0    0    0  501  0.00000000000E+00  0.00000000000E+00  0.11222826378E+03  0.11222826390E+03  0.50400001928E-02 0. -1.
        1   -1    0    0  501    0  0.00000000000E+00  0.00000000000E+00 -0.81038722907E+03  0.81038722909E+03  0.50400001928E-02 0.  1.
    10030    2    1    2    0    0  0.00000000000E+00  0.00000000000E+00 -0.69815896529E+03  0.92261549299E+03  0.60315288864E+03 0.  0.
        5    1    3    3  502    0 -0.11472877696E+03  0.25618025822E+03 -0.18057261640E+03  0.33379571112E+03  0.46999998093E+01 0.  1.
       -5    1    3    3    0  502  0.11472877696E+03 -0.25618025822E+03 -0.51758634889E+03  0.58881978187E+03  0.46999998093E+01 0. -1.
</event>
<event>
 5   0  0.2309055E-02  0.5994902E+03  0.7818609E-02  0.9906464E-01
       -1   -1    0    0    0  501  0.00000000000E+00  0.00000000000E+00  0.37180342288E+03  0.37180342291E+03  0.50400001928E-02 0.  1.
        1   -1    0    0  501    0  0.00000000000E+00  0.00000000000E+00 -0.24165220805E+03  0.24165220810E+03  0.50400001928E-02 0. -1.
    10030    2    1    2    0    0  0.00000000000E+00  0.00000000000E+00  0.13015121482E+03  0.61345563101E+03  0.59949017715E+03 0.  0.
        4    1    3    3  502    0  0.24251523051E+03 -0.99924618280E+02 -0.83379640843E+02  0.27523143675E+03  0.12699999809E+01 0. -1.
       -4    1    3    3    0  502 -0.24251523051E+03  0.99924618280E+02  0.21353085567E+03  0.33822419427E+03  0.12699999809E+01 0.  1.
</event>
<event>
 5   0  0.2309055E-02  0.5997182E+03  0.7818609E-02  0.9905991E-01
        1   -1    0    0  501    0  0.00000000000E+00  0.00000000000E+00  0.17089356835E+04  0.17089356835E+04  0.50400001928E-02 0. -1.
       -1   -1    0    0    0  501  0.00000000000E+00  0.00000000000E+00 -0.52614891462E+02  0.52614891703E+02  0.50400001928E-02 0.  1.
    10030    2    1    2    0    0  0.00000000000E+00  0.00000000000E+00  0.16563207920E+04  0.17615505752E+04  0.59971815287E+03 0.  0.
        4    1    3    3  502    0 -0.14107488045E+03  0.19494298224E+03  0.30264706809E+03  0.38665456023E+03  0.12699999809E+01 0.  1.
       -4    1    3    3    0  502  0.14107488045E+03 -0.19494298224E+03  0.13536737239E+04  0.13748960150E+04  0.12699999809E+01 0. -1.
</event>
<event>
 5   0  0.3934634E-02  0.5993755E+03  0.7818609E-02  0.9906702E-01
       -2   -1    0    0    0  501  0.00000000000E+00  0.00000000000E+00  0.50954438199E+02  0.50954438263E+02  0.25500000920E-02 0. -1.
        2   -1    0    0  501    0  0.00000000000E+00  0.00000000000E+00 -0.17626090438E+04  0.17626090438E+04  0.25500000920E-02 0.  1.
    10030    2    1    2    0    0  0.00000000000E+00  0.00000000000E+00 -0.17116546056E+04  0.18135634820E+04  0.59937552052E+03 0.  0.
        1    1    3    3  502    0 -0.73004608414E+02 -0.73171558882E+02 -0.46861102322E+01  0.10346839872E+03  0.50400001928E-02 0. -1.
       -1    1    3    3    0  502  0.73004608414E+02  0.73171558882E+02 -0.17069684953E+04  0.17100950833E+04  0.50400001928E-02 0.  1.
</event>
<event>
 5   0  0.3832191E-02  0.5997897E+03  0.7818609E-02  0.9905842E-01
        2   -1    0    0  501    0  0.00000000000E+00  0.00000000000E+00  0.11514920556E+04  0.11514920556E+04  0.25500000920E-02 0.  1.
       -2   -1    0    0    0  501  0.00000000000E+00  0.00000000000E+00 -0.78104677462E+02  0.78104677504E+02  0.25500000920E-02 0. -1.
    10030    2    1    2    0    0  0.00000000000E+00  0.00000000000E+00  0.10733873781E+04  0.12295967331E+04  0.59978968190E+03 0.  0.
        3    1    3    3  502    0  0.28921282679E+03  0.56583884886E+02  0.65067166899E+03  0.71429645543E+03  0.10100000352E+00 0.  1.
       -3    1    3    3    0  502 -0.28921282679E+03 -0.56583884886E+02  0.42271570912E+03  0.51530027765E+03  0.10100000352E+00 0. -1.
</event>
<event>
 5   0  0.2382531E-02  0.6110109E+03  0.7818609E-02  0.9882822E-01
        1   -1    0    0  501    0  0.00000000000E+00  0.00000000000E+00  0.65813001114E+02  0.65813001307E+02  0.50400001928E-02 0. -1.
       -1   -1    0    0    0  501  0.00000000000E+00  0.00000000000E+00 -0.14181632036E+04  0.14181632036E+04  0.50400001928E-02 0.  1.
    10030    2    1    2    0    0  0.00000000000E+00  0.00000000000E+00 -0.13523502025E+04  0.14839762049E+04  0.61101088910E+03 0.  0.
        5    1    3    3  502    0 -0.18680683036E+03  0.16171056668E+03 -0.11124293795E+04  0.11395474161E+04  0.46999998093E+01 0.  1.
       -5    1    3    3    0  502  0.18680683036E+03 -0.16171056668E+03 -0.23992082299E+03  0.34442878878E+03  0.46999998093E+01 0. -1.
</event>
<event>
 5   0  0.3798925E-02  0.5957958E+03  0.7818609E-02  0.9914167E-01
        2   -1    0    0  501    0  0.00000000000E+00  0.00000000000E+00  0.11521430944E+04  0.11521430944E+04  0.25500000920E-02 0.  1.
       -2   -1    0    0    0  501  0.00000000000E+00  0.00000000000E+00 -0.77024420798E+02  0.77024420840E+02  0.25500000920E-02 0. -1.
    10030    2    1    2    0    0  0.00000000000E+00  0.00000000000E+00  0.10751186736E+04  0.12291675153E+04  0.59579578565E+03 0.  0.
        2    1    3    3  502    0 -0.20568394680E+03 -0.85247711346E+02  0.12924844338E+03  0.25744556392E+03  0.25500000920E-02 0. -1.
       -2    1    3    3    0  502  0.20568394680E+03  0.85247711346E+02  0.94587023023E+03  0.97172195133E+03  0.25500000920E-02 0.  1.
</event>
<event>
 5   0  0.3724066E-02  0.5988597E+03  0.7818609E-02  0.9907775E-01
       -2   -1    0    0    0  501  0.00000000000E+00  0.00000000000E+00  0.22326527165E+03  0.22326527166E+03  0.25500000920E-02 0.  1.
        2   -1    0    0  501    0  0.00000000000E+00  0.00000000000E+00 -0.40157710995E+03  0.40157710996E+03  0.25500000920E-02 0. -1.
    10030    2    1    2    0    0  0.00000000000E+00  0.00000000000E+00 -0.17831183831E+03  0.62484238162E+03  0.59885965818E+03 0.  0.
        4    1    3    3  502    0 -0.39997051801E+02 -0.25649734594E+03 -0.24484784983E+03  0.35685113856E+03  0.12699999809E+01 0. -1.
       -4    1    3    3    0  502  0.39997051801E+02  0.25649734594E+03  0.66536011525E+02  0.26799124306E+03  0.12699999809E+01 0.  1.
</event>
<event>
 5   0  0.2309055E-02  0.6008945E+03  0.7818609E-02  0.9903552E-01
       -1   -1    0    0    0  501  0.00000000000E+00  0.00000000000E+00  0.59337503440E+02  0.59337503654E+02  0.50400001928E-02 0. -1.
        1   -1    0    0  501    0  0.00000000000E+00  0.00000000000E+00 -0.15212729209E+04  0.15212729209E+04  0.50400001928E-02 0.  1.
    10030    2    1    2    0    0  0.00000000000E+00  0.00000000000E+00 -0.14619354174E+04  0.15806104245E+04  0.60089445779E+03 0.  0.
        4    1    3    3  502    0 -0.41778636105E+02  0.20945961926E+03 -0.12867802207E+04  0.13043863445E+04  0.12699999809E+01 0.  1.
       -4    1    3    3    0  502  0.41778636105E+02 -0.20945961926E+03 -0.17515519677E+03  0.27622408003E+03  0.12699999809E+01 0. -1.
</event>
<event>
 5   0  0.3737642E-02  0.6067576E+03  0.7818609E-02  0.9891485E-01
       -2   -1    0    0    0  501  0.00000000000E+00  0.00000000000E+00  0.31384921032E+03  0.31384921033E+03  0.25500000920E-02 0.  1.
        2   -1    0    0  501    0  0.00000000000E+00  0.00000000000E+00 -0.29325769741E+03  0.29325769742E+03  0.25500000920E-02 0. -1.
    10030    2    1    2    0    0  0.00000000000E+00  0.00000000000E+00  0.20591512916E+02  0.60710690775E+03  0.60675760155E+03 0.  0.
        5    1    3    3  502    0 -0.67983303744E+02 -0.14373167125E+03 -0.24818624482E+03  0.29478640577E+03  0.46999998093E+01 0. -1.
       -5    1    3    3    0  502  0.67983303744E+02  0.14373167125E+03  0.26877775774E+03  0.31232050199E+03  0.46999998093E+01 0.  1.
</event>
<event>
 5   0  0.3832191E-02  0.6019079E+03  0.7818609E-02  0.9901456E-01
       -2   -1    0    0    0  501  0.00000000000E+00  0.00000000000E+00  0.49078847679E+02  0.49078847745E+02  0.25500000920E-02 0. -1.
        2   -1    0    0  501    0  0.00000000000E+00  0.00000000000E+00 -0.18454649719E+04  0.18454649719E+04  0.25500000920E-02 0.  1.
    10030    2    1    2    0    0  0.00000000000E+00  0.00000000000E+00 -0.17963861242E+04  0.18945438196E+04  0.60190794750E+03 0.  0.
        3    1    3    3  502    0 -0.17227581456E+03 -0.24452074381E+03 -0.79361368075E+03  0.84811086239E+03  0.10100000352E+00 0.  1.
       -3    1    3    3    0  502  0.17227581456E+03  0.24452074381E+03 -0.10027724435E+04  0.10464329573E+04  0.10100000352E+00 0. -1.
</event>
<event>
 5   0  0.2309055E-02  0.6022895E+03  0.7818609E-02  0.9900667E-01
        1   -1    0    0  501    0  0.00000000000E+00  0.00000000000E+00  0.88293163978E+03  0.88293163980E+03  0.50400001928E-02 0.  1.
       -1   -1    0    0    0  501  0.00000000000E+00  0.00000000000E+00 -0.10271254806E+03  0.10271254818E+03  0.50400001928E-02 0. -1.
    10030    2    1    2    0    0  0.00000000000E+00  0.00000000000E+00  0.78021909172E+03  0.98564418798E+03  0.60228949369E+03 0.  0.
        4    1    3    3  502    0 -0.19981387400E+03  0.84030261502E+02  0.48008042217E+02  0.22202039120E+03  0.12699999809E+01 0. -1.
       -4    1    3    3    0  502  0.19981387400E+03 -0.84030261502E+02  0.73221104951E+03  0.76362379678E+03  0.12699999809E+01 0.  1.
</event>
<event>
 5   0  0.1521750E-02  0.6050994E+03  0.7818609E-02  0.9894883E-01
       -3   -1    0    0    0  501  0.00000000000E+00  0.00000000000E+00  0.35044548416E+03  0.35044549871E+03  0.10100000352E+00 0.  1.
        3   -1    0    0  501    0  0.00000000000E+00  0.00000000000E+00 -0.26119982619E+03  0.26119984572E+03  0.10100000352E+00 0. -1.
    10030    2    1    2    0    0  0.00000000000E+00  0.00000000000E+00  0.89245657968E+02  0.61164534443E+03  0.60509936366E+03 0.  0.
        4    1    3    3  502    0  0.22578283533E+03  0.36213736597E+02 -0.15562472147E+03  0.27660439310E+03  0.12699999809E+01 0. -1.
       -4    1    3    3    0  502 -0.22578283533E+03 -0.36213736597E+02  0.24487037944E+03  0.33504095134E+03  0.12699999809E+01 0.  1.
</event>
<event>
 5   0  0.2276105E-02  0.6063434E+03  0.7818609E-02  0.9892332E-01
       -1   -1    0    0    0  501  0.00000000000E+00  0.00000000000E+00  0.22602983735E+03  0.22602983741E+03  0.50400001928E-02 0. -1.
        1   -1    0    0  501    0  0.00000000000E+00  0.00000000000E+00 -0.40664137100E+03  0.40664137103E+03  0.50400001928E-02 0.  1.
    10030    2    1    2    0    0  0.00000000000E+00  0.00000000000E+00 -0.18061153364E+03  0.63267120844E+03  0.60634341087E+03 0.  0.
        1    1    3    3  502    0 -0.22240917670E+03  0.57302639107E+02 -0.29679669731E+03  0.37528351135E+03  0.50400001928E-02 0.  1.
       -1    1    3    3    0  502  0.22240917670E+03 -0.57302639107E+02  0.11618516367E+03  0.25738769709E+03  0.50400001928E-02 0. -1.
</event>
<event>
 5   0  0.3724066E-02  0.5961084E+03  0.7818609E-02  0.9913513E-01
        2   -1    0    0  501    0  0.00000000000E+00  0.00000000000E+00  0.23514396470E+03  0.23514396471E+03  0.25500000920E-02 0. -1.
       -2   -1    0    0    0  501  0.00000000000E+00  0.00000000000E+00 -0.37779539551E+03  0.37779539552E+03  0.25500000920E-02 0.  1.
    10030    2    1    2    0    0  0.00000000000E+00  0.00000000000E+00 -0.14265143081E+03  0.61293936023E+03  0.59610840340E+03 0.  0.
        4    1    3    3  502    0 -0.17308925987E+03  0.13288050772E+03  0.13742764469E+03  0.25788581124E+03  0.12699999809E+01 0. -1.
       -4    1    3    3    0  502  0.17308925987E+03 -0.13288050772E+03 -0.28007907550E+03  0.35505354899E+03  0.12699999809E+01 0.  1.
</event>
<event>
 5   0  0.3832191E-02  0.6023257E+03  0.7818609E-02  0.9900593E-01
       -2   -1    0    0    0  501  0.00000000000E+00  0.00000000000E+00  0.11354812713E+03  0.11354812716E+03  0.25500000920E-02 0.  1.
        2   -1    0    0  501    0  0.00000000000E+00  0.00000000000E+00 -0.79877200292E+03  0.79877200293E+03  0.25500000920E-02 0. -1.
    10030    2    1    2    0    0  0.00000000000E+00  0.00000000000E+00 -0.68522387579E+03  0.91232013008E+03  0.60232570906E+03 0.  0.
        3    1    3    3  502    0 -0.99437314669E+02  0.28393128068E+03 -0.36372521593E+03  0.47201779056E+03  0.10100000352E+00 0. -1.
       -3    1    3    3    0  502  0.99437314669E+02 -0.28393128068E+03 -0.32149865986E+03  0.44030233953E+03  0.10100000352E+00 0.  1.
</event>
<event>
 5   0  0.3798925E-02  0.5999586E+03  0.7818609E-02  0.9905492E-01
       -2   -1    0    0    0  501  0.00000000000E+00  0.00000000000E+00  0.12163487409E+03  0.12163487412E+03  0.25500000920E-02 0.  1.
        2   -1    0    0  501    0  0.00000000000E+00  0.00000000000E+00 -0.73981718798E+03  0.73981718799E+03  0.25500000920E-02 0. -1.
    10030    2    1    2    0    0  0.00000000000E+00  0.00000000000E+00 -0.61818231390E+03  0.86145206210E+03  0.59995856698E+03 0.  0.
        2    1    3    3  502    0 -0.26002910637E+03 -0.52824917507E+02 -0.10816431307E+03  0.28653992165E+03  0.25500000920E-02 0.  1.
       -2    1    3    3    0  502  0.26002910637E+03  0.52824917507E+02 -0.51001800082E+03  0.57491214045E+03  0.25500000920E-02 0. -1.
</event>
<event>
 5   0  0.3798925E-02  0.5994186E+03  0.7818609E-02  0.9906613E-01
        2   -1    0    0  501    0  0.00000000000E+00  0.00000000000E+00  0.20064606330E+03  0.20064606331E+03  0.25500000920E-02 0.  1.
       -2   -1    0    0    0  501  0.00000000000E+00  0.00000000000E+00 -0.44768221768E+03  0.44768221769E+03  0.25500000920E-02 0. -1.
    10030    2    1    2    0    0  0.00000000000E+00  0.00000000000E+00 -0.24703615439E+03  0.64832828100E+03  0.59941863366E+03 0.  0.
        2    1    3    3  502    0 -0.17362744770E+03  0.24198118332E+03 -0.15978444632E+03  0.33798291816E+03  0.25500000920E-02 0. -1.
       -2    1    3    3    0  502  0.17362744770E+03 -0.24198118332E+03 -0.87251708069E+02  0.31034536285E+03  0.25500000920E-02 0.  1.
</event>
<event>
 5   0  0.3724066E-02  0.6014965E+03  0.7818609E-02  0.9902306E-01
       -2   -1    0    0    0  501  0.00000000000E+00  0.00000000000E+00  0.49176114069E+02  0.49176114135E+02  0.25500000920E-02 0. -1.
        2   -1    0    0  501    0  0.00000000000E+00  0.00000000000E+00 -0.18392976541E+04  0.18392976541E+04  0.25500000920E-02 0.  1.
    10030    2    1    2    0    0  0.00000000000E+00  0.00000000000E+00 -0.17901215400E+04  0.18884737682E+04  0.60149650475E+03 0.  0.
        4    1    3    3  502    0 -0.84340786524E+02  0.27396280538E+03 -0.60939088094E+03  0.67344476067E+03  0.12699999809E+01 0. -1.
       -4    1    3    3    0  502  0.84340786524E+02 -0.27396280538E+03 -0.11807306591E+04  0.12150290075E+04  0.12699999809E+01 0.  1.
</event>
<event>
 5   0  0.3737642E-02  0.5964177E+03  0.7818609E-02  0.9912866E-01
       -2   -1    0    0    0  501  0.00000000000E+00  0.00000000000E+00  0.31277001149E+03  0.31277001150E+03  0.25500000920E-02 0. -1.
        2   -1    0    0  501    0  0.00000000000E+00  0.00000000000E+00 -0.28432556727E+03  0.28432556728E+03  0.25500000920E-02 0.  1.
    10030    2    1    2    0    0  0.00000000000E+00  0.00000000000E+00  0.28444444219E+02  0.59709557878E+03  0.59641767562E+03 0.  0.
        5    1    3    3  502    0  0.15254484708E+03 -0.13592491873E+03 -0.20319023497E+03  0.28819069292E+03  0.46999998093E+01 0.  1.
       -5    1    3    3    0  502 -0.15254484708E+03  0.13592491873E+03  0.23163467919E+03  0.30890488585E+03  0.46999998093E+01 0. -1.
</event>
<event>
 5   0  0.3737642E-02  0.6009847E+03  0.7818609E-02  0.9903365E-01
       -2   -1    0    0    0  501  0.00000000000E+00  0.00000000000E+00  0.39698511819E+02  0.39698511901E+02  0.25500000920E-02 0.  1.
        2   -1    0    0  501    0  0.00000000000E+00  0.00000000000E+00 -0.22745350768E+04  0.22745350768E+04  0.25500000920E-02 0. -1.
    10030    2    1    2    0    0  0.00000000000E+00  0.00000000000E+00 -0.22348365649E+04  0.23142335887E+04  0.60098471769E+03 0.  0.
        5    1    3    3  502    0 -0.72170882126E+02  0.29156237985E+03 -0.10885223224E+04  0.11292122006E+04  0.46999998093E+01 0.  1.
       -5    1    3    3    0  502  0.72170882126E+02 -0.29156237985E+03 -0.11463142425E+04  0.11850213881E+04  0.46999998093E+01 0. -1.
</event>
<event>
 5   0  0.3832191E-02  0.5984995E+03  0.7818609E-02  0.9908524E-01
       -2   -1    0    0    0  501  0.00000000000E+00  0.00000000000E+00  0.18668029933E+03  0.18668029935E+03  0.25500000920E-02 0. -1.
        2   -1    0    0  501    0  0.00000000000E+00  0.00000000000E+00 -0.47969936009E+03  0.47969936009E+03  0.25500000920E-02 0.  1.
    10030    2    1    2    0    0  0.00000000000E+00  0.00000000000E+00 -0.29301906075E+03  0.66637965944E+03  0.59849952427E+03 0.  0.
        3    1    3    3  502    0  0.60467237549E+02  0.18781410270E+03  0.10399693134E+03  0.22303765583E+03  0.10100000352E+00 0. -1.
       -3    1    3    3    0  502 -0.60467237549E+02 -0.18781410270E+03 -0.39701599210E+03  0.44334200361E+03  0.10100000352E+00 0.  1.
</event>
<event>
 5   0  0.2309055E-02  0.6013659E+03  0.7818609E-02  0.9902576E-01
       -1   -1    0    0    0  501  0.00000000000E+00  0.00000000000E+00  0.15485282093E+03  0.15485282101E+03  0.50400001928E-02 0.  1.
        1   -1    0    0  501    0  0.00000000000E+00  0.00000000000E+00 -0.58384614492E+03  0.58384614494E+03  0.50400001928E-02 0. -1.
    10030    2    1    2    0    0  0.00000000000E+00  0.00000000000E+00 -0.42899332399E+03  0.73869896595E+03  0.60136585392E+03 0.  0.
        4    1    3    3  502    0 -0.24418395521E+02  0.25310344052E+03 -0.17378892668E+02  0.25487496632E+03  0.12699999809E+01 0.  1.
       -4    1    3    3    0  502  0.24418395521E+02 -0.25310344052E+03 -0.41161443132E+03  0.48382399963E+03  0.12699999809E+01 0. -1.
</event>
<event>
 5   0  0.2276105E-02  0.6072926E+03  0.7818609E-02  0.9890391E-01
        1   -1    0    0  501    0  0.00000000000E+00  0.00000000000E+00  0.23526482406E+04  0.23526482407E+04  0.50400001928E-02 0. -1.
       -1   -1    0    0    0  501  0.00000000000E+00  0.00000000000E+00 -0.39190331776E+02  0.39190332100E+02  0.50400001928E-02 0.  1.
    10030    2    1    2    0    0  0.00000000000E+00  0.00000000000E+00  0.23134579089E+04  0.23918385728E+04  0.60729256705E+03 0.  0.
        1    1    3    3  502    0 -0.77200163435E+02 -0.48641869500E+02  0.16083685985E+02  0.92653017668E+02  0.50400001928E-02 0.  1.
       -1    1    3    3    0  502  0.77200163435E+02  0.48641869500E+02  0.22973742229E+04  0.22991855551E+04  0.50400001928E-02 0. -1.
</event>
<event>
 5   0  0.3798925E-02  0.5545919E+03  0.7818609E-02  0.1000437E+00
       -2   -1    0    0    0  501  0.00000000000E+00  0.00000000000E+00  0.84140296797E+02  0.84140296835E+02  0.25500000920E-02 0. -1.
        2   -1    0    0  501    0  0.00000000000E+00  0.00000000000E+00 -0.91386706850E+03  0.91386706851E+03  0.25500000920E-02 0.  1.
    10030    2    1    2    0    0  0.00000000000E+00  0.00000000000E+00 -0.82972677171E+03  0.99800736534E+03  0.55459190906E+03 0.  0.
        2    1    3    3  502    0  0.22456514302E+02 -0.72195294689E+02 -0.89496018247E+03  0.89814819703E+03  0.25500000920E-02 0.  1.
       -2    1    3    3    0  502 -0.22456514302E+02  0.72195294689E+02  0.65233410765E+02  0.99859168314E+02  0.25500000920E-02 0. -1.
</event>
<event>
 5   0  0.3724066E-02  0.6090243E+03  0.7818609E-02  0.9886858E-01
        2   -1    0    0  501    0  0.00000000000E+00  0.00000000000E+00  0.92934770148E+03  0.92934770149E+03  0.25500000920E-02 0.  1.
       -2   -1    0    0    0  501  0.00000000000E+00  0.00000000000E+00 -0.99777132009E+02  0.99777132042E+02  0.25500000920E-02 0. -1.
    10030    2    1    2    0    0  0.00000000000E+00  0.00000000000E+00  0.82957056947E+03  0.10291248335E+04  0.60902429611E+03 0.  0.
        4    1    3    3  502    0  0.17485072321E+01  0.20925049959E+03  0.78859710262E+03  0.81588959549E+03  0.12699999809E+01 0.  1.
       -4    1    3    3    0  502 -0.17485072321E+01 -0.20925049959E+03  0.40973466852E+02  0.21323523804E+03  0.12699999809E+01 0. -1.
</event>
<event>
 5   0  0.2382531E-02  0.5998603E+03  0.7818609E-02  0.9905696E-01
        1   -1    0    0  501    0  0.00000000000E+00  0.00000000000E+00  0.11022381082E+04  0.11022381082E+04  0.50400001928E-02 0.  1.
       -1   -1    0    0    0  501  0.00000000000E+00  0.00000000000E+00 -0.81614026070E+02  0.81614026226E+02  0.50400001928E-02 0. -1.
    10030    2    1    2    0    0  0.00000000000E+00  0.00000000000E+00  0.10206240821E+04  0.11838521344E+04  0.59986028305E+03 0.  0.
        5    1    3    3  502    0 -0.29476143515E+03 -0.43271556202E+02  0.44253950847E+03  0.53349792669E+03  0.46999998093E+01 0.  1.
       -5    1    3    3    0  502  0.29476143515E+03  0.43271556202E+02  0.57808457365E+03  0.65035420773E+03  0.46999998093E+01 0. -1.
</event>
<event>
 5   0  0.2382531E-02  0.5998131E+03  0.7818609E-02  0.9905794E-01
        1   -1    0    0  501    0  0.00000000000E+00  0.00000000000E+00  0.37771237353E+03  0.37771237357E+03  0.50400001928E-02 0.  1.
       -1   -1    0    0    0  501  0.00000000000E+00  0.00000000000E+00 -0.23812813795E+03  0.23812813800E+03  0.50400001928E-02 0. -1.
    10030    2    1    2    0    0  0.00000000000E+00  0.00000000000E+00  0.13958423559E+03  0.61584051157E+03  0.59981311828E+03 0.  0.
        5    1    3    3  502    0 -0.22326880557E+03 -0.15992952139E+03  0.19340622567E+03  0.33593819295E+03  0.46999998093E+01 0. -1.
       -5    1    3    3    0  502  0.22326880557E+03  0.15992952139E+03 -0.53821990082E+02  0.27990231862E+03  0.46999998093E+01 0.  1.
</event>
<event>
 5   0  0.3934634E-02  0.5893274E+03  0.7818609E-02  0.9927799E-01
        2   -1    0    0  501    0  0.00000000000E+00  0.00000000000E+00  0.84339646496E+03  0.84339646497E+03  0.25500000920E-02 0. -1.
       -2   -1    0    0    0  501  0.00000000000E+00  0.00000000000E+00 -0.10294884506E+03  0.10294884509E+03  0.25500000920E-02 0.  1.
    10030    2    1    2    0    0  0.00000000000E+00  0.00000000000E+00  0.74044761990E+03  0.94634531006E+03  0.58932738614E+03 0.  0.
        1    1    3    3  502    0 -0.12916357151E+03  0.22470892301E+03  0.59531953990E+03  0.64929398803E+03  0.50400001928E-02 0. -1.
       -1    1    3    3    0  502  0.12916357151E+03 -0.22470892301E+03  0.14512808001E+03  0.29705132203E+03  0.50400001928E-02 0.  1.
</event>
<event>
 5   0  0.1521750E-02  0.5880313E+03  0.7818609E-02  0.9930553E-01
        3   -1    0    0  501    0  0.00000000000E+00  0.00000000000E+00  0.54327687691E+03  0.54327688630E+03  0.10100000352E+00 0.  1.
       -3   -1    0    0    0  501  0.00000000000E+00  0.00000000000E+00 -0.15911809157E+03  0.15911812362E+03  0.10100000352E+00 0. -1.
    10030    2    1    2    0    0  0.00000000000E+00  0.00000000000E+00  0.38415878534E+03  0.70239500993E+03  0.58803127265E+03 0.  0.
        5    1    3    3  502    0 -0.24257645210E+03  0.47540744293E+02  0.20110373131E+01  0.24724399235E+03  0.46999998093E+01 0. -1.
       -5    1    3    3    0  502  0.24257645210E+03 -0.47540744293E+02  0.38214774803E+03  0.45515101758E+03  0.46999998093E+01 0.  1.
</event>
<event>
 5   0  0.2382531E-02  0.5777936E+03  0.7818609E-02  0.9952579E-01
        1   -1    0    0  501    0  0.00000000000E+00  0.00000000000E+00  0.73825117049E+02  0.73825117221E+02  0.50400001928E-02 0.  1.
       -1   -1    0    0    0  501  0.00000000000E+00  0.00000000000E+00 -0.11305280750E+04  0.11305280750E+04  0.50400001928E-02 0. -1.
    10030    2    1    2    0    0  0.00000000000E+00  0.00000000000E+00 -0.10567029580E+04  0.12043531922E+04  0.57779362259E+03 0.  0.
        5    1    3    3  502    0 -0.56328585762E+02  0.22710354931E+03 -0.88141188490E+03  0.91195281266E+03  0.46999998093E+01 0. -1.
       -5    1    3    3    0  502  0.56328585762E+02 -0.22710354931E+03 -0.17529107306E+03  0.29240037958E+03  0.46999998093E+01 0.  1.
</event>
<event>
 5   0  0.2309055E-02  0.6030350E+03  0.7818609E-02  0.9899129E-01
       -1   -1    0    0    0  501  0.00000000000E+00  0.00000000000E+00  0.13856760963E+03  0.13856760972E+03  0.50400001928E-02 0. -1.
        1   -1    0    0  501    0  0.00000000000E+00  0.00000000000E+00 -0.65608995502E+03  0.65608995504E+03  0.50400001928E-02 0.  1.
    10030    2    1    2    0    0  0.00000000000E+00  0.00000000000E+00 -0.51752234539E+03  0.79465756476E+03  0.60303504645E+03 0.  0.
        4    1    3    3  502    0 -0.98086799434E+02  0.17619837420E+02  0.11623394915E+03  0.15311245125E+03  0.12699999809E+01 0. -1.
       -4    1    3    3    0  502  0.98086799434E+02 -0.17619837420E+02 -0.63375629454E+03  0.64154511350E+03  0.12699999809E+01 0.  1.
</event>
<event>
 5   0  0.2309055E-02  0.5966591E+03  0.7818609E-02  0.9912362E-01
       -1   -1    0    0    0  501  0.00000000000E+00  0.00000000000E+00  0.76015508190E+02  0.76015508357E+02  0.50400001928E-02 0.  1.
        1   -1    0    0  501    0  0.00000000000E+00  0.00000000000E+00 -0.11708203875E+04  0.11708203875E+04  0.50400001928E-02 0. -1.
    10030    2    1    2    0    0  0.00000000000E+00  0.00000000000E+00 -0.10948048793E+04  0.12468358959E+04  0.59665905463E+03 0.  0.
        4    1    3    3  502    0 -0.47830270813E+02 -0.18027182464E+01 -0.11627385738E+04  0.11637240174E+04  0.12699999809E+01 0. -1.
       -4    1    3    3    0  502  0.47830270813E+02  0.18027182464E+01  0.67933694519E+02  0.83111878514E+02  0.12699999809E+01 0.  1.
</event>
<event>
 5   0  0.2276105E-02  0.6042409E+03  0.7818609E-02  0.9896646E-01
       -1   -1    0    0    0  501  0.00000000000E+00  0.00000000000E+00  0.43649636717E+03  0.43649636720E+03  0.50400001928E-02 0. -1.
        1   -1    0    0  501    0  0.00000000000E+00  0.00000000000E+00 -0.20911228978E+03  0.20911228984E+03  0.50400001928E-02 0.  1.
    10030    2    1    2    0    0  0.00000000000E+00  0.00000000000E+00  0.22738407739E+03  0.64560865704E+03  0.60424086207E+03 0.  0.
        1    1    3    3  502    0 -0.49263424766E+02  0.27381871909E+03 -0.12156230495E+02  0.27848043003E+03  0.50400001928E-02 0.  1.
       -1    1    3    3    0  502  0.49263424766E+02 -0.27381871909E+03  0.23954030789E+03  0.36712822702E+03  0.50400001928E-02 0. -1.
</event>
<event>
 5   0  0.2276105E-02  0.5917301E+03  0.7818609E-02  0.9922714E-01
       -1   -1    0    0    0  501  0.00000000000E+00  0.00000000000E+00  0.14755543975E+03  0.14755543984E+03  0.50400001928E-02 0.  1.
        1   -1    0    0  501    0  0.00000000000E+00  0.00000000000E+00 -0.59324229713E+03  0.59324229715E+03  0.50400001928E-02 0. -1.
    10030    2    1    2    0    0  0.00000000000E+00  0.00000000000E+00 -0.44568685738E+03  0.74079773699E+03  0.59173010088E+03 0.  0.
        1    1    3    3  502    0  0.21361804150E+03  0.23681534392E+02  0.31707751966E+02  0.21725299603E+03  0.50400001928E-02 0.  1.
       -1    1    3    3    0  502 -0.21361804150E+03 -0.23681534392E+02 -0.47739460935E+03  0.52354474096E+03  0.50400001928E-02 0. -1.
</event>
<event>
 5   0  0.1521750E-02  0.6043955E+03  0.7818609E-02  0.9896329E-01
        4   -1    0    0  501    0  0.00000000000E+00  0.00000000000E+00  0.83933668705E+03  0.83933764786E+03  0.12699999809E+01 0. -1.
       -4   -1    0    0    0  501  0.00000000000E+00  0.00000000000E+00 -0.10879962089E+03  0.10880703289E+03  0.12699999809E+01 0.  1.
    10030    2    1    2    0    0  0.00000000000E+00  0.00000000000E+00  0.73053706615E+03  0.94814468076E+03  0.60439550844E+03 0.  0.
        1    1    3    3  502    0  0.13148229726E+03 -0.27191996553E+03  0.34994446068E+03  0.46226527853E+03  0.50400001928E-02 0.  1.
       -1    1    3    3    0  502 -0.13148229726E+03  0.27191996553E+03  0.38059260547E+03  0.48587940223E+03  0.50400001928E-02 0. -1.
</event>
<event>
 5   0  0.2382531E-02  0.5989009E+03  0.7818609E-02  0.9907689E-01
       -1   -1    0    0    0  501  0.00000000000E+00  0.00000000000E+00  0.42909592794E+02  0.42909593090E+02  0.50400001928E-02 0.  1.
        1   -1    0    0  501    0  0.00000000000E+00  0.00000000000E+00 -0.20897558667E+04  0.20897558668E+04  0.50400001928E-02 0. -1.
    10030    2    1    2    0    0  0.00000000000E+00  0.00000000000E+00 -0.20468462740E+04  0.21326654598E+04  0.59890090534E+03 0.  0.
        5    1    3    3  502    0 -0.20033119951E+03 -0.21315105149E+03 -0.12509496990E+04  0.12847035455E+04  0.46999998093E+01 0. -1.
       -5    1    3    3    0  502  0.20033119951E+03  0.21315105149E+03 -0.79589657491E+03  0.84796191435E+03  0.46999998093E+01 0.  1.
</event>
<event>
 5   0  0.3832191E-02  0.5996622E+03  0.7818609E-02  0.9906107E-01
        2   -1    0    0  501    0  0.00000000000E+00  0.00000000000E+00  0.29856608994E+03  0.29856608995E+03  0.25500000920E-02 0.  1.
       -2   -1    0    0    0  501  0.00000000000E+00  0.00000000000E+00 -0.30110146629E+03  0.30110146630E+03  0.25500000920E-02 0. -1.
    10030    2    1    2    0    0  0.00000000000E+00  0.00000000000E+00 -0.25353763509E+01  0.59966755625E+03  0.59966219648E+03 0.  0.
        3    1    3    3  502    0  0.20209197901E+03  0.14320281600E+03  0.16770264398E+03  0.29911937665E+03  0.10100000352E+00 0.  1.
       -3    1    3    3    0  502 -0.20209197901E+03 -0.14320281600E+03 -0.17023802033E+03  0.30054817959E+03  0.10100000352E+00 0. -1.
</event>
<event>
 5   0  0.2295179E-02  0.6028328E+03  0.7818609E-02  0.9899546E-01
        1   -1    0    0  501    0  0.00000000000E+00  0.00000000000E+00  0.57861495315E+03  0.57861495317E+03  0.50400001928E-02 0.  1.
       -1   -1    0    0    0  501  0.00000000000E+00  0.00000000000E+00 -0.15701606425E+03  0.15701606433E+03  0.50400001928E-02 0. -1.
    10030    2    1    2    0    0  0.00000000000E+00  0.00000000000E+00  0.42159888889E+03  0.73563101750E+03  0.60283278842E+03 0.  0.
        3    1    3    3  502    0  0.17604498453E+03  0.28033317139E+02  0.50739308215E+03  0.53779685148E+03  0.10100000352E+00 0.  1.
       -3    1    3    3    0  502 -0.17604498453E+03 -0.28033317139E+02 -0.85794193258E+02  0.19783416602E+03  0.10100000352E+00 0. -1.
</event>
<event>
 5   0  0.1521750E-02  0.5970124E+03  0.7818609E-02  0.9911624E-01
       -3   -1    0    0    0  501  0.00000000000E+00  0.00000000000E+00  0.41280315966E+03  0.41280317202E+03  0.10100000352E+00 0. -1.
        3   -1    0    0  501    0  0.00000000000E+00  0.00000000000E+00 -0.21585575612E+03  0.21585577975E+03  0.10100000352E+00 0.  1.
    10030    2    1    2    0    0  0.00000000000E+00  0.00000000000E+00  0.19694740355E+03  0.62865895177E+03  0.59701239340E+03 0.  0.
        3    1    3    3  502    0  0.55629368748E+01  0.29671399533E+03  0.64583879865E+02  0.30371241171E+03  0.10100000352E+00 0.  1.
       -3    1    3    3    0  502 -0.55629368748E+01 -0.29671399533E+03  0.13236352368E+03  0.32494654005E+03  0.10100000352E+00 0. -1.
</event>
<event>
 5   0  0.1521750E-02  0.5935776E+03  0.7818609E-02  0.9918821E-01
        4   -1    0    0  501    0  0.00000000000E+00  0.00000000000E+00  0.12920676513E+03  0.12921300653E+03  0.12699999809E+01 0.  1.
       -4   -1    0    0    0  501  0.00000000000E+00  0.00000000000E+00 -0.68170261261E+03  0.68170379560E+03  0.12699999809E+01 0. -1.
    10030    2    1    2    0    0  0.00000000000E+00  0.00000000000E+00 -0.55249584748E+03  0.81091680212E+03  0.59357762634E+03 0.  0.
        5    1    3    3  502    0  0.24554144631E+03 -0.16082504883E+03 -0.33589433400E+03  0.44609684129E+03  0.46999998093E+01 0. -1.
       -5    1    3    3    0  502 -0.24554144631E+03  0.16082504883E+03 -0.21660151347E+03  0.36481996084E+03  0.46999998093E+01 0.  1.
</event>
<event>
 5   0  0.3737642E-02  0.6003383E+03  0.7818609E-02  0.9904705E-01
       -2   -1    0    0    0  501  0.00000000000E+00  0.00000000000E+00  0.35779546900E+03  0.35779546901E+03  0.25500000920E-02 0.  1.
        2   -1    0    0  501    0  0.00000000000E+00  0.00000000000E+00 -0.25182406010E+03  0.25182406011E+03  0.25500000920E-02 0. -1.
    10030    2    1    2    0    0  0.00000000000E+00  0.00000000000E+00  0.10597140890E+03  0.60961952912E+03  0.60033826363E+03 0.  0.
        5    1    3    3  502    0 -0.20651270104E+03 -0.19140907269E+03 -0.52517071898E+02  0.28647000128E+03  0.46999998093E+01 0. -1.
       -5    1    3    3    0  502  0.20651270104E+03  0.19140907269E+03  0.15848848080E+03  0.32314952783E+03  0.46999998093E+01 0.  1.
</event>
<event>
 5   0  0.3832191E-02  0.6049595E+03  0.7818609E-02  0.9895170E-01
       -2   -1    0    0    0  501  0.00000000000E+00  0.00000000000E+00  0.22429368248E+03  0.22429368249E+03  0.25500000920E-02 0.  1.
        2   -1    0    0  501    0  0.00000000000E+00  0.00000000000E+00 -0.40792056224E+03  0.40792056225E+03  0.25500000920E-02 0. -1.
    10030    2    1    2    0    0  0.00000000000E+00  0.00000000000E+00 -0.18362687977E+03  0.63221424474E+03  0.60495951954E+03 0.  0.
        3    1    3    3  502    0 -0.21503170023E+03  0.18751294108E+03 -0.19681003085E+03  0.34660342413E+03  0.10100000352E+00 0. -1.
       -3    1    3    3    0  502  0.21503170023E+03 -0.18751294108E+03  0.13183151081E+02  0.28561082061E+03  0.10100000352E+00 0.  1.
</event>
<event>
 5   0  0.2276105E-02  0.5979429E+03  0.7818609E-02  0.9909683E-01
       -1   -1    0    0    0  501  0.00000000000E+00  0.00000000000E+00  0.16652404293E+03  0.16652404300E+03  0.50400001928E-02 0.  1.
        1   -1    0    0  501    0  0.00000000000E+00  0.00000000000E+00 -0.53676295307E+03  0.53676295310E+03  0.50400001928E-02 0. -1.
    10030    2    1    2    0    0  0.00000000000E+00  0.00000000000E+00 -0.37023891015E+03  0.70328699610E+03  0.59794293064E+03 0.  0.
        1    1    3    3  502    0  0.81151377502E+02 -0.13028866087E+03 -0.48688005305E+03  0.51050256347E+03  0.50400001928E-02 0. -1.
       -1    1    3    3    0  502 -0.81151377502E+02  0.13028866087E+03  0.11664114291E+03  0.19278443263E+03  0.50400001928E-02 0.  1.
</event>
<event>
 5   0  0.3724066E-02  0.6004590E+03  0.7818609E-02  0.9904454E-01
        2   -1    0    0  501    0  0.00000000000E+00  0.00000000000E+00  0.70008111329E+03  0.70008111329E+03  0.25500000920E-02 0.  1.
       -2   -1    0    0    0  501  0.00000000000E+00  0.00000000000E+00 -0.12875331151E+03  0.12875331153E+03  0.25500000920E-02 0. -1.
    10030    2    1    2    0    0  0.00000000000E+00  0.00000000000E+00  0.57132780179E+03  0.82883442483E+03  0.60045902998E+03 0.  0.
        4    1    3    3  502    0  0.99048454342E+02  0.27352065158E+03  0.18318387503E+03  0.34377621808E+03  0.12699999809E+01 0. -1.
       -4    1    3    3    0  502 -0.99048454342E+02 -0.27352065158E+03  0.38814392676E+03  0.48505820674E+03  0.12699999809E+01 0.  1.
</event>
<event>
 5   0  0.3934634E-02  0.6041064E+03  0.7818609E-02  0.9896923E-01
        2   -1    0    0  501    0  0.00000000000E+00  0.00000000000E+00  0.49308332140E+03  0.49308332141E+03  0.25500000920E-02 0. -1.
       -2   -1    0    0    0  501  0.00000000000E+00  0.00000000000E+00 -0.18503185953E+03  0.18503185955E+03  0.25500000920E-02 0.  1.
    10030    2    1    2    0    0  0.00000000000E+00  0.00000000000E+00  0.30805146187E+03  0.67811518096E+03  0.60410636107E+03 0.  0.
        1    1    3    3  502    0  0.18915481386E+03 -0.43137727757E+02 -0.10584364269E+03  0.22100516710E+03  0.50400001928E-02 0.  1.
       -1    1    3    3    0  502 -0.18915481386E+03  0.43137727757E+02  0.41389510456E+03  0.45711001386E+03  0.50400001928E-02 0. -1.
</event>
<event>
 5   0  0.3832191E-02  0.6045881E+03  0.7818609E-02  0.9895933E-01
       -2   -1    0    0    0  501  0.00000000000E+00  0.00000000000E+00  0.41632969272E+03  0.41632969272E+03  0.25500000920E-02 0.  1.
        2   -1    0    0  501    0  0.00000000000E+00  0.00000000000E+00 -0.21949353881E+03  0.21949353882E+03  0.25500000920E-02 0. -1.
    10030    2    1    2    0    0  0.00000000000E+00  0.00000000000E+00  0.19683615391E+03  0.63582323155E+03  0.60458805007E+03 0.  0.
        3    1    3    3  502    0  0.27311133805E+03  0.26218975868E+01 -0.37832194819E+02  0.27573168567E+03  0.10100000352E+00 0. -1.
       -3    1    3    3    0  502 -0.27311133805E+03 -0.26218975868E+01  0.23466834873E+03  0.36009154588E+03  0.10100000352E+00 0.  1.
</event>
<event>
 5   0  0.2382531E-02  0.5989548E+03  0.7818609E-02  0.9907577E-01
       -1   -1    0    0    0  501  0.00000000000E+00  0.00000000000E+00  0.18886774230E+03  0.18886774236E+03  0.50400001928E-02 0.  1.
        1   -1    0    0  501    0  0.00000000000E+00  0.00000000000E+00 -0.47486512403E+03  0.47486512406E+03  0.50400001928E-02 0. -1.
    10030    2    1    2    0    0  0.00000000000E+00  0.00000000000E+00 -0.28599738174E+03  0.66373286642E+03  0.59895476925E+03 0.  0.
        5    1    3    3  502    0 -0.15937355505E+03 -0.17165637413E+03  0.63720721597E+02  0.24279263001E+03  0.46999998093E+01 0.  1.
       -5    1    3    3    0  502  0.15937355505E+03  0.17165637413E+03 -0.34971810334E+03  0.42094023641E+03  0.46999998093E+01 0. -1.
</event>
<event>
 5   0  0.2225808E-02  0.6034638E+03  0.7818609E-02  0.9898246E-01
        1   -1    0    0  501    0  0.00000000000E+00  0.00000000000E+00  0.75426159145E+03  0.75426159147E+03  0.50400001928E-02 0. -1.
       -1   -1    0    0    0  501  0.00000000000E+00  0.00000000000E+00 -0.12070364827E+03  0.12070364838E+03  0.50400001928E-02 0.  1.
    10030    2    1    2    0    0  0.00000000000E+00  0.00000000000E+00  0.63355794318E+03  0.87496523984E+03  0.60346375497E+03 0.  0.
        2    1    3    3  502    0  0.46242787519E+02  0.27615938317E+03  0.15377115449E+03  0.31944947687E+03  0.25500000920E-02 0. -1.
       -2    1    3    3    0  502 -0.46242787519E+02 -0.27615938317E+03  0.47978678868E+03  0.55551576297E+03  0.25500000920E-02 0.  1.
</event>
<event>
 5   0  0.2276105E-02  0.6010661E+03  0.7818609E-02  0.9903197E-01
        1   -1    0    0  501    0  0.00000000000E+00  0.00000000000E+00  0.33395002462E+03  0.33395002466E+03  0.50400001928E-02 0.  1.
       -1   -1    0    0    0  501  0.00000000000E+00  0.00000000000E+00 -0.27045993351E+03  0.27045993356E+03  0.50400001928E-02 0. -1.
    10030    2    1    2    0    0  0.00000000000E+00  0.00000000000E+00  0.63490091114E+02  0.60440995822E+03  0.60106605787E+03 0.  0.
        1    1    3    3  502    0  0.17603698454E+03 -0.24342301205E+03  0.22960385071E+02  0.30128219667E+03  0.50400001928E-02 0.  1.
       -1    1    3    3    0  502 -0.17603698454E+03  0.24342301205E+03  0.40529706043E+02  0.30312776155E+03  0.50400001928E-02 0. -1.
</event>
<event>
 5   0  0.3798925E-02  0.5987130E+03  0.7818609E-02  0.9908080E-01
       -2   -1    0    0    0  501  0.00000000000E+00  0.00000000000E+00  0.18423059475E+03  0.18423059477E+03  0.25500000920E-02 0.  1.
        2   -1    0    0  501    0  0.00000000000E+00  0.00000000000E+00 -0.48642468243E+03  0.48642468243E+03  0.25500000920E-02 0. -1.
    10030    2    1    2    0    0  0.00000000000E+00  0.00000000000E+00 -0.30219408767E+03  0.67065527720E+03  0.59871298150E+03 0.  0.
        2    1    3    3  502    0 -0.49459555934E+02 -0.41064215911E+02  0.17640761179E+03  0.18775559380E+03  0.25500000920E-02 0.  1.
       -2    1    3    3    0  502  0.49459555934E+02  0.41064215911E+02 -0.47860169946E+03  0.48289968340E+03  0.25500000920E-02 0. -1.
</event>
<event>
 5   0  0.3724066E-02  0.5991726E+03  0.7818609E-02  0.9907124E-01
       -2   -1    0    0    0  501  0.00000000000E+00  0.00000000000E+00  0.86015023846E+02  0.86015023884E+02  0.25500000920E-02 0.  1.
        2   -1    0    0  501    0  0.00000000000E+00  0.00000000000E+00 -0.10434451472E+04  0.10434451472E+04  0.25500000920E-02 0. -1.
    10030    2    1    2    0    0  0.00000000000E+00  0.00000000000E+00 -0.95743012331E+03  0.11294601710E+04  0.59917262700E+03 0.  0.
        4    1    3    3  502    0  0.23987282734E+03 -0.17868109719E+03 -0.51050672005E+03  0.59167950100E+03  0.12699999809E+01 0.  1.
       -4    1    3    3    0  502 -0.23987282734E+03  0.17868109719E+03 -0.44692340326E+03  0.53778067004E+03  0.12699999809E+01 0. -1.
</event>
<event>
 5   0  0.2225808E-02  0.6043972E+03  0.7818609E-02  0.9896325E-01
        1   -1    0    0  501    0  0.00000000000E+00  0.00000000000E+00  0.20126187652E+03  0.20126187659E+03  0.50400001928E-02 0. -1.
       -1   -1    0    0    0  501  0.00000000000E+00  0.00000000000E+00 -0.45375710873E+03  0.45375710876E+03  0.50400001928E-02 0.  1.
    10030    2    1    2    0    0  0.00000000000E+00  0.00000000000E+00 -0.25249523221E+03  0.65501898535E+03  0.60439724427E+03 0.  0.
        2    1    3    3  502    0 -0.83310652725E+02 -0.33526099925E+02 -0.43896203186E+03  0.44805393610E+03  0.25500000920E-02 0.  1.
       -2    1    3    3    0  502  0.83310652725E+02  0.33526099925E+02  0.18646679965E+03  0.20696504925E+03  0.25500000920E-02 0. -1.
</event>
<event>
 5   0  0.1521750E-02  0.6016757E+03  0.7818609E-02  0.9901936E-01
       -3   -1    0    0    0  501  0.00000000000E+00  0.00000000000E+00  0.40224811798E+03  0.40224813066E+03  0.10100000352E+00 0. -1.
        3   -1    0    0  501    0  0.00000000000E+00  0.00000000000E+00 -0.22499396591E+03  0.22499398858E+03  0.10100000352E+00 0.  1.
    10030    2    1    2    0    0  0.00000000000E+00  0.00000000000E+00  0.17725415207E+03  0.62724211924E+03  0.60167569481E+03 0.  0.
        1    1    3    3  502    0 -0.86120650888E+02  0.11134088323E+03 -0.18854615237E+03  0.23529388089E+03  0.50400001928E-02 0.  1.
       -1    1    3    3    0  502  0.86120650888E+02 -0.11134088323E+03  0.36580030444E+03  0.39194823835E+03  0.50400001928E-02 0. -1.
</event>
<event>
 5   0  0.2295179E-02  0.6029951E+03  0.7818609E-02  0.9899211E-01
        1   -1    0    0  501    0  0.00000000000E+00  0.00000000000E+00  0.11551073641E+03  0.11551073652E+03  0.50400001928E-02 0. -1.
       -1   -1    0    0    0  501  0.00000000000E+00  0.00000000000E+00 -0.78694664879E+03  0.78694664881E+03  0.50400001928E-02 0.  1.
    10030    2    1    2    0    0  0.00000000000E+00  0.00000000000E+00 -0.67143591238E+03  0.90245738533E+03  0.60299514750E+03 0.  0.
        3    1    3    3  502    0  0.20587469131E+03 -0.20427806631E+03 -0.21242242740E+03  0.35949577850E+03  0.10100000352E+00 0. -1.
       -3    1    3    3    0  502 -0.20587469131E+03  0.20427806631E+03 -0.45901348498E+03  0.54296160683E+03  0.10100000352E+00 0.  1.
</event>
<event>
 5   0  0.2225808E-02  0.5940077E+03  0.7818609E-02  0.9917917E-01
       -1   -1    0    0    0  501  0.00000000000E+00  0.00000000000E+00  0.26046420807E+03  0.26046420812E+03  0.50400001928E-02 0.  1.
        1   -1    0    0  501    0  0.00000000000E+00  0.00000000000E+00 -0.33866955693E+03  0.33866955697E+03  0.50400001928E-02 0. -1.
    10030    2    1    2    0    0  0.00000000000E+00  0.00000000000E+00 -0.78205348861E+02  0.59913376509E+03  0.59400773722E+03 0.  0.
        2    1    3    3  502    0  0.24192019865E+03 -0.11106430616E+03  0.93755837826E+02  0.28222476814E+03  0.25500000920E-02 0.  1.
       -2    1    3    3    0  502 -0.24192019865E+03  0.11106430616E+03 -0.17196118669E+03  0.31690899695E+03  0.25500000920E-02 0. -1.
</event>
<event>
 5   0  0.2382531E-02  0.5904115E+03  0.7818609E-02  0.9925501E-01
       -1   -1    0    0    0  501  0.00000000000E+00  0.00000000000E+00  0.40853067503E+03  0.40853067506E+03  0.50400001928E-02 0. -1.
        1   -1    0    0  501    0  0.00000000000E+00  0.00000000000E+00 -0.21331676850E+03  0.21331676856E+03  0.50400001928E-02 0.  1.
    10030    2    1    2    0    0  0.00000000000E+00  0.00000000000E+00  0.19521390653E+03  0.62184744363E+03  0.59041152923E+03 0.  0.
        5    1    3    3  502    0  0.70788165259E+02 -0.12412425701E+03 -0.17442084696E+03  0.22552719874E+03  0.46999998093E+01 0.  1.
       -5    1    3    3    0  502 -0.70788165259E+02  0.12412425701E+03  0.36963475349E+03  0.39632024489E+03  0.46999998093E+01 0. -1.
</event>
<event>
 5   0  0.3798925E-02  0.5632956E+03  0.7818609E-02  0.9984625E-01
       -2   -1    0    0    0  501  0.00000000000E+00  0.00000000000E+00  0.49711351048E+03  0.49711351049E+03  0.25500000920E-02 0.  1.
        2   -1    0    0  501    0  0.00000000000E+00  0.00000000000E+00 -0.15957215609E+03  0.15957215611E+03  0.25500000920E-02 0. -1.
    10030    2    1    2    0    0  0.00000000000E+00  0.00000000000E+00  0.33754135439E+03  0.65668566660E+03  0.56329556966E+03 0.  0.
        2    1    3    3  502    0  0.16930760498E+03  0.53612673534E+02  0.42361323402E+03  0.45933381751E+03  0.25500000920E-02 0.  1.
       -2    1    3    3    0  502 -0.16930760498E+03 -0.53612673534E+02 -0.86071879627E+02  0.19735184909E+03  0.25500000920E-02 0. -1.
</event>
<event>
 5   0  0.3832191E-02  0.5931893E+03  0.7818609E-02  0.9919638E-01
       -2   -1    0    0    0  501  0.00000000000E+00  0.00000000000E+00  0.20005304935E+03  0.20005304937E+03  0.25500000920E-02 0. -1.
        2   -1    0    0  501    0  0.00000000000E+00  0.00000000000E+00 -0.43972531603E+03  0.43972531603E+03  0.25500000920E-02 0.  1.
    10030    2    1    2    0    0  0.00000000000E+00  0.00000000000E+00 -0.23967226667E+03  0.63977836540E+03  0.59318931331E+03 0.  0.
        3    1    3    3  502    0 -0.47185874223E+02 -0.29271757248E+03 -0.11160127126E+03  0.31680425804E+03  0.10100000352E+00 0. -1.
       -3    1    3    3    0  502  0.47185874223E+02  0.29271757248E+03 -0.12807099541E+03  0.32297410737E+03  0.10100000352E+00 0.  1.
</event>
<event>
 5   0  0.3798925E-02  0.6006018E+03  0.7818609E-02  0.9904158E-01
       -2   -1    0    0    0  501  0.00000000000E+00  0.00000000000E+00  0.50104512889E+02  0.50104512954E+02  0.25500000920E-02 0. -1.
        2   -1    0    0  501    0  0.00000000000E+00  0.00000000000E+00 -0.17998503478E+04  0.17998503478E+04  0.25500000920E-02 0.  1.
    10030    2    1    2    0    0  0.00000000000E+00  0.00000000000E+00 -0.17497458349E+04  0.18499548607E+04  0.60060178158E+03 0.  0.
        2    1    3    3  502    0  0.17262368529E+02  0.29483973193E+03 -0.10422303705E+04  0.10832694042E+04  0.25500000920E-02 0.  1.
       -2    1    3    3    0  502 -0.17262368529E+02 -0.29483973193E+03 -0.70751546440E+03  0.76668545654E+03  0.25500000920E-02 0. -1.
</event>
<event>
 5   0  0.2295179E-02  0.5987326E+03  0.7818609E-02  0.9908039E-01
        1   -1    0    0  501    0  0.00000000000E+00  0.00000000000E+00  0.14562743352E+04  0.14562743352E+04  0.50400001928E-02 0. -1.
       -1   -1    0    0    0  501  0.00000000000E+00  0.00000000000E+00 -0.61540725381E+02  0.61540725588E+02  0.50400001928E-02 0.  1.
    10030    2    1    2    0    0  0.00000000000E+00  0.00000000000E+00  0.13947336098E+04  0.15178150608E+04  0.59873259175E+03 0.  0.
        3    1    3    3  502    0  0.63022616408E+02 -0.27459660925E+03  0.95395837438E+03  0.99469178052E+03  0.10100000352E+00 0.  1.
       -3    1    3    3    0  502 -0.63022616408E+02  0.27459660925E+03  0.44077523544E+03  0.52312328028E+03  0.10100000352E+00 0. -1.
</event>
<event>
 5   0  0.2295179E-02  0.6037371E+03  0.7818609E-02  0.9897683E-01
        1   -1    0    0  501    0  0.00000000000E+00  0.00000000000E+00  0.18214021927E+03  0.18214021934E+03  0.50400001928E-02 0.  1.
       -1   -1    0    0    0  501  0.00000000000E+00  0.00000000000E+00 -0.50029924708E+03  0.50029924711E+03  0.50400001928E-02 0. -1.
    10030    2    1    2    0    0  0.00000000000E+00  0.00000000000E+00 -0.31815902781E+03  0.68243946645E+03  0.60373707721E+03 0.  0.
        3    1    3    3  502    0  0.22681055647E+03 -0.12767564613E+03  0.13760078271E+02  0.26064045943E+03  0.10100000352E+00 0.  1.
       -3    1    3    3    0  502 -0.22681055647E+03  0.12767564613E+03 -0.33191910608E+03  0.42179900702E+03  0.10100000352E+00 0. -1.
</event>
<event>
 5   0  0.3737642E-02  0.6118364E+03  0.7818609E-02  0.9881149E-01
        2   -1    0    0  501    0  0.00000000000E+00  0.00000000000E+00  0.67420673589E+03  0.67420673589E+03  0.25500000920E-02 0.  1.
       -2   -1    0    0    0  501  0.00000000000E+00  0.00000000000E+00 -0.13880897873E+03  0.13880897876E+03  0.25500000920E-02 0. -1.
    10030    2    1    2    0    0  0.00000000000E+00  0.00000000000E+00  0.53539775715E+03  0.81301571465E+03  0.61183641106E+03 0.  0.
        5    1    3    3  502    0 -0.23718031912E+02 -0.27458199361E+03  0.44401600162E+03  0.52261851857E+03  0.46999998093E+01 0.  1.
       -5    1    3    3    0  502  0.23718031912E+02  0.27458199361E+03  0.91381755531E+02  0.29039719608E+03  0.46999998093E+01 0. -1.
</event>
<event>
 5   0  0.2295179E-02  0.6663145E+03  0.7818609E-02  0.9776639E-01
        1   -1    0    0  501    0  0.00000000000E+00  0.00000000000E+00  0.92979932128E+03  0.92979932129E+03  0.50400001928E-02 0. -1.
       -1   -1    0    0    0  501  0.00000000000E+00  0.00000000000E+00 -0.11937388341E+03  0.11937388351E+03  0.50400001928E-02 0.  1.
    10030    2    1    2    0    0  0.00000000000E+00  0.00000000000E+00  0.81042543787E+03  0.10491732048E+04  0.66631450782E+03 0.  0.
        3    1    3    3  502    0  0.21539509962E+03 -0.16697883488E+03  0.10349547750E+03  0.29152753610E+03  0.10100000352E+00 0.  1.
       -3    1    3    3    0  502 -0.21539509962E+03  0.16697883488E+03  0.70692996037E+03  0.75764566870E+03  0.10100000352E+00 0. -1.
</event>
<event>
 5   0  0.2225808E-02  0.6001216E+03  0.7818609E-02  0.9905154E-01
        1   -1    0    0  501    0  0.00000000000E+00  0.00000000000E+00  0.32749856110E+03  0.32749856114E+03  0.50400001928E-02 0.  1.
       -1   -1    0    0    0  501  0.00000000000E+00  0.00000000000E+00 -0.27492175355E+03  0.27492175359E+03  0.50400001928E-02 0. -1.
    10030    2    1    2    0    0  0.00000000000E+00  0.00000000000E+00  0.52576807551E+02  0.60242031473E+03  0.60012158344E+03 0.  0.
        2    1    3    3  502    0  0.19144031684E+02  0.19907262964E+03  0.25084164548E+03  0.32080825571E+03  0.25500000920E-02 0.  1.
       -2    1    3    3    0  502 -0.19144031684E+02 -0.19907262964E+03 -0.19826483793E+03  0.28161205902E+03  0.25500000920E-02 0. -1.
</event>
<event>
 5   0  0.3737642E-02  0.5938621E+03  0.7818609E-02  0.9918223E-01
        2   -1    0    0  501    0  0.00000000000E+00  0.00000000000E+00  0.28385631256E+03  0.28385631257E+03  0.25500000920E-02 0.  1.
       -2   -1    0    0    0  501  0.00000000000E+00  0.00000000000E+00 -0.31060802003E+03  0.31060802004E+03  0.25500000920E-02 0. -1.
    10030    2    1    2    0    0  0.00000000000E+00  0.00000000000E+00 -0.26751707473E+02  0.59446433261E+03  0.59386209586E+03 0.  0.
        5    1    3    3  502    0  0.84110409281E+00  0.28577712492E+03 -0.93935318356E+02  0.30085745232E+03  0.46999998093E+01 0. -1.
       -5    1    3    3    0  502 -0.84110409281E+00 -0.28577712492E+03  0.67183610883E+02  0.29360688029E+03  0.46999998093E+01 0.  1.
</event>
<event>
 5   0  0.2276105E-02  0.6017633E+03  0.7818609E-02  0.9901754E-01
       -1   -1    0    0    0  501  0.00000000000E+00  0.00000000000E+00  0.19920045474E+03  0.19920045480E+03  0.50400001928E-02 0. -1.
        1   -1    0    0  501    0  0.00000000000E+00  0.00000000000E+00 -0.45446567814E+03  0.45446567816E+03  0.50400001928E-02 0.  1.
    10030    2    1    2    0    0  0.00000000000E+00  0.00000000000E+00 -0.25526522340E+03  0.65366613297E+03  0.60176330821E+03 0.  0.
        1    1    3    3  502    0  0.24071777145E+03  0.54475543733E+02  0.59307214856E+02  0.25383060516E+03  0.50400001928E-02 0. -1.
       -1    1    3    3    0  502 -0.24071777145E+03 -0.54475543733E+02 -0.31457243826E+03  0.39983552780E+03  0.50400001928E-02 0.  1.
</event>
<event>
 5   0  0.3832191E-02  0.6000209E+03  0.7818609E-02  0.9905363E-01
       -2   -1    0    0    0  501  0.00000000000E+00  0.00000000000E+00  0.33037546785E+03  0.33037546786E+03  0.25500000920E-02 0.  1.
        2   -1    0    0  501    0  0.00000000000E+00  0.00000000000E+00 -0.27243628467E+03  0.27243628468E+03  0.25500000920E-02 0. -1.
    10030    2    1    2    0    0  0.00000000000E+00  0.00000000000E+00  0.57939183181E+02  0.60281175254E+03  0.60002088301E+03 0.  0.
        3    1    3    3  502    0  0.19791235267E+03  0.13072255828E+03 -0.15559272020E+03  0.28366669062E+03  0.10100000352E+00 0. -1.
       -3    1    3    3    0  502 -0.19791235267E+03 -0.13072255828E+03  0.21353190339E+03  0.31914506192E+03  0.10100000352E+00 0.  1.
</event>
<event>
 5   0  0.3934634E-02  0.5779611E+03  0.7818609E-02  0.9952215E-01
        2   -1    0    0  501    0  0.00000000000E+00  0.00000000000E+00  0.38693723227E+03  0.38693723228E+03  0.25500000920E-02 0.  1.
       -2   -1    0    0    0  501  0.00000000000E+00  0.00000000000E+00 -0.21582246242E+03  0.21582246244E+03  0.25500000920E-02 0. -1.
    10030    2    1    2    0    0  0.00000000000E+00  0.00000000000E+00  0.17111476985E+03  0.60275969472E+03  0.57796105848E+03 0.  0.
        1    1    3    3  502    0 -0.22111220628E+02  0.27625318687E+03  0.17095496528E+03  0.32562298677E+03  0.50400001928E-02 0.  1.
       -1    1    3    3    0  502  0.22111220628E+02 -0.27625318687E+03  0.15980456741E+00  0.27713670795E+03  0.50400001928E-02 0. -1.
</event>
<event>
 5   0  0.3832191E-02  0.6000962E+03  0.7818609E-02  0.9905207E-01
       -2   -1    0    0    0  501  0.00000000000E+00  0.00000000000E+00  0.68556055170E+02  0.68556055218E+02  0.25500000920E-02 0. -1.
        2   -1    0    0  501    0  0.00000000000E+00  0.00000000000E+00 -0.13132152333E+04  0.13132152333E+04  0.25500000920E-02 0.  1.
    10030    2    1    2    0    0  0.00000000000E+00  0.00000000000E+00 -0.12446591781E+04  0.13817712885E+04  0.60009617902E+03 0.  0.
        3    1    3    3  502    0 -0.81531498915E+02  0.24401807328E+03 -0.97782813225E+03  0.10111083383E+04  0.10100000352E+00 0.  1.
       -3    1    3    3    0  502  0.81531498915E+02 -0.24401807328E+03 -0.26683104586E+03  0.37066295018E+03  0.10100000352E+00 0. -1.
</event>
<event>
 5   0  0.1521750E-02  0.5977184E+03  0.7818609E-02  0.9910151E-01
        4   -1    0    0  501    0  0.00000000000E+00  0.00000000000E+00  0.91920880482E+02  0.91929653369E+02  0.12699999809E+01 0.  1.
       -4   -1    0    0    0  501  0.00000000000E+00  0.00000000000E+00 -0.97161505493E+03  0.97161588494E+03  0.12699999809E+01 0. -1.
    10030    2    1    2    0    0  0.00000000000E+00  0.00000000000E+00 -0.87969417445E+03  0.10635455383E+04  0.59771838812E+03 0.  0.
        1    1    3    3  502    0  0.19640347236E+03  0.21490569093E+03 -0.55997624696E+03  0.63113562500E+03  0.50400001928E-02 0. -1.
       -1    1    3    3    0  502 -0.19640347236E+03 -0.21490569093E+03 -0.31971792748E+03  0.43240991331E+03  0.50400001928E-02 0.  1.
</event>
<event>
 5   0  0.3724066E-02  0.5889272E+03  0.7818609E-02  0.9928649E-01
       -2   -1    0    0    0  501  0.00000000000E+00  0.00000000000E+00  0.43483551308E+02  0.43483551383E+02  0.25500000920E-02 0.  1.
        2   -1    0    0  501    0  0.00000000000E+00  0.00000000000E+00 -0.19940599536E+04  0.19940599536E+04  0.25500000920E-02 0. -1.
    10030    2    1    2    0    0  0.00000000000E+00  0.00000000000E+00 -0.19505764023E+04  0.20375435050E+04  0.58892718864E+03 0.  0.
        4    1    3    3  502    0 -0.42293891165E+02  0.19459356326E+03 -0.22481833858E+03  0.30033369167E+03  0.12699999809E+01 0.  1.
       -4    1    3    3    0  502  0.42293891165E+02 -0.19459356326E+03 -0.17257580637E+04  0.17372098133E+04  0.12699999809E+01 0. -1.
</event>
<event>
 5   0  0.2295179E-02  0.6028963E+03  0.7818609E-02  0.9899415E-01
       -1   -1    0    0    0  501  0.00000000000E+00  0.00000000000E+00  0.61209928055E+03  0.61209928057E+03  0.50400001928E-02 0.  1.
        1   -1    0    0  501    0  0.00000000000E+00  0.00000000000E+00 -0.14845793809E+03  0.14845793818E+03  0.50400001928E-02 0. -1.
    10030    2    1    2    0    0  0.00000000000E+00  0.00000000000E+00  0.46364134246E+03  0.76055721875E+03  0.60289633317E+03 0.  0.
        3    1    3    3  502    0 -0.29548339317E+03  0.53738576075E+02  0.26454007394E+03  0.40022460084E+03  0.10100000352E+00 0.  1.
       -3    1    3    3    0  502  0.29548339317E+03 -0.53738576075E+02  0.19910126852E+03  0.36033261790E+03  0.10100000352E+00 0. -1.
</event>
<event>
 5   0  0.1521750E-02  0.6079604E+03  0.7818609E-02  0.9889027E-01
        4   -1    0    0  501    0  0.00000000000E+00  0.00000000000E+00  0.35986826881E+03  0.35987050976E+03  0.12699999809E+01 0. -1.
       -4   -1    0    0    0  501  0.00000000000E+00  0.00000000000E+00 -0.25676698038E+03  0.25677012115E+03  0.12699999809E+01 0.  1.
    10030    2    1    2    0    0  0.00000000000E+00  0.00000000000E+00  0.10310128842E+03  0.61664063091E+03  0.60796035398E+03 0.  0.
        4    1    3    3  502    0  0.95224943729E+02  0.12610505627E+03 -0.21183378195E+03  0.26428287724E+03  0.12699999809E+01 0.  1.
       -4    1    3    3    0  502 -0.95224943729E+02 -0.12610505627E+03  0.31493507037E+03  0.35235775367E+03  0.12699999809E+01 0. -1.
</event>
<event>
 5   0  0.1521750E-02  0.5909908E+03  0.7818609E-02  0.9924276E-01
        3   -1    0    0  501    0  0.00000000000E+00  0.00000000000E+00  0.26668610356E+03  0.26668612268E+03  0.10100000352E+00 0. -1.
       -3   -1    0    0    0  501  0.00000000000E+00  0.00000000000E+00 -0.32741683922E+03  0.32741685480E+03  0.10100000352E+00 0.  1.
    10030    2    1    2    0    0  0.00000000000E+00  0.00000000000E+00 -0.60730735667E+02  0.59410297748E+03  0.59099079993E+03 0.  0.
        4    1    3    3  502    0 -0.12771028164E+03 -0.20348648631E+03 -0.20331569163E+03  0.31473091604E+03  0.12699999809E+01 0.  1.
       -4    1    3    3    0  502  0.12771028164E+03  0.20348648631E+03  0.14258495596E+03  0.27937206144E+03  0.12699999809E+01 0. -1.
</event>
<event>
 5   0  0.1521750E-02  0.6022442E+03  0.7818609E-02  0.9900761E-01
       -3   -1    0    0    0  501  0.00000000000E+00  0.00000000000E+00  0.53821182617E+03  0.53821183565E+03  0.10100000352E+00 0.  1.
        3   -1    0    0  501    0  0.00000000000E+00  0.00000000000E+00 -0.16847363077E+03  0.16847366104E+03  0.10100000352E+00 0. -1.
    10030    2    1    2    0    0  0.00000000000E+00  0.00000000000E+00  0.36973819541E+03  0.70668549669E+03  0.60224418477E+03 0.  0.
        4    1    3    3  502    0  0.95616977107E+02  0.47331876039E+02 -0.14554817451E+03  0.18046827090E+03  0.12699999809E+01 0. -1.
       -4    1    3    3    0  502 -0.95616977107E+02 -0.47331876039E+02  0.51528636991E+03  0.52621722579E+03  0.12699999809E+01 0.  1.
</event>
<event>
 5   0  0.2382531E-02  0.5985195E+03  0.7818609E-02  0.9908482E-01
        1   -1    0    0  501    0  0.00000000000E+00  0.00000000000E+00  0.25690380768E+03  0.25690380773E+03  0.50400001928E-02 0. -1.
       -1   -1    0    0    0  501  0.00000000000E+00  0.00000000000E+00 -0.34859893208E+03  0.34859893211E+03  0.50400001928E-02 0.  1.
    10030    2    1    2    0    0  0.00000000000E+00  0.00000000000E+00 -0.91695124392E+02  0.60550273985E+03  0.59851948350E+03 0.  0.
        5    1    3    3  502    0 -0.12259422513E+03  0.15483541148E+03 -0.27326123405E+03  0.33719006616E+03  0.46999998093E+01 0.  1.
       -5    1    3    3    0  502  0.12259422513E+03 -0.15483541148E+03  0.18156610966E+03  0.26831267368E+03  0.46999998093E+01 0. -1.
</event>
<event>
 5   0  0.1521750E-02  0.5983995E+03  0.7818609E-02  0.9908732E-01
        4   -1    0    0  501    0  0.00000000000E+00  0.00000000000E+00  0.26085031972E+03  0.26085341132E+03  0.12699999809E+01 0. -1.
       -4   -1    0    0    0  501  0.00000000000E+00  0.00000000000E+00 -0.34318093217E+03  0.34318328209E+03  0.12699999809E+01 0.  1.
    10030    2    1    2    0    0  0.00000000000E+00  0.00000000000E+00 -0.82330612447E+02  0.60403669341E+03  0.59839952978E+03 0.  0.
        5    1    3    3  502    0 -0.15734457469E+03  0.25360517060E+03 -0.20343050957E+02  0.29918025914E+03  0.46999998093E+01 0. -1.
       -5    1    3    3    0  502  0.15734457469E+03 -0.25360517060E+03 -0.61987561491E+02  0.30485643427E+03  0.46999998093E+01 0.  1.
</event>
<event>
 5   0  0.2295179E-02  0.6014745E+03  0.7818609E-02  0.9902352E-01
       -1   -1    0    0    0  501  0.00000000000E+00  0.00000000000E+00  0.10120824681E+03  0.10120824694E+03  0.50400001928E-02 0. -1.
        1   -1    0    0  501    0  0.00000000000E+00  0.00000000000E+00 -0.89363163760E+03  0.89363163761E+03  0.50400001928E-02 0.  1.
    10030    2    1    2    0    0  0.00000000000E+00  0.00000000000E+00 -0.79242339078E+03  0.99483988455E+03  0.60147449292E+03 0.  0.
        3    1    3    3  502    0  0.29556922327E+03 -0.15866335416E+02 -0.30822292210E+03  0.42733392827E+03  0.10100000352E+00 0. -1.
       -3    1    3    3    0  502 -0.29556922327E+03  0.15866335416E+02 -0.48420046868E+03  0.56750595628E+03  0.10100000352E+00 0.  1.
</event>
<event>
 5   0  0.2295179E-02  0.6101033E+03  0.7818609E-02  0.9884664E-01
       -1   -1    0    0    0  501  0.00000000000E+00  0.00000000000E+00  0.75606545501E+02  0.75606545669E+02  0.50400001928E-02 0.  1.
        1   -1    0    0  501    0  0.00000000000E+00  0.00000000000E+00 -0.12307996561E+04  0.12307996561E+04  0.50400001928E-02 0. -1.
    10030    2    1    2    0    0  0.00000000000E+00  0.00000000000E+00 -0.11551931106E+04  0.13064062018E+04  0.61010330378E+03 0.  0.
        3    1    3    3  502    0 -0.96089220802E+02 -0.67440024538E+02 -0.11804941388E+04  0.11863168705E+04  0.10100000352E+00 0. -1.
       -3    1    3    3    0  502  0.96089220802E+02  0.67440024538E+02  0.25301028190E+02  0.12008933130E+03  0.10100000352E+00 0.  1.
</event>
<event>
 5   0  0.3737642E-02  0.6000685E+03  0.7818609E-02  0.9905264E-01
        2   -1    0    0  501    0  0.00000000000E+00  0.00000000000E+00  0.49330057474E+03  0.49330057475E+03  0.25500000920E-02 0.  1.
       -2   -1    0    0    0  501  0.00000000000E+00  0.00000000000E+00 -0.18248623198E+03  0.18248623200E+03  0.25500000920E-02 0. -1.
    10030    2    1    2    0    0  0.00000000000E+00  0.00000000000E+00  0.31081434276E+03  0.67578680675E+03  0.60006853985E+03 0.  0.
        5    1    3    3  502    0  0.16966612240E+03  0.24206011121E+03  0.21303849230E+03  0.36439975265E+03  0.46999998093E+01 0.  1.
       -5    1    3    3    0  502 -0.16966612240E+03 -0.24206011121E+03  0.97775850457E+02  0.31138705410E+03  0.46999998093E+01 0. -1.
</event>
<event>
 5   0  0.2276105E-02  0.6031979E+03  0.7818609E-02  0.9898794E-01
       -1   -1    0    0    0  501  0.00000000000E+00  0.00000000000E+00  0.67433579876E+02  0.67433580064E+02  0.50400001928E-02 0. -1.
        1   -1    0    0  501    0  0.00000000000E+00  0.00000000000E+00 -0.13489114456E+04  0.13489114456E+04  0.50400001928E-02 0.  1.
    10030    2    1    2    0    0  0.00000000000E+00  0.00000000000E+00 -0.12814778657E+04  0.14163450256E+04  0.60319790401E+03 0.  0.
        1    1    3    3  502    0  0.10751431332E+03 -0.19488469502E+02  0.19324151213E+02  0.11096193428E+03  0.50400001928E-02 0. -1.
       -1    1    3    3    0  502 -0.10751431332E+03  0.19488469502E+02 -0.13008020169E+04  0.13053830914E+04  0.50400001928E-02 0.  1.
</event>
<event>
 5   0  0.2382531E-02  0.6014040E+03  0.7818609E-02  0.9902497E-01
       -1   -1    0    0    0  501  0.00000000000E+00  0.00000000000E+00  0.18771453730E+03  0.18771453737E+03  0.50400001928E-02 0.  1.
        1   -1    0    0  501    0  0.00000000000E+00  0.00000000000E+00 -0.48169786354E+03  0.48169786356E+03  0.50400001928E-02 0. -1.
    10030    2    1    2    0    0  0.00000000000E+00  0.00000000000E+00 -0.29398332624E+03  0.66941240093E+03  0.60140399601E+03 0.  0.
        5    1    3    3  502    0  0.18247871633E+03 -0.16393617246E+03 -0.34050822958E+03  0.41969214308E+03  0.46999998093E+01 0. -1.
       -5    1    3    3    0  502 -0.18247871633E+03  0.16393617246E+03  0.46524903343E+02  0.24972025785E+03  0.46999998093E+01 0.  1.
</event>
<event>
 5   0  0.2309055E-02  0.6019806E+03  0.7818609E-02  0.9901305E-01
        1   -1    0    0  501    0  0.00000000000E+00  0.00000000000E+00  0.52329542961E+03  0.52329542964E+03  0.50400001928E-02 0. -1.
       -1   -1    0    0    0  501  0.00000000000E+00  0.00000000000E+00 -0.17312431000E+03  0.17312431007E+03  0.50400001928E-02 0.  1.
    10030    2    1    2    0    0  0.00000000000E+00  0.00000000000E+00  0.35017111961E+03  0.69641973971E+03  0.60198059840E+03 0.  0.
        4    1    3    3  502    0  0.16873303124E+03 -0.17245731671E+02  0.46274039672E+03  0.49284737876E+03  0.12699999809E+01 0. -1.
       -4    1    3    3    0  502 -0.16873303124E+03  0.17245731671E+02 -0.11256927711E+03  0.20357236095E+03  0.12699999809E+01 0.  1.
</event>
<event>
 5   0  0.2225808E-02  0.6035882E+03  0.7818609E-02  0.9897989E-01
       -1   -1    0    0    0  501  0.00000000000E+00  0.00000000000E+00  0.21839398558E+03  0.21839398564E+03  0.50400001928E-02 0.  1.
        1   -1    0    0  501    0  0.00000000000E+00  0.00000000000E+00 -0.41704300311E+03  0.41704300314E+03  0.50400001928E-02 0. -1.
    10030    2    1    2    0    0  0.00000000000E+00  0.00000000000E+00 -0.19864901753E+03  0.63543698878E+03  0.60358821604E+03 0.  0.
        2    1    3    3  502    0  0.13497459242E+03 -0.13747998317E+02  0.18447843488E+03  0.22899659604E+03  0.25500000920E-02 0.  1.
       -2    1    3    3    0  502 -0.13497459242E+03  0.13747998317E+02 -0.38312745240E+03  0.40644039274E+03  0.25500000920E-02 0. -1.
</event>
<event>
 5   0  0.3798925E-02  0.5998695E+03  0.7818609E-02  0.9905677E-01
        2   -1    0    0  501    0  0.00000000000E+00  0.00000000000E+00  0.10434489370E+04  0.10434489370E+04  0.25500000920E-02 0.  1.
       -2   -1    0    0    0  501  0.00000000000E+00  0.00000000000E+00 -0.86214904459E+02  0.86214904497E+02  0.25500000920E-02 0. -1.
    10030    2    1    2    0    0  0.00000000000E+00  0.00000000000E+00  0.95723403250E+03  0.11296638415E+04  0.59986948724E+03 0.  0.
        2    1    3    3  502    0  0.58370497897E+02  0.18564863697E+03  0.90841327142E+03  0.92902486680E+03  0.25500000920E-02 0.  1.
       -2    1    3    3    0  502 -0.58370497897E+02 -0.18564863697E+03  0.48820761088E+02  0.20063897467E+03  0.25500000920E-02 0. -1.
</event>
<event>
 5   0  0.3832191E-02  0.5985650E+03  0.7818609E-02  0.9908388E-01
        2   -1    0    0  501    0  0.00000000000E+00  0.00000000000E+00  0.18002194618E+03  0.18002194620E+03  0.25500000920E-02 0. -1.
       -2   -1    0    0    0  501  0.00000000000E+00  0.00000000000E+00 -0.49755049339E+03  0.49755049340E+03  0.25500000920E-02 0.  1.
    10030    2    1    2    0    0  0.00000000000E+00  0.00000000000E+00 -0.31752854721E+03  0.67757243959E+03  0.59856497776E+03 0.  0.
        3    1    3    3  502    0  0.74261991784E+02 -0.48997586677E+02 -0.48223441788E+03  0.49037297123E+03  0.10100000352E+00 0.  1.
       -3    1    3    3    0  502 -0.74261991784E+02  0.48997586677E+02  0.16470587067E+03  0.18719946837E+03  0.10100000352E+00 0. -1.
</event>
<event>
 5   0  0.3724066E-02  0.5922968E+03  0.7818609E-02  0.9921518E-01
       -2   -1    0    0    0  501  0.00000000000E+00  0.00000000000E+00  0.41026717719E+02  0.41026717799E+02  0.25500000920E-02 0. -1.
        2   -1    0    0  501    0  0.00000000000E+00  0.00000000000E+00 -0.21377260548E+04  0.21377260548E+04  0.25500000920E-02 0.  1.
    10030    2    1    2    0    0  0.00000000000E+00  0.00000000000E+00 -0.20966993371E+04  0.21787527726E+04  0.59229682930E+03 0.  0.
        4    1    3    3  502    0 -0.15079302341E+03 -0.21739437353E+03 -0.55891227793E+03  0.61837156861E+03  0.12699999809E+01 0. -1.
       -4    1    3    3    0  502  0.15079302341E+03  0.21739437353E+03 -0.15377870592E+04  0.15603812040E+04  0.12699999809E+01 0.  1.
</event>
<event>
 5   0  0.2295179E-02  0.6089384E+03  0.7818609E-02  0.9887033E-01
        1   -1    0    0  501    0  0.00000000000E+00  0.00000000000E+00  0.33237186194E+03  0.33237186198E+03  0.50400001928E-02 0.  1.
       -1   -1    0    0    0  501  0.00000000000E+00  0.00000000000E+00 -0.27890898062E+03  0.27890898066E+03  0.50400001928E-02 0. -1.
    10030    2    1    2    0    0  0.00000000000E+00  0.00000000000E+00  0.53462881326E+02  0.61128084265E+03  0.60893841142E+03 0.  0.
        3    1    3    3  502    0  0.65104196531E+02  0.29530196402E+03  0.62359949589E+02  0.30875650580E+03  0.10100000352E+00 0. -1.
       -3    1    3    3    0  502 -0.65104196531E+02 -0.29530196402E+03 -0.88970682629E+01  0.30252433685E+03  0.10100000352E+00 0.  1.
</event>
<event>
 5   0  0.3934634E-02  0.5829425E+03  0.7818609E-02  0.9941441E-01
       -2   -1    0    0    0  501  0.00000000000E+00  0.00000000000E+00  0.10027160868E+03  0.10027160871E+03  0.25500000920E-02 0.  1.
        2   -1    0    0  501    0  0.00000000000E+00  0.00000000000E+00 -0.84725357208E+03  0.84725357209E+03  0.25500000920E-02 0. -1.
    10030    2    1    2    0    0  0.00000000000E+00  0.00000000000E+00 -0.74698196341E+03  0.94752518080E+03  0.58294246250E+03 0.  0.
        1    1    3    3  502    0  0.60869807062E+02 -0.98301278494E+02 -0.80838433370E+03  0.81661098803E+03  0.50400001928E-02 0. -1.
       -1    1    3    3    0  502 -0.60869807062E+02  0.98301278494E+02  0.61402370296E+02  0.13091419277E+03  0.50400001928E-02 0.  1.
</event>
<event>
 5   0  0.3737642E-02  0.5997771E+03  0.7818609E-02  0.9905869E-01
        2   -1    0    0  501    0  0.00000000000E+00  0.00000000000E+00  0.45971351781E+03  0.45971351781E+03  0.25500000920E-02 0.  1.
       -2   -1    0    0    0  501  0.00000000000E+00  0.00000000000E+00 -0.19562867160E+03  0.19562867162E+03  0.25500000920E-02 0. -1.
    10030    2    1    2    0    0  0.00000000000E+00  0.00000000000E+00  0.26408484621E+03  0.65534218943E+03  0.59977710798E+03 0.  0.
        5    1    3    3  502    0  0.99517565786E+02  0.23729270496E+03 -0.36165969398E+02  0.25988774705E+03  0.46999998093E+01 0. -1.
       -5    1    3    3    0  502 -0.99517565786E+02 -0.23729270496E+03  0.30025081560E+03  0.39545444238E+03  0.46999998093E+01 0.  1.
</event>
<event>
 5   0  0.2309055E-02  0.6050302E+03  0.7818609E-02  0.9895025E-01
       -1   -1    0    0    0  501  0.00000000000E+00  0.00000000000E+00  0.70564158558E+02  0.70564158738E+02  0.50400001928E-02 0.  1.
        1   -1    0    0  501    0  0.00000000000E+00  0.00000000000E+00 -0.12969104282E+04  0.12969104282E+04  0.50400001928E-02 0. -1.
    10030    2    1    2    0    0  0.00000000000E+00  0.00000000000E+00 -0.12263462697E+04  0.13674745870E+04  0.60503022477E+03 0.  0.
        4    1    3    3  502    0 -0.22266161561E+03  0.56953075913E+02 -0.10577556758E+04  0.10824373102E+04  0.12699999809E+01 0. -1.
       -4    1    3    3    0  502  0.22266161561E+03 -0.56953075913E+02 -0.16859059392E+03  0.28503727682E+03  0.12699999809E+01 0.  1.
</event>
<event>
 5   0  0.2225808E-02  0.6215651E+03  0.7818609E-02  0.9861649E-01
        1   -1    0    0  501    0  0.00000000000E+00  0.00000000000E+00  0.54854725079E+03  0.54854725082E+03  0.50400001928E-02 0.  1.
       -1   -1    0    0    0  501  0.00000000000E+00  0.00000000000E+00 -0.17607558936E+03  0.17607558943E+03  0.50400001928E-02 0. -1.
    10030    2    1    2    0    0  0.00000000000E+00  0.00000000000E+00  0.37247166143E+03  0.72462284025E+03  0.62156505858E+03 0.  0.
        2    1    3    3  502    0  0.20905471340E+03  0.17688099340E+03  0.14918126202E+02  0.27425045035E+03  0.25500000920E-02 0. -1.
       -2    1    3    3    0  502 -0.20905471340E+03 -0.17688099340E+03  0.35755353523E+03  0.45037238990E+03  0.25500000920E-02 0.  1.
</event>
<event>
 5   0  0.2225808E-02  0.6051874E+03  0.7818609E-02  0.9894702E-01
       -1   -1    0    0    0  501  0.00000000000E+00  0.00000000000E+00  0.74413855379E+02  0.74413855550E+02  0.50400001928E-02 0.  1.
        1   -1    0    0  501    0  0.00000000000E+00  0.00000000000E+00 -0.12304557247E+04  0.12304557247E+04  0.50400001928E-02 0. -1.
    10030    2    1    2    0    0  0.00000000000E+00  0.00000000000E+00 -0.11560418693E+04  0.13048695802E+04  0.60518742374E+03 0.  0.
        2    1    3    3  502    0 -0.29579429158E+03 -0.40855876381E+02 -0.47240326428E+03  0.55886340878E+03  0.25500000920E-02 0.  1.
       -2    1    3    3    0  502  0.29579429158E+03  0.40855876381E+02 -0.68363860499E+03  0.74600617143E+03  0.25500000920E-02 0. -1.
</event>
<event>
 5   0  0.2295179E-02  0.6007910E+03  0.7818609E-02  0.9903766E-01
       -1   -1    0    0    0  501  0.00000000000E+00  0.00000000000E+00  0.10753292971E+03  0.10753292983E+03  0.50400001928E-02 0. -1.
        1   -1    0    0  501    0  0.00000000000E+00  0.00000000000E+00 -0.83916113661E+03  0.83916113663E+03  0.50400001928E-02 0.  1.
    10030    2    1    2    0    0  0.00000000000E+00  0.00000000000E+00 -0.73162820690E+03  0.94669406646E+03  0.60079099722E+03 0.  0.
        3    1    3    3  502    0  0.23677593547E+03 -0.16151804059E+03 -0.50751323471E+03  0.58285556930E+03  0.10100000352E+00 0. -1.
       -3    1    3    3    0  502 -0.23677593547E+03  0.16151804059E+03 -0.22411497219E+03  0.36383849716E+03  0.10100000352E+00 0.  1.
</event>
<event>
 5   0  0.2225808E-02  0.5971407E+03  0.7818609E-02  0.9911356E-01
        1   -1    0    0  501    0  0.00000000000E+00  0.00000000000E+00  0.10012675769E+04  0.10012675770E+04  0.50400001928E-02 0.  1.
       -1   -1    0    0    0  501  0.00000000000E+00  0.00000000000E+00 -0.89031399500E+02  0.89031399643E+02  0.50400001928E-02 0. -1.
    10030    2    1    2    0    0  0.00000000000E+00  0.00000000000E+00  0.91223617744E+03  0.10902989766E+04  0.59714069945E+03 0.  0.
        2    1    3    3  502    0  0.12799810596E+03 -0.24149176367E+03  0.23669131428E+03  0.36155852266E+03  0.25500000920E-02 0. -1.
       -2    1    3    3    0  502 -0.12799810596E+03  0.24149176367E+03  0.67554486316E+03  0.72874045393E+03  0.25500000920E-02 0.  1.
</event>
<event>
 5   0  0.3798925E-02  0.6014172E+03  0.7818609E-02  0.9902470E-01
       -2   -1    0    0    0  501  0.00000000000E+00  0.00000000000E+00  0.81187239707E+02  0.81187239747E+02  0.25500000920E-02 0.  1.
        2   -1    0    0  501    0  0.00000000000E+00  0.00000000000E+00 -0.11137914372E+04  0.11137914372E+04  0.25500000920E-02 0. -1.
    10030    2    1    2    0    0  0.00000000000E+00  0.00000000000E+00 -0.10326041974E+04  0.11949786769E+04  0.60141716775E+03 0.  0.
        2    1    3    3  502    0  0.26629863692E+03  0.91680898533E+02 -0.30691519913E+03  0.41655406690E+03  0.25500000920E-02 0.  1.
       -2    1    3    3    0  502 -0.26629863692E+03 -0.91680898533E+02 -0.72568899831E+03  0.77842461000E+03  0.25500000920E-02 0. -1.
</event>
<event>
 5   0  0.3798925E-02  0.5990093E+03  0.7818609E-02  0.9907464E-01
        2   -1    0    0  501    0  0.00000000000E+00  0.00000000000E+00  0.66112786996E+03  0.66112786996E+03  0.25500000920E-02 0.  1.
       -2   -1    0    0    0  501  0.00000000000E+00  0.00000000000E+00 -0.13568183908E+03  0.13568183910E+03  0.25500000920E-02 0. -1.
    10030    2    1    2    0    0  0.00000000000E+00  0.00000000000E+00  0.52544603088E+03  0.79680970907E+03  0.59900933306E+03 0.  0.
        2    1    3    3  502    0  0.13949229832E+03 -0.14602936502E+03 -0.31492714546E+02  0.20438803247E+03  0.25500000920E-02 0. -1.
       -2    1    3    3    0  502 -0.13949229832E+03  0.14602936502E+03  0.55693874543E+03  0.59242167660E+03  0.25500000920E-02 0.  1.
</event>
<event>
 5   0  0.3832191E-02  0.5966226E+03  0.7818609E-02  0.9912438E-01
       -2   -1    0    0    0  501  0.00000000000E+00  0.00000000000E+00  0.17446715176E+03  0.17446715178E+03  0.25500000920E-02 0.  1.
        2   -1    0    0  501    0  0.00000000000E+00  0.00000000000E+00 -0.51006527310E+03  0.51006527310E+03  0.25500000920E-02 0. -1.
    10030    2    1    2    0    0  0.00000000000E+00  0.00000000000E+00 -0.33559812134E+03  0.68453242488E+03  0.59662261244E+03 0.  0.
        3    1    3    3  502    0  0.29594454245E+03 -0.34785059569E+02 -0.15171768302E+03  0.33438217374E+03  0.10100000352E+00 0. -1.
       -3    1    3    3    0  502 -0.29594454245E+03  0.34785059569E+02 -0.18388043832E+03  0.35015025114E+03  0.10100000352E+00 0.  1.
</event>
<event>
 5   0  0.1521750E-02  0.5977565E+03  0.7818609E-02  0.9910072E-01
       -3   -1    0    0    0  501  0.00000000000E+00  0.00000000000E+00  0.22053125274E+03  0.22053127587E+03  0.10100000352E+00 0.  1.
        3   -1    0    0  501    0  0.00000000000E+00  0.00000000000E+00 -0.40505911094E+03  0.40505912353E+03  0.10100000352E+00 0. -1.
    10030    2    1    2    0    0  0.00000000000E+00  0.00000000000E+00 -0.18452785820E+03  0.62559039941E+03  0.59775648669E+03 0.  0.
        4    1    3    3  502    0 -0.20745240456E+03 -0.14498617453E+03 -0.25862843279E+03  0.36186706138E+03  0.12699999809E+01 0. -1.
       -4    1    3    3    0  502  0.20745240456E+03  0.14498617453E+03  0.74100574595E+02  0.26372333803E+03  0.12699999809E+01 0.  1.
</event>
<event>
 5   0  0.2309055E-02  0.6009781E+03  0.7818609E-02  0.9903379E-01
       -1   -1    0    0    0  501  0.00000000000E+00  0.00000000000E+00  0.54743951086E+03  0.54743951089E+03  0.50400001928E-02 0. -1.
        1   -1    0    0  501    0  0.00000000000E+00  0.00000000000E+00 -0.16493819091E+03  0.16493819098E+03  0.50400001928E-02 0.  1.
    10030    2    1    2    0    0  0.00000000000E+00  0.00000000000E+00  0.38250131996E+03  0.71237770187E+03  0.60097814465E+03 0.  0.
        4    1    3    3  502    0 -0.22869057889E+03 -0.68213098688E+02 -0.25186703383E+02  0.23997581260E+03  0.12699999809E+01 0.  1.
       -4    1    3    3    0  502  0.22869057889E+03  0.68213098688E+02  0.40768802334E+03  0.47240188927E+03  0.12699999809E+01 0. -1.
</event>
<event>
 5   0  0.2225808E-02  0.5995659E+03  0.7818609E-02  0.9906307E-01
       -1   -1    0    0    0  501  0.00000000000E+00  0.00000000000E+00  0.12105524256E+03  0.12105524267E+03  0.50400001928E-02 0. -1.
        1   -1    0    0  501    0  0.00000000000E+00  0.00000000000E+00 -0.74238692206E+03  0.74238692208E+03  0.50400001928E-02 0.  1.
    10030    2    1    2    0    0  0.00000000000E+00  0.00000000000E+00 -0.62133167950E+03  0.86344216475E+03  0.59956593959E+03 0.  0.
        2    1    3    3  502    0 -0.70373257892E+02 -0.22234094894E+03 -0.58193470676E+03  0.62692574995E+03  0.25500000920E-02 0.  1.
       -2    1    3    3    0  502  0.70373257892E+02  0.22234094894E+03 -0.39396972735E+02  0.23651641480E+03  0.25500000920E-02 0. -1.
</event>
<event>
 5   0  0.1521750E-02  0.6019674E+03  0.7818609E-02  0.9901333E-01
        3   -1    0    0  501    0  0.00000000000E+00  0.00000000000E+00  0.51001271778E+03  0.51001272778E+03  0.10100000352E+00 0. -1.
       -3   -1    0    0    0  501  0.00000000000E+00  0.00000000000E+00 -0.17762533063E+03  0.17762535934E+03  0.10100000352E+00 0.  1.
    10030    2    1    2    0    0  0.00000000000E+00  0.00000000000E+00  0.33238738715E+03  0.68763808712E+03  0.60196741085E+03 0.  0.
        3    1    3    3  502    0  0.23206709670E+03 -0.17141382818E+03  0.26414931219E+03  0.39116838726E+03  0.10100000352E+00 0.  1.
       -3    1    3    3    0  502 -0.23206709670E+03  0.17141382818E+03  0.68238074958E+02  0.29646969986E+03  0.10100000352E+00 0. -1.
</event>
<event>
 5   0  0.2225808E-02  0.5897212E+03  0.7818609E-02  0.9926964E-01
        1   -1    0    0  501    0  0.00000000000E+00  0.00000000000E+00  0.53791001760E+03  0.53791001763E+03  0.50400001928E-02 0. -1.
       -1   -1    0    0    0  501  0.00000000000E+00  0.00000000000E+00 -0.16163070766E+03  0.16163070774E+03  0.50400001928E-02 0.  1.
    10030    2    1    2    0    0  0.00000000000E+00  0.00000000000E+00  0.37627930994E+03  0.69954072537E+03  0.58972121156E+03 0.  0.
        2    1    3    3  502    0 -0.15878856748E+03 -0.17159035919E+03 -0.25003537835E+02  0.23512175025E+03  0.25500000920E-02 0.  1.
       -2    1    3    3    0  502  0.15878856748E+03  0.17159035919E+03  0.40128284777E+03  0.46441897512E+03  0.25500000920E-02 0. -1.
</event>
<event>
 5   0  0.3832191E-02  0.6047531E+03  0.7818609E-02  0.9895594E-01
       -2   -1    0    0    0  501  0.00000000000E+00  0.00000000000E+00  0.18912682664E+03  0.18912682666E+03  0.25500000920E-02 0.  1.
        2   -1    0    0  501    0  0.00000000000E+00  0.00000000000E+00 -0.48344056751E+03  0.48344056752E+03  0.25500000920E-02 0. -1.
    10030    2    1    2    0    0  0.00000000000E+00  0.00000000000E+00 -0.29431374087E+03  0.67256739417E+03  0.60475310801E+03 0.  0.
        3    1    3    3  502    0  0.53566320096E+02  0.26240752716E+03 -0.30327038877E+03  0.40459856632E+03  0.10100000352E+00 0. -1.
       -3    1    3    3    0  502 -0.53566320096E+02 -0.26240752716E+03  0.89566479048E+01  0.26796882786E+03  0.10100000352E+00 0.  1.
</event>
<event>
 5   0  0.3798925E-02  0.5665964E+03  0.7818609E-02  0.9977239E-01
       -2   -1    0    0    0  501  0.00000000000E+00  0.00000000000E+00  0.25650116399E+03  0.25650116400E+03  0.25500000920E-02 0. -1.
        2   -1    0    0  501    0  0.00000000000E+00  0.00000000000E+00 -0.31289477138E+03  0.31289477139E+03  0.25500000920E-02 0.  1.
    10030    2    1    2    0    0  0.00000000000E+00  0.00000000000E+00 -0.56393607393E+02  0.56939593540E+03  0.56659641041E+03 0.  0.
        2    1    3    3  502    0 -0.12170107050E+03 -0.42620408690E+02  0.22529987138E+03  0.25959137476E+03  0.25500000920E-02 0. -1.
       -2    1    3    3    0  502  0.12170107050E+03  0.42620408690E+02 -0.28169347878E+03  0.30980456064E+03  0.25500000920E-02 0.  1.
</event>
<event>
 5   0  0.3798925E-02  0.6003563E+03  0.7818609E-02  0.9904667E-01
       -2   -1    0    0    0  501  0.00000000000E+00  0.00000000000E+00  0.20500192572E+03  0.20500192573E+03  0.25500000920E-02 0. -1.
        2   -1    0    0  501    0  0.00000000000E+00  0.00000000000E+00 -0.43954179667E+03  0.43954179668E+03  0.25500000920E-02 0.  1.
    10030    2    1    2    0    0  0.00000000000E+00  0.00000000000E+00 -0.23453987096E+03  0.64454372241E+03  0.60035627675E+03 0.  0.
        2    1    3    3  502    0 -0.18541150858E+02  0.12929476453E+03 -0.40743261943E+03  0.42785774481E+03  0.25500000920E-02 0.  1.
       -2    1    3    3    0  502  0.18541150858E+02 -0.12929476453E+03  0.17289274847E+03  0.21668597761E+03  0.25500000920E-02 0. -1.
</event>
<event>
 5   0  0.2225808E-02  0.6533822E+03  0.7818609E-02  0.9800453E-01
       -1   -1    0    0    0  501  0.00000000000E+00  0.00000000000E+00  0.27139891692E+03  0.27139891696E+03  0.50400001928E-02 0.  1.
        1   -1    0    0  501    0  0.00000000000E+00  0.00000000000E+00 -0.39324798209E+03  0.39324798212E+03  0.50400001928E-02 0. -1.
    10030    2    1    2    0    0  0.00000000000E+00  0.00000000000E+00 -0.12184906517E+03  0.66464689909E+03  0.65338220498E+03 0.  0.
        2    1    3    3  502    0  0.32404748789E+03 -0.35244817150E+02 -0.83167118453E+02  0.33640116103E+03  0.25500000920E-02 0. -1.
       -2    1    3    3    0  502 -0.32404748789E+03  0.35244817150E+02 -0.38681946720E+02  0.32824573806E+03  0.25500000920E-02 0.  1.
</event>
<event>
 5   0  0.2382531E-02  0.5997454E+03  0.7818609E-02  0.9905934E-01
        1   -1    0    0  501    0  0.00000000000E+00  0.00000000000E+00  0.40554564270E+03  0.40554564273E+03  0.50400001928E-02 0.  1.
       -1   -1    0    0    0  501  0.00000000000E+00  0.00000000000E+00 -0.22173491536E+03  0.22173491542E+03  0.50400001928E-02 0. -1.
    10030    2    1    2    0    0  0.00000000000E+00  0.00000000000E+00  0.18381072733E+03  0.62728055815E+03  0.59974537526E+03 0.  0.
        5    1    3    3  502    0 -0.73215103083E+02 -0.11856207430E+03  0.36958278443E+03  0.39500752059E+03  0.46999998093E+01 0.  1.
       -5    1    3    3    0  502  0.73215103083E+02  0.11856207430E+03 -0.18577205709E+03  0.23227303756E+03  0.46999998093E+01 0. -1.
</event>
<event>
 5   0  0.1521750E-02  0.5960839E+03  0.7818609E-02  0.9913564E-01
        3   -1    0    0  501    0  0.00000000000E+00  0.00000000000E+00  0.19495167121E+03  0.19495169737E+03  0.10100000352E+00 0. -1.
       -3   -1    0    0    0  501  0.00000000000E+00  0.00000000000E+00 -0.45564627626E+03  0.45564628746E+03  0.10100000352E+00 0.  1.
    10030    2    1    2    0    0  0.00000000000E+00  0.00000000000E+00 -0.26069460505E+03  0.65059798483E+03  0.59608393768E+03 0.  0.
        5    1    3    3  502    0  0.24714813821E+03 -0.15348716685E+03 -0.59896420992E+02  0.29706932499E+03  0.46999998093E+01 0. -1.
       -5    1    3    3    0  502 -0.24714813821E+03  0.15348716685E+03 -0.20079818406E+03  0.35352865984E+03  0.46999998093E+01 0.  1.
</event>
<event>
 5   0  0.3934634E-02  0.6231440E+03  0.7818609E-02  0.9858520E-01
        2   -1    0    0  501    0  0.00000000000E+00  0.00000000000E+00  0.54092942440E+03  0.54092942441E+03  0.25500000920E-02 0.  1.
       -2   -1    0    0    0  501  0.00000000000E+00  0.00000000000E+00 -0.17946356449E+03  0.17946356451E+03  0.25500000920E-02 0. -1.
    10030    2    1    2    0    0  0.00000000000E+00  0.00000000000E+00  0.36146585991E+03  0.72039298892E+03  0.62314403680E+03 0.  0.
        1    1    3    3  502    0  0.20721007187E+03  0.19177979739E+03  0.33305966480E+03  0.43662826857E+03  0.50400001928E-02 0. -1.
       -1    1    3    3    0  502 -0.20721007187E+03 -0.19177979739E+03  0.28406195111E+02  0.28376472035E+03  0.50400001928E-02 0.  1.
</event>
<event>
 5   0  0.3832191E-02  0.6034194E+03  0.7818609E-02  0.9898337E-01
        2   -1    0    0  501    0  0.00000000000E+00  0.00000000000E+00  0.47105356422E+03  0.47105356423E+03  0.25500000920E-02 0.  1.
       -2   -1    0    0    0  501  0.00000000000E+00  0.00000000000E+00 -0.19324501333E+03  0.19324501334E+03  0.25500000920E-02 0. -1.
    10030    2    1    2    0    0  0.00000000000E+00  0.00000000000E+00  0.27780855090E+03  0.66429857757E+03  0.60341943059E+03 0.  0.
        3    1    3    3  502    0  0.12514243291E+03  0.26458171455E+03  0.21953747913E+03  0.36586995932E+03  0.10100000352E+00 0. -1.
       -3    1    3    3    0  502 -0.12514243291E+03 -0.26458171455E+03  0.58271071768E+02  0.29842861825E+03  0.10100000352E+00 0.  1.
</event>
<event>
 5   0  0.1521750E-02  0.5963838E+03  0.7818609E-02  0.9912937E-01
        4   -1    0    0  501    0  0.00000000000E+00  0.00000000000E+00  0.14942956655E+03  0.14943496331E+03  0.12699999809E+01 0. -1.
       -4   -1    0    0    0  501  0.00000000000E+00  0.00000000000E+00 -0.59503558985E+03  0.59503694515E+03  0.12699999809E+01 0.  1.
    10030    2    1    2    0    0  0.00000000000E+00  0.00000000000E+00 -0.44560602330E+03  0.74447190846E+03  0.59638384828E+03 0.  0.
        1    1    3    3  502    0  0.86636962583E+02 -0.45896318600E+02  0.12873754216E+03  0.16182024018E+03  0.50400001928E-02 0. -1.
       -1    1    3    3    0  502 -0.86636962583E+02  0.45896318600E+02 -0.57434356546E+03  0.58265166828E+03  0.50400001928E-02 0.  1.
</event>
<event>
 5   0  0.3832191E-02  0.6017277E+03  0.7818609E-02  0.9901828E-01
       -2   -1    0    0    0  501  0.00000000000E+00  0.00000000000E+00  0.16191407675E+03  0.16191407677E+03  0.25500000920E-02 0.  1.
        2   -1    0    0  501    0  0.00000000000E+00  0.00000000000E+00 -0.55905618189E+03  0.55905618189E+03  0.25500000920E-02 0. -1.
    10030    2    1    2    0    0  0.00000000000E+00  0.00000000000E+00 -0.39714210514E+03  0.72097025866E+03  0.60172773096E+03 0.  0.
        3    1    3    3  502    0  0.21473378744E+03  0.18190382520E+03 -0.32604753392E+03  0.43070477786E+03  0.10100000352E+00 0. -1.
       -3    1    3    3    0  502 -0.21473378744E+03 -0.18190382520E+03 -0.71094571215E+02  0.29026548081E+03  0.10100000352E+00 0.  1.
</event>
<event>
 5   0  0.3798925E-02  0.6003183E+03  0.7818609E-02  0.9904746E-01
       -2   -1    0    0    0  501  0.00000000000E+00  0.00000000000E+00  0.87300689437E+02  0.87300689474E+02  0.25500000920E-02 0.  1.
        2   -1    0    0  501    0  0.00000000000E+00  0.00000000000E+00 -0.10320138050E+04  0.10320138050E+04  0.25500000920E-02 0. -1.
    10030    2    1    2    0    0  0.00000000000E+00  0.00000000000E+00 -0.94471311559E+03  0.11193144945E+04  0.60031830460E+03 0.  0.
        2    1    3    3  502    0 -0.10658202075E+03  0.90155889376E+02 -0.96780285861E+03  0.97781909608E+03  0.25500000920E-02 0. -1.
       -2    1    3    3    0  502  0.10658202075E+03 -0.90155889376E+02  0.23089743013E+02  0.14149539842E+03  0.25500000920E-02 0.  1.
</event>
<event>
 5   0  0.3737642E-02  0.5955772E+03  0.7818609E-02  0.9914625E-01
       -2   -1    0    0    0  501  0.00000000000E+00  0.00000000000E+00  0.12153724124E+03  0.12153724126E+03  0.25500000920E-02 0. -1.
        2   -1    0    0  501    0  0.00000000000E+00  0.00000000000E+00 -0.72963693412E+03  0.72963693412E+03  0.25500000920E-02 0.  1.
    10030    2    1    2    0    0  0.00000000000E+00  0.00000000000E+00 -0.60809969288E+03  0.85117417538E+03  0.59557723291E+03 0.  0.
        5    1    3    3  502    0 -0.27590207187E+03 -0.93576767499E+02 -0.21621291607E+03  0.36283423178E+03  0.46999998093E+01 0.  1.
       -5    1    3    3    0  502  0.27590207187E+03  0.93576767499E+02 -0.39188677681E+03  0.48833994360E+03  0.46999998093E+01 0. -1.
</event>
<event>
 5   0  0.2295179E-02  0.6033710E+03  0.7818609E-02  0.9898437E-01
        1   -1    0    0  501    0  0.00000000000E+00  0.00000000000E+00  0.89048048528E+03  0.89048048530E+03  0.50400001928E-02 0.  1.
       -1   -1    0    0    0  501  0.00000000000E+00  0.00000000000E+00 -0.10220790213E+03  0.10220790225E+03  0.50400001928E-02 0. -1.
    10030    2    1    2    0    0  0.00000000000E+00  0.00000000000E+00  0.78827258315E+03  0.99268838755E+03  0.60337100480E+03 0.  0.
        3    1    3    3  502    0 -0.11442190054E+03  0.27429714163E+03  0.47935320597E+03  0.56401311998E+03  0.10100000352E+00 0. -1.
       -3    1    3    3    0  502  0.11442190054E+03 -0.27429714163E+03  0.30891937718E+03  0.42867526757E+03  0.10100000352E+00 0.  1.
</event>
<event>
 5   0  0.2382531E-02  0.6027074E+03  0.7818609E-02  0.9899805E-01
        1   -1    0    0  501    0  0.00000000000E+00  0.00000000000E+00  0.30776098611E+03  0.30776098615E+03  0.50400001928E-02 0. -1.
       -1   -1    0    0    0  501  0.00000000000E+00  0.00000000000E+00 -0.29507977722E+03  0.29507977726E+03  0.50400001928E-02 0.  1.
    10030    2    1    2    0    0  0.00000000000E+00  0.00000000000E+00  0.12681208891E+02  0.60284076341E+03  0.60270736927E+03 0.  0.
        5    1    3    3  502    0 -0.88143389406E+02  0.25556155236E+03 -0.12677149019E+03  0.29862026867E+03  0.46999998093E+01 0. -1.
       -5    1    3    3    0  502  0.88143389406E+02 -0.25556155236E+03  0.13945269908E+03  0.30422049474E+03  0.46999998093E+01 0.  1.
</event>
<event>
 5   0  0.3934634E-02  0.6025113E+03  0.7818609E-02  0.9900210E-01
        2   -1    0    0  501    0  0.00000000000E+00  0.00000000000E+00  0.84593158189E+03  0.84593158189E+03  0.25500000920E-02 0. -1.
       -2   -1    0    0    0  501  0.00000000000E+00  0.00000000000E+00 -0.10728403744E+03  0.10728403747E+03  0.25500000920E-02 0.  1.
    10030    2    1    2    0    0  0.00000000000E+00  0.00000000000E+00  0.73864754444E+03  0.95321561936E+03  0.60251126304E+03 0.  0.
        1    1    3    3  502    0 -0.18389928238E+03 -0.79788721603E+02  0.13552016805E+02  0.20091999238E+03  0.50400001928E-02 0.  1.
       -1    1    3    3    0  502  0.18389928238E+03  0.79788721603E+02  0.72509552764E+03  0.75229562698E+03  0.50400001928E-02 0. -1.
</event>
<event>
 5   0  0.2225808E-02  0.5985717E+03  0.7818609E-02  0.9908374E-01
       -1   -1    0    0    0  501  0.00000000000E+00  0.00000000000E+00  0.92294024789E+02  0.92294024926E+02  0.50400001928E-02 0. -1.
        1   -1    0    0  501    0  0.00000000000E+00  0.00000000000E+00 -0.97050725240E+03  0.97050725241E+03  0.50400001928E-02 0.  1.
    10030    2    1    2    0    0  0.00000000000E+00  0.00000000000E+00 -0.87821322761E+03  0.10628012773E+04  0.59857170160E+03 0.  0.
        2    1    3    3  502    0  0.23615229710E+03  0.52453195088E+01 -0.76542673226E+03  0.80104525669E+03  0.25500000920E-02 0.  1.
       -2    1    3    3    0  502 -0.23615229710E+03 -0.52453195088E+01 -0.11278649535E+03  0.26175602065E+03  0.25500000920E-02 0. -1.
</event>
<event>
 5   0  0.3798925E-02  0.6001169E+03  0.7818609E-02  0.9905164E-01
       -2   -1    0    0    0  501  0.00000000000E+00  0.00000000000E+00  0.44139303017E+03  0.44139303017E+03  0.25500000920E-02 0. -1.
        2   -1    0    0  501    0  0.00000000000E+00  0.00000000000E+00 -0.20397938422E+03  0.20397938424E+03  0.25500000920E-02 0.  1.
    10030    2    1    2    0    0  0.00000000000E+00  0.00000000000E+00  0.23741364594E+03  0.64537241441E+03  0.60011691694E+03 0.  0.
        2    1    3    3  502    0 -0.19393833023E+02 -0.18178741453E+03 -0.13716938387E+03  0.22855683040E+03  0.25500000920E-02 0.  1.
       -2    1    3    3    0  502  0.19393833023E+02  0.18178741453E+03  0.37458302982E+03  0.41681558401E+03  0.25500000920E-02 0. -1.
</event>
<event>
 5   0  0.2276105E-02  0.5905421E+03  0.7818609E-02  0.9925225E-01
       -1   -1    0    0    0  501  0.00000000000E+00  0.00000000000E+00  0.39804166356E+02  0.39804166676E+02  0.50400001928E-02 0. -1.
        1   -1    0    0  501    0  0.00000000000E+00  0.00000000000E+00 -0.21903486090E+04  0.21903486090E+04  0.50400001928E-02 0.  1.
    10030    2    1    2    0    0  0.00000000000E+00  0.00000000000E+00 -0.21505444426E+04  0.22301527757E+04  0.59054212643E+03 0.  0.
        1    1    3    3  502    0 -0.41019203532E+02 -0.17886046809E+03 -0.19488603437E+04  0.19574805954E+04  0.50400001928E-02 0.  1.
       -1    1    3    3    0  502  0.41019203532E+02  0.17886046809E+03 -0.20168409894E+03  0.27267218027E+03  0.50400001928E-02 0. -1.
</event>
<event>
 5   0  0.3724066E-02  0.6030268E+03  0.7818609E-02  0.9899146E-01
        2   -1    0    0  501    0  0.00000000000E+00  0.00000000000E+00  0.14281726064E+04  0.14281726064E+04  0.25500000920E-02 0. -1.
       -2   -1    0    0    0  501  0.00000000000E+00  0.00000000000E+00 -0.63655004914E+02  0.63655004965E+02  0.25500000920E-02 0.  1.
    10030    2    1    2    0    0  0.00000000000E+00  0.00000000000E+00  0.13645176015E+04  0.14918276114E+04  0.60302681306E+03 0.  0.
        4    1    3    3  502    0 -0.27951423450E+03 -0.99429014612E+02  0.81535332285E+03  0.86765026953E+03  0.12699999809E+01 0.  1.
       -4    1    3    3    0  502  0.27951423450E+03  0.99429014612E+02  0.54916427864E+03  0.62417734184E+03  0.12699999809E+01 0. -1.
</event>
<event>
 5   0  0.2309055E-02  0.6330961E+03  0.7818609E-02  0.9839026E-01
       -1   -1    0    0    0  501  0.00000000000E+00  0.00000000000E+00  0.14111343048E+03  0.14111343057E+03  0.50400001928E-02 0. -1.
        1   -1    0    0  501    0  0.00000000000E+00  0.00000000000E+00 -0.71008592630E+03  0.71008592632E+03  0.50400001928E-02 0.  1.
    10030    2    1    2    0    0  0.00000000000E+00  0.00000000000E+00 -0.56897249582E+03  0.85119935689E+03  0.63309607815E+03 0.  0.
        4    1    3    3  502    0 -0.99258159069E+01 -0.30481556358E+03 -0.17048067953E+03  0.34939422522E+03  0.12699999809E+01 0.  1.
       -4    1    3    3    0  502  0.99258159069E+01  0.30481556358E+03 -0.39849181629E+03  0.50180513168E+03  0.12699999809E+01 0. -1.
</event>
<event>
 5   0  0.3737642E-02  0.5999058E+03  0.7818609E-02  0.9905602E-01
       -2   -1    0    0    0  501  0.00000000000E+00  0.00000000000E+00  0.67869047830E+02  0.67869047878E+02  0.25500000920E-02 0.  1.
        2   -1    0    0  501    0  0.00000000000E+00  0.00000000000E+00 -0.13256667551E+04  0.13256667551E+04  0.25500000920E-02 0. -1.
    10030    2    1    2    0    0  0.00000000000E+00  0.00000000000E+00 -0.12577977073E+04  0.13935358030E+04  0.59990579409E+03 0.  0.
        5    1    3    3  502    0 -0.54907888322E+02 -0.20167300642E+02  0.54404486325E+02  0.80022086611E+02  0.46999998093E+01 0.  1.
       -5    1    3    3    0  502  0.54907888322E+02  0.20167300642E+02 -0.13122021936E+04  0.13135137164E+04  0.46999998093E+01 0. -1.
</event>
<event>
 5   0  0.2225808E-02  0.6000507E+03  0.7818609E-02  0.9905301E-01
        1   -1    0    0  501    0  0.00000000000E+00  0.00000000000E+00  0.49783029873E+03  0.49783029875E+03  0.50400001928E-02 0. -1.
       -1   -1    0    0    0  501  0.00000000000E+00  0.00000000000E+00 -0.18081504859E+03  0.18081504866E+03  0.50400001928E-02 0.  1.
    10030    2    1    2    0    0  0.00000000000E+00  0.00000000000E+00  0.31701525014E+03  0.67864534742E+03  0.60005069682E+03 0.  0.
        2    1    3    3  502    0 -0.67416379950E+02 -0.29025887434E+03  0.19801150020E+03  0.35777609847E+03  0.25500000920E-02 0. -1.
       -2    1    3    3    0  502  0.67416379950E+02  0.29025887434E+03  0.11900374993E+03  0.32086924895E+03  0.25500000920E-02 0.  1.
</event>
<event>
 5   0  0.2295179E-02  0.5997619E+03  0.7818609E-02  0.9905900E-01
       -1   -1    0    0    0  501  0.00000000000E+00  0.00000000000E+00  0.13734599234E+03  0.13734599243E+03  0.50400001928E-02 0. -1.
        1   -1    0    0  501    0  0.00000000000E+00  0.00000000000E+00 -0.65475934212E+03  0.65475934214E+03  0.50400001928E-02 0.  1.
    10030    2    1    2    0    0  0.00000000000E+00  0.00000000000E+00 -0.51741334978E+03  0.79210533457E+03  0.59976185818E+03 0.  0.
        3    1    3    3  502    0 -0.24826700834E+02  0.18848877246E+03  0.47582301635E+02  0.19598078489E+03  0.10100000352E+00 0. -1.
       -3    1    3    3    0  502  0.24826700834E+02 -0.18848877246E+03 -0.56499565141E+03  0.59612454968E+03  0.10100000352E+00 0.  1.
</event>
<event>
 5   0  0.3934634E-02  0.6189187E+03  0.7818609E-02  0.9866915E-01
       -2   -1    0    0    0  501  0.00000000000E+00  0.00000000000E+00  0.92614635564E+02  0.92614635599E+02  0.25500000920E-02 0.  1.
        2   -1    0    0  501    0  0.00000000000E+00  0.00000000000E+00 -0.10340166543E+04  0.10340166543E+04  0.25500000920E-02 0. -1.
    10030    2    1    2    0    0  0.00000000000E+00  0.00000000000E+00 -0.94140201876E+03  0.11266312899E+04  0.61891865581E+03 0.  0.
        1    1    3    3  502    0  0.27928651313E+03  0.15375966113E+02 -0.71169748227E+03  0.76468992608E+03  0.50400001928E-02 0. -1.
       -1    1    3    3    0  502 -0.27928651313E+03 -0.15375966113E+02 -0.22970453648E+03  0.36194136384E+03  0.50400001928E-02 0.  1.
</event>
<event>
 5   0  0.2295179E-02  0.5973641E+03  0.7818609E-02  0.9910890E-01
        1   -1    0    0  501    0  0.00000000000E+00  0.00000000000E+00  0.28567302563E+03  0.28567302568E+03  0.50400001928E-02 0.  1.
       -1   -1    0    0    0  501  0.00000000000E+00  0.00000000000E+00 -0.31228344498E+03  0.31228344502E+03  0.50400001928E-02 0. -1.
    10030    2    1    2    0    0  0.00000000000E+00  0.00000000000E+00 -0.26610419350E+02  0.59795647070E+03  0.59736406523E+03 0.  0.
        3    1    3    3  502    0 -0.20268233104E+03 -0.41722155712E+02  0.20229195275E+03  0.28938367256E+03  0.10100000352E+00 0.  1.
       -3    1    3    3    0  502  0.20268233104E+03  0.41722155712E+02 -0.22890237210E+03  0.30857279814E+03  0.10100000352E+00 0. -1.
</event>
<event>
 5   0  0.3934634E-02  0.5959945E+03  0.7818609E-02  0.9913751E-01
       -2   -1    0    0    0  501  0.00000000000E+00  0.00000000000E+00  0.76384349599E+02  0.76384349642E+02  0.25500000920E-02 0.  1.
        2   -1    0    0  501    0  0.00000000000E+00  0.00000000000E+00 -0.11625728419E+04  0.11625728419E+04  0.25500000920E-02 0. -1.
    10030    2    1    2    0    0  0.00000000000E+00  0.00000000000E+00 -0.10861884923E+04  0.12389571915E+04  0.59599453158E+03 0.  0.
        1    1    3    3  502    0 -0.25680308807E+03  0.28920693216E+02 -0.23463036464E+03  0.34904962480E+03  0.50400001928E-02 0.  1.
       -1    1    3    3    0  502  0.25680308807E+03 -0.28920693216E+02 -0.85155812766E+03  0.88990756674E+03  0.50400001928E-02 0. -1.
</event>
<event>
 5   0  0.2295179E-02  0.5991207E+03  0.7818609E-02  0.9907232E-01
        1   -1    0    0  501    0  0.00000000000E+00  0.00000000000E+00  0.31421774991E+03  0.31421774995E+03  0.50400001928E-02 0. -1.
       -1   -1    0    0    0  501  0.00000000000E+00  0.00000000000E+00 -0.28558671953E+03  0.28558671957E+03  0.50400001928E-02 0.  1.
    10030    2    1    2    0    0  0.00000000000E+00  0.00000000000E+00  0.28631030376E+02  0.59980446952E+03  0.59912074389E+03 0.  0.
        3    1    3    3  502    0  0.23400064834E+03 -0.18251784226E+03  0.55195190202E+02  0.30185358270E+03  0.10100000352E+00 0. -1.
       -3    1    3    3    0  502 -0.23400064834E+03  0.18251784226E+03 -0.26564159826E+02  0.29795088682E+03  0.10100000352E+00 0.  1.
</event>
<event>
 5   0  0.2382531E-02  0.5983280E+03  0.7818609E-02  0.9908881E-01
       -1   -1    0    0    0  501  0.00000000000E+00  0.00000000000E+00  0.10388052054E+03  0.10388052066E+03  0.50400001928E-02 0. -1.
        1   -1    0    0  501    0  0.00000000000E+00  0.00000000000E+00 -0.86155816254E+03  0.86155816255E+03  0.50400001928E-02 0.  1.
    10030    2    1    2    0    0  0.00000000000E+00  0.00000000000E+00 -0.75767764200E+03  0.96543868321E+03  0.59832803866E+03 0.  0.
        5    1    3    3  502    0  0.58587813298E+02  0.76341250119E+02  0.78162232570E+02  0.12406426937E+03  0.46999998093E+01 0. -1.
       -5    1    3    3    0  502 -0.58587813298E+02 -0.76341250119E+02 -0.83583987457E+03  0.84137441384E+03  0.46999998093E+01 0.  1.
</event>
<event>
 5   0  0.3724066E-02  0.6046603E+03  0.7818609E-02  0.9895784E-01
       -2   -1    0    0    0  501  0.00000000000E+00  0.00000000000E+00  0.13041141616E+03  0.13041141619E+03  0.25500000920E-02 0.  1.
        2   -1    0    0  501    0  0.00000000000E+00  0.00000000000E+00 -0.70088582496E+03  0.70088582497E+03  0.25500000920E-02 0. -1.
    10030    2    1    2    0    0  0.00000000000E+00  0.00000000000E+00 -0.57047440880E+03  0.83129724115E+03  0.60466027822E+03 0.  0.
        4    1    3    3  502    0 -0.16240633193E+02  0.82914993690E+02 -0.68432090584E+03  0.68951821543E+03  0.12699999809E+01 0. -1.
       -4    1    3    3    0  502  0.16240633193E+02 -0.82914993690E+02  0.11384649704E+03  0.14177902572E+03  0.12699999809E+01 0.  1.
</event>
<event>
 5   0  0.3798925E-02  0.6118911E+03  0.7818609E-02  0.9881038E-01
        2   -1    0    0  501    0  0.00000000000E+00  0.00000000000E+00  0.15080189135E+04  0.15080189135E+04  0.25500000920E-02 0. -1.
       -2   -1    0    0    0  501  0.00000000000E+00  0.00000000000E+00 -0.62069958151E+02  0.62069958204E+02  0.25500000920E-02 0.  1.
    10030    2    1    2    0    0  0.00000000000E+00  0.00000000000E+00  0.14459489553E+04  0.15700888717E+04  0.61189107166E+03 0.  0.
        2    1    3    3  502    0  0.20308309126E+03  0.27604306101E+02  0.13058371777E+04  0.13218227848E+04  0.25500000920E-02 0. -1.
       -2    1    3    3    0  502 -0.20308309126E+03 -0.27604306101E+02  0.14011177762E+03  0.24826608691E+03  0.25500000920E-02 0.  1.
</event>
<event>
 5   0  0.2309055E-02  0.5995342E+03  0.7818609E-02  0.9906373E-01
        1   -1    0    0  501    0  0.00000000000E+00  0.00000000000E+00  0.13881750250E+03  0.13881750259E+03  0.50400001928E-02 0. -1.
       -1   -1    0    0    0  501  0.00000000000E+00  0.00000000000E+00 -0.64732690912E+03  0.64732690914E+03  0.50400001928E-02 0.  1.
    10030    2    1    2    0    0  0.00000000000E+00  0.00000000000E+00 -0.50850940662E+03  0.78614441173E+03  0.59953416873E+03 0.  0.
        4    1    3    3  502    0  0.74904776056E+02 -0.89489055894E+02  0.10780393298E+03  0.15887831025E+03  0.12699999809E+01 0. -1.
       -4    1    3    3    0  502 -0.74904776056E+02  0.89489055894E+02 -0.61631333960E+03  0.62726610149E+03  0.12699999809E+01 0.  1.
</event>
<event>
 5   0  0.1521750E-02  0.6013105E+03  0.7818609E-02  0.9902691E-01
       -3   -1    0    0    0  501  0.00000000000E+00  0.00000000000E+00  0.56092796859E+03  0.56092797768E+03  0.10100000352E+00 0. -1.
        3   -1    0    0  501    0  0.00000000000E+00  0.00000000000E+00 -0.16115002378E+03  0.16115005543E+03  0.10100000352E+00 0.  1.
    10030    2    1    2    0    0  0.00000000000E+00  0.00000000000E+00  0.39977794480E+03  0.72207803311E+03  0.60131046951E+03 0.  0.
        4    1    3    3  502    0  0.10208479845E+03  0.51702507680E+01 -0.13964097552E+03  0.17305852337E+03  0.12699999809E+01 0.  1.
       -4    1    3    3    0  502 -0.10208479845E+03 -0.51702507680E+01  0.53941892033E+03  0.54901950974E+03  0.12699999809E+01 0. -1.
</event>
<event>
 5   0  0.3737642E-02  0.6150599E+03  0.7818609E-02  0.9874645E-01
       -2   -1    0    0    0  501  0.00000000000E+00  0.00000000000E+00  0.57801613475E+02  0.57801613531E+02  0.25500000920E-02 0.  1.
        2   -1    0    0  501    0  0.00000000000E+00  0.00000000000E+00 -0.16361944169E+04  0.16361944169E+04  0.25500000920E-02 0. -1.
    10030    2    1    2    0    0  0.00000000000E+00  0.00000000000E+00 -0.15783928034E+04  0.16939960304E+04  0.61505992327E+03 0.  0.
        5    1    3    3  502    0 -0.42871432361E+02 -0.26691665588E+03 -0.11927602542E+04  0.12230214941E+04  0.46999998093E+01 0. -1.
       -5    1    3    3    0  502  0.42871432361E+02  0.26691665588E+03 -0.38563254916E+03  0.47097453633E+03  0.46999998093E+01 0.  1.
</event>
<event>
 5   0  0.2309055E-02  0.6013763E+03  0.7818609E-02  0.9902555E-01
        1   -1    0    0  501    0  0.00000000000E+00  0.00000000000E+00  0.37676158701E+03  0.37676158705E+03  0.50400001928E-02 0.  1.
       -1   -1    0    0    0  501  0.00000000000E+00  0.00000000000E+00 -0.23997497921E+03  0.23997497926E+03  0.50400001928E-02 0. -1.
    10030    2    1    2    0    0  0.00000000000E+00  0.00000000000E+00  0.13678660780E+03  0.61673656631E+03  0.60137626836E+03 0.  0.
        4    1    3    3  502    0 -0.12307502609E+03 -0.21534310340E+03 -0.10592356305E+03  0.26970637430E+03  0.12699999809E+01 0. -1.
       -4    1    3    3    0  502  0.12307502609E+03  0.21534310340E+03  0.24271017085E+03  0.34703019201E+03  0.12699999809E+01 0.  1.
</event>
<event>
 5   0  0.3724066E-02  0.5962674E+03  0.7818609E-02  0.9913180E-01
       -2   -1    0    0    0  501  0.00000000000E+00  0.00000000000E+00  0.14211404945E+03  0.14211404947E+03  0.25500000920E-02 0. -1.
        2   -1    0    0  501    0  0.00000000000E+00  0.00000000000E+00 -0.62543918030E+03  0.62543918031E+03  0.25500000920E-02 0.  1.
    10030    2    1    2    0    0  0.00000000000E+00  0.00000000000E+00 -0.48332513086E+03  0.76755322978E+03  0.59626737160E+03 0.  0.
        4    1    3    3  502    0 -0.20294007086E+03 -0.15528522291E+03 -0.43976820848E+02  0.25929470972E+03  0.12699999809E+01 0. -1.
       -4    1    3    3    0  502  0.20294007086E+03  0.15528522291E+03 -0.43934831001E+03  0.50825852007E+03  0.12699999809E+01 0.  1.
</event>
<event>
 5   0  0.2225808E-02  0.5990825E+03  0.7818609E-02  0.9907311E-01
        1   -1    0    0  501    0  0.00000000000E+00  0.00000000000E+00  0.19526829958E+03  0.19526829965E+03  0.50400001928E-02 0.  1.
       -1   -1    0    0    0  501  0.00000000000E+00  0.00000000000E+00 -0.45949574303E+03  0.45949574306E+03  0.50400001928E-02 0. -1.
    10030    2    1    2    0    0  0.00000000000E+00  0.00000000000E+00 -0.26422744345E+03  0.65476404271E+03  0.59908247325E+03 0.  0.
        2    1    3    3  502    0 -0.40926949308E+02  0.11320235920E+03  0.16767041001E+03  0.20640531899E+03  0.25500000920E-02 0.  1.
       -2    1    3    3    0  502  0.40926949308E+02 -0.11320235920E+03 -0.43189785345E+03  0.44835872372E+03  0.25500000920E-02 0. -1.
</event>
<event>
 5   0  0.2225808E-02  0.5976480E+03  0.7818609E-02  0.9910298E-01
       -1   -1    0    0    0  501  0.00000000000E+00  0.00000000000E+00  0.22070118200E+03  0.22070118206E+03  0.50400001928E-02 0.  1.
        1   -1    0    0  501    0  0.00000000000E+00  0.00000000000E+00 -0.40460041415E+03  0.40460041418E+03  0.50400001928E-02 0. -1.
    10030    2    1    2    0    0  0.00000000000E+00  0.00000000000E+00 -0.18389923215E+03  0.62530159625E+03  0.59764802240E+03 0.  0.
        2    1    3    3  502    0 -0.20254541177E+03 -0.10818139726E+03 -0.29202527031E+03  0.37149241856E+03  0.25500000920E-02 0. -1.
       -2    1    3    3    0  502  0.20254541177E+03  0.10818139726E+03  0.10812603816E+03  0.25380917769E+03  0.25500000920E-02 0.  1.
</event>
<event>
 5   0  0.3798925E-02  0.5997854E+03  0.7818609E-02  0.9905851E-01
       -2   -1    0    0    0  501  0.00000000000E+00  0.00000000000E+00  0.31100705295E+03  0.31100705296E+03  0.25500000920E-02 0.  1.
        2   -1    0    0  501    0  0.00000000000E+00  0.00000000000E+00 -0.28917557181E+03  0.28917557182E+03  0.25500000920E-02 0. -1.
    10030    2    1    2    0    0  0.00000000000E+00  0.00000000000E+00  0.21831481141E+02  0.60018262478E+03  0.59978543623E+03 0.  0.
        2    1    3    3  502    0  0.18273276749E+00 -0.27990748644E+03 -0.96800367190E+02  0.29617316801E+03  0.25500000920E-02 0. -1.
       -2    1    3    3    0  502 -0.18273276749E+00  0.27990748644E+03  0.11863184833E+03  0.30400945676E+03  0.25500000920E-02 0.  1.
</event>
<event>
 5   0  0.2382531E-02  0.6036486E+03  0.7818609E-02  0.9897865E-01
       -1   -1    0    0    0  501  0.00000000000E+00  0.00000000000E+00  0.12084188558E+03  0.12084188569E+03  0.50400001928E-02 0.  1.
        1   -1    0    0  501    0  0.00000000000E+00  0.00000000000E+00 -0.75386034093E+03  0.75386034094E+03  0.50400001928E-02 0. -1.
    10030    2    1    2    0    0  0.00000000000E+00  0.00000000000E+00 -0.63301845534E+03  0.87470222663E+03  0.60364859022E+03 0.  0.
        5    1    3    3  502    0  0.63265739301E+02 -0.18093844132E+03  0.21255306418E+02  0.19291228930E+03  0.46999998093E+01 0.  1.
       -5    1    3    3    0  502 -0.63265739301E+02  0.18093844132E+03 -0.65427376176E+03  0.68178993733E+03  0.46999998093E+01 0. -1.
</event>
<event>
 5   0  0.2309055E-02  0.6001254E+03  0.7818609E-02  0.9905146E-01
       -1   -1    0    0    0  501  0.00000000000E+00  0.00000000000E+00  0.38532049894E+03  0.38532049898E+03  0.50400001928E-02 0. -1.
        1   -1    0    0  501    0  0.00000000000E+00  0.00000000000E+00 -0.23366939967E+03  0.23366939972E+03  0.50400001928E-02 0.  1.
    10030    2    1    2    0    0  0.00000000000E+00  0.00000000000E+00  0.15165109928E+03  0.61898989870E+03  0.60012535255E+03 0.  0.
        4    1    3    3  502    0 -0.68266695007E+01 -0.25137042386E+03  0.24468588488E+03  0.35086534250E+03  0.12699999809E+01 0. -1.
       -4    1    3    3    0  502  0.68266695007E+01  0.25137042386E+03 -0.93034785600E+02  0.26812455620E+03  0.12699999809E+01 0.  1.
</event>
<event>
 5   0  0.2382531E-02  0.5987828E+03  0.7818609E-02  0.9907935E-01
        1   -1    0    0  501    0  0.00000000000E+00  0.00000000000E+00  0.15034188173E+03  0.15034188182E+03  0.50400001928E-02 0. -1.
       -1   -1    0    0    0  501  0.00000000000E+00  0.00000000000E+00 -0.59620924265E+03  0.59620924267E+03  0.50400001928E-02 0.  1.
    10030    2    1    2    0    0  0.00000000000E+00  0.00000000000E+00 -0.44586736092E+03  0.74655112449E+03  0.59878283037E+03 0.  0.
        5    1    3    3  502    0 -0.29726730658E+02  0.74877321603E+02  0.13652617523E+03  0.15859312194E+03  0.46999998093E+01 0. -1.
       -5    1    3    3    0  502  0.29726730658E+02 -0.74877321603E+02 -0.58239353615E+03  0.58795800255E+03  0.46999998093E+01 0.  1.
</event>
<event>
 5   0  0.3798925E-02  0.5985903E+03  0.7818609E-02  0.9908335E-01
        2   -1    0    0  501    0  0.00000000000E+00  0.00000000000E+00  0.24309063671E+03  0.24309063672E+03  0.25500000920E-02 0. -1.
       -2   -1    0    0    0  501  0.00000000000E+00  0.00000000000E+00 -0.36849459705E+03  0.36849459706E+03  0.25500000920E-02 0.  1.
    10030    2    1    2    0    0  0.00000000000E+00  0.00000000000E+00 -0.12540396034E+03  0.61158523378E+03  0.59859029804E+03 0.  0.
        2    1    3    3  502    0  0.11849006068E+03  0.27157112724E+03 -0.19513585421E+02  0.29693694896E+03  0.25500000920E-02 0. -1.
       -2    1    3    3    0  502 -0.11849006068E+03 -0.27157112724E+03 -0.10589037492E+03  0.31464828482E+03  0.25500000920E-02 0.  1.
</event>
<event>
 5   0  0.3798925E-02  0.5993518E+03  0.7818609E-02  0.9906752E-01
       -2   -1    0    0    0  501  0.00000000000E+00  0.00000000000E+00  0.20905159120E+03  0.20905159122E+03  0.25500000920E-02 0.  1.
        2   -1    0    0  501    0  0.00000000000E+00  0.00000000000E+00 -0.42958599555E+03  0.42958599556E+03  0.25500000920E-02 0. -1.
    10030    2    1    2    0    0  0.00000000000E+00  0.00000000000E+00 -0.22053440435E+03  0.63863758678E+03  0.59935176962E+03 0.  0.
        2    1    3    3  502    0  0.28570604123E+03 -0.63107346005E+02 -0.41251679244E+02  0.29548634513E+03  0.25500000920E-02 0.  1.
       -2    1    3    3    0  502 -0.28570604123E+03  0.63107346005E+02 -0.17928272511E+03  0.34315124165E+03  0.25500000920E-02 0. -1.
</event>
<event>
 5   0  0.2309055E-02  0.5831212E+03  0.7818609E-02  0.9941056E-01
        1   -1    0    0  501    0  0.00000000000E+00  0.00000000000E+00  0.63313982681E+03  0.63313982683E+03  0.50400001928E-02 0. -1.
       -1   -1    0    0    0  501  0.00000000000E+00  0.00000000000E+00 -0.13426351728E+03  0.13426351738E+03  0.50400001928E-02 0.  1.
    10030    2    1    2    0    0  0.00000000000E+00  0.00000000000E+00  0.49887630953E+03  0.76740334421E+03  0.58312118851E+03 0.  0.
        4    1    3    3  502    0 -0.14510548609E+03 -0.22351577239E+03  0.93773416294E+02  0.28250658240E+03  0.12699999809E+01 0.  1.
       -4    1    3    3    0  502  0.14510548609E+03  0.22351577239E+03  0.40510289324E+03  0.48489676180E+03  0.12699999809E+01 0. -1.
</event>
<event>
 5   0  0.3832191E-02  0.6003371E+03  0.7818609E-02  0.9904707E-01
        2   -1    0    0  501    0  0.00000000000E+00  0.00000000000E+00  0.35016291960E+03  0.35016291961E+03  0.25500000920E-02 0.  1.
       -2   -1    0    0    0  501  0.00000000000E+00  0.00000000000E+00 -0.25731208739E+03  0.25731208740E+03  0.25500000920E-02 0. -1.
    10030    2    1    2    0    0  0.00000000000E+00  0.00000000000E+00  0.92850832214E+02  0.60747500702E+03  0.60033707790E+03 0.  0.
        3    1    3    3  502    0  0.28142405829E+03 -0.47411187686E+02  0.14055739384E+03  0.31812530938E+03  0.10100000352E+00 0.  1.
       -3    1    3    3    0  502 -0.28142405829E+03  0.47411187686E+02 -0.47706561627E+02  0.28934969764E+03  0.10100000352E+00 0. -1.
</event>
<event>
 5   0  0.3832191E-02  0.5965303E+03  0.7818609E-02  0.9912631E-01
        2   -1    0    0  501    0  0.00000000000E+00  0.00000000000E+00  0.42533481334E+03  0.42533481334E+03  0.25500000920E-02 0. -1.
       -2   -1    0    0    0  501  0.00000000000E+00  0.00000000000E+00 -0.20915781165E+03  0.20915781166E+03  0.25500000920E-02 0.  1.
    10030    2    1    2    0    0  0.00000000000E+00  0.00000000000E+00  0.21617700169E+03  0.63449262500E+03  0.59653029691E+03 0.  0.
        3    1    3    3  502    0  0.88199876885E+02  0.28140208994E+03  0.60571895219E+02  0.30105700323E+03  0.10100000352E+00 0.  1.
       -3    1    3    3    0  502 -0.88199876885E+02 -0.28140208994E+03  0.15560510647E+03  0.33343562177E+03  0.10100000352E+00 0. -1.
</event>
<event>
 5   0  0.3724066E-02  0.6006764E+03  0.7818609E-02  0.9904004E-01
        2   -1    0    0  501    0  0.00000000000E+00  0.00000000000E+00  0.79210684006E+03  0.79210684007E+03  0.25500000920E-02 0. -1.
       -2   -1    0    0    0  501  0.00000000000E+00  0.00000000000E+00 -0.11387736932E+03  0.11387736935E+03  0.25500000920E-02 0.  1.
    10030    2    1    2    0    0  0.00000000000E+00  0.00000000000E+00  0.67822947075E+03  0.90598420941E+03  0.60067642930E+03 0.  0.
        4    1    3    3  502    0 -0.75734294676E+02 -0.68958064528E+02 -0.86716870539E+02  0.13421000927E+03  0.12699999809E+01 0.  1.
       -4    1    3    3    0  502  0.75734294676E+02  0.68958064528E+02  0.76494634128E+03  0.77177420014E+03  0.12699999809E+01 0. -1.
</event>
<event>
 5   0  0.2309055E-02  0.6043239E+03  0.7818609E-02  0.9896476E-01
       -1   -1    0    0    0  501  0.00000000000E+00  0.00000000000E+00  0.14274609694E+04  0.14274609694E+04  0.50400001928E-02 0.  1.
        1   -1    0    0  501    0  0.00000000000E+00  0.00000000000E+00 -0.63961011869E+02  0.63961012068E+02  0.50400001928E-02 0. -1.
    10030    2    1    2    0    0  0.00000000000E+00  0.00000000000E+00  0.13634999575E+04  0.14914219815E+04  0.60432391367E+03 0.  0.
        4    1    3    3  502    0  0.23874293204E+03 -0.90895767397E+02  0.10799958748E+04  0.11097985991E+04  0.12699999809E+01 0.  1.
       -4    1    3    3    0  502 -0.23874293204E+03  0.90895767397E+02  0.28350408270E+03  0.38162338232E+03  0.12699999809E+01 0. -1.
</event>
<event>
 5   0  0.2309055E-02  0.6007426E+03  0.7818609E-02  0.9903867E-01
       -1   -1    0    0    0  501  0.00000000000E+00  0.00000000000E+00  0.80484318979E+02  0.80484319137E+02  0.50400001928E-02 0. -1.
        1   -1    0    0  501    0  0.00000000000E+00  0.00000000000E+00 -0.11209997858E+04  0.11209997858E+04  0.50400001928E-02 0.  1.
    10030    2    1    2    0    0  0.00000000000E+00  0.00000000000E+00 -0.10405154668E+04  0.12014841049E+04  0.60074255529E+03 0.  0.
        4    1    3    3  502    0 -0.12855783322E+03  0.23696012632E+03 -0.25534986855E+03  0.37132517585E+03  0.12699999809E+01 0. -1.
       -4    1    3    3    0  502  0.12855783322E+03 -0.23696012632E+03 -0.78516559824E+03  0.83015892907E+03  0.12699999809E+01 0.  1.
</event>
<event>
 5   0  0.3737642E-02  0.6013833E+03  0.7818609E-02  0.9902540E-01
        2   -1    0    0  501    0  0.00000000000E+00  0.00000000000E+00  0.10083881841E+04  0.10083881841E+04  0.25500000920E-02 0.  1.
       -2   -1    0    0    0  501  0.00000000000E+00  0.00000000000E+00 -0.89663361875E+02  0.89663361911E+02  0.25500000920E-02 0. -1.
    10030    2    1    2    0    0  0.00000000000E+00  0.00000000000E+00  0.91872482218E+03  0.10980515460E+04  0.60138332095E+03 0.  0.
        5    1    3    3  502    0 -0.90877774103E+02 -0.20286458237E+03  0.89738227496E+02  0.23976623632E+03  0.46999998093E+01 0. -1.
       -5    1    3    3    0  502  0.90877774103E+02  0.20286458237E+03  0.82898659468E+03  0.85828530965E+03  0.46999998093E+01 0.  1.
</event>
<event>
 5   0  0.2309055E-02  0.5893123E+03  0.7818609E-02  0.9927831E-01
       -1   -1    0    0    0  501  0.00000000000E+00  0.00000000000E+00  0.78901492939E+03  0.78901492940E+03  0.50400001928E-02 0. -1.
        1   -1    0    0  501    0  0.00000000000E+00  0.00000000000E+00 -0.11003877297E+03  0.11003877309E+03  0.50400001928E-02 0.  1.
    10030    2    1    2    0    0  0.00000000000E+00  0.00000000000E+00  0.67897615642E+03  0.89905370249E+03  0.58931225932E+03 0.  0.
        4    1    3    3  502    0  0.18532756866E+03  0.20769249293E+03  0.19206332576E+03  0.33818990719E+03  0.12699999809E+01 0.  1.
       -4    1    3    3    0  502 -0.18532756866E+03 -0.20769249293E+03  0.48691283066E+03  0.56086379530E+03  0.12699999809E+01 0. -1.
</event>
<event>
 5   0  0.3832191E-02  0.6016255E+03  0.7818609E-02  0.9902039E-01
       -2   -1    0    0    0  501  0.00000000000E+00  0.00000000000E+00  0.55512930088E+02  0.55512930147E+02  0.25500000920E-02 0. -1.
        2   -1    0    0  501    0  0.00000000000E+00  0.00000000000E+00 -0.16300401112E+04  0.16300401112E+04  0.25500000920E-02 0.  1.
    10030    2    1    2    0    0  0.00000000000E+00  0.00000000000E+00 -0.15745271811E+04  0.16855530413E+04  0.60162547414E+03 0.  0.
        3    1    3    3  502    0  0.29357553447E+03  0.65574837466E+02 -0.78367698232E+03  0.83942615909E+03  0.10100000352E+00 0.  1.
       -3    1    3    3    0  502 -0.29357553447E+03 -0.65574837466E+02 -0.79085019875E+03  0.84612688221E+03  0.10100000352E+00 0. -1.
</event>
<event>
 5   0  0.3737642E-02  0.6060895E+03  0.7818609E-02  0.9892852E-01
        2   -1    0    0  501    0  0.00000000000E+00  0.00000000000E+00  0.23673565458E+03  0.23673565459E+03  0.25500000920E-02 0.  1.
       -2   -1    0    0    0  501  0.00000000000E+00  0.00000000000E+00 -0.38792692456E+03  0.38792692457E+03  0.25500000920E-02 0. -1.
    10030    2    1    2    0    0  0.00000000000E+00  0.00000000000E+00 -0.15119126998E+03  0.62466257917E+03  0.60608954594E+03 0.  0.
        5    1    3    3  502    0 -0.10629476442E+03  0.16998916035E+03  0.15856513268E+03  0.25565578984E+03  0.46999998093E+01 0.  1.
       -5    1    3    3    0  502  0.10629476442E+03 -0.16998916035E+03 -0.30975640266E+03  0.36900678932E+03  0.46999998093E+01 0. -1.
</event>
<event>
 5   0  0.2309055E-02  0.6010703E+03  0.7818609E-02  0.9903188E-01
        1   -1    0    0  501    0  0.00000000000E+00  0.00000000000E+00  0.29210818893E+03  0.29210818897E+03  0.50400001928E-02 0.  1.
       -1   -1    0    0    0  501  0.00000000000E+00  0.00000000000E+00 -0.30920522740E+03  0.30920522744E+03  0.50400001928E-02 0. -1.
    10030    2    1    2    0    0  0.00000000000E+00  0.00000000000E+00 -0.17097038470E+02  0.60131341642E+03  0.60107030873E+03 0.  0.
        4    1    3    3  502    0 -0.72164248090E+02 -0.26969215535E+02  0.28205950336E+03  0.29239390148E+03  0.12699999809E+01 0.  1.
       -4    1    3    3    0  502  0.72164248090E+02  0.26969215535E+02 -0.29915654183E+03  0.30891951494E+03  0.12699999809E+01 0. -1.
</event>
<event>
 5   0  0.2295179E-02  0.5975003E+03  0.7818609E-02  0.9910606E-01
       -1   -1    0    0    0  501  0.00000000000E+00  0.00000000000E+00  0.14550290492E+03  0.14550290501E+03  0.50400001928E-02 0.  1.
        1   -1    0    0  501    0  0.00000000000E+00  0.00000000000E+00 -0.61340111168E+03  0.61340111170E+03  0.50400001928E-02 0. -1.
    10030    2    1    2    0    0  0.00000000000E+00  0.00000000000E+00 -0.46789820675E+03  0.75890401671E+03  0.59750027171E+03 0.  0.
        3    1    3    3  502    0  0.43186220930E+01 -0.96309718594E+02  0.12520276775E+03  0.15801884586E+03  0.10100000352E+00 0.  1.
       -3    1    3    3    0  502 -0.43186220930E+01  0.96309718594E+02 -0.59310097450E+03  0.60088517085E+03  0.10100000352E+00 0. -1.
</event>
<event>
 5   0  0.2309055E-02  0.6063826E+03  0.7818609E-02  0.9892252E-01
       -1   -1    0    0    0  501  0.00000000000E+00  0.00000000000E+00  0.31456494130E+03  0.31456494134E+03  0.50400001928E-02 0.  1.
        1   -1    0    0  501    0  0.00000000000E+00  0.00000000000E+00 -0.29222893274E+03  0.29222893278E+03  0.50400001928E-02 0. -1.
    10030    2    1    2    0    0  0.00000000000E+00  0.00000000000E+00  0.22336008557E+02  0.60679387412E+03  0.60638264190E+03 0.  0.
        4    1    3    3  502    0 -0.17913290051E+03  0.98771830697E+02 -0.21276689906E+03  0.29515392056E+03  0.12699999809E+01 0. -1.
       -4    1    3    3    0  502  0.17913290051E+03 -0.98771830697E+02  0.23510290762E+03  0.31163995356E+03  0.12699999809E+01 0.  1.
</event>
<event>
 5   0  0.3737642E-02  0.6005710E+03  0.7818609E-02  0.9904222E-01
       -2   -1    0    0    0  501  0.00000000000E+00  0.00000000000E+00  0.32388457034E+03  0.32388457035E+03  0.25500000920E-02 0.  1.
        2   -1    0    0  501    0  0.00000000000E+00  0.00000000000E+00 -0.27840595074E+03  0.27840595075E+03  0.25500000920E-02 0. -1.
    10030    2    1    2    0    0  0.00000000000E+00  0.00000000000E+00  0.45478619602E+02  0.60229052111E+03  0.60057103408E+03 0.  0.
        5    1    3    3  502    0 -0.12132173742E+03 -0.88786771126E+02 -0.23790333448E+03  0.28146428060E+03  0.46999998093E+01 0. -1.
       -5    1    3    3    0  502  0.12132173742E+03  0.88786771126E+02  0.28338195408E+03  0.32082624051E+03  0.46999998093E+01 0.  1.
</event>
<event>
 5   0  0.2309055E-02  0.6023795E+03  0.7818609E-02  0.9900482E-01
       -1   -1    0    0    0  501  0.00000000000E+00  0.00000000000E+00  0.59433432757E+03  0.59433432759E+03  0.50400001928E-02 0.  1.
        1   -1    0    0  501    0  0.00000000000E+00  0.00000000000E+00 -0.15263340940E+03  0.15263340948E+03  0.50400001928E-02 0. -1.
    10030    2    1    2    0    0  0.00000000000E+00  0.00000000000E+00  0.44170091818E+03  0.74696773707E+03  0.60237953078E+03 0.  0.
        4    1    3    3  502    0  0.25310197356E+03 -0.14513098131E+03  0.31356322296E+03  0.42830727107E+03  0.12699999809E+01 0.  1.
       -4    1    3    3    0  502 -0.25310197356E+03  0.14513098131E+03  0.12813769522E+03  0.31866046600E+03  0.12699999809E+01 0. -1.
</event>
<event>
 5   0  0.1521750E-02  0.6011194E+03  0.7818609E-02  0.9903086E-01
       -3   -1    0    0    0  501  0.00000000000E+00  0.00000000000E+00  0.18538224158E+03  0.18538226909E+03  0.10100000352E+00 0.  1.
        3   -1    0    0  501    0  0.00000000000E+00  0.00000000000E+00 -0.48729659161E+03  0.48729660208E+03  0.10100000352E+00 0. -1.
    10030    2    1    2    0    0  0.00000000000E+00  0.00000000000E+00 -0.30191435003E+03  0.67267887116E+03  0.60111944650E+03 0.  0.
        2    1    3    3  502    0  0.12662240052E+03  0.93908890603E+02  0.13540438883E+03  0.20781352355E+03  0.25500000920E-02 0.  1.
       -2    1    3    3    0  502 -0.12662240052E+03 -0.93908890603E+02 -0.43731873886E+03  0.46486534762E+03  0.25500000920E-02 0. -1.
</event>
<event>
 5   0  0.2225808E-02  0.5992836E+03  0.7818609E-02  0.9906893E-01
        1   -1    0    0  501    0  0.00000000000E+00  0.00000000000E+00  0.33219640425E+03  0.33219640429E+03  0.50400001928E-02 0.  1.
       -1   -1    0    0    0  501  0.00000000000E+00  0.00000000000E+00 -0.27027748354E+03  0.27027748358E+03  0.50400001928E-02 0. -1.
    10030    2    1    2    0    0  0.00000000000E+00  0.00000000000E+00  0.61918920711E+02  0.60247388787E+03  0.59928359966E+03 0.  0.
        2    1    3    3  502    0  0.18858845749E+03  0.23246135862E+03  0.17422315560E+02  0.29984567136E+03  0.25500000920E-02 0. -1.
       -2    1    3    3    0  502 -0.18858845749E+03 -0.23246135862E+03  0.44496605150E+02  0.30262821651E+03  0.25500000920E-02 0.  1.
</event>
<event>
 5   0  0.2382531E-02  0.5952128E+03  0.7818609E-02  0.9915388E-01
       -1   -1    0    0    0  501  0.00000000000E+00  0.00000000000E+00  0.90492570019E+02  0.90492570159E+02  0.50400001928E-02 0.  1.
        1   -1    0    0  501    0  0.00000000000E+00  0.00000000000E+00 -0.97874958813E+03  0.97874958814E+03  0.50400001928E-02 0. -1.
    10030    2    1    2    0    0  0.00000000000E+00  0.00000000000E+00 -0.88825701811E+03  0.10692421583E+04  0.59521278789E+03 0.  0.
        5    1    3    3  502    0 -0.18441377610E+03  0.14697198534E+03 -0.77015599573E+03  0.80546356407E+03  0.46999998093E+01 0. -1.
       -5    1    3    3    0  502  0.18441377610E+03 -0.14697198534E+03 -0.11810102238E+03  0.26377859423E+03  0.46999998093E+01 0.  1.
</event>
<event>
 5   0  0.3798925E-02  0.6045447E+03  0.7818609E-02  0.9896022E-01
       -2   -1    0    0    0  501  0.00000000000E+00  0.00000000000E+00  0.10244163564E+03  0.10244163567E+03  0.25500000920E-02 0. -1.
        2   -1    0    0  501    0  0.00000000000E+00  0.00000000000E+00 -0.89190853757E+03  0.89190853758E+03  0.25500000920E-02 0.  1.
    10030    2    1    2    0    0  0.00000000000E+00  0.00000000000E+00 -0.78946690193E+03  0.99435017325E+03  0.60454468634E+03 0.  0.
        2    1    3    3  502    0  0.14771488749E+02  0.28793609319E+02 -0.88905100910E+03  0.88963979542E+03  0.25500000920E-02 0.  1.
       -2    1    3    3    0  502 -0.14771488749E+02 -0.28793609319E+02  0.99584107163E+02  0.10471037782E+03  0.25500000920E-02 0. -1.
</event>
<event>
 5   0  0.3724066E-02  0.6008202E+03  0.7818609E-02  0.9903706E-01
       -2   -1    0    0    0  501  0.00000000000E+00  0.00000000000E+00  0.14813169900E+03  0.14813169902E+03  0.25500000920E-02 0. -1.
        2   -1    0    0  501    0  0.00000000000E+00  0.00000000000E+00 -0.60922976882E+03  0.60922976882E+03  0.25500000920E-02 0.  1.
    10030    2    1    2    0    0  0.00000000000E+00  0.00000000000E+00 -0.46109806982E+03  0.75736146784E+03  0.60082024182E+03 0.  0.
        4    1    3    3  502    0 -0.25055059980E+03  0.16546171599E+03 -0.24260326308E+03  0.38601960918E+03  0.12699999809E+01 0. -1.
       -4    1    3    3    0  502  0.25055059980E+03 -0.16546171599E+03 -0.21849480674E+03  0.37134185866E+03  0.12699999809E+01 0.  1.
</event>
<event>
 5   0  0.3832191E-02  0.6026681E+03  0.7818609E-02  0.9899886E-01
        2   -1    0    0  501    0  0.00000000000E+00  0.00000000000E+00  0.58470357677E+03  0.58470357677E+03  0.25500000920E-02 0. -1.
       -2   -1    0    0    0  501  0.00000000000E+00  0.00000000000E+00 -0.15529613180E+03  0.15529613182E+03  0.25500000920E-02 0.  1.
    10030    2    1    2    0    0  0.00000000000E+00  0.00000000000E+00  0.42940744497E+03  0.73999970860E+03  0.60266808023E+03 0.  0.
        3    1    3    3  502    0 -0.23400935364E+02 -0.22384572973E+03 -0.31323736062E+02  0.22723490299E+03  0.10100000352E+00 0.  1.
       -3    1    3    3    0  502  0.23400935364E+02  0.22384572973E+03  0.46073118103E+03  0.51276480561E+03  0.10100000352E+00 0. -1.
</event>
<event>
 5   0  0.2309055E-02  0.5997739E+03  0.7818609E-02  0.9905875E-01
       -1   -1    0    0    0  501  0.00000000000E+00  0.00000000000E+00  0.10146787134E+03  0.10146787146E+03  0.50400001928E-02 0. -1.
        1   -1    0    0  501    0  0.00000000000E+00  0.00000000000E+00 -0.88631205293E+03  0.88631205294E+03  0.50400001928E-02 0.  1.
    10030    2    1    2    0    0  0.00000000000E+00  0.00000000000E+00 -0.78484418159E+03  0.98777992441E+03  0.59977394882E+03 0.  0.
        4    1    3    3  502    0 -0.22084835588E+03  0.30819056322E+02 -0.62187766538E+02  0.23150106206E+03  0.12699999809E+01 0. -1.
       -4    1    3    3    0  502  0.22084835588E+03 -0.30819056322E+02 -0.72265641505E+03  0.75627886235E+03  0.12699999809E+01 0.  1.
</event>
<event>
 5   0  0.2295179E-02  0.5984606E+03  0.7818609E-02  0.9908605E-01
        1   -1    0    0  501    0  0.00000000000E+00  0.00000000000E+00  0.38883651792E+03  0.38883651795E+03  0.50400001928E-02 0.  1.
       -1   -1    0    0    0  501  0.00000000000E+00  0.00000000000E+00 -0.23027356211E+03  0.23027356216E+03  0.50400001928E-02 0. -1.
    10030    2    1    2    0    0  0.00000000000E+00  0.00000000000E+00  0.15856295581E+03  0.61911008012E+03  0.59846059214E+03 0.  0.
        3    1    3    3  502    0 -0.70850448535E+02  0.20335566613E+02  0.37929743683E+03  0.38639342271E+03  0.10100000352E+00 0.  1.
       -3    1    3    3    0  502  0.70850448535E+02 -0.20335566613E+02 -0.22073448101E+03  0.23271665741E+03  0.10100000352E+00 0. -1.
</event>
<event>
 5   0  0.2382531E-02  0.5987003E+03  0.7818609E-02  0.9908106E-01
        1   -1    0    0  501    0  0.00000000000E+00  0.00000000000E+00  0.28054219199E+03  0.28054219204E+03  0.50400001928E-02 0. -1.
       -1   -1    0    0    0  501  0.00000000000E+00  0.00000000000E+00 -0.31941906658E+03  0.31941906662E+03  0.50400001928E-02 0.  1.
    10030    2    1    2    0    0  0.00000000000E+00  0.00000000000E+00 -0.38876874585E+02  0.59996125866E+03  0.59870034284E+03 0.  0.
        5    1    3    3  502    0  0.67313447482E+02 -0.14012362868E+03 -0.27575575193E+03  0.31658972859E+03  0.46999998093E+01 0.  1.
       -5    1    3    3    0  502 -0.67313447482E+02  0.14012362868E+03  0.23687887735E+03  0.28337153007E+03  0.46999998093E+01 0. -1.
</event>
<event>
 5   0  0.2382531E-02  0.5959199E+03  0.7818609E-02  0.9913907E-01
       -1   -1    0    0    0  501  0.00000000000E+00  0.00000000000E+00  0.42641584965E+03  0.42641584968E+03  0.50400001928E-02 0. -1.
        1   -1    0    0  501    0  0.00000000000E+00  0.00000000000E+00 -0.20820084198E+03  0.20820084204E+03  0.50400001928E-02 0.  1.
    10030    2    1    2    0    0  0.00000000000E+00  0.00000000000E+00  0.21821500767E+03  0.63461669173E+03  0.59591992402E+03 0.  0.
        5    1    3    3  502    0 -0.23531314069E+03 -0.18228357117E+03  0.12251362771E+03  0.32191808504E+03  0.46999998093E+01 0.  1.
       -5    1    3    3    0  502  0.23531314069E+03  0.18228357117E+03  0.95701379957E+02  0.31269860669E+03  0.46999998093E+01 0. -1.
</event>
<event>
 5   0  0.3798925E-02  0.6023684E+03  0.7818609E-02  0.9900504E-01
       -2   -1    0    0    0  501  0.00000000000E+00  0.00000000000E+00  0.64361488674E+02  0.64361488725E+02  0.25500000920E-02 0. -1.
        2   -1    0    0  501    0  0.00000000000E+00  0.00000000000E+00 -0.14094132708E+04  0.14094132708E+04  0.25500000920E-02 0.  1.
    10030    2    1    2    0    0  0.00000000000E+00  0.00000000000E+00 -0.13450517821E+04  0.14737747595E+04  0.60236844640E+03 0.  0.
        2    1    3    3  502    0  0.22653196456E+03  0.17812214449E+03 -0.88676643080E+03  0.93241564344E+03  0.25500000920E-02 0. -1.
       -2    1    3    3    0  502 -0.22653196456E+03 -0.17812214449E+03 -0.45828535134E+03  0.54135911611E+03  0.25500000920E-02 0.  1.
</event>
<event>
 5   0  0.3798925E-02  0.6034996E+03  0.7818609E-02  0.9898172E-01
        2   -1    0    0  501    0  0.00000000000E+00  0.00000000000E+00  0.97676359969E+02  0.97676360003E+02  0.25500000920E-02 0.  1.
       -2   -1    0    0    0  501  0.00000000000E+00  0.00000000000E+00 -0.93219005031E+03  0.93219005032E+03  0.25500000920E-02 0. -1.
    10030    2    1    2    0    0  0.00000000000E+00  0.00000000000E+00 -0.83451369034E+03  0.10298664103E+04  0.60349956399E+03 0.  0.
        2    1    3    3  502    0 -0.17348434596E+03  0.13858212509E+03 -0.68568098354E+02  0.23238633309E+03  0.25500000920E-02 0.  1.
       -2    1    3    3    0  502  0.17348434596E+03 -0.13858212509E+03 -0.76594559199E+03  0.79748007723E+03  0.25500000920E-02 0. -1.
</event>
<event>
 5   0  0.2276105E-02  0.6021246E+03  0.7818609E-02  0.9901008E-01
       -1   -1    0    0    0  501  0.00000000000E+00  0.00000000000E+00  0.14266717806E+03  0.14266717815E+03  0.50400001928E-02 0. -1.
        1   -1    0    0  501    0  0.00000000000E+00  0.00000000000E+00 -0.63531440136E+03  0.63531440138E+03  0.50400001928E-02 0.  1.
    10030    2    1    2    0    0  0.00000000000E+00  0.00000000000E+00 -0.49264722330E+03  0.77798157953E+03  0.60212461456E+03 0.  0.
        1    1    3    3  502    0 -0.12827459285E+03  0.24324752355E+03 -0.88001170807E+02  0.28873506017E+03  0.50400001928E-02 0. -1.
       -1    1    3    3    0  502  0.12827459285E+03 -0.24324752355E+03 -0.40464605249E+03  0.48924651936E+03  0.50400001928E-02 0.  1.
</event>
<event>
 5   0  0.2309055E-02  0.6013259E+03  0.7818609E-02  0.9902659E-01
       -1   -1    0    0    0  501  0.00000000000E+00  0.00000000000E+00  0.31282607809E+03  0.31282607813E+03  0.50400001928E-02 0. -1.
        1   -1    0    0  501    0  0.00000000000E+00  0.00000000000E+00 -0.28897269694E+03  0.28897269698E+03  0.50400001928E-02 0.  1.
    10030    2    1    2    0    0  0.00000000000E+00  0.00000000000E+00  0.23853381150E+02  0.60179877511E+03  0.60132585337E+03 0.  0.
        4    1    3    3  502    0 -0.59762082213E+02 -0.28569295883E+03 -0.60273026151E+02  0.29803762141E+03  0.12699999809E+01 0.  1.
       -4    1    3    3    0  502  0.59762082213E+02  0.28569295883E+03  0.84126407302E+02  0.30376115370E+03  0.12699999809E+01 0. -1.
</event>
<event>
 5   0  0.3934634E-02  0.6221499E+03  0.7818609E-02  0.9860489E-01
        2   -1    0    0  501    0  0.00000000000E+00  0.00000000000E+00  0.16025455078E+04  0.16025455078E+04  0.25500000920E-02 0. -1.
       -2   -1    0    0    0  501  0.00000000000E+00  0.00000000000E+00 -0.60383694838E+02  0.60383694892E+02  0.25500000920E-02 0.  1.
    10030    2    1    2    0    0  0.00000000000E+00  0.00000000000E+00  0.15421618130E+04  0.16629292027E+04  0.62214988212E+03 0.  0.
        1    1    3    3  502    0 -0.16785290609E+03  0.20588415212E+03  0.12037627162E+04  0.12327236345E+04  0.50400001928E-02 0.  1.
       -1    1    3    3    0  502  0.16785290609E+03 -0.20588415212E+03  0.33839909679E+03  0.43020556820E+03  0.50400001928E-02 0. -1.
</event>
<event>
 5   0  0.3737642E-02  0.5794956E+03  0.7818609E-02  0.9948884E-01
        2   -1    0    0  501    0  0.00000000000E+00  0.00000000000E+00  0.58563340384E+02  0.58563340439E+02  0.25500000920E-02 0.  1.
       -2   -1    0    0    0  501  0.00000000000E+00  0.00000000000E+00 -0.14335555561E+04  0.14335555561E+04  0.25500000920E-02 0. -1.
    10030    2    1    2    0    0  0.00000000000E+00  0.00000000000E+00 -0.13749922157E+04  0.14921188965E+04  0.57949564980E+03 0.  0.
        5    1    3    3  502    0  0.14055768399E+02  0.25744849980E+03 -0.10276738768E+04  0.10595343231E+04  0.46999998093E+01 0.  1.
       -5    1    3    3    0  502 -0.14055768399E+02 -0.25744849980E+03 -0.34731833891E+03  0.43258457348E+03  0.46999998093E+01 0. -1.
</event>
<event>
 5   0  0.2225808E-02  0.5980603E+03  0.7818609E-02  0.9909439E-01
        1   -1    0    0  501    0  0.00000000000E+00  0.00000000000E+00  0.37431486324E+03  0.37431486328E+03  0.50400001928E-02 0.  1.
       -1   -1    0    0    0  501  0.00000000000E+00  0.00000000000E+00 -0.23888718903E+03  0.23888718908E+03  0.50400001928E-02 0. -1.
    10030    2    1    2    0    0  0.00000000000E+00  0.00000000000E+00  0.13542767422E+03  0.61320205236E+03  0.59806028297E+03 0.  0.
        2    1    3    3  502    0  0.79397225319E+02  0.27015617764E+03  0.17091375387E+03  0.32939306455E+03  0.25500000920E-02 0.  1.
       -2    1    3    3    0  502 -0.79397225319E+02 -0.27015617764E+03 -0.35486079647E+02  0.28380898781E+03  0.25500000920E-02 0. -1.
</event>
<event>
 5   0  0.2225808E-02  0.5998913E+03  0.7818609E-02  0.9905632E-01
       -1   -1    0    0    0  501  0.00000000000E+00  0.00000000000E+00  0.83239162129E+02  0.83239162282E+02  0.50400001928E-02 0.  1.
        1   -1    0    0  501    0  0.00000000000E+00  0.00000000000E+00 -0.10808300983E+04  0.10808300984E+04  0.50400001928E-02 0. -1.
    10030    2    1    2    0    0  0.00000000000E+00  0.00000000000E+00 -0.99759093622E+03  0.11640692606E+04  0.59989129644E+03 0.  0.
        2    1    3    3  502    0  0.11212237851E+03 -0.27053131244E+03 -0.62468337622E+03  0.68991879182E+03  0.25500000920E-02 0.  1.
       -2    1    3    3    0  502 -0.11212237851E+03  0.27053131244E+03 -0.37290756000E+03  0.47415046882E+03  0.25500000920E-02 0. -1.
</event>
<event>
 5   0  0.2295179E-02  0.5993663E+03  0.7818609E-02  0.9906722E-01
        1   -1    0    0  501    0  0.00000000000E+00  0.00000000000E+00  0.37347860884E+03  0.37347860887E+03  0.50400001928E-02 0. -1.
       -1   -1    0    0    0  501  0.00000000000E+00  0.00000000000E+00 -0.24046887402E+03  0.24046887407E+03  0.50400001928E-02 0.  1.
    10030    2    1    2    0    0  0.00000000000E+00  0.00000000000E+00  0.13300973482E+03  0.61394748294E+03  0.59936626720E+03 0.  0.
        3    1    3    3  502    0 -0.10602234270E+02  0.36825009595E+02 -0.23794883920E+03  0.24101483146E+03  0.10100000352E+00 0.  1.
       -3    1    3    3    0  502  0.10602234270E+02 -0.36825009595E+02  0.37095857402E+03  0.37293265149E+03  0.10100000352E+00 0. -1.
</event>
<event>
 5   0  0.3832191E-02  0.5989884E+03  0.7818609E-02  0.9907507E-01
        2   -1    0    0  501    0  0.00000000000E+00  0.00000000000E+00  0.51145580337E+03  0.51145580337E+03  0.25500000920E-02 0. -1.
       -2   -1    0    0    0  501  0.00000000000E+00  0.00000000000E+00 -0.17537544708E+03  0.17537544710E+03  0.25500000920E-02 0.  1.
    10030    2    1    2    0    0  0.00000000000E+00  0.00000000000E+00  0.33608035628E+03  0.68683125048E+03  0.59898844793E+03 0.  0.
        3    1    3    3  502    0 -0.35936798407E+02 -0.96337337740E+01  0.50879556764E+03  0.51015409649E+03  0.10100000352E+00 0. -1.
       -3    1    3    3    0  502  0.35936798407E+02  0.96337337740E+01 -0.17271521136E+03  0.17667715399E+03  0.10100000352E+00 0.  1.
</event>
<event>
 5   0  0.2295179E-02  0.6008663E+03  0.7818609E-02  0.9903610E-01
       -1   -1    0    0    0  501  0.00000000000E+00  0.00000000000E+00  0.55723627094E+03  0.55723627097E+03  0.50400001928E-02 0.  1.
        1   -1    0    0  501    0  0.00000000000E+00  0.00000000000E+00 -0.16197809690E+03  0.16197809697E+03  0.50400001928E-02 0. -1.
    10030    2    1    2    0    0  0.00000000000E+00  0.00000000000E+00  0.39525817405E+03  0.71921436794E+03  0.60086627705E+03 0.  0.
        3    1    3    3  502    0 -0.12976493468E+03  0.11028274749E+03 -0.98625375697E+02  0.19679481090E+03  0.10100000352E+00 0. -1.
       -3    1    3    3    0  502  0.12976493468E+03 -0.11028274749E+03  0.49388354975E+03  0.52241955704E+03  0.10100000352E+00 0.  1.
</event>
<event>
 5   0  0.2225808E-02  0.5998932E+03  0.7818609E-02  0.9905628E-01
       -1   -1    0    0    0  501  0.00000000000E+00  0.00000000000E+00  0.16743006564E+03  0.16743006572E+03  0.50400001928E-02 0. -1.
        1   -1    0    0  501    0  0.00000000000E+00  0.00000000000E+00 -0.53734655338E+03  0.53734655340E+03  0.50400001928E-02 0.  1.
    10030    2    1    2    0    0  0.00000000000E+00  0.00000000000E+00 -0.36991648774E+03  0.70477661912E+03  0.59989321963E+03 0.  0.
        2    1    3    3  502    0  0.11886926551E+02  0.14052156085E+03  0.12605271967E+03  0.18914781582E+03  0.25500000920E-02 0. -1.
       -2    1    3    3    0  502 -0.11886926551E+02 -0.14052156085E+03 -0.49596920741E+03  0.51562880330E+03  0.25500000920E-02 0.  1.
</event>
<event>
 5   0  0.3832191E-02  0.6013447E+03  0.7818609E-02  0.9902620E-01
       -2   -1    0    0    0  501  0.00000000000E+00  0.00000000000E+00  0.23761152975E+04  0.23761152975E+04  0.25500000920E-02 0.  1.
        2   -1    0    0  501    0  0.00000000000E+00  0.00000000000E+00 -0.38046920762E+02  0.38046920848E+02  0.25500000920E-02 0. -1.
    10030    2    1    2    0    0  0.00000000000E+00  0.00000000000E+00  0.23380683767E+04  0.24141622183E+04  0.60134472826E+03 0.  0.
        3    1    3    3  502    0 -0.94399418364E+02  0.35755024976E+02  0.32013052948E+02  0.10589862019E+03  0.10100000352E+00 0. -1.
       -3    1    3    3    0  502  0.94399418364E+02 -0.35755024976E+02  0.23060553238E+04  0.23082635981E+04  0.10100000352E+00 0.  1.
</event>
<event>
 5   0  0.3737642E-02  0.5972094E+03  0.7818609E-02  0.9911213E-01
       -2   -1    0    0    0  501  0.00000000000E+00  0.00000000000E+00  0.23657987447E+03  0.23657987448E+03  0.25500000920E-02 0.  1.
        2   -1    0    0  501    0  0.00000000000E+00  0.00000000000E+00 -0.37689079377E+03  0.37689079378E+03  0.25500000920E-02 0. -1.
    10030    2    1    2    0    0  0.00000000000E+00  0.00000000000E+00 -0.14031091930E+03  0.61347066826E+03  0.59720943290E+03 0.  0.
        5    1    3    3  502    0 -0.34999570657E+02  0.55583294848E+02 -0.36933873049E+03  0.37516351162E+03  0.46999998093E+01 0. -1.
       -5    1    3    3    0  502  0.34999570657E+02 -0.55583294848E+02  0.22902781119E+03  0.23830715664E+03  0.46999998093E+01 0.  1.
</event>
<event>
 5   0  0.3737642E-02  0.5959895E+03  0.7818609E-02  0.9913762E-01
        2   -1    0    0  501    0  0.00000000000E+00  0.00000000000E+00  0.10653387108E+03  0.10653387111E+03  0.25500000920E-02 0.  1.
       -2   -1    0    0    0  501  0.00000000000E+00  0.00000000000E+00 -0.83354579555E+03  0.83354579555E+03  0.25500000920E-02 0. -1.
    10030    2    1    2    0    0  0.00000000000E+00  0.00000000000E+00 -0.72701192446E+03  0.94007966666E+03  0.59598946414E+03 0.  0.
        5    1    3    3  502    0  0.41161823714E+02  0.27082542467E+03 -0.54838549882E+03  0.61301668142E+03  0.46999998093E+01 0.  1.
       -5    1    3    3    0  502 -0.41161823714E+02 -0.27082542467E+03 -0.17862642564E+03  0.32706298524E+03  0.46999998093E+01 0. -1.
</event>
<event>
 5   0  0.3737642E-02  0.5999390E+03  0.7818609E-02  0.9905533E-01
       -2   -1    0    0    0  501  0.00000000000E+00  0.00000000000E+00  0.12695835913E+03  0.12695835916E+03  0.25500000920E-02 0.  1.
        2   -1    0    0  501    0  0.00000000000E+00  0.00000000000E+00 -0.70874978362E+03  0.70874978363E+03  0.25500000920E-02 0. -1.
    10030    2    1    2    0    0  0.00000000000E+00  0.00000000000E+00 -0.58179142449E+03  0.83570814278E+03  0.59993902882E+03 0.  0.
        5    1    3    3  502    0 -0.15838609305E+02 -0.11621409284E+03  0.93637339124E+02  0.15015531358E+03  0.46999998093E+01 0.  1.
       -5    1    3    3    0  502  0.15838609305E+02  0.11621409284E+03 -0.67542876361E+03  0.68555282921E+03  0.46999998093E+01 0. -1.
</event>
<event>
 5   0  0.3798925E-02  0.6017582E+03  0.7818609E-02  0.9901765E-01
       -2   -1    0    0    0  501  0.00000000000E+00  0.00000000000E+00  0.12345489411E+03  0.12345489414E+03  0.25500000920E-02 0. -1.
        2   -1    0    0  501    0  0.00000000000E+00  0.00000000000E+00 -0.73329005710E+03  0.73329005711E+03  0.25500000920E-02 0.  1.
    10030    2    1    2    0    0  0.00000000000E+00  0.00000000000E+00 -0.60983516299E+03  0.85674495125E+03  0.60175824503E+03 0.  0.
        2    1    3    3  502    0 -0.27409786385E+02  0.27813492047E+03 -0.14626254514E+03  0.31544106025E+03  0.25500000920E-02 0. -1.
       -2    1    3    3    0  502  0.27409786385E+02 -0.27813492047E+03 -0.46357261785E+03  0.54130389099E+03  0.25500000920E-02 0.  1.
</event>
<event>
 5   0  0.3724066E-02  0.6037929E+03  0.7818609E-02  0.9897568E-01
       -2   -1    0    0    0  501  0.00000000000E+00  0.00000000000E+00  0.46357118038E+02  0.46357118108E+02  0.25500000920E-02 0. -1.
        2   -1    0    0  501    0  0.00000000000E+00  0.00000000000E+00 -0.19660729468E+04  0.19660729468E+04  0.25500000920E-02 0.  1.
    10030    2    1    2    0    0  0.00000000000E+00  0.00000000000E+00 -0.19197158287E+04  0.20124300649E+04  0.60379293052E+03 0.  0.
        4    1    3    3  502    0  0.10222959715E+03  0.26506542186E+03 -0.61948088998E+03  0.68151944532E+03  0.12699999809E+01 0. -1.
       -4    1    3    3    0  502 -0.10222959715E+03 -0.26506542186E+03 -0.13002349387E+04  0.13309106195E+04  0.12699999809E+01 0.  1.
</event>
<event>
 5   0  0.3737642E-02  0.6009523E+03  0.7818609E-02  0.9903432E-01
        2   -1    0    0  501    0  0.00000000000E+00  0.00000000000E+00  0.34477212468E+03  0.34477212469E+03  0.25500000920E-02 0. -1.
       -2   -1    0    0    0  501  0.00000000000E+00  0.00000000000E+00 -0.26187123804E+03  0.26187123805E+03  0.25500000920E-02 0.  1.
    10030    2    1    2    0    0  0.00000000000E+00  0.00000000000E+00  0.82900886644E+02  0.60664336275E+03  0.60095225481E+03 0.  0.
        5    1    3    3  502    0 -0.28773636139E+03 -0.39112600648E+02  0.11926352949E+03  0.31395523353E+03  0.46999998093E+01 0. -1.
       -5    1    3    3    0  502  0.28773636139E+03  0.39112600648E+02 -0.36362642850E+02  0.29268812922E+03  0.46999998093E+01 0.  1.
</event>
<event>
 5   0  0.3737642E-02  0.5930371E+03  0.7818609E-02  0.9919958E-01
       -2   -1    0    0    0  501  0.00000000000E+00  0.00000000000E+00  0.16445602364E+04  0.16445602364E+04  0.25500000920E-02 0. -1.
        2   -1    0    0  501    0  0.00000000000E+00  0.00000000000E+00 -0.53463080236E+02  0.53463080297E+02  0.25500000920E-02 0.  1.
    10030    2    1    2    0    0  0.00000000000E+00  0.00000000000E+00  0.15910971562E+04  0.16980233167E+04  0.59303711832E+03 0.  0.
        5    1    3    3  502    0  0.14733639625E+03  0.10863804674E+03  0.14633156554E+04  0.14747288009E+04  0.46999998093E+01 0. -1.
       -5    1    3    3    0  502 -0.14733639625E+03 -0.10863804674E+03  0.12778150080E+03  0.22329451584E+03  0.46999998093E+01 0.  1.
</event>
<event>
 5   0  0.3934634E-02  0.5976429E+03  0.7818609E-02  0.9910308E-01
       -2   -1    0    0    0  501  0.00000000000E+00  0.00000000000E+00  0.40624871542E+03  0.40624871543E+03  0.25500000920E-02 0. -1.
        2   -1    0    0  501    0  0.00000000000E+00  0.00000000000E+00 -0.21980197004E+03  0.21980197006E+03  0.25500000920E-02 0.  1.
    10030    2    1    2    0    0  0.00000000000E+00  0.00000000000E+00  0.18644674538E+03  0.62605068549E+03  0.59764293013E+03 0.  0.
        1    1    3    3  502    0 -0.82312459114E+02 -0.20887622328E+03  0.29980168664E+03  0.37454728529E+03  0.50400001928E-02 0. -1.
       -1    1    3    3    0  502  0.82312459114E+02  0.20887622328E+03 -0.11335494126E+03  0.25150340020E+03  0.50400001928E-02 0.  1.
</event>
<event>
 5   0  0.2382531E-02  0.5944552E+03  0.7818609E-02  0.9916977E-01
        1   -1    0    0  501    0  0.00000000000E+00  0.00000000000E+00  0.39009541817E+03  0.39009541820E+03  0.50400001928E-02 0. -1.
       -1   -1    0    0    0  501  0.00000000000E+00  0.00000000000E+00 -0.22646826937E+03  0.22646826943E+03  0.50400001928E-02 0.  1.
    10030    2    1    2    0    0  0.00000000000E+00  0.00000000000E+00  0.16362714880E+03  0.61656368763E+03  0.59445515986E+03 0.  0.
        5    1    3    3  502    0  0.14822907012E+03  0.23226876940E+03 -0.33690167185E+02  0.27762880944E+03  0.46999998093E+01 0.  1.
       -5    1    3    3    0  502 -0.14822907012E+03 -0.23226876940E+03  0.19731731598E+03  0.33893487819E+03  0.46999998093E+01 0. -1.
</event>
<event>
 5   0  0.3934634E-02  0.5963967E+03  0.7818609E-02  0.9912910E-01
        2   -1    0    0  501    0  0.00000000000E+00  0.00000000000E+00  0.69141518225E+03  0.69141518225E+03  0.25500000920E-02 0. -1.
       -2   -1    0    0    0  501  0.00000000000E+00  0.00000000000E+00 -0.12860905413E+03  0.12860905415E+03  0.25500000920E-02 0.  1.
    10030    2    1    2    0    0  0.00000000000E+00  0.00000000000E+00  0.56280612812E+03  0.82002423640E+03  0.59639668882E+03 0.  0.
        1    1    3    3  502    0  0.50046884281E+02  0.28500836972E+03  0.18236943210E+03  0.34204249915E+03  0.50400001928E-02 0.  1.
       -1    1    3    3    0  502 -0.50046884281E+02 -0.28500836972E+03  0.38043669603E+03  0.47798173725E+03  0.50400001928E-02 0. -1.
</event>
<event>
 5   0  0.2225808E-02  0.5978372E+03  0.7818609E-02  0.9909903E-01
       -1   -1    0    0    0  501  0.00000000000E+00  0.00000000000E+00  0.38079826420E+03  0.38079826423E+03  0.50400001928E-02 0.  1.
        1   -1    0    0  501    0  0.00000000000E+00  0.00000000000E+00 -0.23464479399E+03  0.23464479404E+03  0.50400001928E-02 0. -1.
    10030    2    1    2    0    0  0.00000000000E+00  0.00000000000E+00  0.14615347021E+03  0.61544305827E+03  0.59783720286E+03 0.  0.
        2    1    3    3  502    0 -0.25431313673E+03 -0.29082840920E+02 -0.85843513790E+02  0.26998165126E+03  0.25500000920E-02 0. -1.
       -2    1    3    3    0  502  0.25431313673E+03  0.29082840920E+02  0.23199698400E+03  0.34546140702E+03  0.25500000920E-02 0.  1.
</event>
<event>
 5   0  0.3832191E-02  0.6014039E+03  0.7818609E-02  0.9902498E-01
       -2   -1    0    0    0  501  0.00000000000E+00  0.00000000000E+00  0.86238296379E+02  0.86238296416E+02  0.25500000920E-02 0.  1.
        2   -1    0    0  501    0  0.00000000000E+00  0.00000000000E+00 -0.10485092571E+04  0.10485092571E+04  0.25500000920E-02 0. -1.
    10030    2    1    2    0    0  0.00000000000E+00  0.00000000000E+00 -0.96227096071E+03  0.11347475535E+04  0.60140386461E+03 0.  0.
        3    1    3    3  502    0  0.25861221117E+01  0.87075323324E+02  0.61907646731E+02  0.10687079528E+03  0.10100000352E+00 0.  1.
       -3    1    3    3    0  502 -0.25861221117E+01 -0.87075323324E+02 -0.10241786074E+04  0.10278767582E+04  0.10100000352E+00 0. -1.
</event>
<event>
 5   0  0.2309055E-02  0.5992218E+03  0.7818609E-02  0.9907022E-01
       -1   -1    0    0    0  501  0.00000000000E+00  0.00000000000E+00  0.81234677825E+02  0.81234677982E+02  0.50400001928E-02 0.  1.
        1   -1    0    0  501    0  0.00000000000E+00  0.00000000000E+00 -0.11050292136E+04  0.11050292136E+04  0.50400001928E-02 0. -1.
    10030    2    1    2    0    0  0.00000000000E+00  0.00000000000E+00 -0.10237945358E+04  0.11862638916E+04  0.59922180286E+03 0.  0.
        4    1    3    3  502    0  0.29683934698E+03 -0.26370759885E+02 -0.57310936983E+03  0.64596050776E+03  0.12699999809E+01 0. -1.
       -4    1    3    3    0  502 -0.29683934698E+03  0.26370759885E+02 -0.45068516596E+03  0.54030338386E+03  0.12699999809E+01 0.  1.
</event>
<event>
 5   0  0.2276105E-02  0.5998373E+03  0.7818609E-02  0.9905744E-01
        1   -1    0    0  501    0  0.00000000000E+00  0.00000000000E+00  0.86830614534E+03  0.86830614536E+03  0.50400001928E-02 0.  1.
       -1   -1    0    0    0  501  0.00000000000E+00  0.00000000000E+00 -0.10359386906E+03  0.10359386919E+03  0.50400001928E-02 0. -1.
    10030    2    1    2    0    0  0.00000000000E+00  0.00000000000E+00  0.76471227628E+03  0.97190001454E+03  0.59983728858E+03 0.  0.
        1    1    3    3  502    0 -0.84773585195E+02 -0.19378964706E+03  0.72686973543E+03  0.75702087181E+03  0.50400001928E-02 0.  1.
       -1    1    3    3    0  502  0.84773585195E+02  0.19378964706E+03  0.37842540850E+02  0.21487914273E+03  0.50400001928E-02 0. -1.
</event>
<event>
 5   0  0.2382531E-02  0.5992029E+03  0.7818609E-02  0.9907061E-01
       -1   -1    0    0    0  501  0.00000000000E+00  0.00000000000E+00  0.27875173186E+03  0.27875173190E+03  0.50400001928E-02 0. -1.
        1   -1    0    0  501    0  0.00000000000E+00  0.00000000000E+00 -0.32201061386E+03  0.32201061390E+03  0.50400001928E-02 0.  1.
    10030    2    1    2    0    0  0.00000000000E+00  0.00000000000E+00 -0.43258882001E+02  0.60076234580E+03  0.59920285819E+03 0.  0.
        5    1    3    3  502    0 -0.29574931276E+03  0.35585091930E+02  0.10154351155E+02  0.29809252861E+03  0.46999998093E+01 0. -1.
       -5    1    3    3    0  502  0.29574931276E+03 -0.35585091930E+02 -0.53413233155E+02  0.30266981720E+03  0.46999998093E+01 0.  1.
</event>
<event>
 5   0  0.3724066E-02  0.6054251E+03  0.7818609E-02  0.9894214E-01
       -2   -1    0    0    0  501  0.00000000000E+00  0.00000000000E+00  0.65042910778E+02  0.65042910828E+02  0.25500000920E-02 0. -1.
        2   -1    0    0  501    0  0.00000000000E+00  0.00000000000E+00 -0.14088376635E+04  0.14088376635E+04  0.25500000920E-02 0.  1.
    10030    2    1    2    0    0  0.00000000000E+00  0.00000000000E+00 -0.13437947527E+04  0.14738805743E+04  0.60542514809E+03 0.  0.
        4    1    3    3  502    0 -0.24345050410E+03  0.50054348660E+02 -0.25122442733E+03  0.35339625289E+03  0.12699999809E+01 0. -1.
       -4    1    3    3    0  502  0.24345050410E+03 -0.50054348660E+02 -0.10925703254E+04  0.11204843214E+04  0.12699999809E+01 0.  1.
</event>
<event>
 5   0  0.2225808E-02  0.6012933E+03  0.7818609E-02  0.9902727E-01
        1   -1    0    0  501    0  0.00000000000E+00  0.00000000000E+00  0.34449241105E+03  0.34449241109E+03  0.50400001928E-02 0.  1.
       -1   -1    0    0    0  501  0.00000000000E+00  0.00000000000E+00 -0.26238140923E+03  0.26238140928E+03  0.50400001928E-02 0. -1.
    10030    2    1    2    0    0  0.00000000000E+00  0.00000000000E+00  0.82111001816E+02  0.60687382037E+03  0.60129328720E+03 0.  0.
        2    1    3    3  502    0 -0.12135694418E+03 -0.15085027004E+03 -0.19109027536E+03  0.27202721410E+03  0.25500000920E-02 0. -1.
       -2    1    3    3    0  502  0.12135694418E+03  0.15085027004E+03  0.27320127717E+03  0.33484660626E+03  0.25500000920E-02 0.  1.
</event>
<event>
 5   0  0.3798925E-02  0.5756443E+03  0.7818609E-02  0.9957266E-01
       -2   -1    0    0    0  501  0.00000000000E+00  0.00000000000E+00  0.12485773811E+03  0.12485773814E+03  0.25500000920E-02 0. -1.
        2   -1    0    0  501    0  0.00000000000E+00  0.00000000000E+00 -0.66348790970E+03  0.66348790971E+03  0.25500000920E-02 0.  1.
    10030    2    1    2    0    0  0.00000000000E+00  0.00000000000E+00 -0.53863017159E+03  0.78834564784E+03  0.57564433353E+03 0.  0.
        2    1    3    3  502    0  0.23790122058E+03  0.15500587234E+03 -0.20482061248E+03  0.35010754707E+03  0.25500000920E-02 0. -1.
       -2    1    3    3    0  502 -0.23790122058E+03 -0.15500587234E+03 -0.33380955911E+03  0.43823810078E+03  0.25500000920E-02 0.  1.
</event>
<event>
 5   0  0.1521750E-02  0.6025442E+03  0.7818609E-02  0.9900142E-01
       -3   -1    0    0    0  501  0.00000000000E+00  0.00000000000E+00  0.41085951831E+03  0.41085953072E+03  0.10100000352E+00 0.  1.
        3   -1    0    0  501    0  0.00000000000E+00  0.00000000000E+00 -0.22091457115E+03  0.22091459423E+03  0.10100000352E+00 0. -1.
    10030    2    1    2    0    0  0.00000000000E+00  0.00000000000E+00  0.18994494716E+03  0.63177412496E+03  0.60254415773E+03 0.  0.
        1    1    3    3  502    0 -0.28894197673E+03 -0.85177290187E+02  0.99915932689E+02  0.31737332955E+03  0.50400001928E-02 0. -1.
       -1    1    3    3    0  502  0.28894197673E+03  0.85177290187E+02  0.90029014474E+02  0.31440079541E+03  0.50400001928E-02 0.  1.
</event>
<event>
 5   0  0.3934634E-02  0.5914261E+03  0.7818609E-02  0.9923356E-01
       -2   -1    0    0    0  501  0.00000000000E+00  0.00000000000E+00  0.92959415889E+02  0.92959415924E+02  0.25500000920E-02 0. -1.
        2   -1    0    0  501    0  0.00000000000E+00  0.00000000000E+00 -0.94069216364E+03  0.94069216365E+03  0.25500000920E-02 0.  1.
    10030    2    1    2    0    0  0.00000000000E+00  0.00000000000E+00 -0.84773274775E+03  0.10336515796E+04  0.59142605314E+03 0.  0.
        1    1    3    3  502    0 -0.22158927732E+03 -0.17776114233E+03 -0.56740750630E+03  0.63454874500E+03  0.50400001928E-02 0.  1.
       -1    1    3    3    0  502  0.22158927732E+03  0.17776114233E+03 -0.28032524145E+03  0.39910283457E+03  0.50400001928E-02 0. -1.
</event>
<event>
 5   0  0.3737642E-02  0.5808175E+03  0.7818609E-02  0.9946023E-01
        2   -1    0    0  501    0  0.00000000000E+00  0.00000000000E+00  0.81399187166E+03  0.81399187167E+03  0.25500000920E-02 0. -1.
       -2   -1    0    0    0  501  0.00000000000E+00  0.00000000000E+00 -0.10360942545E+03  0.10360942548E+03  0.25500000920E-02 0.  1.
    10030    2    1    2    0    0  0.00000000000E+00  0.00000000000E+00  0.71038244622E+03  0.91760129714E+03  0.58081745895E+03 0.  0.
        5    1    3    3  502    0  0.65293448023E+02  0.28073563097E+03  0.41081008319E+03  0.50185928635E+03  0.46999998093E+01 0.  1.
       -5    1    3    3    0  502 -0.65293448023E+02 -0.28073563097E+03  0.29957236303E+03  0.41574201079E+03  0.46999998093E+01 0. -1.
</event>
<event>
 5   0  0.2225808E-02  0.5987437E+03  0.7818609E-02  0.9908016E-01
       -1   -1    0    0    0  501  0.00000000000E+00  0.00000000000E+00  0.18026444658E+03  0.18026444665E+03  0.50400001928E-02 0. -1.
        1   -1    0    0  501    0  0.00000000000E+00  0.00000000000E+00 -0.49717799430E+03  0.49717799433E+03  0.50400001928E-02 0.  1.
    10030    2    1    2    0    0  0.00000000000E+00  0.00000000000E+00 -0.31691354772E+03  0.67744244098E+03  0.59874373827E+03 0.  0.
        2    1    3    3  502    0  0.16958094961E+03  0.43222979497E+02  0.11636336724E+03  0.21015793506E+03  0.25500000920E-02 0. -1.
       -2    1    3    3    0  502 -0.16958094961E+03 -0.43222979497E+02 -0.43327691496E+03  0.46728450592E+03  0.25500000920E-02 0.  1.
</event>
<event>
 5   0  0.2309055E-02  0.5980932E+03  0.7818609E-02  0.9909370E-01
        1   -1    0    0  501    0  0.00000000000E+00  0.00000000000E+00  0.16398223613E+03  0.16398223621E+03  0.50400001928E-02 0. -1.
       -1   -1    0    0    0  501  0.00000000000E+00  0.00000000000E+00 -0.54535706919E+03  0.54535706922E+03  0.50400001928E-02 0.  1.
    10030    2    1    2    0    0  0.00000000000E+00  0.00000000000E+00 -0.38137483306E+03  0.70933930543E+03  0.59809320923E+03 0.  0.
        4    1    3    3  502    0 -0.19610719544E+03 -0.42845827466E+02  0.72202444021E+02  0.21332745454E+03  0.12699999809E+01 0. -1.
       -4    1    3    3    0  502  0.19610719544E+03  0.42845827466E+02 -0.45357727708E+03  0.49601185089E+03  0.12699999809E+01 0.  1.
</event>
<event>
 5   0  0.3724066E-02  0.5986784E+03  0.7818609E-02  0.9908152E-01
        2   -1    0    0  501    0  0.00000000000E+00  0.00000000000E+00  0.12599991425E+04  0.12599991425E+04  0.25500000920E-02 0. -1.
       -2   -1    0    0    0  501  0.00000000000E+00  0.00000000000E+00 -0.71114308528E+02  0.71114308574E+02  0.25500000920E-02 0.  1.
    10030    2    1    2    0    0  0.00000000000E+00  0.00000000000E+00  0.11888848340E+04  0.13311134511E+04  0.59867843722E+03 0.  0.
        4    1    3    3  502    0  0.17961026476E+03 -0.23815887304E+03  0.64993261646E+03  0.71511783285E+03  0.12699999809E+01 0. -1.
       -4    1    3    3    0  502 -0.17961026476E+03  0.23815887304E+03  0.53895221751E+03  0.61599561822E+03  0.12699999809E+01 0.  1.
</event>
<event>
 5   0  0.3832191E-02  0.5977429E+03  0.7818609E-02  0.9910100E-01
       -2   -1    0    0    0  501  0.00000000000E+00  0.00000000000E+00  0.94318032233E+02  0.94318032268E+02  0.25500000920E-02 0. -1.
        2   -1    0    0  501    0  0.00000000000E+00  0.00000000000E+00 -0.94705272551E+03  0.94705272552E+03  0.25500000920E-02 0.  1.
    10030    2    1    2    0    0  0.00000000000E+00  0.00000000000E+00 -0.85273469328E+03  0.10413707578E+04  0.59774291969E+03 0.  0.
        3    1    3    3  502    0  0.15393574125E+03 -0.24700342653E+03 -0.54474831490E+03  0.61762257240E+03  0.10100000352E+00 0.  1.
       -3    1    3    3    0  502 -0.15393574125E+03  0.24700342653E+03 -0.30798637838E+03  0.42374818539E+03  0.10100000352E+00 0. -1.
</event>
<event>
 5   0  0.2276105E-02  0.6027270E+03  0.7818609E-02  0.9899764E-01
        1   -1    0    0  501    0  0.00000000000E+00  0.00000000000E+00  0.94501156615E+03  0.94501156616E+03  0.50400001928E-02 0. -1.
       -1   -1    0    0    0  501  0.00000000000E+00  0.00000000000E+00 -0.96104603950E+02  0.96104604082E+02  0.50400001928E-02 0.  1.
    10030    2    1    2    0    0  0.00000000000E+00  0.00000000000E+00  0.84890696220E+03  0.10411161702E+04  0.60272701074E+03 0.  0.
        1    1    3    3  502    0 -0.35723348359E+02 -0.35291115712E+02 -0.88827073427E+02  0.10203856852E+03  0.50400001928E-02 0.  1.
       -1    1    3    3    0  502  0.35723348359E+02  0.35291115712E+02  0.93773403563E+03  0.93907760173E+03  0.50400001928E-02 0. -1.
</event>
<event>
 5   0  0.2276105E-02  0.6060869E+03  0.7818609E-02  0.9892857E-01
        1   -1    0    0  501    0  0.00000000000E+00  0.00000000000E+00  0.13184803242E+04  0.13184803242E+04  0.50400001928E-02 0. -1.
       -1   -1    0    0    0  501  0.00000000000E+00  0.00000000000E+00 -0.69652415777E+02  0.69652415959E+02  0.50400001928E-02 0.  1.
    10030    2    1    2    0    0  0.00000000000E+00  0.00000000000E+00  0.12488279084E+04  0.13881327402E+04  0.60608692402E+03 0.  0.
        1    1    3    3  502    0  0.21349667613E+03  0.19847169783E+03  0.43466966168E+03  0.52336369798E+03  0.50400001928E-02 0.  1.
       -1    1    3    3    0  502 -0.21349667613E+03 -0.19847169783E+03  0.81415824674E+03  0.86476904219E+03  0.50400001928E-02 0. -1.
</event>
<event>
 5   0  0.2225808E-02  0.5983231E+03  0.7818609E-02  0.9908891E-01
       -1   -1    0    0    0  501  0.00000000000E+00  0.00000000000E+00  0.71155402991E+03  0.71155402993E+03  0.50400001928E-02 0.  1.
        1   -1    0    0  501    0  0.00000000000E+00  0.00000000000E+00 -0.12577768845E+03  0.12577768855E+03  0.50400001928E-02 0. -1.
    10030    2    1    2    0    0  0.00000000000E+00  0.00000000000E+00  0.58577634146E+03  0.83733171849E+03  0.59832306036E+03 0.  0.
        2    1    3    3  502    0 -0.21998136349E+03 -0.14691627372E+03  0.48842006519E+03  0.55545508536E+03  0.25500000920E-02 0. -1.
       -2    1    3    3    0  502  0.21998136349E+03  0.14691627372E+03  0.97356276270E+02  0.28187663312E+03  0.25500000920E-02 0.  1.
</event>
<event>
 5   0  0.2225808E-02  0.5952938E+03  0.7818609E-02  0.9915218E-01
        1   -1    0    0  501    0  0.00000000000E+00  0.00000000000E+00  0.59429912402E+03  0.59429912404E+03  0.50400001928E-02 0.  1.
       -1   -1    0    0    0  501  0.00000000000E+00  0.00000000000E+00 -0.14907255125E+03  0.14907255134E+03  0.50400001928E-02 0. -1.
    10030    2    1    2    0    0  0.00000000000E+00  0.00000000000E+00  0.44522657277E+03  0.74337167538E+03  0.59529383221E+03 0.  0.
        2    1    3    3  502    0  0.19556836001E+03 -0.20599124668E+03  0.33370486591E+03  0.43822176427E+03  0.25500000920E-02 0.  1.
       -2    1    3    3    0  502 -0.19556836001E+03  0.20599124668E+03  0.11152170686E+03  0.30514991111E+03  0.25500000920E-02 0. -1.
</event>
<event>
 5   0  0.3737642E-02  0.6056511E+03  0.7818609E-02  0.9893751E-01
        2   -1    0    0  501    0  0.00000000000E+00  0.00000000000E+00  0.17858714812E+03  0.17858714814E+03  0.25500000920E-02 0. -1.
       -2   -1    0    0    0  501  0.00000000000E+00  0.00000000000E+00 -0.51349339207E+03  0.51349339208E+03  0.25500000920E-02 0.  1.
    10030    2    1    2    0    0  0.00000000000E+00  0.00000000000E+00 -0.33490624395E+03  0.69208054021E+03  0.60565112227E+03 0.  0.
        5    1    3    3  502    0 -0.13436330054E+03 -0.73731570730E+02 -0.46585316500E+03  0.49043970312E+03  0.46999998093E+01 0.  1.
       -5    1    3    3    0  502  0.13436330054E+03  0.73731570730E+02  0.13094692105E+03  0.20164083710E+03  0.46999998093E+01 0. -1.
</event>
<event>
 5   0  0.2382531E-02  0.6020587E+03  0.7818609E-02  0.9901144E-01
       -1   -1    0    0    0  501  0.00000000000E+00  0.00000000000E+00  0.69447022773E+03  0.69447022775E+03  0.50400001928E-02 0.  1.
        1   -1    0    0  501    0  0.00000000000E+00  0.00000000000E+00 -0.13048602167E+03  0.13048602176E+03  0.50400001928E-02 0. -1.
    10030    2    1    2    0    0  0.00000000000E+00  0.00000000000E+00  0.56398420607E+03  0.82495624951E+03  0.60205865904E+03 0.  0.
        5    1    3    3  502    0  0.26752672815E+03  0.58221197819E+02  0.45333228872E+03  0.52961543798E+03  0.46999998093E+01 0.  1.
       -5    1    3    3    0  502 -0.26752672815E+03 -0.58221197819E+02  0.11065191735E+03  0.29534081154E+03  0.46999998093E+01 0. -1.
</event>
<event>
 5   0  0.2295179E-02  0.6011526E+03  0.7818609E-02  0.9903018E-01
       -1   -1    0    0    0  501  0.00000000000E+00  0.00000000000E+00  0.41248626636E+03  0.41248626639E+03  0.50400001928E-02 0. -1.
        1   -1    0    0  501    0  0.00000000000E+00  0.00000000000E+00 -0.21902818499E+03  0.21902818505E+03  0.50400001928E-02 0.  1.
    10030    2    1    2    0    0  0.00000000000E+00  0.00000000000E+00  0.19345808137E+03  0.63151445144E+03  0.60115262050E+03 0.  0.
        3    1    3    3  502    0 -0.23309510708E+03 -0.17807286972E+03  0.16563800998E+03  0.33686679330E+03  0.10100000352E+00 0. -1.
       -3    1    3    3    0  502  0.23309510708E+03  0.17807286972E+03  0.27820071393E+02  0.29464765814E+03  0.10100000352E+00 0.  1.
</event>
<event>
 5   0  0.2295179E-02  0.6052500E+03  0.7818609E-02  0.9894574E-01
       -1   -1    0    0    0  501  0.00000000000E+00  0.00000000000E+00  0.11775505358E+03  0.11775505368E+03  0.50400001928E-02 0. -1.
        1   -1    0    0  501    0  0.00000000000E+00  0.00000000000E+00 -0.77773206670E+03  0.77773206672E+03  0.50400001928E-02 0.  1.
    10030    2    1    2    0    0  0.00000000000E+00  0.00000000000E+00 -0.65997701312E+03  0.89548712040E+03  0.60524996898E+03 0.  0.
        3    1    3    3  502    0  0.21716226296E+03  0.56374668330E+02 -0.29514686459E+02  0.22629334635E+03  0.10100000352E+00 0. -1.
       -3    1    3    3    0  502 -0.21716226296E+03 -0.56374668330E+02 -0.63046232667E+03  0.66919377405E+03  0.10100000352E+00 0.  1.
</event>
<event>
 5   0  0.2309055E-02  0.6005086E+03  0.7818609E-02  0.9904351E-01
       -1   -1    0    0    0  501  0.00000000000E+00  0.00000000000E+00  0.66814116349E+02  0.66814116539E+02  0.50400001928E-02 0. -1.
        1   -1    0    0  501    0  0.00000000000E+00  0.00000000000E+00 -0.13493052657E+04  0.13493052657E+04  0.50400001928E-02 0.  1.
    10030    2    1    2    0    0  0.00000000000E+00  0.00000000000E+00 -0.12824911493E+04  0.14161193822E+04  0.60050858163E+03 0.  0.
        4    1    3    3  502    0 -0.25390327145E+02 -0.19775882924E+03 -0.11706486394E+04  0.11875070834E+04  0.12699999809E+01 0.  1.
       -4    1    3    3    0  502  0.25390327145E+02  0.19775882924E+03 -0.11184250992E+03  0.22861229884E+03  0.12699999809E+01 0. -1.
</event>
<event>
 5   0  0.3798925E-02  0.5974096E+03  0.7818609E-02  0.9910795E-01
       -2   -1    0    0    0  501  0.00000000000E+00  0.00000000000E+00  0.14859425425E+03  0.14859425427E+03  0.25500000920E-02 0. -1.
        2   -1    0    0  501    0  0.00000000000E+00  0.00000000000E+00 -0.60045774000E+03  0.60045774001E+03  0.25500000920E-02 0.  1.
    10030    2    1    2    0    0  0.00000000000E+00  0.00000000000E+00 -0.45186348575E+03  0.74905199428E+03  0.59740964202E+03 0.  0.
        2    1    3    3  502    0 -0.36691026958E+02  0.16287778744E+03  0.84627218006E+02  0.18718218701E+03  0.25500000920E-02 0. -1.
       -2    1    3    3    0  502  0.36691026958E+02 -0.16287778744E+03 -0.53649070376E+03  0.56186980727E+03  0.25500000920E-02 0.  1.
</event>
<event>
 5   0  0.3934634E-02  0.6003329E+03  0.7818609E-02  0.9904716E-01
       -2   -1    0    0    0  501  0.00000000000E+00  0.00000000000E+00  0.57184051422E+03  0.57184051423E+03  0.25500000920E-02 0. -1.
        2   -1    0    0  501    0  0.00000000000E+00  0.00000000000E+00 -0.15756123500E+03  0.15756123503E+03  0.25500000920E-02 0.  1.
    10030    2    1    2    0    0  0.00000000000E+00  0.00000000000E+00  0.41427927922E+03  0.72940174925E+03  0.60033289983E+03 0.  0.
        1    1    3    3  502    0  0.68546272621E+02  0.25284487234E+03  0.29107449970E+02  0.26358369568E+03  0.50400001928E-02 0.  1.
       -1    1    3    3    0  502 -0.68546272621E+02 -0.25284487234E+03  0.38517182925E+03  0.46581805357E+03  0.50400001928E-02 0. -1.
</event>
<event>
 5   0  0.2382531E-02  0.5995488E+03  0.7818609E-02  0.9906343E-01
        1   -1    0    0  501    0  0.00000000000E+00  0.00000000000E+00  0.41469792781E+03  0.41469792784E+03  0.50400001928E-02 0.  1.
       -1   -1    0    0    0  501  0.00000000000E+00  0.00000000000E+00 -0.21669914246E+03  0.21669914251E+03  0.50400001928E-02 0. -1.
    10030    2    1    2    0    0  0.00000000000E+00  0.00000000000E+00  0.19799878535E+03  0.63139707035E+03  0.59954878154E+03 0.  0.
        5    1    3    3  502    0  0.19017240452E+03  0.13426260577E+03 -0.99844147933E+02  0.25334351111E+03  0.46999998093E+01 0. -1.
       -5    1    3    3    0  502 -0.19017240452E+03 -0.13426260577E+03  0.29784293328E+03  0.37805355924E+03  0.46999998093E+01 0.  1.
</event>
<event>
 5   0  0.2225808E-02  0.6011763E+03  0.7818609E-02  0.9902969E-01
        1   -1    0    0  501    0  0.00000000000E+00  0.00000000000E+00  0.30839147945E+03  0.30839147949E+03  0.50400001928E-02 0. -1.
       -1   -1    0    0    0  501  0.00000000000E+00  0.00000000000E+00 -0.29298223387E+03  0.29298223391E+03  0.50400001928E-02 0.  1.
    10030    2    1    2    0    0  0.00000000000E+00  0.00000000000E+00  0.15409245584E+02  0.60137371340E+03  0.60117626227E+03 0.  0.
        2    1    3    3  502    0 -0.28828717500E+03  0.81019336562E+02 -0.18373009287E+02  0.30001865883E+03  0.25500000920E-02 0.  1.
       -2    1    3    3    0  502  0.28828717500E+03 -0.81019336562E+02  0.33782254870E+02  0.30135505457E+03  0.25500000920E-02 0. -1.
</event>
<event>
 5   0  0.2295179E-02  0.5925463E+03  0.7818609E-02  0.9920992E-01
       -1   -1    0    0    0  501  0.00000000000E+00  0.00000000000E+00  0.11850403239E+03  0.11850403249E+03  0.50400001928E-02 0.  1.
        1   -1    0    0  501    0  0.00000000000E+00  0.00000000000E+00 -0.74071551584E+03  0.74071551586E+03  0.50400001928E-02 0. -1.
    10030    2    1    2    0    0  0.00000000000E+00  0.00000000000E+00 -0.62221148346E+03  0.85921954835E+03  0.59254628691E+03 0.  0.
        3    1    3    3  502    0 -0.22785416500E+03  0.81865179789E+02 -0.63498555506E+02  0.25030282644E+03  0.10100000352E+00 0.  1.
       -3    1    3    3    0  502  0.22785416500E+03 -0.81865179789E+02 -0.55871292795E+03  0.60891672192E+03  0.10100000352E+00 0. -1.
</event>
<event>
 5   0  0.3798925E-02  0.6075384E+03  0.7818609E-02  0.9889889E-01
       -2   -1    0    0    0  501  0.00000000000E+00  0.00000000000E+00  0.97961272250E+02  0.97961272283E+02  0.25500000920E-02 0. -1.
        2   -1    0    0  501    0  0.00000000000E+00  0.00000000000E+00 -0.94196129448E+03  0.94196129448E+03  0.25500000920E-02 0.  1.
    10030    2    1    2    0    0  0.00000000000E+00  0.00000000000E+00 -0.84400002223E+03  0.10399225668E+04  0.60753839989E+03 0.  0.
        2    1    3    3  502    0 -0.22602807605E+03 -0.20292568805E+03 -0.41709821540E+03  0.51598299132E+03  0.25500000920E-02 0. -1.
       -2    1    3    3    0  502  0.22602807605E+03  0.20292568805E+03 -0.42690180683E+03  0.52393957544E+03  0.25500000920E-02 0.  1.
</event>
<event>
 5   0  0.3934634E-02  0.5545835E+03  0.7818609E-02  0.1000439E+00
        2   -1    0    0  501    0  0.00000000000E+00  0.00000000000E+00  0.13115814924E+04  0.13115814924E+04  0.25500000920E-02 0.  1.
       -2   -1    0    0    0  501  0.00000000000E+00  0.00000000000E+00 -0.58624419305E+02  0.58624419360E+02  0.25500000920E-02 0. -1.
    10030    2    1    2    0    0  0.00000000000E+00  0.00000000000E+00  0.12529570731E+04  0.13702059117E+04  0.55458345955E+03 0.  0.
        1    1    3    3  502    0 -0.18609498876E+03 -0.16147905053E+03  0.94078996977E+03  0.97251868663E+03  0.50400001928E-02 0.  1.
       -1    1    3    3    0  502  0.18609498876E+03  0.16147905053E+03  0.31216710330E+03  0.39768722510E+03  0.50400001928E-02 0. -1.
</event>
<event>
 5   0  0.2276105E-02  0.5946480E+03  0.7818609E-02  0.9916572E-01
       -1   -1    0    0    0  501  0.00000000000E+00  0.00000000000E+00  0.10267345753E+04  0.10267345753E+04  0.50400001928E-02 0. -1.
        1   -1    0    0  501    0  0.00000000000E+00  0.00000000000E+00 -0.86099711991E+02  0.86099712139E+02  0.50400001928E-02 0.  1.
    10030    2    1    2    0    0  0.00000000000E+00  0.00000000000E+00  0.94063486335E+03  0.11128342875E+04  0.59464796751E+03 0.  0.
        1    1    3    3  502    0  0.80764612612E+02  0.24671905264E+03  0.19906951928E+03  0.32714199841E+03  0.50400001928E-02 0.  1.
       -1    1    3    3    0  502 -0.80764612612E+02 -0.24671905264E+03  0.74156534406E+03  0.78569228908E+03  0.50400001928E-02 0. -1.
</event>
<event>
 5   0  0.3798925E-02  0.5957177E+03  0.7818609E-02  0.9914330E-01
        2   -1    0    0  501    0  0.00000000000E+00  0.00000000000E+00  0.22227181269E+04  0.22227181269E+04  0.25500000920E-02 0.  1.
       -2   -1    0    0    0  501  0.00000000000E+00  0.00000000000E+00 -0.39915045414E+02  0.39915045496E+02  0.25500000920E-02 0. -1.
    10030    2    1    2    0    0  0.00000000000E+00  0.00000000000E+00  0.21828030815E+04  0.22626331724E+04  0.59571770184E+03 0.  0.
        2    1    3    3  502    0 -0.18096027494E+03 -0.66568750345E+02  0.19536923419E+04  0.19631840939E+04  0.25500000920E-02 0.  1.
       -2    1    3    3    0  502  0.18096027494E+03  0.66568750345E+02  0.22911073959E+03  0.29944907853E+03  0.25500000920E-02 0. -1.
</event>
<event>
 5   0  0.2225808E-02  0.6004241E+03  0.7818609E-02  0.9904526E-01
        1   -1    0    0  501    0  0.00000000000E+00  0.00000000000E+00  0.51566049332E+03  0.51566049335E+03  0.50400001928E-02 0. -1.
       -1   -1    0    0    0  501  0.00000000000E+00  0.00000000000E+00 -0.17478028842E+03  0.17478028849E+03  0.50400001928E-02 0.  1.
    10030    2    1    2    0    0  0.00000000000E+00  0.00000000000E+00  0.34088020490E+03  0.69044078183E+03  0.60042414935E+03 0.  0.
        2    1    3    3  502    0 -0.24443729548E+03 -0.89498436190E+02  0.34242060882E+03  0.43012955589E+03  0.25500000920E-02 0. -1.
       -2    1    3    3    0  502  0.24443729548E+03  0.89498436190E+02 -0.15404039176E+01  0.26031122594E+03  0.25500000920E-02 0.  1.
</event>
<event>
 5   0  0.1521750E-02  0.6004236E+03  0.7818609E-02  0.9904528E-01
       -3   -1    0    0    0  501  0.00000000000E+00  0.00000000000E+00  0.30820899248E+03  0.30820900903E+03  0.10100000352E+00 0.  1.
        3   -1    0    0  501    0  0.00000000000E+00  0.00000000000E+00 -0.29242206383E+03  0.29242208127E+03  0.10100000352E+00 0. -1.
    10030    2    1    2    0    0  0.00000000000E+00  0.00000000000E+00  0.15786928647E+02  0.60063109030E+03  0.60042358341E+03 0.  0.
        2    1    3    3  502    0 -0.13856715472E+03 -0.26394456759E+03 -0.27608641006E+02  0.29938241130E+03  0.25500000920E-02 0.  1.
       -2    1    3    3    0  502  0.13856715472E+03  0.26394456759E+03  0.43395569653E+02  0.30124867900E+03  0.25500000920E-02 0. -1.
</event>
<event>
 5   0  0.2295179E-02  0.5967837E+03  0.7818609E-02  0.9912101E-01
        1   -1    0    0  501    0  0.00000000000E+00  0.00000000000E+00  0.10267145161E+04  0.10267145161E+04  0.50400001928E-02 0. -1.
       -1   -1    0    0    0  501  0.00000000000E+00  0.00000000000E+00 -0.86720985630E+02  0.86720985777E+02  0.50400001928E-02 0.  1.
    10030    2    1    2    0    0  0.00000000000E+00  0.00000000000E+00  0.93999353047E+03  0.11134355019E+04  0.59678369577E+03 0.  0.
        3    1    3    3  502    0  0.93822139830E+02 -0.25580679571E+03  0.69695672483E+03  0.74832372483E+03  0.10100000352E+00 0.  1.
       -3    1    3    3    0  502 -0.93822139830E+02  0.25580679571E+03  0.24303680564E+03  0.36511177706E+03  0.10100000352E+00 0. -1.
</event>
<event>
 5   0  0.3737642E-02  0.6029275E+03  0.7818609E-02  0.9899351E-01
        2   -1    0    0  501    0  0.00000000000E+00  0.00000000000E+00  0.39334788244E+03  0.39334788245E+03  0.25500000920E-02 0. -1.
       -2   -1    0    0    0  501  0.00000000000E+00  0.00000000000E+00 -0.23104331900E+03  0.23104331901E+03  0.25500000920E-02 0.  1.
    10030    2    1    2    0    0  0.00000000000E+00  0.00000000000E+00  0.16230456345E+03  0.62439120146E+03  0.60292752562E+03 0.  0.
        5    1    3    3  502    0 -0.46334732515E+02 -0.17806993420E+03  0.32840360253E+03  0.37646623362E+03  0.46999998093E+01 0. -1.
       -5    1    3    3    0  502  0.46334732515E+02  0.17806993420E+03 -0.16609903908E+03  0.24792496785E+03  0.46999998093E+01 0.  1.
</event>
<event>
 5   0  0.3798925E-02  0.6018663E+03  0.7818609E-02  0.9901542E-01
        2   -1    0    0  501    0  0.00000000000E+00  0.00000000000E+00  0.44263078910E+03  0.44263078911E+03  0.25500000920E-02 0. -1.
       -2   -1    0    0    0  501  0.00000000000E+00  0.00000000000E+00 -0.20459659101E+03  0.20459659103E+03  0.25500000920E-02 0.  1.
    10030    2    1    2    0    0  0.00000000000E+00  0.00000000000E+00  0.23803419809E+03  0.64722738014E+03  0.60186626600E+03 0.  0.
        2    1    3    3  502    0  0.39544000207E+02  0.43924804274E+02  0.43632818902E+03  0.44031284892E+03  0.25500000920E-02 0. -1.
       -2    1    3    3    0  502 -0.39544000207E+02 -0.43924804274E+02 -0.19829399093E+03  0.20691453122E+03  0.25500000920E-02 0.  1.
</event>
<event>
 5   0  0.2382531E-02  0.5987226E+03  0.7818609E-02  0.9908060E-01
        1   -1    0    0  501    0  0.00000000000E+00  0.00000000000E+00  0.51884618514E+03  0.51884618516E+03  0.50400001928E-02 0. -1.
       -1   -1    0    0    0  501  0.00000000000E+00  0.00000000000E+00 -0.17272400160E+03  0.17272400167E+03  0.50400001928E-02 0.  1.
    10030    2    1    2    0    0  0.00000000000E+00  0.00000000000E+00  0.34612218354E+03  0.69157018683E+03  0.59872260470E+03 0.  0.
        5    1    3    3  502    0  0.14698742274E+03  0.19496884732E+03 -0.26927073741E+02  0.24569353099E+03  0.46999998093E+01 0.  1.
       -5    1    3    3    0  502 -0.14698742274E+03 -0.19496884732E+03  0.37304925728E+03  0.44587665585E+03  0.46999998093E+01 0. -1.
</event>
<event>
 5   0  0.1521750E-02  0.5961954E+03  0.7818609E-02  0.9913331E-01
       -3   -1    0    0    0  501  0.00000000000E+00  0.00000000000E+00  0.77991803976E+03  0.77991804630E+03  0.10100000352E+00 0.  1.
        3   -1    0    0  501    0  0.00000000000E+00  0.00000000000E+00 -0.11393788258E+03  0.11393792735E+03  0.10100000352E+00 0. -1.
    10030    2    1    2    0    0  0.00000000000E+00  0.00000000000E+00  0.66598015718E+03  0.89385597364E+03  0.59619538061E+03 0.  0.
        5    1    3    3  502    0 -0.10350577776E+03 -0.26217628824E+03  0.18770585343E+03  0.33868190025E+03  0.46999998093E+01 0. -1.
       -5    1    3    3    0  502  0.10350577776E+03  0.26217628824E+03  0.47827430374E+03  0.55517407339E+03  0.46999998093E+01 0.  1.
</event>
<event>
 5   0  0.2382531E-02  0.6008373E+03  0.7818609E-02  0.9903670E-01
        1   -1    0    0  501    0  0.00000000000E+00  0.00000000000E+00  0.96370185673E+03  0.96370185674E+03  0.50400001928E-02 0.  1.
       -1   -1    0    0    0  501  0.00000000000E+00  0.00000000000E+00 -0.93650709103E+02  0.93650709239E+02  0.50400001928E-02 0. -1.
    10030    2    1    2    0    0  0.00000000000E+00  0.00000000000E+00  0.87005114762E+03  0.10573525660E+04  0.60083729020E+03 0.  0.
        5    1    3    3  502    0 -0.11455021159E+03 -0.22343274205E+03  0.72518070719E+03  0.76743279138E+03  0.46999998093E+01 0.  1.
       -5    1    3    3    0  502  0.11455021159E+03  0.22343274205E+03  0.14487044043E+03  0.28991977460E+03  0.46999998093E+01 0. -1.
</event>
<event>
 5   0  0.2225808E-02  0.6003395E+03  0.7818609E-02  0.9904702E-01
        1   -1    0    0  501    0  0.00000000000E+00  0.00000000000E+00  0.45281096083E+03  0.45281096086E+03  0.50400001928E-02 0.  1.
       -1   -1    0    0    0  501  0.00000000000E+00  0.00000000000E+00 -0.19898341431E+03  0.19898341438E+03  0.50400001928E-02 0. -1.
    10030    2    1    2    0    0  0.00000000000E+00  0.00000000000E+00  0.25382754652E+03  0.65179437524E+03  0.60033947415E+03 0.  0.
        2    1    3    3  502    0  0.20981282082E+03 -0.19190995199E+03  0.23133975219E+03  0.36656367851E+03  0.25500000920E-02 0.  1.
       -2    1    3    3    0  502 -0.20981282082E+03  0.19190995199E+03  0.22487794326E+02  0.28523069672E+03  0.25500000920E-02 0. -1.
</event>
<event>
 5   0  0.2276105E-02  0.6036430E+03  0.7818609E-02  0.9897877E-01
        1   -1    0    0  501    0  0.00000000000E+00  0.00000000000E+00  0.27479533773E+03  0.27479533778E+03  0.50400001928E-02 0. -1.
       -1   -1    0    0    0  501  0.00000000000E+00  0.00000000000E+00 -0.33150573345E+03  0.33150573349E+03  0.50400001928E-02 0.  1.
    10030    2    1    2    0    0  0.00000000000E+00  0.00000000000E+00 -0.56710395718E+02  0.60630107127E+03  0.60364304025E+03 0.  0.
        1    1    3    3  502    0  0.87293378431E+02  0.16773624402E+03 -0.26463699199E+03  0.32525116300E+03  0.50400001928E-02 0.  1.
       -1    1    3    3    0  502 -0.87293378431E+02 -0.16773624402E+03  0.20792659627E+03  0.28104990827E+03  0.50400001928E-02 0. -1.
</event>
<event>
 5   0  0.3798925E-02  0.5997186E+03  0.7818609E-02  0.9905990E-01
       -2   -1    0    0    0  501  0.00000000000E+00  0.00000000000E+00  0.14603866333E+03  0.14603866335E+03  0.25500000920E-02 0.  1.
        2   -1    0    0  501    0  0.00000000000E+00  0.00000000000E+00 -0.61569712440E+03  0.61569712440E+03  0.25500000920E-02 0. -1.
    10030    2    1    2    0    0  0.00000000000E+00  0.00000000000E+00 -0.46965846107E+03  0.76173578776E+03  0.59971855090E+03 0.  0.
        2    1    3    3  502    0  0.26952879434E+03  0.38940924878E+01 -0.67985475376E+02  0.27799812913E+03  0.25500000920E-02 0.  1.
       -2    1    3    3    0  502 -0.26952879434E+03 -0.38940924878E+01 -0.40167298569E+03  0.48373765862E+03  0.25500000920E-02 0. -1.
</event>
<event>
 5   0  0.2276105E-02  0.5975857E+03  0.7818609E-02  0.9910428E-01
       -1   -1    0    0    0  501  0.00000000000E+00  0.00000000000E+00  0.13377976819E+03  0.13377976828E+03  0.50400001928E-02 0.  1.
        1   -1    0    0  501    0  0.00000000000E+00  0.00000000000E+00 -0.66734423525E+03  0.66734423527E+03  0.50400001928E-02 0. -1.
    10030    2    1    2    0    0  0.00000000000E+00  0.00000000000E+00 -0.53356446706E+03  0.80112400355E+03  0.59758566629E+03 0.  0.
        1    1    3    3  502    0  0.48762633389E+02  0.28112519760E+03 -0.14786867904E+03  0.32136321726E+03  0.50400001928E-02 0.  1.
       -1    1    3    3    0  502 -0.48762633389E+02 -0.28112519760E+03 -0.38569578802E+03  0.47976078629E+03  0.50400001928E-02 0. -1.
</event>
<event>
 5   0  0.1521750E-02  0.5985289E+03  0.7818609E-02  0.9908463E-01
       -3   -1    0    0    0  501  0.00000000000E+00  0.00000000000E+00  0.40657904550E+03  0.40657905804E+03  0.10100000352E+00 0.  1.
        3   -1    0    0  501    0  0.00000000000E+00  0.00000000000E+00 -0.22027499256E+03  0.22027501572E+03  0.10100000352E+00 0. -1.
    10030    2    1    2    0    0  0.00000000000E+00  0.00000000000E+00  0.18630405294E+03  0.62685407376E+03  0.59852888790E+03 0.  0.
        1    1    3    3  502    0  0.23290438114E+03  0.16664019329E+03  0.21745143424E+01  0.28638808165E+03  0.50400001928E-02 0. -1.
       -1    1    3    3    0  502 -0.23290438114E+03 -0.16664019329E+03  0.18412953859E+03  0.34046599211E+03  0.50400001928E-02 0.  1.
</event>
<event>
 5   0  0.1521750E-02  0.6117394E+03  0.7818609E-02  0.9881345E-01
       -3   -1    0    0    0  501  0.00000000000E+00  0.00000000000E+00  0.43852820949E+03  0.43852822112E+03  0.10100000352E+00 0. -1.
        3   -1    0    0  501    0  0.00000000000E+00  0.00000000000E+00 -0.21334150015E+03  0.21334152406E+03  0.10100000352E+00 0.  1.
    10030    2    1    2    0    0  0.00000000000E+00  0.00000000000E+00  0.22518670934E+03  0.65186974517E+03  0.61173941397E+03 0.  0.
        5    1    3    3  502    0  0.48005696112E+02  0.27656978988E+03 -0.16774182061E+02  0.28124519323E+03  0.46999998093E+01 0.  1.
       -5    1    3    3    0  502 -0.48005696112E+02 -0.27656978988E+03  0.24196089140E+03  0.37062455194E+03  0.46999998093E+01 0. -1.
</event>
<event>
 5   0  0.3737642E-02  0.5991148E+03  0.7818609E-02  0.9907244E-01
        2   -1    0    0  501    0  0.00000000000E+00  0.00000000000E+00  0.25055737173E+03  0.25055737175E+03  0.25500000920E-02 0.  1.
       -2   -1    0    0    0  501  0.00000000000E+00  0.00000000000E+00 -0.35814003183E+03  0.35814003184E+03  0.25500000920E-02 0. -1.
    10030    2    1    2    0    0  0.00000000000E+00  0.00000000000E+00 -0.10758266010E+03  0.60869740359E+03  0.59911476395E+03 0.  0.
        5    1    3    3  502    0  0.24122342306E+03 -0.17754880968E+03 -0.53319746194E+02  0.30426535292E+03  0.46999998093E+01 0.  1.
       -5    1    3    3    0  502 -0.24122342306E+03  0.17754880968E+03 -0.54262913903E+02  0.30443205067E+03  0.46999998093E+01 0. -1.
</event>
<event>
 5   0  0.2295179E-02  0.6000964E+03  0.7818609E-02  0.9905206E-01
       -1   -1    0    0    0  501  0.00000000000E+00  0.00000000000E+00  0.84875693972E+02  0.84875694122E+02  0.50400001928E-02 0. -1.
        1   -1    0    0  501    0  0.00000000000E+00  0.00000000000E+00 -0.10607149238E+04  0.10607149238E+04  0.50400001928E-02 0.  1.
    10030    2    1    2    0    0  0.00000000000E+00  0.00000000000E+00 -0.97583922982E+03  0.11455906179E+04  0.60009637678E+03 0.  0.
        3    1    3    3  502    0 -0.12981381336E+03 -0.20050686038E+03 -0.14126571468E+03  0.27750790898E+03  0.10100000352E+00 0. -1.
       -3    1    3    3    0  502  0.12981381336E+03  0.20050686038E+03 -0.83457351515E+03  0.86808270895E+03  0.10100000352E+00 0.  1.
</event>
<event>
 5   0  0.2382531E-02  0.6000590E+03  0.7818609E-02  0.9905284E-01
        1   -1    0    0  501    0  0.00000000000E+00  0.00000000000E+00  0.52178035107E+03  0.52178035110E+03  0.50400001928E-02 0.  1.
       -1   -1    0    0    0  501  0.00000000000E+00  0.00000000000E+00 -0.17252029622E+03  0.17252029629E+03  0.50400001928E-02 0. -1.
    10030    2    1    2    0    0  0.00000000000E+00  0.00000000000E+00  0.34926005485E+03  0.69430064739E+03  0.60005899964E+03 0.  0.
        5    1    3    3  502    0  0.13883734993E+03 -0.14525380682E+03 -0.83113016453E+02  0.21749561290E+03  0.46999998093E+01 0. -1.
       -5    1    3    3    0  502 -0.13883734993E+03  0.14525380682E+03  0.43237307130E+03  0.47680503449E+03  0.46999998093E+01 0.  1.
</event>
<event>
 5   0  0.2382531E-02  0.5988516E+03  0.7818609E-02  0.9907792E-01
       -1   -1    0    0    0  501  0.00000000000E+00  0.00000000000E+00  0.70969472902E+03  0.70969472903E+03  0.50400001928E-02 0. -1.
        1   -1    0    0  501    0  0.00000000000E+00  0.00000000000E+00 -0.12633008907E+03  0.12633008917E+03  0.50400001928E-02 0.  1.
    10030    2    1    2    0    0  0.00000000000E+00  0.00000000000E+00  0.58336463994E+03  0.83602481821E+03  0.59885156218E+03 0.  0.
        5    1    3    3  502    0  0.45875423716E+02 -0.28201823730E+03  0.16685615604E+03  0.33091072433E+03  0.46999998093E+01 0.  1.
       -5    1    3    3    0  502 -0.45875423716E+02  0.28201823730E+03  0.41650848391E+03  0.50511409388E+03  0.46999998093E+01 0. -1.
</event>
<event>
 5   0  0.3798925E-02  0.5976790E+03  0.7818609E-02  0.9910233E-01
       -2   -1    0    0    0  501  0.00000000000E+00  0.00000000000E+00  0.11676177200E+03  0.11676177203E+03  0.25500000920E-02 0. -1.
        2   -1    0    0  501    0  0.00000000000E+00  0.00000000000E+00 -0.76484844045E+03  0.76484844046E+03  0.25500000920E-02 0.  1.
    10030    2    1    2    0    0  0.00000000000E+00  0.00000000000E+00 -0.64808666845E+03  0.88161021249E+03  0.59767904174E+03 0.  0.
        2    1    3    3  502    0 -0.15539741420E+03  0.51292159702E+02 -0.69288355533E+03  0.71194582887E+03  0.25500000920E-02 0.  1.
       -2    1    3    3    0  502  0.15539741420E+03 -0.51292159702E+02  0.44796886882E+02  0.16966438362E+03  0.25500000920E-02 0. -1.
</event>
<event>
 5   0  0.2382531E-02  0.6008682E+03  0.7818609E-02  0.9903606E-01
       -1   -1    0    0    0  501  0.00000000000E+00  0.00000000000E+00  0.14801251833E+03  0.14801251842E+03  0.50400001928E-02 0.  1.
        1   -1    0    0  501    0  0.00000000000E+00  0.00000000000E+00 -0.60981764941E+03  0.60981764943E+03  0.50400001928E-02 0. -1.
    10030    2    1    2    0    0  0.00000000000E+00  0.00000000000E+00 -0.46180513107E+03  0.75783016785E+03  0.60086819205E+03 0.  0.
        5    1    3    3  502    0  0.14827655941E+03  0.19713578781E+03 -0.14683890924E+02  0.24715615217E+03  0.46999998093E+01 0.  1.
       -5    1    3    3    0  502 -0.14827655941E+03 -0.19713578781E+03 -0.44712124015E+03  0.51067401568E+03  0.46999998093E+01 0. -1.
</event>
<event>
 5   0  0.2276105E-02  0.6000898E+03  0.7818609E-02  0.9905220E-01
        1   -1    0    0  501    0  0.00000000000E+00  0.00000000000E+00  0.10138440290E+03  0.10138440303E+03  0.50400001928E-02 0.  1.
       -1   -1    0    0    0  501  0.00000000000E+00  0.00000000000E+00 -0.88797628485E+03  0.88797628487E+03  0.50400001928E-02 0. -1.
    10030    2    1    2    0    0  0.00000000000E+00  0.00000000000E+00 -0.78659188195E+03  0.98936068789E+03  0.60008981162E+03 0.  0.
        1    1    3    3  502    0  0.25354405990E+02 -0.15262796164E+03  0.30544453977E+02  0.15770575218E+03  0.50400001928E-02 0.  1.
       -1    1    3    3    0  502 -0.25354405990E+02  0.15262796164E+03 -0.81713633592E+03  0.83165493571E+03  0.50400001928E-02 0. -1.
</event>
<event>
 5   0  0.3798925E-02  0.5971404E+03  0.7818609E-02  0.9911357E-01
        2   -1    0    0  501    0  0.00000000000E+00  0.00000000000E+00  0.45292903906E+03  0.45292903907E+03  0.25500000920E-02 0.  1.
       -2   -1    0    0    0  501  0.00000000000E+00  0.00000000000E+00 -0.19681709016E+03  0.19681709018E+03  0.25500000920E-02 0. -1.
    10030    2    1    2    0    0  0.00000000000E+00  0.00000000000E+00  0.25611194890E+03  0.64974612925E+03  0.59714043750E+03 0.  0.
        2    1    3    3  502    0  0.22392286151E+01  0.58835641937E+02 -0.19043760686E+03  0.19933170601E+03  0.25500000920E-02 0. -1.
       -2    1    3    3    0  502 -0.22392286151E+01 -0.58835641937E+02  0.44654955576E+03  0.45041442324E+03  0.25500000920E-02 0.  1.
</event>
<event>
 5   0  0.1521750E-02  0.6001288E+03  0.7818609E-02  0.9905139E-01
        4   -1    0    0  501    0  0.00000000000E+00  0.00000000000E+00  0.75596742952E+03  0.75596849630E+03  0.12699999809E+01 0. -1.
       -4   -1    0    0    0  501  0.00000000000E+00  0.00000000000E+00 -0.11909933734E+03  0.11910610838E+03  0.12699999809E+01 0.  1.
    10030    2    1    2    0    0  0.00000000000E+00  0.00000000000E+00  0.63686809218E+03  0.87507460469E+03  0.60012881694E+03 0.  0.
        3    1    3    3  502    0 -0.11358844384E+03 -0.14305692824E+03  0.66555522572E+03  0.69016765208E+03  0.10100000352E+00 0. -1.
       -3    1    3    3    0  502  0.11358844384E+03  0.14305692824E+03 -0.28687133534E+02  0.18490695261E+03  0.10100000352E+00 0.  1.
</event>
<event>
 5   0  0.2225808E-02  0.5979185E+03  0.7818609E-02  0.9909734E-01
       -1   -1    0    0    0  501  0.00000000000E+00  0.00000000000E+00  0.34981784604E+03  0.34981784608E+03  0.50400001928E-02 0. -1.
        1   -1    0    0  501    0  0.00000000000E+00  0.00000000000E+00 -0.25549477320E+03  0.25549477325E+03  0.50400001928E-02 0.  1.
    10030    2    1    2    0    0  0.00000000000E+00  0.00000000000E+00  0.94323072844E+02  0.60531261932E+03  0.59791849365E+03 0.  0.
        2    1    3    3  502    0  0.21903071100E+02  0.29786608272E+03  0.33858120761E+02  0.30058329978E+03  0.25500000920E-02 0.  1.
       -2    1    3    3    0  502 -0.21903071100E+02 -0.29786608272E+03  0.60464952083E+02  0.30472931955E+03  0.25500000920E-02 0. -1.
</event>
<event>
 5   0  0.2225808E-02  0.5996146E+03  0.7818609E-02  0.9906206E-01
        1   -1    0    0  501    0  0.00000000000E+00  0.00000000000E+00  0.73575969223E+03  0.73575969224E+03  0.50400001928E-02 0.  1.
       -1   -1    0    0    0  501  0.00000000000E+00  0.00000000000E+00 -0.12216546774E+03  0.12216546785E+03  0.50400001928E-02 0. -1.
    10030    2    1    2    0    0  0.00000000000E+00  0.00000000000E+00  0.61359422448E+03  0.85792516009E+03  0.59961463291E+03 0.  0.
        2    1    3    3  502    0  0.14915488444E+03  0.11166923563E+03 -0.29263618810E+02  0.18860953616E+03  0.25500000920E-02 0. -1.
       -2    1    3    3    0  502 -0.14915488444E+03 -0.11166923563E+03  0.64285784329E+03  0.66931562392E+03  0.25500000920E-02 0.  1.
</event>
<event>
 5   0  0.2309055E-02  0.6005833E+03  0.7818609E-02  0.9904197E-01
        1   -1    0    0  501    0  0.00000000000E+00  0.00000000000E+00  0.60687475826E+03  0.60687475828E+03  0.50400001928E-02 0. -1.
       -1   -1    0    0    0  501  0.00000000000E+00  0.00000000000E+00 -0.14858928148E+03  0.14858928157E+03  0.50400001928E-02 0.  1.
    10030    2    1    2    0    0  0.00000000000E+00  0.00000000000E+00  0.45828547678E+03  0.75546403985E+03  0.60058333084E+03 0.  0.
        4    1    3    3  502    0  0.28293474985E+03  0.99303380368E+02  0.24943476267E+03  0.39004172566E+03  0.12699999809E+01 0.  1.
       -4    1    3    3    0  502 -0.28293474985E+03 -0.99303380368E+02  0.20885071410E+03  0.36542231419E+03  0.12699999809E+01 0. -1.
</event>
<event>
 5   0  0.2382531E-02  0.5811227E+03  0.7818609E-02  0.9945363E-01
       -1   -1    0    0    0  501  0.00000000000E+00  0.00000000000E+00  0.33359157483E+03  0.33359157487E+03  0.50400001928E-02 0. -1.
        1   -1    0    0  501    0  0.00000000000E+00  0.00000000000E+00 -0.25308158593E+03  0.25308158598E+03  0.50400001928E-02 0.  1.
    10030    2    1    2    0    0  0.00000000000E+00  0.00000000000E+00  0.80509988903E+02  0.58667316085E+03  0.58112265430E+03 0.  0.
        5    1    3    3  502    0 -0.78843846856E+01  0.11340274558E+03  0.31016879287E+03  0.33037723332E+03  0.46999998093E+01 0. -1.
       -5    1    3    3    0  502  0.78843846856E+01 -0.11340274558E+03 -0.22965880397E+03  0.25629592753E+03  0.46999998093E+01 0.  1.
</event>
<event>
 5   0  0.2295179E-02  0.6049089E+03  0.7818609E-02  0.9895274E-01
       -1   -1    0    0    0  501  0.00000000000E+00  0.00000000000E+00  0.97289342323E+02  0.97289342453E+02  0.50400001928E-02 0. -1.
        1   -1    0    0  501    0  0.00000000000E+00  0.00000000000E+00 -0.94027448801E+03  0.94027448803E+03  0.50400001928E-02 0.  1.
    10030    2    1    2    0    0  0.00000000000E+00  0.00000000000E+00 -0.84298514569E+03  0.10375638305E+04  0.60490887451E+03 0.  0.
        3    1    3    3  502    0 -0.81816828175E+02 -0.18388056984E+03 -0.34240864459E+02  0.20415313943E+03  0.10100000352E+00 0. -1.
       -3    1    3    3    0  502  0.81816828175E+02  0.18388056984E+03 -0.80874428123E+03  0.83341069105E+03  0.10100000352E+00 0.  1.
</event>
<event>
 5   0  0.3737642E-02  0.5977904E+03  0.7818609E-02  0.9910001E-01
       -2   -1    0    0    0  501  0.00000000000E+00  0.00000000000E+00  0.65625397851E+02  0.65625397900E+02  0.25500000920E-02 0. -1.
        2   -1    0    0  501    0  0.00000000000E+00  0.00000000000E+00 -0.13613378395E+04  0.13613378395E+04  0.25500000920E-02 0.  1.
    10030    2    1    2    0    0  0.00000000000E+00  0.00000000000E+00 -0.12957124417E+04  0.14269632374E+04  0.59779038923E+03 0.  0.
        5    1    3    3  502    0 -0.14970204126E+03  0.17617792651E+03 -0.19578102123E+03  0.30298788955E+03  0.46999998093E+01 0. -1.
       -5    1    3    3    0  502  0.14970204126E+03 -0.17617792651E+03 -0.10999314204E+04  0.11239753479E+04  0.46999998093E+01 0.  1.
</event>
<event>
 5   0  0.2382531E-02  0.6004379E+03  0.7818609E-02  0.9904498E-01
       -1   -1    0    0    0  501  0.00000000000E+00  0.00000000000E+00  0.40546143942E+02  0.40546144255E+02  0.50400001928E-02 0. -1.
        1   -1    0    0  501    0  0.00000000000E+00  0.00000000000E+00 -0.22229341955E+04  0.22229341955E+04  0.50400001928E-02 0.  1.
    10030    2    1    2    0    0  0.00000000000E+00  0.00000000000E+00 -0.21823880515E+04  0.22634803397E+04  0.60043787430E+03 0.  0.
        5    1    3    3  502    0  0.26738318318E+03  0.80506672214E+02 -0.67593914404E+03  0.73136236392E+03  0.46999998093E+01 0.  1.
       -5    1    3    3    0  502 -0.26738318318E+03 -0.80506672214E+02 -0.15064489075E+04  0.15321179758E+04  0.46999998093E+01 0. -1.
</event>
<event>
 5   0  0.3934634E-02  0.5741769E+03  0.7818609E-02  0.9960478E-01
       -2   -1    0    0    0  501  0.00000000000E+00  0.00000000000E+00  0.30707604712E+02  0.30707604818E+02  0.25500000920E-02 0.  1.
        2   -1    0    0  501    0  0.00000000000E+00  0.00000000000E+00 -0.26840183862E+04  0.26840183862E+04  0.25500000920E-02 0. -1.
    10030    2    1    2    0    0  0.00000000000E+00  0.00000000000E+00 -0.26533107815E+04  0.27147259910E+04  0.57417689187E+03 0.  0.
        1    1    3    3  502    0 -0.87097015016E+02  0.18098181848E+03 -0.22965295906E+04  0.23052957444E+04  0.50400001928E-02 0. -1.
       -1    1    3    3    0  502  0.87097015016E+02 -0.18098181848E+03 -0.35678119088E+03  0.40943024661E+03  0.50400001928E-02 0.  1.
</event>
<event>
 5   0  0.2295179E-02  0.5869847E+03  0.7818609E-02  0.9932783E-01
        1   -1    0    0  501    0  0.00000000000E+00  0.00000000000E+00  0.54102991630E+03  0.54102991633E+03  0.50400001928E-02 0.  1.
       -1   -1    0    0    0  501  0.00000000000E+00  0.00000000000E+00 -0.15921073129E+03  0.15921073137E+03  0.50400001928E-02 0. -1.
    10030    2    1    2    0    0  0.00000000000E+00  0.00000000000E+00  0.38181918502E+03  0.70024064769E+03  0.58698473118E+03 0.  0.
        3    1    3    3  502    0 -0.24020626775E+03  0.69644079567E+02  0.76908733516E+01  0.25021692313E+03  0.10100000352E+00 0. -1.
       -3    1    3    3    0  502  0.24020626775E+03 -0.69644079567E+02  0.37412831166E+03  0.45002372457E+03  0.10100000352E+00 0.  1.
</event>
<event>
 5   0  0.2225808E-02  0.5988996E+03  0.7818609E-02  0.9907692E-01
        1   -1    0    0  501    0  0.00000000000E+00  0.00000000000E+00  0.17287269768E+03  0.17287269775E+03  0.50400001928E-02 0.  1.
       -1   -1    0    0    0  501  0.00000000000E+00  0.00000000000E+00 -0.51870649066E+03  0.51870649068E+03  0.50400001928E-02 0. -1.
    10030    2    1    2    0    0  0.00000000000E+00  0.00000000000E+00 -0.34583379298E+03  0.69157918844E+03  0.59889962558E+03 0.  0.
        2    1    3    3  502    0  0.92926826874E+02 -0.86654543110E+02  0.14020086981E+03  0.18921069974E+03  0.25500000920E-02 0. -1.
       -2    1    3    3    0  502 -0.92926826874E+02  0.86654543110E+02 -0.48603466279E+03  0.50236848869E+03  0.25500000920E-02 0.  1.
</event>
<event>
 5   0  0.1521750E-02  0.5995741E+03  0.7818609E-02  0.9906290E-01
       -3   -1    0    0    0  501  0.00000000000E+00  0.00000000000E+00  0.30734515088E+03  0.30734516748E+03  0.10100000352E+00 0.  1.
        3   -1    0    0  501    0  0.00000000000E+00  0.00000000000E+00 -0.29241474314E+03  0.29241476058E+03  0.10100000352E+00 0. -1.
    10030    2    1    2    0    0  0.00000000000E+00  0.00000000000E+00  0.14930407743E+02  0.59975992806E+03  0.59957406067E+03 0.  0.
        2    1    3    3  502    0  0.29400076126E+03 -0.21380349626E+02 -0.47129151635E+02  0.29852089359E+03  0.25500000920E-02 0. -1.
       -2    1    3    3    0  502 -0.29400076126E+03  0.21380349626E+02  0.62059559378E+02  0.30123903447E+03  0.25500000920E-02 0.  1.
</event>
<event>
 5   0  0.3934634E-02  0.5931968E+03  0.7818609E-02  0.9919622E-01
       -2   -1    0    0    0  501  0.00000000000E+00  0.00000000000E+00  0.16885143959E+03  0.16885143961E+03  0.25500000920E-02 0. -1.
        2   -1    0    0  501    0  0.00000000000E+00  0.00000000000E+00 -0.52099421931E+03  0.52099421931E+03  0.25500000920E-02 0.  1.
    10030    2    1    2    0    0  0.00000000000E+00  0.00000000000E+00 -0.35214277972E+03  0.68984565893E+03  0.59319684408E+03 0.  0.
        1    1    3    3  502    0 -0.24313536145E+03 -0.11908241675E+03 -0.31695000965E+03  0.41683658022E+03  0.50400001928E-02 0.  1.
       -1    1    3    3    0  502  0.24313536145E+03  0.11908241675E+03 -0.35192770061E+02  0.27300907870E+03  0.50400001928E-02 0. -1.
</event>
<event>
 5   0  0.3832191E-02  0.6050360E+03  0.7818609E-02  0.9895013E-01
       -2   -1    0    0    0  501  0.00000000000E+00  0.00000000000E+00  0.10006219756E+04  0.10006219756E+04  0.25500000920E-02 0. -1.
        2   -1    0    0  501    0  0.00000000000E+00  0.00000000000E+00 -0.91460243772E+02  0.91460243808E+02  0.25500000920E-02 0.  1.
    10030    2    1    2    0    0  0.00000000000E+00  0.00000000000E+00  0.90916173185E+03  0.10920822194E+04  0.60503596533E+03 0.  0.
        3    1    3    3  502    0 -0.20530097176E+03 -0.15605497057E+03  0.16909899295E+03  0.30837659195E+03  0.10100000352E+00 0.  1.
       -3    1    3    3    0  502  0.20530097176E+03  0.15605497057E+03  0.74006273889E+03  0.78370562748E+03  0.10100000352E+00 0. -1.
</event>
<event>
 5   0  0.3934634E-02  0.5926961E+03  0.7818609E-02  0.9920676E-01
        2   -1    0    0  501    0  0.00000000000E+00  0.00000000000E+00  0.67865956707E+03  0.67865956707E+03  0.25500000920E-02 0. -1.
       -2   -1    0    0    0  501  0.00000000000E+00  0.00000000000E+00 -0.12940532816E+03  0.12940532819E+03  0.25500000920E-02 0.  1.
    10030    2    1    2    0    0  0.00000000000E+00  0.00000000000E+00  0.54925423891E+03  0.80806489526E+03  0.59269609075E+03 0.  0.
        1    1    3    3  502    0 -0.16043077120E+03 -0.86528532617E+02  0.59319233070E+03  0.62056616129E+03  0.50400001928E-02 0. -1.
       -1    1    3    3    0  502  0.16043077120E+03  0.86528532617E+02 -0.43938091795E+02  0.18749873397E+03  0.50400001928E-02 0.  1.
</event>
<event>
 5   0  0.3832191E-02  0.5976088E+03  0.7818609E-02  0.9910380E-01
        2   -1    0    0  501    0  0.00000000000E+00  0.00000000000E+00  0.20851772173E+04  0.20851772173E+04  0.25500000920E-02 0.  1.
       -2   -1    0    0    0  501  0.00000000000E+00  0.00000000000E+00 -0.42818449313E+02  0.42818449389E+02  0.25500000920E-02 0. -1.
    10030    2    1    2    0    0  0.00000000000E+00  0.00000000000E+00  0.20423587680E+04  0.21279956667E+04  0.59760875185E+03 0.  0.
        3    1    3    3  502    0  0.14874973445E+03 -0.25908306382E+03  0.10417977294E+04  0.10837864350E+04  0.10100000352E+00 0. -1.
       -3    1    3    3    0  502 -0.14874973445E+03  0.25908306382E+03  0.10005610386E+04  0.10442092317E+04  0.10100000352E+00 0.  1.
</event>
<event>
 5   0  0.3798925E-02  0.5944754E+03  0.7818609E-02  0.9916935E-01
       -2   -1    0    0    0  501  0.00000000000E+00  0.00000000000E+00  0.14819337609E+03  0.14819337611E+03  0.25500000920E-02 0. -1.
        2   -1    0    0  501    0  0.00000000000E+00  0.00000000000E+00 -0.59618224797E+03  0.59618224797E+03  0.25500000920E-02 0.  1.
    10030    2    1    2    0    0  0.00000000000E+00  0.00000000000E+00 -0.44798887188E+03  0.74437562409E+03  0.59447543298E+03 0.  0.
        2    1    3    3  502    0  0.58344441185E+01 -0.25177124271E+03 -0.26298723216E+02  0.25320825864E+03  0.25500000920E-02 0. -1.
       -2    1    3    3    0  502 -0.58344441185E+01  0.25177124271E+03 -0.42169014866E+03  0.49116736545E+03  0.25500000920E-02 0.  1.
</event>
<event>
 5   0  0.3934634E-02  0.5972664E+03  0.7818609E-02  0.9911094E-01
        2   -1    0    0  501    0  0.00000000000E+00  0.00000000000E+00  0.14093493110E+04  0.14093493110E+04  0.25500000920E-02 0.  1.
       -2   -1    0    0    0  501  0.00000000000E+00  0.00000000000E+00 -0.63278694168E+02  0.63278694220E+02  0.25500000920E-02 0. -1.
    10030    2    1    2    0    0  0.00000000000E+00  0.00000000000E+00  0.13460706169E+04  0.14726280053E+04  0.59726638636E+03 0.  0.
        1    1    3    3  502    0  0.84567142906E+02  0.27827326697E+03  0.50591525245E+03  0.58355621448E+03  0.50400001928E-02 0. -1.
       -1    1    3    3    0  502 -0.84567142906E+02 -0.27827326697E+03  0.84015536441E+03  0.88907179077E+03  0.50400001928E-02 0.  1.
</event>
<event>
 5   0  0.2382531E-02  0.6024996E+03  0.7818609E-02  0.9900234E-01
        1   -1    0    0  501    0  0.00000000000E+00  0.00000000000E+00  0.66687837465E+03  0.66687837467E+03  0.50400001928E-02 0.  1.
       -1   -1    0    0    0  501  0.00000000000E+00  0.00000000000E+00 -0.13608395290E+03  0.13608395299E+03  0.50400001928E-02 0. -1.
    10030    2    1    2    0    0  0.00000000000E+00  0.00000000000E+00  0.53079442175E+03  0.80296232766E+03  0.60249961119E+03 0.  0.
        5    1    3    3  502    0  0.29992149007E+03 -0.27398180165E+02  0.27216591072E+03  0.40595558062E+03  0.46999998093E+01 0.  1.
       -5    1    3    3    0  502 -0.29992149007E+03  0.27398180165E+02  0.25862851103E+03  0.39700674704E+03  0.46999998093E+01 0. -1.
</event>
<event>
 5   0  0.2295179E-02  0.5924231E+03  0.7818609E-02  0.9921252E-01
        1   -1    0    0  501    0  0.00000000000E+00  0.00000000000E+00  0.13853009731E+04  0.13853009731E+04  0.50400001928E-02 0. -1.
       -1   -1    0    0    0  501  0.00000000000E+00  0.00000000000E+00 -0.63337349508E+02  0.63337349708E+02  0.50400001928E-02 0.  1.
    10030    2    1    2    0    0  0.00000000000E+00  0.00000000000E+00  0.13219636236E+04  0.14486383228E+04  0.59242313277E+03 0.  0.
        3    1    3    3  502    0  0.32554336808E+02  0.17328271421E+02  0.13796652694E+04  0.13801580778E+04  0.10100000352E+00 0. -1.
       -3    1    3    3    0  502 -0.32554336808E+02 -0.17328271421E+02 -0.57701645795E+02  0.68480245063E+02  0.10100000352E+00 0.  1.
</event>
<event>
 5   0  0.3798925E-02  0.5932834E+03  0.7818609E-02  0.9919440E-01
        2   -1    0    0  501    0  0.00000000000E+00  0.00000000000E+00  0.15513030710E+03  0.15513030712E+03  0.25500000920E-02 0.  1.
       -2   -1    0    0    0  501  0.00000000000E+00  0.00000000000E+00 -0.56724114399E+03  0.56724114400E+03  0.25500000920E-02 0. -1.
    10030    2    1    2    0    0  0.00000000000E+00  0.00000000000E+00 -0.41211083689E+03  0.72237145112E+03  0.59328338212E+03 0.  0.
        2    1    3    3  502    0 -0.21057833940E+03  0.17583003966E+03 -0.68641900523E+02  0.28279170849E+03  0.25500000920E-02 0. -1.
       -2    1    3    3    0  502  0.21057833940E+03 -0.17583003966E+03 -0.34346893637E+03  0.43957974263E+03  0.25500000920E-02 0.  1.
</event>
<event>
 5   0  0.2295179E-02  0.5980127E+03  0.7818609E-02  0.9909538E-01
       -1   -1    0    0    0  501  0.00000000000E+00  0.00000000000E+00  0.13916559723E+03  0.13916559732E+03  0.50400001928E-02 0.  1.
        1   -1    0    0  501    0  0.00000000000E+00  0.00000000000E+00 -0.64243468784E+03  0.64243468786E+03  0.50400001928E-02 0. -1.
    10030    2    1    2    0    0  0.00000000000E+00  0.00000000000E+00 -0.50326909061E+03  0.78160028518E+03  0.59801273250E+03 0.  0.
        3    1    3    3  502    0  0.10704051789E+03 -0.20769595516E+03 -0.49548482722E+03  0.54781429925E+03  0.10100000352E+00 0. -1.
       -3    1    3    3    0  502 -0.10704051789E+03  0.20769595516E+03 -0.77842633903E+01  0.23378598593E+03  0.10100000352E+00 0.  1.
</event>
<event>
 5   0  0.2295179E-02  0.6039934E+03  0.7818609E-02  0.9897156E-01
        1   -1    0    0  501    0  0.00000000000E+00  0.00000000000E+00  0.18413109873E+04  0.18413109873E+04  0.50400001928E-02 0.  1.
       -1   -1    0    0    0  501  0.00000000000E+00  0.00000000000E+00 -0.49531009339E+02  0.49531009595E+02  0.50400001928E-02 0. -1.
    10030    2    1    2    0    0  0.00000000000E+00  0.00000000000E+00  0.17917799779E+04  0.18908419969E+04  0.60399335081E+03 0.  0.
        3    1    3    3  502    0  0.42928342414E+01  0.55457285399E+02 -0.33356350965E+02  0.64858270716E+02  0.10100000352E+00 0. -1.
       -3    1    3    3    0  502 -0.42928342414E+01 -0.55457285399E+02  0.18251363289E+04  0.18259837261E+04  0.10100000352E+00 0.  1.
</event>
<event>
 5   0  0.1521750E-02  0.5987948E+03  0.7818609E-02  0.9907910E-01
       -4   -1    0    0    0  501  0.00000000000E+00  0.00000000000E+00  0.29811780857E+03  0.29812051370E+03  0.12699999809E+01 0. -1.
        4   -1    0    0  501    0  0.00000000000E+00  0.00000000000E+00 -0.30067707243E+03  0.30067975453E+03  0.12699999809E+01 0.  1.
    10030    2    1    2    0    0  0.00000000000E+00  0.00000000000E+00 -0.25592638600E+01  0.59880026823E+03  0.59879479907E+03 0.  0.
        2    1    3    3  502    0  0.86999837318E+02  0.23447863745E+03  0.16331105609E+03  0.29869667584E+03  0.25500000920E-02 0. -1.
       -2    1    3    3    0  502 -0.86999837318E+02 -0.23447863745E+03 -0.16587031995E+03  0.30010359238E+03  0.25500000920E-02 0.  1.
</event>
<event>
 5   0  0.3832191E-02  0.5932060E+03  0.7818609E-02  0.9919603E-01
       -2   -1    0    0    0  501  0.00000000000E+00  0.00000000000E+00  0.37767300067E+02  0.37767300153E+02  0.25500000920E-02 0. -1.
        2   -1    0    0  501    0  0.00000000000E+00  0.00000000000E+00 -0.23293519366E+04  0.23293519366E+04  0.25500000920E-02 0.  1.
    10030    2    1    2    0    0  0.00000000000E+00  0.00000000000E+00 -0.22915846365E+04  0.23671192367E+04  0.59320597992E+03 0.  0.
        3    1    3    3  502    0  0.19479367918E+02 -0.26256771424E+03 -0.60081532427E+03  0.65597280005E+03  0.10100000352E+00 0. -1.
       -3    1    3    3    0  502 -0.19479367918E+02  0.26256771424E+03 -0.16907693122E+04  0.17111464367E+04  0.10100000352E+00 0.  1.
</event>
<event>
 5   0  0.2382531E-02  0.6010217E+03  0.7818609E-02  0.9903289E-01
       -1   -1    0    0    0  501  0.00000000000E+00  0.00000000000E+00  0.12837235087E+03  0.12837235097E+03  0.50400001928E-02 0.  1.
        1   -1    0    0  501    0  0.00000000000E+00  0.00000000000E+00 -0.70347527878E+03  0.70347527880E+03  0.50400001928E-02 0. -1.
    10030    2    1    2    0    0  0.00000000000E+00  0.00000000000E+00 -0.57510292790E+03  0.83184762977E+03  0.60102171464E+03 0.  0.
        5    1    3    3  502    0  0.24448317312E+02  0.11101218351E+03 -0.67251624744E+03  0.68207156383E+03  0.46999998093E+01 0. -1.
       -5    1    3    3    0  502 -0.24448317312E+02 -0.11101218351E+03  0.97413319539E+02  0.14977606594E+03  0.46999998093E+01 0.  1.
</event>
<event>
 5   0  0.3798925E-02  0.6008490E+03  0.7818609E-02  0.9903646E-01
       -2   -1    0    0    0  501  0.00000000000E+00  0.00000000000E+00  0.11386581726E+03  0.11386581728E+03  0.25500000920E-02 0.  1.
        2   -1    0    0  501    0  0.00000000000E+00  0.00000000000E+00 -0.79264244347E+03  0.79264244348E+03  0.25500000920E-02 0. -1.
    10030    2    1    2    0    0  0.00000000000E+00  0.00000000000E+00 -0.67877662622E+03  0.90650826076E+03  0.60084899811E+03 0.  0.
        2    1    3    3  502    0 -0.10987153523E+03  0.10845865693E+03  0.49437737340E+02  0.16210837238E+03  0.25500000920E-02 0.  1.
       -2    1    3    3    0  502  0.10987153523E+03 -0.10845865693E+03 -0.72821436356E+03  0.74439988838E+03  0.25500000920E-02 0. -1.
</event>
<event>
 5   0  0.2276105E-02  0.6030870E+03  0.7818609E-02  0.9899022E-01
        1   -1    0    0  501    0  0.00000000000E+00  0.00000000000E+00  0.12128673208E+04  0.12128673209E+04  0.50400001928E-02 0.  1.
       -1   -1    0    0    0  501  0.00000000000E+00  0.00000000000E+00 -0.74969858358E+02  0.74969858527E+02  0.50400001928E-02 0. -1.
    10030    2    1    2    0    0  0.00000000000E+00  0.00000000000E+00  0.11378974625E+04  0.12878371794E+04  0.60308702976E+03 0.  0.
        1    1    3    3  502    0  0.17999646922E+03  0.18319187290E+03  0.90638719925E+03  0.94206992640E+03  0.50400001928E-02 0.  1.
       -1    1    3    3    0  502 -0.17999646922E+03 -0.18319187290E+03  0.23151026324E+03  0.34576725299E+03  0.50400001928E-02 0. -1.
</event>
<event>
 5   0  0.2382531E-02  0.5350449E+03  0.7818609E-02  0.1005016E+00
        1   -1    0    0  501    0  0.00000000000E+00  0.00000000000E+00  0.21931220246E+03  0.21931220251E+03  0.50400001928E-02 0. -1.
       -1   -1    0    0    0  501  0.00000000000E+00  0.00000000000E+00 -0.32633045521E+03  0.32633045525E+03  0.50400001928E-02 0.  1.
    10030    2    1    2    0    0  0.00000000000E+00  0.00000000000E+00 -0.10701825275E+03  0.54564265776E+03  0.53504486125E+03 0.  0.
        5    1    3    3  502    0  0.70568925710E+02 -0.10302730766E+03 -0.29473518667E+03  0.32013359658E+03  0.46999998093E+01 0.  1.
       -5    1    3    3    0  502 -0.70568925710E+02  0.10302730766E+03  0.18771693392E+03  0.22550906118E+03  0.46999998093E+01 0. -1.
</event>
<event>
 5   0  0.3832191E-02  0.5902458E+03  0.7818609E-02  0.9925852E-01
        2   -1    0    0  501    0  0.00000000000E+00  0.00000000000E+00  0.10968028162E+04  0.10968028162E+04  0.25500000920E-02 0.  1.
       -2   -1    0    0    0  501  0.00000000000E+00  0.00000000000E+00 -0.79410386574E+02  0.79410386615E+02  0.25500000920E-02 0. -1.
    10030    2    1    2    0    0  0.00000000000E+00  0.00000000000E+00  0.10173924296E+04  0.11762132028E+04  0.59024583237E+03 0.  0.
        3    1    3    3  502    0  0.75447145708E+02 -0.12047612925E+03  0.10240864343E+04  0.10339051236E+04  0.10100000352E+00 0.  1.
       -3    1    3    3    0  502 -0.75447145708E+02  0.12047612925E+03 -0.66940046492E+01  0.14230807923E+03  0.10100000352E+00 0. -1.
</event>
<event>
 5   0  0.2225808E-02  0.5998563E+03  0.7818609E-02  0.9905704E-01
       -1   -1    0    0    0  501  0.00000000000E+00  0.00000000000E+00  0.10213875973E+03  0.10213875986E+03  0.50400001928E-02 0. -1.
        1   -1    0    0  501    0  0.00000000000E+00  0.00000000000E+00 -0.88073231692E+03  0.88073231693E+03  0.50400001928E-02 0.  1.
    10030    2    1    2    0    0  0.00000000000E+00  0.00000000000E+00 -0.77859355719E+03  0.98287107679E+03  0.59985633804E+03 0.  0.
        2    1    3    3  502    0 -0.55902061762E+02  0.17481138277E+03 -0.77798264176E+03  0.79933788284E+03  0.25500000920E-02 0.  1.
       -2    1    3    3    0  502  0.55902061762E+02 -0.17481138277E+03 -0.61091542816E+00  0.18353319395E+03  0.25500000920E-02 0. -1.
</event>
<event>
 5   0  0.2295179E-02  0.6008980E+03  0.7818609E-02  0.9903545E-01
        1   -1    0    0  501    0  0.00000000000E+00  0.00000000000E+00  0.49676339655E+03  0.49676339658E+03  0.50400001928E-02 0. -1.
       -1   -1    0    0    0  501  0.00000000000E+00  0.00000000000E+00 -0.18171546360E+03  0.18171546367E+03  0.50400001928E-02 0.  1.
    10030    2    1    2    0    0  0.00000000000E+00  0.00000000000E+00  0.31504793295E+03  0.67847886025E+03  0.60089796451E+03 0.  0.
        3    1    3    3  502    0 -0.33533881223E+02 -0.21774821429E+03 -0.73131531707E+02  0.23213581617E+03  0.10100000352E+00 0.  1.
       -3    1    3    3    0  502  0.33533881223E+02  0.21774821429E+03  0.38817946465E+03  0.44634304408E+03  0.10100000352E+00 0. -1.
</event>
<event>
 5   0  0.2382531E-02  0.5908351E+03  0.7818609E-02  0.9924605E-01
       -1   -1    0    0    0  501  0.00000000000E+00  0.00000000000E+00  0.10542917403E+03  0.10542917415E+03  0.50400001928E-02 0.  1.
        1   -1    0    0  501    0  0.00000000000E+00  0.00000000000E+00 -0.82777412778E+03  0.82777412780E+03  0.50400001928E-02 0. -1.
    10030    2    1    2    0    0  0.00000000000E+00  0.00000000000E+00 -0.72234495375E+03  0.93320330195E+03  0.59083514668E+03 0.  0.
        5    1    3    3  502    0  0.10119769130E+03 -0.37227041329E+02 -0.79551847613E+03  0.80280667735E+03  0.46999998093E+01 0. -1.
       -5    1    3    3    0  502 -0.10119769130E+03  0.37227041329E+02  0.73173522379E+02  0.13039662460E+03  0.46999998093E+01 0.  1.
</event>
<event>
 5   0  0.2225808E-02  0.6017724E+03  0.7818609E-02  0.9901736E-01
        1   -1    0    0  501    0  0.00000000000E+00  0.00000000000E+00  0.29438406871E+03  0.29438406875E+03  0.50400001928E-02 0. -1.
       -1   -1    0    0    0  501  0.00000000000E+00  0.00000000000E+00 -0.30753193127E+03  0.30753193132E+03  0.50400001928E-02 0.  1.
    10030    2    1    2    0    0  0.00000000000E+00  0.00000000000E+00 -0.13147862566E+02  0.60191600007E+03  0.60177238625E+03 0.  0.
        2    1    3    3  502    0 -0.14450183073E+03 -0.10907110199E+03  0.23380657302E+03  0.29570728426E+03  0.25500000920E-02 0. -1.
       -2    1    3    3    0  502  0.14450183073E+03  0.10907110199E+03 -0.24695443559E+03  0.30620871580E+03  0.25500000920E-02 0.  1.
</event>
<event>
 5   0  0.1521750E-02  0.5999919E+03  0.7818609E-02  0.9905423E-01
       -3   -1    0    0    0  501  0.00000000000E+00  0.00000000000E+00  0.14542230228E+03  0.14542233736E+03  0.10100000352E+00 0.  1.
        3   -1    0    0  501    0  0.00000000000E+00  0.00000000000E+00 -0.61887042139E+03  0.61887042963E+03  0.10100000352E+00 0. -1.
    10030    2    1    2    0    0  0.00000000000E+00  0.00000000000E+00 -0.47344811911E+03  0.76429276699E+03  0.59999192677E+03 0.  0.
        3    1    3    3  502    0  0.19910229356E+03 -0.10830502978E+03 -0.48707743565E+03  0.53723006366E+03  0.10100000352E+00 0. -1.
       -3    1    3    3    0  502 -0.19910229356E+03  0.10830502978E+03  0.13629316545E+02  0.22706270333E+03  0.10100000352E+00 0.  1.
</event>
<event>
 5   0  0.3724066E-02  0.6006609E+03  0.7818609E-02  0.9904036E-01
        2   -1    0    0  501    0  0.00000000000E+00  0.00000000000E+00  0.61463857817E+03  0.61463857817E+03  0.25500000920E-02 0. -1.
       -2   -1    0    0    0  501  0.00000000000E+00  0.00000000000E+00 -0.14675026430E+03  0.14675026432E+03  0.25500000920E-02 0.  1.
    10030    2    1    2    0    0  0.00000000000E+00  0.00000000000E+00  0.46788831387E+03  0.76138884250E+03  0.60066088205E+03 0.  0.
        4    1    3    3  502    0  0.50623749088E+02 -0.50680738897E+02 -0.13575953309E+03  0.15350428330E+03  0.12699999809E+01 0.  1.
       -4    1    3    3    0  502 -0.50623749088E+02  0.50680738897E+02  0.60364784696E+03  0.60788455919E+03  0.12699999809E+01 0. -1.
</event>
<event>
 5   0  0.2309055E-02  0.5931923E+03  0.7818609E-02  0.9919631E-01
        1   -1    0    0  501    0  0.00000000000E+00  0.00000000000E+00  0.27630082658E+03  0.27630082663E+03  0.50400001928E-02 0.  1.
       -1   -1    0    0    0  501  0.00000000000E+00  0.00000000000E+00 -0.31838225141E+03  0.31838225145E+03  0.50400001928E-02 0. -1.
    10030    2    1    2    0    0  0.00000000000E+00  0.00000000000E+00 -0.42081424823E+02  0.59468307808E+03  0.59319231033E+03 0.  0.
        4    1    3    3  502    0  0.14373278993E+03  0.10019882854E+02 -0.28093758265E+03  0.31573256278E+03  0.12699999809E+01 0. -1.
       -4    1    3    3    0  502 -0.14373278993E+03 -0.10019882854E+02  0.23885615783E+03  0.27895051530E+03  0.12699999809E+01 0.  1.
</event>
<event>
 5   0  0.2295179E-02  0.5934491E+03  0.7818609E-02  0.9919091E-01
       -1   -1    0    0    0  501  0.00000000000E+00  0.00000000000E+00  0.13206800338E+03  0.13206800348E+03  0.50400001928E-02 0.  1.
        1   -1    0    0  501    0  0.00000000000E+00  0.00000000000E+00 -0.66666755626E+03  0.66666755628E+03  0.50400001928E-02 0. -1.
    10030    2    1    2    0    0  0.00000000000E+00  0.00000000000E+00 -0.53459955288E+03  0.79873555975E+03  0.59344908162E+03 0.  0.
        3    1    3    3  502    0  0.24824615765E+03 -0.15585598920E+03 -0.20520920592E+03  0.35781010684E+03  0.10100000352E+00 0.  1.
       -3    1    3    3    0  502 -0.24824615765E+03  0.15585598920E+03 -0.32939034696E+03  0.44092545292E+03  0.10100000352E+00 0. -1.
</event>
<event>
 5   0  0.1521750E-02  0.5999328E+03  0.7818609E-02  0.9905546E-01
       -4   -1    0    0    0  501  0.00000000000E+00  0.00000000000E+00  0.16222984479E+04  0.16222989450E+04  0.12699999809E+01 0.  1.
        4   -1    0    0  501    0  0.00000000000E+00  0.00000000000E+00 -0.55456635374E+02  0.55471175460E+02  0.12699999809E+01 0. -1.
    10030    2    1    2    0    0  0.00000000000E+00  0.00000000000E+00  0.15668418125E+04  0.16777701205E+04  0.59993275593E+03 0.  0.
        4    1    3    3  502    0 -0.10425578547E+03  0.20571119402E+03  0.24699999570E+03  0.33793042912E+03  0.12699999809E+01 0. -1.
       -4    1    3    3    0  502  0.10425578547E+03 -0.20571119402E+03  0.13198418168E+04  0.13398396913E+04  0.12699999809E+01 0.  1.
</event>
<event>
 5   0  0.3934634E-02  0.6008963E+03  0.7818609E-02  0.9903548E-01
       -2   -1    0    0    0  501  0.00000000000E+00  0.00000000000E+00  0.88805067835E+02  0.88805067871E+02  0.25500000920E-02 0. -1.
        2   -1    0    0  501    0  0.00000000000E+00  0.00000000000E+00 -0.10164856433E+04  0.10164856433E+04  0.25500000920E-02 0.  1.
    10030    2    1    2    0    0  0.00000000000E+00  0.00000000000E+00 -0.92768057547E+03  0.11052907112E+04  0.60089625237E+03 0.  0.
        1    1    3    3  502    0 -0.59072819420E+02 -0.16372884007E+03 -0.13384115872E+02  0.17457338184E+03  0.50400001928E-02 0. -1.
       -1    1    3    3    0  502  0.59072819420E+02  0.16372884007E+03 -0.91429645960E+03  0.93071732934E+03  0.50400001928E-02 0.  1.
</event>
<event>
 5   0  0.3832191E-02  0.6179536E+03  0.7818609E-02  0.9868843E-01
        2   -1    0    0  501    0  0.00000000000E+00  0.00000000000E+00  0.60193345412E+03  0.60193345412E+03  0.25500000920E-02 0. -1.
       -2   -1    0    0    0  501  0.00000000000E+00  0.00000000000E+00 -0.15860002722E+03  0.15860002724E+03  0.25500000920E-02 0.  1.
    10030    2    1    2    0    0  0.00000000000E+00  0.00000000000E+00  0.44333342690E+03  0.76053348136E+03  0.61795359766E+03 0.  0.
        3    1    3    3  502    0 -0.13441713649E+03 -0.83756559400E+02  0.54817783397E+03  0.57059799832E+03  0.10100000352E+00 0. -1.
       -3    1    3    3    0  502  0.13441713649E+03  0.83756559400E+02 -0.10484440707E+03  0.18993548304E+03  0.10100000352E+00 0.  1.
</event>
<event>
 5   0  0.3832191E-02  0.6005002E+03  0.7818609E-02  0.9904369E-01
        2   -1    0    0  501    0  0.00000000000E+00  0.00000000000E+00  0.59267803220E+03  0.59267803221E+03  0.25500000920E-02 0.  1.
       -2   -1    0    0    0  501  0.00000000000E+00  0.00000000000E+00 -0.15210639813E+03  0.15210639815E+03  0.25500000920E-02 0. -1.
    10030    2    1    2    0    0  0.00000000000E+00  0.00000000000E+00  0.44057163407E+03  0.74478443035E+03  0.60050019396E+03 0.  0.
        3    1    3    3  502    0 -0.22029813995E+03 -0.20454118447E+02 -0.31463625559E+02  0.22347172385E+03  0.10100000352E+00 0. -1.
       -3    1    3    3    0  502  0.22029813995E+03  0.20454118447E+02  0.47203525963E+03  0.52131270650E+03  0.10100000352E+00 0.  1.
</event>
<event>
 5   0  0.2309055E-02  0.5977133E+03  0.7818609E-02  0.9910162E-01
       -1   -1    0    0    0  501  0.00000000000E+00  0.00000000000E+00  0.16661567765E+03  0.16661567773E+03  0.50400001928E-02 0.  1.
        1   -1    0    0  501    0  0.00000000000E+00  0.00000000000E+00 -0.53605586262E+03  0.53605586264E+03  0.50400001928E-02 0. -1.
    10030    2    1    2    0    0  0.00000000000E+00  0.00000000000E+00 -0.36944018497E+03  0.70267154037E+03  0.59771334549E+03 0.  0.
        4    1    3    3  502    0 -0.26004734023E+03 -0.35172217824E+00 -0.35785264263E+03  0.44236282575E+03  0.12699999809E+01 0. -1.
       -4    1    3    3    0  502  0.26004734023E+03  0.35172217824E+00 -0.11587542338E+02  0.26030871462E+03  0.12699999809E+01 0.  1.
</event>
<event>
 5   0  0.3934634E-02  0.6022297E+03  0.7818609E-02  0.9900791E-01
       -2   -1    0    0    0  501  0.00000000000E+00  0.00000000000E+00  0.13130148956E+03  0.13130148959E+03  0.25500000920E-02 0.  1.
        2   -1    0    0  501    0  0.00000000000E+00  0.00000000000E+00 -0.69054934924E+03  0.69054934924E+03  0.25500000920E-02 0. -1.
    10030    2    1    2    0    0  0.00000000000E+00  0.00000000000E+00 -0.55924785967E+03  0.82185083883E+03  0.60222971758E+03 0.  0.
        1    1    3    3  502    0  0.17941301351E+03  0.10552999873E+03 -0.57656194979E+03  0.61298392477E+03  0.50400001928E-02 0. -1.
       -1    1    3    3    0  502 -0.17941301351E+03 -0.10552999873E+03  0.17314090117E+02  0.20886691407E+03  0.50400001928E-02 0.  1.
</event>
<event>
 5   0  0.2225808E-02  0.5886405E+03  0.7818609E-02  0.9929258E-01
       -1   -1    0    0    0  501  0.00000000000E+00  0.00000000000E+00  0.95763102481E+02  0.95763102614E+02  0.50400001928E-02 0.  1.
        1   -1    0    0  501    0  0.00000000000E+00  0.00000000000E+00 -0.90456980130E+03  0.90456980132E+03  0.50400001928E-02 0. -1.
    10030    2    1    2    0    0  0.00000000000E+00  0.00000000000E+00 -0.80880669882E+03  0.10003329039E+04  0.58864050373E+03 0.  0.
        2    1    3    3  502    0 -0.11138204324E+03 -0.15004878902E+03 -0.17986821349E+02  0.18773418546E+03  0.25500000920E-02 0.  1.
       -2    1    3    3    0  502  0.11138204324E+03  0.15004878902E+03 -0.79081987747E+03  0.81259871847E+03  0.25500000920E-02 0. -1.
</event>
<event>
 5   0  0.2276105E-02  0.5999338E+03  0.7818609E-02  0.9905543E-01
        1   -1    0    0  501    0  0.00000000000E+00  0.00000000000E+00  0.17855530128E+03  0.17855530135E+03  0.50400001928E-02 0.  1.
       -1   -1    0    0    0  501  0.00000000000E+00  0.00000000000E+00 -0.50393425162E+03  0.50393425165E+03  0.50400001928E-02 0. -1.
    10030    2    1    2    0    0  0.00000000000E+00  0.00000000000E+00 -0.32537895034E+03  0.68248955299E+03  0.59993377019E+03 0.  0.
        1    1    3    3  502    0  0.20715701885E+03  0.10982420285E+03  0.50151953358E+02  0.23977198427E+03  0.50400001928E-02 0.  1.
       -1    1    3    3    0  502 -0.20715701885E+03 -0.10982420285E+03 -0.37553090370E+03  0.44271756872E+03  0.50400001928E-02 0. -1.
</event>
<event>
 5   0  0.2382531E-02  0.5980569E+03  0.7818609E-02  0.9909446E-01
       -1   -1    0    0    0  501  0.00000000000E+00  0.00000000000E+00  0.90971398364E+02  0.90971398503E+02  0.50400001928E-02 0.  1.
        1   -1    0    0  501    0  0.00000000000E+00  0.00000000000E+00 -0.98292444084E+03  0.98292444085E+03  0.50400001928E-02 0. -1.
    10030    2    1    2    0    0  0.00000000000E+00  0.00000000000E+00 -0.89195304248E+03  0.10738958394E+04  0.59805689011E+03 0.  0.
        5    1    3    3  502    0  0.31245001565E+02 -0.29672081489E+03 -0.48081515427E+03  0.56588408238E+03  0.46999998093E+01 0. -1.
       -5    1    3    3    0  502 -0.31245001565E+02  0.29672081489E+03 -0.41113788820E+03  0.50801175697E+03  0.46999998093E+01 0.  1.
</event>
<event>
 5   0  0.3798925E-02  0.5919677E+03  0.7818609E-02  0.9922212E-01
        2   -1    0    0  501    0  0.00000000000E+00  0.00000000000E+00  0.47549472798E+03  0.47549472799E+03  0.25500000920E-02 0. -1.
       -2   -1    0    0    0  501  0.00000000000E+00  0.00000000000E+00 -0.18424273546E+03  0.18424273548E+03  0.25500000920E-02 0.  1.
    10030    2    1    2    0    0  0.00000000000E+00  0.00000000000E+00  0.29125199252E+03  0.65973746347E+03  0.59196773354E+03 0.  0.
        2    1    3    3  502    0  0.15932802628E+03 -0.12004946216E+01  0.42362079955E+03  0.45259412608E+03  0.25500000920E-02 0. -1.
       -2    1    3    3    0  502 -0.15932802628E+03  0.12004946216E+01 -0.13236880703E+03  0.20714333739E+03  0.25500000920E-02 0.  1.
</event>
<event>
 5   0  0.3934634E-02  0.6009224E+03  0.7818609E-02  0.9903494E-01
       -2   -1    0    0    0  501  0.00000000000E+00  0.00000000000E+00  0.38996900711E+02  0.38996900795E+02  0.25500000920E-02 0. -1.
        2   -1    0    0  501    0  0.00000000000E+00  0.00000000000E+00 -0.23149768345E+04  0.23149768345E+04  0.25500000920E-02 0.  1.
    10030    2    1    2    0    0  0.00000000000E+00  0.00000000000E+00 -0.22759799337E+04  0.23539737353E+04  0.60092236391E+03 0.  0.
        1    1    3    3  502    0 -0.69565440522E+02  0.27880151351E+03 -0.79408850462E+03  0.84447983258E+03  0.50400001928E-02 0. -1.
       -1    1    3    3    0  502  0.69565440522E+02 -0.27880151351E+03 -0.14818914291E+04  0.15094939027E+04  0.50400001928E-02 0.  1.
</event>
<event>
 5   0  0.3737642E-02  0.6072020E+03  0.7818609E-02  0.9890576E-01
        2   -1    0    0  501    0  0.00000000000E+00  0.00000000000E+00  0.49943041545E+03  0.49943041546E+03  0.25500000920E-02 0.  1.
       -2   -1    0    0    0  501  0.00000000000E+00  0.00000000000E+00 -0.18455738206E+03  0.18455738208E+03  0.25500000920E-02 0. -1.
    10030    2    1    2    0    0  0.00000000000E+00  0.00000000000E+00  0.31487303339E+03  0.68398779753E+03  0.60720200923E+03 0.  0.
        5    1    3    3  502    0  0.25527221743E+03 -0.79860951116E+02 -0.42791440282E+01  0.26754827149E+03  0.46999998093E+01 0. -1.
       -5    1    3    3    0  502 -0.25527221743E+03  0.79860951116E+02  0.31915217742E+03  0.41643952605E+03  0.46999998093E+01 0.  1.
</event>
<event>
 5   0  0.2382531E-02  0.5999989E+03  0.7818609E-02  0.9905408E-01
       -1   -1    0    0    0  501  0.00000000000E+00  0.00000000000E+00  0.36029464510E+03  0.36029464513E+03  0.50400001928E-02 0.  1.
        1   -1    0    0  501    0  0.00000000000E+00  0.00000000000E+00 -0.24979462673E+03  0.24979462678E+03  0.50400001928E-02 0. -1.
    10030    2    1    2    0    0  0.00000000000E+00  0.00000000000E+00  0.11050001837E+03  0.61008927192E+03  0.59999888804E+03 0.  0.
        5    1    3    3  502    0 -0.26745430633E+03  0.68553484595E+02 -0.63965873012E+02  0.28345212847E+03  0.46999998093E+01 0. -1.
       -5    1    3    3    0  502  0.26745430633E+03 -0.68553484595E+02  0.17446589138E+03  0.32663714345E+03  0.46999998093E+01 0.  1.
</event>
<event>
 5   0  0.1521750E-02  0.6029505E+03  0.7818609E-02  0.9899304E-01
       -4   -1    0    0    0  501  0.00000000000E+00  0.00000000000E+00  0.11886747863E+03  0.11887426288E+03  0.12699999809E+01 0.  1.
        4   -1    0    0  501    0  0.00000000000E+00  0.00000000000E+00 -0.76458143553E+03  0.76458249029E+03  0.12699999809E+01 0. -1.
    10030    2    1    2    0    0  0.00000000000E+00  0.00000000000E+00 -0.64571395691E+03  0.88345675317E+03  0.60295051255E+03 0.  0.
        4    1    3    3  502    0 -0.22821519510E+03  0.13841345984E+03 -0.52822483654E+03  0.59183067847E+03  0.12699999809E+01 0. -1.
       -4    1    3    3    0  502  0.22821519510E+03 -0.13841345984E+03 -0.11748912036E+03  0.29162607470E+03  0.12699999809E+01 0.  1.
</event>
<event>
 5   0  0.3724066E-02  0.5984175E+03  0.7818609E-02  0.9908695E-01
        2   -1    0    0  501    0  0.00000000000E+00  0.00000000000E+00  0.18174610031E+04  0.18174610031E+04  0.25500000920E-02 0.  1.
       -2   -1    0    0    0  501  0.00000000000E+00  0.00000000000E+00 -0.49258753459E+02  0.49258753525E+02  0.25500000920E-02 0. -1.
    10030    2    1    2    0    0  0.00000000000E+00  0.00000000000E+00  0.17682022497E+04  0.18667197567E+04  0.59841745809E+03 0.  0.
        4    1    3    3  502    0 -0.12218204120E+03 -0.18979069036E+03  0.27142707312E+03  0.35302014994E+03  0.12699999809E+01 0.  1.
       -4    1    3    3    0  502  0.12218204120E+03  0.18979069036E+03  0.14967751766E+04  0.15136996067E+04  0.12699999809E+01 0. -1.
</event>
<event>
 5   0  0.3934634E-02  0.5952480E+03  0.7818609E-02  0.9915314E-01
        2   -1    0    0  501    0  0.00000000000E+00  0.00000000000E+00  0.43240983428E+03  0.43240983428E+03  0.25500000920E-02 0.  1.
       -2   -1    0    0    0  501  0.00000000000E+00  0.00000000000E+00 -0.20485205287E+03  0.20485205288E+03  0.25500000920E-02 0. -1.
    10030    2    1    2    0    0  0.00000000000E+00  0.00000000000E+00  0.22755778141E+03  0.63726188717E+03  0.59524798946E+03 0.  0.
        1    1    3    3  502    0  0.47549079986E+02 -0.29106055643E+03  0.70917084116E+02  0.30332556002E+03  0.50400001928E-02 0.  1.
       -1    1    3    3    0  502 -0.47549079986E+02  0.29106055643E+03  0.15664069729E+03  0.33393632715E+03  0.50400001928E-02 0. -1.
</event>
<event>
 5   0  0.2309055E-02  0.5984889E+03  0.7818609E-02  0.9908546E-01
        1   -1    0    0  501    0  0.00000000000E+00  0.00000000000E+00  0.73723769787E+03  0.73723769789E+03  0.50400001928E-02 0. -1.
       -1   -1    0    0    0  501  0.00000000000E+00  0.00000000000E+00 -0.12146318952E+03  0.12146318962E+03  0.50400001928E-02 0.  1.
    10030    2    1    2    0    0  0.00000000000E+00  0.00000000000E+00  0.61577450836E+03  0.85870088751E+03  0.59848890472E+03 0.  0.
        4    1    3    3  502    0  0.76203699946E+02  0.24522686559E+03  0.87460664129E+02  0.27128250987E+03  0.12699999809E+01 0.  1.
       -4    1    3    3    0  502 -0.76203699946E+02 -0.24522686559E+03  0.52831384423E+03  0.58741837764E+03  0.12699999809E+01 0. -1.
</event>
<event>
 5   0  0.2382531E-02  0.6010721E+03  0.7818609E-02  0.9903184E-01
       -1   -1    0    0    0  501  0.00000000000E+00  0.00000000000E+00  0.69110849985E+03  0.69110849987E+03  0.50400001928E-02 0.  1.
        1   -1    0    0  501    0  0.00000000000E+00  0.00000000000E+00 -0.13069135393E+03  0.13069135403E+03  0.50400001928E-02 0. -1.
    10030    2    1    2    0    0  0.00000000000E+00  0.00000000000E+00  0.56041714592E+03  0.82179985390E+03  0.60107206093E+03 0.  0.
        5    1    3    3  502    0  0.57864892802E+02  0.22083744886E+03  0.54736800384E+03  0.59308628905E+03  0.46999998093E+01 0.  1.
       -5    1    3    3    0  502 -0.57864892802E+02 -0.22083744886E+03  0.13049142078E+02  0.22871356484E+03  0.46999998093E+01 0. -1.
</event>
<event>
 5   0  0.3737642E-02  0.5980602E+03  0.7818609E-02  0.9909439E-01
        2   -1    0    0  501    0  0.00000000000E+00  0.00000000000E+00  0.90942545858E+03  0.90942545859E+03  0.25500000920E-02 0.  1.
       -2   -1    0    0    0  501  0.00000000000E+00  0.00000000000E+00 -0.98324731984E+02  0.98324732017E+02  0.25500000920E-02 0. -1.
    10030    2    1    2    0    0  0.00000000000E+00  0.00000000000E+00  0.81110072660E+03  0.10077501906E+04  0.59806024611E+03 0.  0.
        5    1    3    3  502    0 -0.21378173242E+03  0.47702723300E+02  0.62619617097E+02  0.22786286528E+03  0.46999998093E+01 0. -1.
       -5    1    3    3    0  502  0.21378173242E+03 -0.47702723300E+02  0.74848110950E+03  0.77988732533E+03  0.46999998093E+01 0.  1.
</event>
<event>
 5   0  0.3737642E-02  0.6004552E+03  0.7818609E-02  0.9904462E-01
        2   -1    0    0  501    0  0.00000000000E+00  0.00000000000E+00  0.96311851781E+03  0.96311851782E+03  0.25500000920E-02 0.  1.
       -2   -1    0    0    0  501  0.00000000000E+00  0.00000000000E+00 -0.93588292840E+02  0.93588292875E+02  0.25500000920E-02 0. -1.
    10030    2    1    2    0    0  0.00000000000E+00  0.00000000000E+00  0.86953022497E+03  0.10567068107E+04  0.60045522033E+03 0.  0.
        5    1    3    3  502    0  0.71267002077E+02  0.28723076539E+03  0.52335409932E+03  0.60125044819E+03  0.46999998093E+01 0. -1.
       -5    1    3    3    0  502 -0.71267002077E+02 -0.28723076539E+03  0.34617612565E+03  0.45545636250E+03  0.46999998093E+01 0.  1.
</event>
<event>
 5   0  0.3737642E-02  0.6117278E+03  0.7818609E-02  0.9881369E-01
        2   -1    0    0  501    0  0.00000000000E+00  0.00000000000E+00  0.14988224641E+04  0.14988224641E+04  0.25500000920E-02 0.  1.
       -2   -1    0    0    0  501  0.00000000000E+00  0.00000000000E+00 -0.62417485082E+02  0.62417485134E+02  0.25500000920E-02 0. -1.
    10030    2    1    2    0    0  0.00000000000E+00  0.00000000000E+00  0.14364049790E+04  0.15612399492E+04  0.61172781148E+03 0.  0.
        5    1    3    3  502    0 -0.87772399112E+02  0.23869353886E+03  0.11517130559E+04  0.11794675293E+04  0.46999998093E+01 0.  1.
       -5    1    3    3    0  502  0.87772399112E+02 -0.23869353886E+03  0.28469192313E+03  0.38177241995E+03  0.46999998093E+01 0. -1.
</event>
<event>
 5   0  0.3724066E-02  0.6020392E+03  0.7818609E-02  0.9901184E-01
       -2   -1    0    0    0  501  0.00000000000E+00  0.00000000000E+00  0.23800579502E+03  0.23800579503E+03  0.25500000920E-02 0. -1.
        2   -1    0    0  501    0  0.00000000000E+00  0.00000000000E+00 -0.38071676863E+03  0.38071676864E+03  0.25500000920E-02 0.  1.
    10030    2    1    2    0    0  0.00000000000E+00  0.00000000000E+00 -0.14271097362E+03  0.61872256368E+03  0.60203919209E+03 0.  0.
        4    1    3    3  502    0  0.26266868790E+03  0.91405730437E+02 -0.18970455642E+03  0.33665899481E+03  0.12699999809E+01 0.  1.
       -4    1    3    3    0  502 -0.26266868790E+03 -0.91405730437E+02  0.46993582800E+02  0.28206356887E+03  0.12699999809E+01 0. -1.
</event>
<event>
 5   0  0.3724066E-02  0.6017976E+03  0.7818609E-02  0.9901684E-01
        2   -1    0    0  501    0  0.00000000000E+00  0.00000000000E+00  0.95799226977E+03  0.95799226978E+03  0.25500000920E-02 0. -1.
       -2   -1    0    0    0  501  0.00000000000E+00  0.00000000000E+00 -0.94510262190E+02  0.94510262224E+02  0.25500000920E-02 0.  1.
    10030    2    1    2    0    0  0.00000000000E+00  0.00000000000E+00  0.86348200758E+03  0.10525025320E+04  0.60179764244E+03 0.  0.
        4    1    3    3  502    0 -0.22814771284E+03 -0.47272615535E+02  0.98743405877E+02  0.25305721124E+03  0.12699999809E+01 0.  1.
       -4    1    3    3    0  502  0.22814771284E+03  0.47272615535E+02  0.76473860171E+03  0.79944532076E+03  0.12699999809E+01 0. -1.
</event>
<event>
 5   0  0.2382531E-02  0.6006405E+03  0.7818609E-02  0.9904078E-01
        1   -1    0    0  501    0  0.00000000000E+00  0.00000000000E+00  0.10389420577E+03  0.10389420589E+03  0.50400001928E-02 0. -1.
       -1   -1    0    0    0  501  0.00000000000E+00  0.00000000000E+00 -0.86811619802E+03  0.86811619803E+03  0.50400001928E-02 0.  1.
    10030    2    1    2    0    0  0.00000000000E+00  0.00000000000E+00 -0.76422199225E+03  0.97201040392E+03  0.60064046808E+03 0.  0.
        5    1    3    3  502    0 -0.29470602636E+03  0.49300325524E+02 -0.43033464777E+03  0.52391999689E+03  0.46999998093E+01 0.  1.
       -5    1    3    3    0  502  0.29470602636E+03 -0.49300325524E+02 -0.33388734448E+03  0.44809040703E+03  0.46999998093E+01 0. -1.
</event>
<event>
 5   0  0.3832191E-02  0.6016529E+03  0.7818609E-02  0.9901983E-01
        2   -1    0    0  501    0  0.00000000000E+00  0.00000000000E+00  0.63530906277E+03  0.63530906277E+03  0.25500000920E-02 0. -1.
       -2   -1    0    0    0  501  0.00000000000E+00  0.00000000000E+00 -0.14244492651E+03  0.14244492653E+03  0.25500000920E-02 0.  1.
    10030    2    1    2    0    0  0.00000000000E+00  0.00000000000E+00  0.49286413626E+03  0.77775398930E+03  0.60165289916E+03 0.  0.
        3    1    3    3  502    0  0.84433639741E+02 -0.11469274082E+03 -0.96103157769E+02  0.17181179078E+03  0.10100000352E+00 0.  1.
       -3    1    3    3    0  502 -0.84433639741E+02  0.11469274082E+03  0.58896729403E+03  0.60594219852E+03  0.10100000352E+00 0. -1.
</event>
<event>
 5   0  0.3798925E-02  0.5626892E+03  0.7818609E-02  0.9985988E-01
       -2   -1    0    0    0  501  0.00000000000E+00  0.00000000000E+00  0.56710776949E+02  0.56710777006E+02  0.25500000920E-02 0.  1.
        2   -1    0    0  501    0  0.00000000000E+00  0.00000000000E+00 -0.13957628203E+04  0.13957628203E+04  0.25500000920E-02 0. -1.
    10030    2    1    2    0    0  0.00000000000E+00  0.00000000000E+00 -0.13390520433E+04  0.14524735973E+04  0.56268923579E+03 0.  0.
        2    1    3    3  502    0 -0.14540949793E+03 -0.17230931283E+03 -0.11039253261E+04  0.11267144922E+04  0.25500000920E-02 0. -1.
       -2    1    3    3    0  502  0.14540949793E+03  0.17230931283E+03 -0.23512671727E+03  0.32575910510E+03  0.25500000920E-02 0.  1.
</event>
<event>
 5   0  0.2276105E-02  0.6013982E+03  0.7818609E-02  0.9902510E-01
       -1   -1    0    0    0  501  0.00000000000E+00  0.00000000000E+00  0.70709136650E+02  0.70709136830E+02  0.50400001928E-02 0. -1.
        1   -1    0    0  501    0  0.00000000000E+00  0.00000000000E+00 -0.12787589879E+04  0.12787589879E+04  0.50400001928E-02 0.  1.
    10030    2    1    2    0    0  0.00000000000E+00  0.00000000000E+00 -0.12080498512E+04  0.13494681247E+04  0.60139818471E+03 0.  0.
        1    1    3    3  502    0 -0.10813613057E+02 -0.28752041479E+03 -0.80009243627E+03  0.85025456762E+03  0.50400001928E-02 0.  1.
       -1    1    3    3    0  502  0.10813613057E+02  0.28752041479E+03 -0.40795741496E+03  0.49921355711E+03  0.50400001928E-02 0. -1.
</event>
<event>
 5   0  0.3737642E-02  0.6262448E+03  0.7818609E-02  0.9852404E-01
       -2   -1    0    0    0  501  0.00000000000E+00  0.00000000000E+00  0.88043437904E+02  0.88043437941E+02  0.25500000920E-02 0. -1.
        2   -1    0    0  501    0  0.00000000000E+00  0.00000000000E+00 -0.11136051689E+04  0.11136051689E+04  0.25500000920E-02 0.  1.
    10030    2    1    2    0    0  0.00000000000E+00  0.00000000000E+00 -0.10255617310E+04  0.12016486068E+04  0.62624476863E+03 0.  0.
        5    1    3    3  502    0 -0.16008447829E+03  0.26674803441E+03 -0.44515835486E+03  0.54311104293E+03  0.46999998093E+01 0. -1.
       -5    1    3    3    0  502  0.16008447829E+03 -0.26674803441E+03 -0.58040337611E+03  0.65853756389E+03  0.46999998093E+01 0.  1.
</event>
<event>
 5   0  0.3798925E-02  0.6008171E+03  0.7818609E-02  0.9903712E-01
        2   -1    0    0  501    0  0.00000000000E+00  0.00000000000E+00  0.10100506030E+03  0.10100506034E+03  0.25500000920E-02 0.  1.
       -2   -1    0    0    0  501  0.00000000000E+00  0.00000000000E+00 -0.89347291426E+03  0.89347291427E+03  0.25500000920E-02 0. -1.
    10030    2    1    2    0    0  0.00000000000E+00  0.00000000000E+00 -0.79246785396E+03  0.99447797460E+03  0.60081706235E+03 0.  0.
        2    1    3    3  502    0 -0.49181833490E+02 -0.22939542000E+03 -0.70679712606E+03  0.74471691862E+03  0.25500000920E-02 0. -1.
       -2    1    3    3    0  502  0.49181833490E+02  0.22939542000E+03 -0.85670727901E+02  0.24976105599E+03  0.25500000920E-02 0.  1.
</event>
<event>
 5   0  0.2276105E-02  0.5893434E+03  0.7818609E-02  0.9927765E-01
       -1   -1    0    0    0  501  0.00000000000E+00  0.00000000000E+00  0.16775847284E+03  0.16775847291E+03  0.50400001928E-02 0. -1.
        1   -1    0    0  501    0  0.00000000000E+00  0.00000000000E+00 -0.51759768422E+03  0.51759768425E+03  0.50400001928E-02 0.  1.
    10030    2    1    2    0    0  0.00000000000E+00  0.00000000000E+00 -0.34983921139E+03  0.68535615716E+03  0.58934335351E+03 0.  0.
        1    1    3    3  502    0  0.93308728143E+02 -0.80899484783E+02 -0.48605128704E+03  0.50149486443E+03  0.50400001928E-02 0.  1.
       -1    1    3    3    0  502 -0.93308728143E+02  0.80899484783E+02  0.13621207565E+03  0.18386129273E+03  0.50400001928E-02 0. -1.
</event>
<event>
 5   0  0.3737642E-02  0.6007149E+03  0.7818609E-02  0.9903924E-01
        2   -1    0    0  501    0  0.00000000000E+00  0.00000000000E+00  0.14484628321E+04  0.14484628321E+04  0.25500000920E-02 0. -1.
       -2   -1    0    0    0  501  0.00000000000E+00  0.00000000000E+00 -0.62282996327E+02  0.62282996379E+02  0.25500000920E-02 0.  1.
    10030    2    1    2    0    0  0.00000000000E+00  0.00000000000E+00  0.13861798358E+04  0.15107458285E+04  0.60071492505E+03 0.  0.
        5    1    3    3  502    0  0.93486458379E+02  0.60812574918E+02 -0.81814471049E+01  0.11192369384E+03  0.46999998093E+01 0.  1.
       -5    1    3    3    0  502 -0.93486458379E+02 -0.60812574918E+02  0.13943612829E+04  0.13988221347E+04  0.46999998093E+01 0. -1.
</event>
<event>
 5   0  0.1521750E-02  0.5924991E+03  0.7818609E-02  0.9921091E-01
        4   -1    0    0  501    0  0.00000000000E+00  0.00000000000E+00  0.29998830884E+03  0.29999099710E+03  0.12699999809E+01 0.  1.
       -4   -1    0    0    0  501  0.00000000000E+00  0.00000000000E+00 -0.29255200814E+03  0.29255476473E+03  0.12699999809E+01 0. -1.
    10030    2    1    2    0    0  0.00000000000E+00  0.00000000000E+00  0.74363007030E+01  0.59254576183E+03  0.59249909814E+03 0.  0.
        2    1    3    3  502    0  0.25159529891E+03  0.46207316184E+02 -0.14572080716E+03  0.29439745948E+03  0.25500000920E-02 0. -1.
       -2    1    3    3    0  502 -0.25159529891E+03 -0.46207316184E+02  0.15315710787E+03  0.29814830235E+03  0.25500000920E-02 0.  1.
</event>
<event>
 5   0  0.3832191E-02  0.5977053E+03  0.7818609E-02  0.9910178E-01
        2   -1    0    0  501    0  0.00000000000E+00  0.00000000000E+00  0.47031434248E+03  0.47031434249E+03  0.25500000920E-02 0.  1.
       -2   -1    0    0    0  501  0.00000000000E+00  0.00000000000E+00 -0.18990043910E+03  0.18990043911E+03  0.25500000920E-02 0. -1.
    10030    2    1    2    0    0  0.00000000000E+00  0.00000000000E+00  0.28041390339E+03  0.66021478160E+03  0.59770527907E+03 0.  0.
        3    1    3    3  502    0 -0.31009133868E+02  0.17569191788E+03 -0.12462501711E+03  0.21762495602E+03  0.10100000352E+00 0. -1.
       -3    1    3    3    0  502  0.31009133868E+02 -0.17569191788E+03  0.40503892050E+03  0.44258982558E+03  0.10100000352E+00 0.  1.
</event>
<event>
 5   0  0.1521750E-02  0.6080482E+03  0.7818609E-02  0.9888848E-01
       -4   -1    0    0    0  501  0.00000000000E+00  0.00000000000E+00  0.15782943816E+03  0.15783454771E+03  0.12699999809E+01 0.  1.
        4   -1    0    0  501    0  0.00000000000E+00  0.00000000000E+00 -0.58562102107E+03  0.58562239816E+03  0.12699999809E+01 0. -1.
    10030    2    1    2    0    0  0.00000000000E+00  0.00000000000E+00 -0.42779158291E+03  0.74345694586E+03  0.60804818225E+03 0.  0.
        3    1    3    3  502    0 -0.92921244915E+01  0.15183602017E+03 -0.53574576421E+03  0.55692374223E+03  0.10100000352E+00 0. -1.
       -3    1    3    3    0  502  0.92921244915E+01 -0.15183602017E+03  0.10795418129E+03  0.18653320363E+03  0.10100000352E+00 0.  1.
</event>
<event>
 5   0  0.2382531E-02  0.6006387E+03  0.7818609E-02  0.9904082E-01
        1   -1    0    0  501    0  0.00000000000E+00  0.00000000000E+00  0.42399714879E+03  0.42399714882E+03  0.50400001928E-02 0. -1.
       -1   -1    0    0    0  501  0.00000000000E+00  0.00000000000E+00 -0.21271775841E+03  0.21271775847E+03  0.50400001928E-02 0.  1.
    10030    2    1    2    0    0  0.00000000000E+00  0.00000000000E+00  0.21127939038E+03  0.63671490730E+03  0.60063873699E+03 0.  0.
        5    1    3    3  502    0  0.56651316924E+02 -0.41860285047E+02 -0.20379699699E+03  0.21567791068E+03  0.46999998093E+01 0.  1.
       -5    1    3    3    0  502 -0.56651316924E+02  0.41860285047E+02  0.41507638737E+03  0.42103699662E+03  0.46999998093E+01 0. -1.
</event>
<event>
 5   0  0.3798925E-02  0.6050559E+03  0.7818609E-02  0.9894972E-01
       -2   -1    0    0    0  501  0.00000000000E+00  0.00000000000E+00  0.66735361437E+02  0.66735361486E+02  0.25500000920E-02 0. -1.
        2   -1    0    0  501    0  0.00000000000E+00  0.00000000000E+00 -0.13714340493E+04  0.13714340493E+04  0.25500000920E-02 0.  1.
    10030    2    1    2    0    0  0.00000000000E+00  0.00000000000E+00 -0.13046986879E+04  0.14381694108E+04  0.60505585529E+03 0.  0.
        2    1    3    3  502    0 -0.15819485309E+03 -0.22123079738E+03 -0.33742340202E+03  0.43338577445E+03  0.25500000920E-02 0. -1.
       -2    1    3    3    0  502  0.15819485309E+03  0.22123079738E+03 -0.96727528587E+03  0.10047836364E+04  0.25500000920E-02 0.  1.
</event>
<event>
 5   0  0.3934634E-02  0.5970319E+03  0.7818609E-02  0.9911583E-01
       -2   -1    0    0    0  501  0.00000000000E+00  0.00000000000E+00  0.35280183767E+02  0.35280183859E+02  0.25500000920E-02 0. -1.
        2   -1    0    0  501    0  0.00000000000E+00  0.00000000000E+00 -0.25258310679E+04  0.25258310679E+04  0.25500000920E-02 0.  1.
    10030    2    1    2    0    0  0.00000000000E+00  0.00000000000E+00 -0.24905508841E+04  0.25611112517E+04  0.59703194005E+03 0.  0.
        1    1    3    3  502    0  0.16316826048E+03  0.13912514617E+03 -0.21361799657E+04  0.21469151203E+04  0.50400001928E-02 0.  1.
       -1    1    3    3    0  502 -0.16316826048E+03 -0.13912514617E+03 -0.35437091837E+03  0.41419613148E+03  0.50400001928E-02 0. -1.
</event>
<event>
 5   0  0.2225808E-02  0.6033319E+03  0.7818609E-02  0.9898517E-01
       -1   -1    0    0    0  501  0.00000000000E+00  0.00000000000E+00  0.18512422195E+03  0.18512422202E+03  0.50400001928E-02 0.  1.
        1   -1    0    0  501    0  0.00000000000E+00  0.00000000000E+00 -0.49157453248E+03  0.49157453250E+03  0.50400001928E-02 0. -1.
    10030    2    1    2    0    0  0.00000000000E+00  0.00000000000E+00 -0.30645031053E+03  0.67669875453E+03  0.60333192486E+03 0.  0.
        2    1    3    3  502    0 -0.15137371869E+03 -0.14914815756E+03 -0.39337174614E+03  0.44710234430E+03  0.25500000920E-02 0. -1.
       -2    1    3    3    0  502  0.15137371869E+03  0.14914815756E+03  0.86921435614E+02  0.22959641023E+03  0.25500000920E-02 0.  1.
</event>
<event>
 5   0  0.2276105E-02  0.5803288E+03  0.7818609E-02  0.9947079E-01
        1   -1    0    0  501    0  0.00000000000E+00  0.00000000000E+00  0.15056748330E+04  0.15056748330E+04  0.50400001928E-02 0.  1.
       -1   -1    0    0    0  501  0.00000000000E+00  0.00000000000E+00 -0.55918696378E+02  0.55918696606E+02  0.50400001928E-02 0. -1.
    10030    2    1    2    0    0  0.00000000000E+00  0.00000000000E+00  0.14497561367E+04  0.15615935296E+04  0.58032878273E+03 0.  0.
        1    1    3    3  502    0 -0.46807947925E+01 -0.23053437656E+03  0.11988649695E+04  0.12208379187E+04  0.50400001928E-02 0.  1.
       -1    1    3    3    0  502  0.46807947925E+01  0.23053437656E+03  0.25089116719E+03  0.34075561098E+03  0.50400001928E-02 0. -1.
</event>
<event>
 5   0  0.3798925E-02  0.6091036E+03  0.7818609E-02  0.9886697E-01
       -2   -1    0    0    0  501  0.00000000000E+00  0.00000000000E+00  0.11569119013E+03  0.11569119016E+03  0.25500000920E-02 0. -1.
        2   -1    0    0  501    0  0.00000000000E+00  0.00000000000E+00 -0.80171882832E+03  0.80171882833E+03  0.25500000920E-02 0.  1.
    10030    2    1    2    0    0  0.00000000000E+00  0.00000000000E+00 -0.68602763819E+03  0.91741001848E+03  0.60910362144E+03 0.  0.
        2    1    3    3  502    0  0.14550342434E+02 -0.34870771502E+02  0.11214718856E+03  0.11834134982E+03  0.25500000920E-02 0. -1.
       -2    1    3    3    0  502 -0.14550342434E+02  0.34870771502E+02 -0.79817482675E+03  0.79906866866E+03  0.25500000920E-02 0.  1.
</event>
<event>
 5   0  0.2276105E-02  0.5985118E+03  0.7818609E-02  0.9908498E-01
        1   -1    0    0  501    0  0.00000000000E+00  0.00000000000E+00  0.21324490837E+03  0.21324490843E+03  0.50400001928E-02 0. -1.
       -1   -1    0    0    0  501  0.00000000000E+00  0.00000000000E+00 -0.41995884849E+03  0.41995884852E+03  0.50400001928E-02 0.  1.
    10030    2    1    2    0    0  0.00000000000E+00  0.00000000000E+00 -0.20671394013E+03  0.63320375695E+03  0.59851177497E+03 0.  0.
        1    1    3    3  502    0 -0.19046939031E+03 -0.10520363241E+03  0.11399650732E+03  0.24564526583E+03  0.50400001928E-02 0. -1.
       -1    1    3    3    0  502  0.19046939031E+03  0.10520363241E+03 -0.32071044744E+03  0.38755849112E+03  0.50400001928E-02 0.  1.
</event>
<event>
 5   0  0.2276105E-02  0.5727245E+03  0.7818609E-02  0.9963668E-01
       -1   -1    0    0    0  501  0.00000000000E+00  0.00000000000E+00  0.37163120367E+02  0.37163120709E+02  0.50400001928E-02 0.  1.
        1   -1    0    0  501    0  0.00000000000E+00  0.00000000000E+00 -0.22065781201E+04  0.22065781201E+04  0.50400001928E-02 0. -1.
    10030    2    1    2    0    0  0.00000000000E+00  0.00000000000E+00 -0.21694149998E+04  0.22437412408E+04  0.57272446662E+03 0.  0.
        1    1    3    3  502    0 -0.87030028951E+02 -0.18907723129E+03 -0.18551923611E+04  0.18668323765E+04  0.50400001928E-02 0. -1.
       -1    1    3    3    0  502  0.87030028951E+02  0.18907723129E+03 -0.31422263870E+03  0.37690886435E+03  0.50400001928E-02 0.  1.
</event>
<event>
 5   0  0.2225808E-02  0.6009780E+03  0.7818609E-02  0.9903379E-01
        1   -1    0    0  501    0  0.00000000000E+00  0.00000000000E+00  0.61523633575E+03  0.61523633577E+03  0.50400001928E-02 0. -1.
       -1   -1    0    0    0  501  0.00000000000E+00  0.00000000000E+00 -0.14676253722E+03  0.14676253731E+03  0.50400001928E-02 0.  1.
    10030    2    1    2    0    0  0.00000000000E+00  0.00000000000E+00  0.46847379853E+03  0.76199887308E+03  0.60097802179E+03 0.  0.
        2    1    3    3  502    0 -0.97310828273E+01 -0.12094433987E+03 -0.11432067607E+03  0.16670766120E+03  0.25500000920E-02 0.  1.
       -2    1    3    3    0  502  0.97310828273E+01  0.12094433987E+03  0.58279447459E+03  0.59529121188E+03  0.25500000920E-02 0. -1.
</event>
<event>
 5   0  0.3724066E-02  0.6050700E+03  0.7818609E-02  0.9894943E-01
        2   -1    0    0  501    0  0.00000000000E+00  0.00000000000E+00  0.55054427464E+03  0.55054427465E+03  0.25500000920E-02 0.  1.
       -2   -1    0    0    0  501  0.00000000000E+00  0.00000000000E+00 -0.16624900406E+03  0.16624900408E+03  0.25500000920E-02 0. -1.
    10030    2    1    2    0    0  0.00000000000E+00  0.00000000000E+00  0.38429527058E+03  0.71679327873E+03  0.60507003681E+03 0.  0.
        4    1    3    3  502    0  0.19904954349E+03 -0.22207164235E+03  0.13186689588E+03  0.32607825170E+03  0.12699999809E+01 0. -1.
       -4    1    3    3    0  502 -0.19904954349E+03  0.22207164235E+03  0.25242837469E+03  0.39071502703E+03  0.12699999809E+01 0.  1.
</event>
<event>
 5   0  0.1521750E-02  0.5979958E+03  0.7818609E-02  0.9909573E-01
        4   -1    0    0  501    0  0.00000000000E+00  0.00000000000E+00  0.26793437393E+03  0.26793738379E+03  0.12699999809E+01 0.  1.
       -4   -1    0    0    0  501  0.00000000000E+00  0.00000000000E+00 -0.33365679052E+03  0.33365920752E+03  0.12699999809E+01 0. -1.
    10030    2    1    2    0    0  0.00000000000E+00  0.00000000000E+00 -0.65722416595E+02  0.60159659130E+03  0.59799583830E+03 0.  0.
        2    1    3    3  502    0  0.13152748465E+03  0.25945473183E+03  0.36718232986E+02  0.29319697428E+03  0.25500000920E-02 0.  1.
       -2    1    3    3    0  502 -0.13152748465E+03 -0.25945473183E+03 -0.10244064958E+03  0.30839961702E+03  0.25500000920E-02 0. -1.
</event>
<event>
 5   0  0.3724066E-02  0.5996694E+03  0.7818609E-02  0.9906092E-01
        2   -1    0    0  501    0  0.00000000000E+00  0.00000000000E+00  0.24060951177E+03  0.24060951179E+03  0.25500000920E-02 0.  1.
       -2   -1    0    0    0  501  0.00000000000E+00  0.00000000000E+00 -0.37363791520E+03  0.37363791521E+03  0.25500000920E-02 0. -1.
    10030    2    1    2    0    0  0.00000000000E+00  0.00000000000E+00 -0.13302840343E+03  0.61424742700E+03  0.59966936344E+03 0.  0.
        4    1    3    3  502    0 -0.12748478521E+03 -0.44184246646E+02  0.20775353551E+03  0.24772517540E+03  0.12699999809E+01 0.  1.
       -4    1    3    3    0  502  0.12748478521E+03  0.44184246646E+02 -0.34078193893E+03  0.36652225159E+03  0.12699999809E+01 0. -1.
</event>
<event>
 5   0  0.3934634E-02  0.5982784E+03  0.7818609E-02  0.9908984E-01
        2   -1    0    0  501    0  0.00000000000E+00  0.00000000000E+00  0.86992644864E+03  0.86992644864E+03  0.25500000920E-02 0. -1.
       -2   -1    0    0    0  501  0.00000000000E+00  0.00000000000E+00 -0.10286418157E+03  0.10286418160E+03  0.25500000920E-02 0.  1.
    10030    2    1    2    0    0  0.00000000000E+00  0.00000000000E+00  0.76706226707E+03  0.97279063025E+03  0.59827843746E+03 0.  0.
        1    1    3    3  502    0 -0.94728514188E+02 -0.21198919850E+03  0.69019758370E+03  0.72820712456E+03  0.50400001928E-02 0. -1.
       -1    1    3    3    0  502  0.94728514188E+02  0.21198919850E+03  0.76864683366E+02  0.24458350569E+03  0.50400001928E-02 0.  1.
</event>
<event>
 5   0  0.3737642E-02  0.6038488E+03  0.7818609E-02  0.9897453E-01
       -2   -1    0    0    0  501  0.00000000000E+00  0.00000000000E+00  0.10388892391E+03  0.10388892394E+03  0.25500000920E-02 0.  1.
        2   -1    0    0  501    0  0.00000000000E+00  0.00000000000E+00 -0.87745955135E+03  0.87745955136E+03  0.25500000920E-02 0. -1.
    10030    2    1    2    0    0  0.00000000000E+00  0.00000000000E+00 -0.77357062744E+03  0.98134847530E+03  0.60384875121E+03 0.  0.
        5    1    3    3  502    0 -0.14104168640E+03 -0.20931471381E+03 -0.65594782317E+03  0.70284780959E+03  0.46999998093E+01 0. -1.
       -5    1    3    3    0  502  0.14104168640E+03  0.20931471381E+03 -0.11762280427E+03  0.27850066571E+03  0.46999998093E+01 0.  1.
</event>
<event>
 5   0  0.3832191E-02  0.6072003E+03  0.7818609E-02  0.9890579E-01
        2   -1    0    0  501    0  0.00000000000E+00  0.00000000000E+00  0.26368238302E+03  0.26368238303E+03  0.25500000920E-02 0.  1.
       -2   -1    0    0    0  501  0.00000000000E+00  0.00000000000E+00 -0.34956085745E+03  0.34956085746E+03  0.25500000920E-02 0. -1.
    10030    2    1    2    0    0  0.00000000000E+00  0.00000000000E+00 -0.85878474432E+02  0.61324324049E+03  0.60720026320E+03 0.  0.
        3    1    3    3  502    0 -0.14308810336E+03  0.76713965491E+02 -0.30203438243E+03  0.34290525834E+03  0.10100000352E+00 0. -1.
       -3    1    3    3    0  502  0.14308810336E+03 -0.76713965491E+02  0.21615590800E+03  0.27033798214E+03  0.10100000352E+00 0.  1.
</event>
<event>
 5   0  0.3724066E-02  0.5990503E+03  0.7818609E-02  0.9907378E-01
        2   -1    0    0  501    0  0.00000000000E+00  0.00000000000E+00  0.32530694643E+03  0.32530694644E+03  0.25500000920E-02 0.  1.
       -2   -1    0    0    0  501  0.00000000000E+00  0.00000000000E+00 -0.27578662362E+03  0.27578662363E+03  0.25500000920E-02 0. -1.
    10030    2    1    2    0    0  0.00000000000E+00  0.00000000000E+00  0.49520322805E+02  0.60109357007E+03  0.59905026301E+03 0.  0.
        4    1    3    3  502    0 -0.84690399191E+02  0.21013755607E+03 -0.17182500292E+03  0.28435136841E+03  0.12699999809E+01 0. -1.
       -4    1    3    3    0  502  0.84690399191E+02 -0.21013755607E+03  0.22134532573E+03  0.31674220166E+03  0.12699999809E+01 0.  1.
</event>
<event>
 5   0  0.2295179E-02  0.5991689E+03  0.7818609E-02  0.9907132E-01
       -1   -1    0    0    0  501  0.00000000000E+00  0.00000000000E+00  0.17719977009E+03  0.17719977016E+03  0.50400001928E-02 0. -1.
        1   -1    0    0  501    0  0.00000000000E+00  0.00000000000E+00 -0.50649517723E+03  0.50649517726E+03  0.50400001928E-02 0.  1.
    10030    2    1    2    0    0  0.00000000000E+00  0.00000000000E+00 -0.32929540714E+03  0.68369494741E+03  0.59916885429E+03 0.  0.
        3    1    3    3  502    0  0.16886330465E+03  0.11708548154E+03  0.84113878353E+02  0.22203373702E+03  0.10100000352E+00 0. -1.
       -3    1    3    3    0  502 -0.16886330465E+03 -0.11708548154E+03 -0.41340928550E+03  0.46166121039E+03  0.10100000352E+00 0.  1.
</event>
<event>
 5   0  0.2225808E-02  0.6630957E+03  0.7818609E-02  0.9782512E-01
       -1   -1    0    0    0  501  0.00000000000E+00  0.00000000000E+00  0.77054749600E+03  0.77054749601E+03  0.50400001928E-02 0. -1.
        1   -1    0    0  501    0  0.00000000000E+00  0.00000000000E+00 -0.14265696007E+03  0.14265696016E+03  0.50400001928E-02 0.  1.
    10030    2    1    2    0    0  0.00000000000E+00  0.00000000000E+00  0.62789053592E+03  0.91320445618E+03  0.66309565952E+03 0.  0.
        2    1    3    3  502    0 -0.82864205122E+02  0.18782200570E+03 -0.44599872032E+02  0.21007791628E+03  0.25500000920E-02 0.  1.
       -2    1    3    3    0  502  0.82864205122E+02 -0.18782200570E+03  0.67249040795E+03  0.70312653990E+03  0.25500000920E-02 0. -1.
</event>
<event>
 5   0  0.2295179E-02  0.5984852E+03  0.7818609E-02  0.9908554E-01
       -1   -1    0    0    0  501  0.00000000000E+00  0.00000000000E+00  0.15326251851E+03  0.15326251860E+03  0.50400001928E-02 0. -1.
        1   -1    0    0  501    0  0.00000000000E+00  0.00000000000E+00 -0.58426627775E+03  0.58426627778E+03  0.50400001928E-02 0.  1.
    10030    2    1    2    0    0  0.00000000000E+00  0.00000000000E+00 -0.43100375924E+03  0.73752879637E+03  0.59848515855E+03 0.  0.
        3    1    3    3  502    0  0.13978257428E+03 -0.77533041706E+02 -0.52724763853E+03  0.55094520886E+03  0.10100000352E+00 0.  1.
       -3    1    3    3    0  502 -0.13978257428E+03  0.77533041706E+02  0.96243879293E+02  0.18658358751E+03  0.10100000352E+00 0. -1.
</event>
<event>
 5   0  0.3724066E-02  0.6121984E+03  0.7818609E-02  0.9880417E-01
       -2   -1    0    0    0  501  0.00000000000E+00  0.00000000000E+00  0.21102827060E+03  0.21102827062E+03  0.25500000920E-02 0. -1.
        2   -1    0    0  501    0  0.00000000000E+00  0.00000000000E+00 -0.44400073535E+03  0.44400073536E+03  0.25500000920E-02 0.  1.
    10030    2    1    2    0    0  0.00000000000E+00  0.00000000000E+00 -0.23297246475E+03  0.65502900598E+03  0.61219835784E+03 0.  0.
        4    1    3    3  502    0 -0.97659001531E+02 -0.11014139761E+03  0.17066791237E+03  0.22538313437E+03  0.12699999809E+01 0. -1.
       -4    1    3    3    0  502  0.97659001531E+02  0.11014139761E+03 -0.40364037712E+03  0.42964587161E+03  0.12699999809E+01 0.  1.
</event>
<event>
 5   0  0.2276105E-02  0.6033539E+03  0.7818609E-02  0.9898472E-01
       -1   -1    0    0    0  501  0.00000000000E+00  0.00000000000E+00  0.78154266216E+02  0.78154266378E+02  0.50400001928E-02 0.  1.
        1   -1    0    0  501    0  0.00000000000E+00  0.00000000000E+00 -0.11644789404E+04  0.11644789404E+04  0.50400001928E-02 0. -1.
    10030    2    1    2    0    0  0.00000000000E+00  0.00000000000E+00 -0.10863246742E+04  0.12426332068E+04  0.60335394992E+03 0.  0.
        1    1    3    3  502    0  0.21676208120E+03 -0.77111160659E+02 -0.14127665437E+03  0.26998337734E+03  0.50400001928E-02 0.  1.
       -1    1    3    3    0  502 -0.21676208120E+03  0.77111160659E+02 -0.94504801984E+03  0.97264982947E+03  0.50400001928E-02 0. -1.
</event>
<event>
 5   0  0.2382531E-02  0.5998603E+03  0.7818609E-02  0.9905696E-01
        1   -1    0    0  501    0  0.00000000000E+00  0.00000000000E+00  0.13646358897E+04  0.13646358897E+04  0.50400001928E-02 0.  1.
       -1   -1    0    0    0  501  0.00000000000E+00  0.00000000000E+00 -0.65920951117E+02  0.65920951309E+02  0.50400001928E-02 0. -1.
    10030    2    1    2    0    0  0.00000000000E+00  0.00000000000E+00  0.12987149386E+04  0.14305568410E+04  0.59986030348E+03 0.  0.
        5    1    3    3  502    0 -0.86419855718E+02  0.26526300821E+03  0.91172145527E+03  0.95346261436E+03  0.46999998093E+01 0.  1.
       -5    1    3    3    0  502  0.86419855718E+02 -0.26526300821E+03  0.38699348331E+03  0.47709422666E+03  0.46999998093E+01 0. -1.
</event>
<event>
 5   0  0.2276105E-02  0.5744302E+03  0.7818609E-02  0.9959923E-01
       -1   -1    0    0    0  501  0.00000000000E+00  0.00000000000E+00  0.22591557788E+03  0.22591557794E+03  0.50400001928E-02 0.  1.
        1   -1    0    0  501    0  0.00000000000E+00  0.00000000000E+00 -0.36514746901E+03  0.36514746904E+03  0.50400001928E-02 0. -1.
    10030    2    1    2    0    0  0.00000000000E+00  0.00000000000E+00 -0.13923189112E+03  0.59106304698E+03  0.57443015763E+03 0.  0.
        1    1    3    3  502    0  0.10922479609E+02  0.26862730214E+03  0.34367492508E+02  0.27103699486E+03  0.50400001928E-02 0.  1.
       -1    1    3    3    0  502 -0.10922479609E+02 -0.26862730214E+03 -0.17359938363E+03  0.32002605212E+03  0.50400001928E-02 0. -1.
</event>
<event>
 5   0  0.2225808E-02  0.6222573E+03  0.7818609E-02  0.9860276E-01
        1   -1    0    0  501    0  0.00000000000E+00  0.00000000000E+00  0.48977500746E+03  0.48977500748E+03  0.50400001928E-02 0. -1.
       -1   -1    0    0    0  501  0.00000000000E+00  0.00000000000E+00 -0.19764387164E+03  0.19764387171E+03  0.50400001928E-02 0.  1.
    10030    2    1    2    0    0  0.00000000000E+00  0.00000000000E+00  0.29213113582E+03  0.68741887919E+03  0.62225727392E+03 0.  0.
        2    1    3    3  502    0 -0.21519801514E+03  0.20972643806E+03  0.56961548673E+02  0.30584306855E+03  0.25500000920E-02 0. -1.
       -2    1    3    3    0  502  0.21519801514E+03 -0.20972643806E+03  0.23516958714E+03  0.38157581064E+03  0.25500000920E-02 0.  1.
</event>
<event>
 5   0  0.3737642E-02  0.6000456E+03  0.7818609E-02  0.9905311E-01
       -2   -1    0    0    0  501  0.00000000000E+00  0.00000000000E+00  0.16472780364E+03  0.16472780366E+03  0.25500000920E-02 0. -1.
        2   -1    0    0  501    0  0.00000000000E+00  0.00000000000E+00 -0.54643897228E+03  0.54643897229E+03  0.25500000920E-02 0.  1.
    10030    2    1    2    0    0  0.00000000000E+00  0.00000000000E+00 -0.38171116864E+03  0.71116677595E+03  0.60004563739E+03 0.  0.
        5    1    3    3  502    0 -0.13361439547E+02 -0.10084670535E+03 -0.52532855294E+03  0.53510818026E+03  0.46999998093E+01 0.  1.
       -5    1    3    3    0  502  0.13361439547E+02  0.10084670535E+03  0.14361738430E+03  0.17605859569E+03  0.46999998093E+01 0. -1.
</event>
<event>
 5   0  0.3724066E-02  0.6147920E+03  0.7818609E-02  0.9875184E-01
       -2   -1    0    0    0  501  0.00000000000E+00  0.00000000000E+00  0.14199654420E+03  0.14199654423E+03  0.25500000920E-02 0.  1.
        2   -1    0    0  501    0  0.00000000000E+00  0.00000000000E+00 -0.66545486091E+03  0.66545486091E+03  0.25500000920E-02 0. -1.
    10030    2    1    2    0    0  0.00000000000E+00  0.00000000000E+00 -0.52345831670E+03  0.80745140514E+03  0.61479196671E+03 0.  0.
        4    1    3    3  502    0 -0.26657538783E+03 -0.85090510613E+02 -0.94626740802E+02  0.29539577751E+03  0.12699999809E+01 0.  1.
       -4    1    3    3    0  502  0.26657538783E+03  0.85090510613E+02 -0.42883157590E+03  0.51205562763E+03  0.12699999809E+01 0. -1.
</event>
<event>
 5   0  0.2295179E-02  0.6031454E+03  0.7818609E-02  0.9898902E-01
       -1   -1    0    0    0  501  0.00000000000E+00  0.00000000000E+00  0.76579857396E+02  0.76579857562E+02  0.50400001928E-02 0.  1.
        1   -1    0    0  501    0  0.00000000000E+00  0.00000000000E+00 -0.11875980831E+04  0.11875980831E+04  0.50400001928E-02 0. -1.
    10030    2    1    2    0    0  0.00000000000E+00  0.00000000000E+00 -0.11110182257E+04  0.12641779406E+04  0.60314539526E+03 0.  0.
        3    1    3    3  502    0  0.18810135169E+02 -0.16843602211E+03 -0.32683730769E+02  0.17260576812E+03  0.10100000352E+00 0.  1.
       -3    1    3    3    0  502 -0.18810135169E+02  0.16843602211E+03 -0.10783344949E+04  0.10915721725E+04  0.10100000352E+00 0. -1.
</event>
<event>
 5   0  0.1521750E-02  0.5980999E+03  0.7818609E-02  0.9909356E-01
        4   -1    0    0  501    0  0.00000000000E+00  0.00000000000E+00  0.37291941878E+03  0.37292158130E+03  0.12699999809E+01 0.  1.
       -4   -1    0    0    0  501  0.00000000000E+00  0.00000000000E+00 -0.23980833242E+03  0.23981169529E+03  0.12699999809E+01 0. -1.
    10030    2    1    2    0    0  0.00000000000E+00  0.00000000000E+00  0.13311108636E+03  0.61273327660E+03  0.59809991384E+03 0.  0.
        5    1    3    3  502    0  0.19136079660E+03 -0.14353181998E+03  0.25035649318E+03  0.34629582945E+03  0.46999998093E+01 0.  1.
       -5    1    3    3    0  502 -0.19136079660E+03  0.14353181998E+03 -0.11724540683E+03  0.26643744714E+03  0.46999998093E+01 0. -1.
</event>
<event>
 5   0  0.3724066E-02  0.6009173E+03  0.7818609E-02  0.9903505E-01
        2   -1    0    0  501    0  0.00000000000E+00  0.00000000000E+00  0.68353246401E+03  0.68353246402E+03  0.25500000920E-02 0. -1.
       -2   -1    0    0    0  501  0.00000000000E+00  0.00000000000E+00 -0.13207186530E+03  0.13207186532E+03  0.25500000920E-02 0.  1.
    10030    2    1    2    0    0  0.00000000000E+00  0.00000000000E+00  0.55146059871E+03  0.81560432934E+03  0.60091732386E+03 0.  0.
        4    1    3    3  502    0 -0.97105950996E+02 -0.77798421204E+02 -0.95455463672E+02  0.15682958428E+03  0.12699999809E+01 0.  1.
       -4    1    3    3    0  502  0.97105950996E+02  0.77798421204E+02  0.64691606239E+03  0.65877474506E+03  0.12699999809E+01 0. -1.
</event>
<event>
 5   0  0.2309055E-02  0.5991695E+03  0.7818609E-02  0.9907131E-01
        1   -1    0    0  501    0  0.00000000000E+00  0.00000000000E+00  0.42100377179E+03  0.42100377182E+03  0.50400001928E-02 0.  1.
       -1   -1    0    0    0  501  0.00000000000E+00  0.00000000000E+00 -0.21318343691E+03  0.21318343697E+03  0.50400001928E-02 0. -1.
    10030    2    1    2    0    0  0.00000000000E+00  0.00000000000E+00  0.20782033488E+03  0.63418720879E+03  0.59916952877E+03 0.  0.
        4    1    3    3  502    0  0.11430441350E+03 -0.14498752529E+03 -0.14580749259E+03  0.23526223503E+03  0.12699999809E+01 0. -1.
       -4    1    3    3    0  502 -0.11430441350E+03  0.14498752529E+03  0.35362782746E+03  0.39892497376E+03  0.12699999809E+01 0.  1.
</event>
<event>
 5   0  0.3934634E-02  0.6033318E+03  0.7818609E-02  0.9898518E-01
       -2   -1    0    0    0  501  0.00000000000E+00  0.00000000000E+00  0.10109145759E+03  0.10109145763E+03  0.25500000920E-02 0.  1.
        2   -1    0    0  501    0  0.00000000000E+00  0.00000000000E+00 -0.90019773753E+03  0.90019773753E+03  0.25500000920E-02 0. -1.
    10030    2    1    2    0    0  0.00000000000E+00  0.00000000000E+00 -0.79910627993E+03  0.10012891952E+04  0.60333175427E+03 0.  0.
        1    1    3    3  502    0 -0.27071568539E+02  0.27810031443E+03 -0.21084237497E+03  0.35003880044E+03  0.50400001928E-02 0.  1.
       -1    1    3    3    0  502  0.27071568539E+02 -0.27810031443E+03 -0.58826390497E+03  0.65125039472E+03  0.50400001928E-02 0. -1.
</event>
<event>
 5   0  0.2309055E-02  0.6065437E+03  0.7818609E-02  0.9891922E-01
        1   -1    0    0  501    0  0.00000000000E+00  0.00000000000E+00  0.50269724801E+03  0.50269724803E+03  0.50400001928E-02 0. -1.
       -1   -1    0    0    0  501  0.00000000000E+00  0.00000000000E+00 -0.18296063073E+03  0.18296063080E+03  0.50400001928E-02 0.  1.
    10030    2    1    2    0    0  0.00000000000E+00  0.00000000000E+00  0.31973661728E+03  0.68565787883E+03  0.60654366897E+03 0.  0.
        4    1    3    3  502    0 -0.23795972968E+03  0.10694980916E+03 -0.14925881552E+02  0.26131875071E+03  0.12699999809E+01 0.  1.
       -4    1    3    3    0  502  0.23795972968E+03 -0.10694980916E+03  0.33466249883E+03  0.42433912812E+03  0.12699999809E+01 0. -1.
</event>
<event>
 5   0  0.2276105E-02  0.6003873E+03  0.7818609E-02  0.9904603E-01
        1   -1    0    0  501    0  0.00000000000E+00  0.00000000000E+00  0.10584166385E+04  0.10584166385E+04  0.50400001928E-02 0.  1.
       -1   -1    0    0    0  501  0.00000000000E+00  0.00000000000E+00 -0.85142488769E+02  0.85142488918E+02  0.50400001928E-02 0. -1.
    10030    2    1    2    0    0  0.00000000000E+00  0.00000000000E+00  0.97327414971E+03  0.11435591274E+04  0.60038729782E+03 0.  0.
        1    1    3    3  502    0  0.76670713721E+02  0.28904018956E+03  0.43647438404E+03  0.52908649338E+03  0.50400001928E-02 0.  1.
       -1    1    3    3    0  502 -0.76670713721E+02 -0.28904018956E+03  0.53679976567E+03  0.61447263403E+03  0.50400001928E-02 0. -1.
</event>
<event>
 5   0  0.3737642E-02  0.5984259E+03  0.7818609E-02  0.9908677E-01
        2   -1    0    0  501    0  0.00000000000E+00  0.00000000000E+00  0.99071443477E+03  0.99071443478E+03  0.25500000920E-02 0. -1.
       -2   -1    0    0    0  501  0.00000000000E+00  0.00000000000E+00 -0.90367496623E+02  0.90367496659E+02  0.25500000920E-02 0.  1.
    10030    2    1    2    0    0  0.00000000000E+00  0.00000000000E+00  0.90034693815E+03  0.10810819314E+04  0.59842587966E+03 0.  0.
        5    1    3    3  502    0 -0.28450697064E+03  0.91604279365E+02  0.42656830601E+03  0.52088210761E+03  0.46999998093E+01 0.  1.
       -5    1    3    3    0  502  0.28450697064E+03 -0.91604279365E+02  0.47377863214E+03  0.56019982382E+03  0.46999998093E+01 0. -1.
</event>
<event>
 5   0  0.2382531E-02  0.6084273E+03  0.7818609E-02  0.9888075E-01
       -1   -1    0    0    0  501  0.00000000000E+00  0.00000000000E+00  0.70870130820E+02  0.70870130999E+02  0.50400001928E-02 0. -1.
        1   -1    0    0  501    0  0.00000000000E+00  0.00000000000E+00 -0.13058524259E+04  0.13058524259E+04  0.50400001928E-02 0.  1.
    10030    2    1    2    0    0  0.00000000000E+00  0.00000000000E+00 -0.12349822951E+04  0.13767225569E+04  0.60842725904E+03 0.  0.
        5    1    3    3  502    0 -0.16433806921E+03 -0.14228257531E+03 -0.13603686699E+03  0.25647505026E+03  0.46999998093E+01 0. -1.
       -5    1    3    3    0  502  0.16433806921E+03  0.14228257531E+03 -0.10989454281E+04  0.11202475066E+04  0.46999998093E+01 0.  1.
</event>
<event>
 5   0  0.3832191E-02  0.5983280E+03  0.7818609E-02  0.9908881E-01
       -2   -1    0    0    0  501  0.00000000000E+00  0.00000000000E+00  0.14469304603E+03  0.14469304605E+03  0.25500000920E-02 0.  1.
        2   -1    0    0  501    0  0.00000000000E+00  0.00000000000E+00 -0.61854465133E+03  0.61854465133E+03  0.25500000920E-02 0. -1.
    10030    2    1    2    0    0  0.00000000000E+00  0.00000000000E+00 -0.47385160530E+03  0.76323769738E+03  0.59832803616E+03 0.  0.
        3    1    3    3  502    0  0.27188306963E+03 -0.11658588581E+03 -0.29377924761E+03  0.41691597337E+03  0.10100000352E+00 0. -1.
       -3    1    3    3    0  502 -0.27188306963E+03  0.11658588581E+03 -0.18007235769E+03  0.34632172402E+03  0.10100000352E+00 0.  1.
</event>
<event>
 5   0  0.3724066E-02  0.5988223E+03  0.7818609E-02  0.9907852E-01
        2   -1    0    0  501    0  0.00000000000E+00  0.00000000000E+00  0.87776471630E+02  0.87776471667E+02  0.25500000920E-02 0.  1.
       -2   -1    0    0    0  501  0.00000000000E+00  0.00000000000E+00 -0.10213104734E+04  0.10213104734E+04  0.25500000920E-02 0. -1.
    10030    2    1    2    0    0  0.00000000000E+00  0.00000000000E+00 -0.93353400178E+03  0.11090869451E+04  0.59882227686E+03 0.  0.
        4    1    3    3  502    0  0.23428861226E+03 -0.18628853582E+03 -0.45356044265E+03  0.54342732766E+03  0.12699999809E+01 0.  1.
       -4    1    3    3    0  502 -0.23428861226E+03  0.18628853582E+03 -0.47997355913E+03  0.56565961742E+03  0.12699999809E+01 0. -1.
</event>
<event>
 5   0  0.3832191E-02  0.6035080E+03  0.7818609E-02  0.9898155E-01
       -2   -1    0    0    0  501  0.00000000000E+00  0.00000000000E+00  0.62460684850E+02  0.62460684902E+02  0.25500000920E-02 0. -1.
        2   -1    0    0  501    0  0.00000000000E+00  0.00000000000E+00 -0.14578044926E+04  0.14578044926E+04  0.25500000920E-02 0.  1.
    10030    2    1    2    0    0  0.00000000000E+00  0.00000000000E+00 -0.13953438078E+04  0.15202651775E+04  0.60350796855E+03 0.  0.
        3    1    3    3  502    0 -0.30019392102E+03  0.36363565377E+01 -0.77432066422E+03  0.83048306096E+03  0.10100000352E+00 0.  1.
       -3    1    3    3    0  502  0.30019392102E+03 -0.36363565377E+01 -0.62102314354E+03  0.68978211656E+03  0.10100000352E+00 0. -1.
</event>
<event>
 5   0  0.3934634E-02  0.6021838E+03  0.7818609E-02  0.9900886E-01
       -2   -1    0    0    0  501  0.00000000000E+00  0.00000000000E+00  0.96449897521E+02  0.96449897555E+02  0.25500000920E-02 0.  1.
        2   -1    0    0  501    0  0.00000000000E+00  0.00000000000E+00 -0.93993192289E+03  0.93993192289E+03  0.25500000920E-02 0. -1.
    10030    2    1    2    0    0  0.00000000000E+00  0.00000000000E+00 -0.84348202537E+03  0.10363818204E+04  0.60218381798E+03 0.  0.
        1    1    3    3  502    0  0.23948789785E+02 -0.15151354577E+03 -0.86764104965E+03  0.88109641365E+03  0.50400001928E-02 0. -1.
       -1    1    3    3    0  502 -0.23948789785E+02  0.15151354577E+03  0.24159024285E+02  0.15528540679E+03  0.50400001928E-02 0.  1.
</event>
<event>
 5   0  0.1521750E-02  0.5638118E+03  0.7818609E-02  0.9983467E-01
        4   -1    0    0  501    0  0.00000000000E+00  0.00000000000E+00  0.14958686746E+04  0.14958692138E+04  0.12699999809E+01 0.  1.
       -4   -1    0    0    0  501  0.00000000000E+00  0.00000000000E+00 -0.53118803723E+02  0.53133983559E+02  0.12699999809E+01 0. -1.
    10030    2    1    2    0    0  0.00000000000E+00  0.00000000000E+00  0.14427498709E+04  0.15490031973E+04  0.56381177291E+03 0.  0.
        5    1    3    3  502    0  0.14044269584E+03  0.21339187687E+03  0.10486311244E+04  0.10793097651E+04  0.46999998093E+01 0.  1.
       -5    1    3    3    0  502 -0.14044269584E+03 -0.21339187687E+03  0.39411874648E+03  0.46969343220E+03  0.46999998093E+01 0. -1.
</event>
<event>
 5   0  0.2309055E-02  0.6038064E+03  0.7818609E-02  0.9897540E-01
        1   -1    0    0  501    0  0.00000000000E+00  0.00000000000E+00  0.31012876825E+03  0.31012876830E+03  0.50400001928E-02 0.  1.
       -1   -1    0    0    0  501  0.00000000000E+00  0.00000000000E+00 -0.29389583390E+03  0.29389583394E+03  0.50400001928E-02 0. -1.
    10030    2    1    2    0    0  0.00000000000E+00  0.00000000000E+00  0.16232934354E+02  0.60402460224E+03  0.60380643583E+03 0.  0.
        4    1    3    3  502    0  0.29000850297E+03  0.18671536284E+02  0.89940776636E+02  0.30421129871E+03  0.12699999809E+01 0.  1.
       -4    1    3    3    0  502 -0.29000850297E+03 -0.18671536284E+02 -0.73707842283E+02  0.29981330353E+03  0.12699999809E+01 0. -1.
</event>
<event>
 5   0  0.3737642E-02  0.6037194E+03  0.7818609E-02  0.9897719E-01
        2   -1    0    0  501    0  0.00000000000E+00  0.00000000000E+00  0.11664614812E+04  0.11664614812E+04  0.25500000920E-02 0.  1.
       -2   -1    0    0    0  501  0.00000000000E+00  0.00000000000E+00 -0.78115976087E+02  0.78115976128E+02  0.25500000920E-02 0. -1.
    10030    2    1    2    0    0  0.00000000000E+00  0.00000000000E+00  0.10883455051E+04  0.12445774574E+04  0.60371939575E+03 0.  0.
        5    1    3    3  502    0 -0.10721309256E+03 -0.76127811869E+02  0.11042344360E+04  0.11120458042E+04  0.46999998093E+01 0.  1.
       -5    1    3    3    0  502  0.10721309256E+03  0.76127811869E+02 -0.15888930912E+02  0.13253165312E+03  0.46999998093E+01 0. -1.
</event>
<event>
 5   0  0.2276105E-02  0.5788741E+03  0.7818609E-02  0.9950232E-01
       -1   -1    0    0    0  501  0.00000000000E+00  0.00000000000E+00  0.61766065478E+02  0.61766065683E+02  0.50400001928E-02 0. -1.
        1   -1    0    0  501    0  0.00000000000E+00  0.00000000000E+00 -0.13563077240E+04  0.13563077240E+04  0.50400001928E-02 0.  1.
    10030    2    1    2    0    0  0.00000000000E+00  0.00000000000E+00 -0.12945416585E+04  0.14180737897E+04  0.57887405138E+03 0.  0.
        1    1    3    3  502    0  0.12774180678E+03 -0.15305626500E+03 -0.11612992470E+04  0.11782869474E+04  0.50400001928E-02 0.  1.
       -1    1    3    3    0  502 -0.12774180678E+03  0.15305626500E+03 -0.13324241153E+03  0.23978684224E+03  0.50400001928E-02 0. -1.
</event>
<event>
 5   0  0.1521750E-02  0.6002184E+03  0.7818609E-02  0.9904953E-01
        3   -1    0    0  501    0  0.00000000000E+00  0.00000000000E+00  0.12515733094E+03  0.12515737169E+03  0.10100000352E+00 0.  1.
       -3   -1    0    0    0  501  0.00000000000E+00  0.00000000000E+00 -0.71961832133E+03  0.71961832842E+03  0.10100000352E+00 0. -1.
    10030    2    1    2    0    0  0.00000000000E+00  0.00000000000E+00 -0.59446099039E+03  0.84477570011E+03  0.60021838892E+03 0.  0.
        3    1    3    3  502    0  0.21259440538E+02 -0.43302790856E+02 -0.71412582299E+03  0.71575330720E+03  0.10100000352E+00 0. -1.
       -3    1    3    3    0  502 -0.21259440538E+02  0.43302790856E+02  0.11966483260E+03  0.12902239291E+03  0.10100000352E+00 0.  1.
</event>
<event>
 5   0  0.2309055E-02  0.5900058E+03  0.7818609E-02  0.9926360E-01
        1   -1    0    0  501    0  0.00000000000E+00  0.00000000000E+00  0.64123592692E+03  0.64123592694E+03  0.50400001928E-02 0.  1.
       -1   -1    0    0    0  501  0.00000000000E+00  0.00000000000E+00 -0.13571715731E+03  0.13571715741E+03  0.50400001928E-02 0. -1.
    10030    2    1    2    0    0  0.00000000000E+00  0.00000000000E+00  0.50551876961E+03  0.77695308435E+03  0.59000582103E+03 0.  0.
        4    1    3    3  502    0 -0.37077331528E+02 -0.25310579431E+03  0.59276292224E+02  0.26258820108E+03  0.12699999809E+01 0. -1.
       -4    1    3    3    0  502  0.37077331528E+02  0.25310579431E+03  0.44624247738E+03  0.51436488327E+03  0.12699999809E+01 0.  1.
</event>
<event>
 5   0  0.2382531E-02  0.5996651E+03  0.7818609E-02  0.9906101E-01
        1   -1    0    0  501    0  0.00000000000E+00  0.00000000000E+00  0.94824472479E+02  0.94824472613E+02  0.50400001928E-02 0.  1.
       -1   -1    0    0    0  501  0.00000000000E+00  0.00000000000E+00 -0.94806293957E+03  0.94806293958E+03  0.50400001928E-02 0. -1.
    10030    2    1    2    0    0  0.00000000000E+00  0.00000000000E+00 -0.85323846709E+03  0.10428874122E+04  0.59966513388E+03 0.  0.
        5    1    3    3  502    0 -0.18989098222E+03 -0.16964569208E+03 -0.15142512571E+03  0.29629361226E+03  0.46999998093E+01 0.  1.
       -5    1    3    3    0  502  0.18989098222E+03  0.16964569208E+03 -0.70181334138E+03  0.74659379994E+03  0.46999998093E+01 0. -1.
</event>
<event>
 5   0  0.3724066E-02  0.5990672E+03  0.7818609E-02  0.9907343E-01
       -2   -1    0    0    0  501  0.00000000000E+00  0.00000000000E+00  0.28775747863E+03  0.28775747864E+03  0.25500000920E-02 0. -1.
        2   -1    0    0  501    0  0.00000000000E+00  0.00000000000E+00 -0.31179162981E+03  0.31179162982E+03  0.25500000920E-02 0.  1.
    10030    2    1    2    0    0  0.00000000000E+00  0.00000000000E+00 -0.24034151183E+02  0.59954910847E+03  0.59906718575E+03 0.  0.
        4    1    3    3  502    0 -0.89731120798E+02 -0.98156410380E+02  0.25658736541E+03  0.28900699633E+03  0.12699999809E+01 0. -1.
       -4    1    3    3    0  502  0.89731120798E+02  0.98156410380E+02 -0.28062151659E+03  0.31054211214E+03  0.12699999809E+01 0.  1.
</event>
<event>
 5   0  0.2276105E-02  0.5988390E+03  0.7818609E-02  0.9907818E-01
        1   -1    0    0  501    0  0.00000000000E+00  0.00000000000E+00  0.61988601391E+03  0.61988601393E+03  0.50400001928E-02 0.  1.
       -1   -1    0    0    0  501  0.00000000000E+00  0.00000000000E+00 -0.14462666129E+03  0.14462666137E+03  0.50400001928E-02 0. -1.
    10030    2    1    2    0    0  0.00000000000E+00  0.00000000000E+00  0.47525935262E+03  0.76451267530E+03  0.59883902548E+03 0.  0.
        1    1    3    3  502    0  0.52974523582E+02 -0.10910834717E+03  0.58711960469E+03  0.59951677358E+03  0.50400001928E-02 0.  1.
       -1    1    3    3    0  502 -0.52974523582E+02  0.10910834717E+03 -0.11186025206E+03  0.16499590173E+03  0.50400001928E-02 0. -1.
</event>
<event>
 5   0  0.3798925E-02  0.5997809E+03  0.7818609E-02  0.9905861E-01
       -2   -1    0    0    0  501  0.00000000000E+00  0.00000000000E+00  0.18508456339E+03  0.18508456341E+03  0.25500000920E-02 0. -1.
        2   -1    0    0  501    0  0.00000000000E+00  0.00000000000E+00 -0.48590911252E+03  0.48590911253E+03  0.25500000920E-02 0.  1.
    10030    2    1    2    0    0  0.00000000000E+00  0.00000000000E+00 -0.30082454913E+03  0.67099367593E+03  0.59978087981E+03 0.  0.
        2    1    3    3  502    0  0.74669631875E+02  0.14640777389E+02 -0.47492993830E+03  0.48098685282E+03  0.25500000920E-02 0.  1.
       -2    1    3    3    0  502 -0.74669631875E+02 -0.14640777389E+02  0.17410538917E+03  0.19000682311E+03  0.25500000920E-02 0. -1.
</event>
<event>
 5   0  0.3737642E-02  0.6011001E+03  0.7818609E-02  0.9903126E-01
       -2   -1    0    0    0  501  0.00000000000E+00  0.00000000000E+00  0.46713355976E+02  0.46713356045E+02  0.25500000920E-02 0. -1.
        2   -1    0    0  501    0  0.00000000000E+00  0.00000000000E+00 -0.19337154445E+04  0.19337154445E+04  0.25500000920E-02 0.  1.
    10030    2    1    2    0    0  0.00000000000E+00  0.00000000000E+00 -0.18870020885E+04  0.19804288005E+04  0.60110011807E+03 0.  0.
        5    1    3    3  502    0  0.29387134851E+03 -0.28925831269E+02 -0.11272710489E+04  0.11653150565E+04  0.46999998093E+01 0.  1.
       -5    1    3    3    0  502 -0.29387134851E+03  0.28925831269E+02 -0.75973103965E+03  0.81511374408E+03  0.46999998093E+01 0. -1.
</event>
<event>
 5   0  0.2295179E-02  0.6065335E+03  0.7818609E-02  0.9891943E-01
        1   -1    0    0  501    0  0.00000000000E+00  0.00000000000E+00  0.82775066318E+03  0.82775066320E+03  0.50400001928E-02 0.  1.
       -1   -1    0    0    0  501  0.00000000000E+00  0.00000000000E+00 -0.11110922243E+03  0.11110922255E+03  0.50400001928E-02 0. -1.
    10030    2    1    2    0    0  0.00000000000E+00  0.00000000000E+00  0.71664144075E+03  0.93885988575E+03  0.60653353614E+03 0.  0.
        3    1    3    3  502    0  0.19292959604E+03 -0.22723418477E+03  0.44469246681E+03  0.53535838837E+03  0.10100000352E+00 0. -1.
       -3    1    3    3    0  502 -0.19292959604E+03  0.22723418477E+03  0.27194897394E+03  0.40350149738E+03  0.10100000352E+00 0.  1.
</event>
<event>
 5   0  0.1521750E-02  0.5993414E+03  0.7818609E-02  0.9906773E-01
        3   -1    0    0  501    0  0.00000000000E+00  0.00000000000E+00  0.57224141468E+03  0.57224142359E+03  0.10100000352E+00 0.  1.
       -3   -1    0    0    0  501  0.00000000000E+00  0.00000000000E+00 -0.15693115566E+03  0.15693118817E+03  0.10100000352E+00 0. -1.
    10030    2    1    2    0    0  0.00000000000E+00  0.00000000000E+00  0.41531025901E+03  0.72917261176E+03  0.59934137726E+03 0.  0.
        2    1    3    3  502    0 -0.23759070804E+03  0.43298211287E+02 -0.82001626282E+01  0.24164296456E+03  0.25500000920E-02 0. -1.
       -2    1    3    3    0  502  0.23759070804E+03 -0.43298211287E+02  0.42351042164E+03  0.48752964719E+03  0.25500000920E-02 0.  1.
</event>
<event>
 5   0  0.2382531E-02  0.6054985E+03  0.7818609E-02  0.9894064E-01
        1   -1    0    0  501    0  0.00000000000E+00  0.00000000000E+00  0.20470154467E+03  0.20470154474E+03  0.50400001928E-02 0. -1.
       -1   -1    0    0    0  501  0.00000000000E+00  0.00000000000E+00 -0.44775967527E+03  0.44775967530E+03  0.50400001928E-02 0.  1.
    10030    2    1    2    0    0  0.00000000000E+00  0.00000000000E+00 -0.24305813060E+03  0.65246122004E+03  0.60549846309E+03 0.  0.
        5    1    3    3  502    0 -0.18953476792E+03 -0.22817019245E+03 -0.56428515860E+02  0.30197902638E+03  0.46999998093E+01 0. -1.
       -5    1    3    3    0  502  0.18953476792E+03  0.22817019245E+03 -0.18662961474E+03  0.35048219366E+03  0.46999998093E+01 0.  1.
</event>
<event>
 5   0  0.3798925E-02  0.6004199E+03  0.7818609E-02  0.9904535E-01
        2   -1    0    0  501    0  0.00000000000E+00  0.00000000000E+00  0.18210925069E+03  0.18210925071E+03  0.25500000920E-02 0.  1.
       -2   -1    0    0    0  501  0.00000000000E+00  0.00000000000E+00 -0.49490073403E+03  0.49490073404E+03  0.25500000920E-02 0. -1.
    10030    2    1    2    0    0  0.00000000000E+00  0.00000000000E+00 -0.31279148334E+03  0.67700998475E+03  0.60041985927E+03 0.  0.
        2    1    3    3  502    0 -0.12911815864E+03 -0.27088466197E+03 -0.16622577544E+03  0.34304665485E+03  0.25500000920E-02 0. -1.
       -2    1    3    3    0  502  0.12911815864E+03  0.27088466197E+03 -0.14656570790E+03  0.33396332990E+03  0.25500000920E-02 0.  1.
</event>
<event>
 5   0  0.2309055E-02  0.6005816E+03  0.7818609E-02  0.9904200E-01
        1   -1    0    0  501    0  0.00000000000E+00  0.00000000000E+00  0.15035921365E+03  0.15035921373E+03  0.50400001928E-02 0. -1.
       -1   -1    0    0    0  501  0.00000000000E+00  0.00000000000E+00 -0.59972754494E+03  0.59972754496E+03  0.50400001928E-02 0.  1.
    10030    2    1    2    0    0  0.00000000000E+00  0.00000000000E+00 -0.44936833129E+03  0.75008675870E+03  0.60058159180E+03 0.  0.
        4    1    3    3  502    0  0.12905744377E+03  0.23734767387E+02 -0.56202071670E+03  0.57713781879E+03  0.12699999809E+01 0.  1.
       -4    1    3    3    0  502 -0.12905744377E+03 -0.23734767387E+02  0.11265238541E+03  0.17294893991E+03  0.12699999809E+01 0. -1.
</event>
<event>
 5   0  0.3832191E-02  0.5862195E+03  0.7818609E-02  0.9934416E-01
        2   -1    0    0  501    0  0.00000000000E+00  0.00000000000E+00  0.22425254101E+04  0.22425254101E+04  0.25500000920E-02 0. -1.
       -2   -1    0    0    0  501  0.00000000000E+00  0.00000000000E+00 -0.38310967009E+02  0.38310967094E+02  0.25500000920E-02 0.  1.
    10030    2    1    2    0    0  0.00000000000E+00  0.00000000000E+00  0.22042144430E+04  0.22808363771E+04  0.58621947119E+03 0.  0.
        3    1    3    3  502    0  0.13407467681E+03  0.25742258975E+03  0.94306629754E+03  0.98672005171E+03  0.10100000352E+00 0.  1.
       -3    1    3    3    0  502 -0.13407467681E+03 -0.25742258975E+03  0.12611481455E+04  0.12941163254E+04  0.10100000352E+00 0. -1.
</event>
<event>
 5   0  0.3737642E-02  0.6025381E+03  0.7818609E-02  0.9900154E-01
       -2   -1    0    0    0  501  0.00000000000E+00  0.00000000000E+00  0.76750594398E+02  0.76750594440E+02  0.25500000920E-02 0. -1.
        2   -1    0    0  501    0  0.00000000000E+00  0.00000000000E+00 -0.11825710762E+04  0.11825710762E+04  0.25500000920E-02 0.  1.
    10030    2    1    2    0    0  0.00000000000E+00  0.00000000000E+00 -0.11058204818E+04  0.12593216706E+04  0.60253807528E+03 0.  0.
        5    1    3    3  502    0 -0.71967980085E+02 -0.27854594677E+03 -0.36627985400E+03  0.46577919239E+03  0.46999998093E+01 0. -1.
       -5    1    3    3    0  502  0.71967980085E+02  0.27854594677E+03 -0.73954062777E+03  0.79354247822E+03  0.46999998093E+01 0.  1.
</event>
<event>
 5   0  0.3934634E-02  0.6016254E+03  0.7818609E-02  0.9902040E-01
        2   -1    0    0  501    0  0.00000000000E+00  0.00000000000E+00  0.85020142660E+03  0.85020142660E+03  0.25500000920E-02 0.  1.
       -2   -1    0    0    0  501  0.00000000000E+00  0.00000000000E+00 -0.10643156585E+03  0.10643156588E+03  0.25500000920E-02 0. -1.
    10030    2    1    2    0    0  0.00000000000E+00  0.00000000000E+00  0.74376986075E+03  0.95663299248E+03  0.60162536229E+03 0.  0.
        1    1    3    3  502    0 -0.61330834006E+02  0.24091454383E+03  0.64120060919E+03  0.68770597633E+03  0.50400001928E-02 0. -1.
       -1    1    3    3    0  502  0.61330834006E+02 -0.24091454383E+03  0.10256925156E+03  0.26892701615E+03  0.50400001928E-02 0.  1.
</event>
<event>
 5   0  0.2309055E-02  0.5986943E+03  0.7818609E-02  0.9908119E-01
        1   -1    0    0  501    0  0.00000000000E+00  0.00000000000E+00  0.12358626487E+04  0.12358626487E+04  0.50400001928E-02 0. -1.
       -1   -1    0    0    0  501  0.00000000000E+00  0.00000000000E+00 -0.72507026450E+02  0.72507026625E+02  0.50400001928E-02 0.  1.
    10030    2    1    2    0    0  0.00000000000E+00  0.00000000000E+00  0.11633556222E+04  0.13083696753E+04  0.59869433229E+03 0.  0.
        4    1    3    3  502    0 -0.19641959871E+03  0.16104126891E+03  0.92785175907E+03  0.96199035794E+03  0.12699999809E+01 0. -1.
       -4    1    3    3    0  502  0.19641959871E+03 -0.16104126891E+03  0.23550386316E+03  0.34637931738E+03  0.12699999809E+01 0.  1.
</event>
<event>
 5   0  0.3934634E-02  0.5940600E+03  0.7818609E-02  0.9917807E-01
        2   -1    0    0  501    0  0.00000000000E+00  0.00000000000E+00  0.64926917049E+03  0.64926917050E+03  0.25500000920E-02 0.  1.
       -2   -1    0    0    0  501  0.00000000000E+00  0.00000000000E+00 -0.13588635165E+03  0.13588635168E+03  0.25500000920E-02 0. -1.
    10030    2    1    2    0    0  0.00000000000E+00  0.00000000000E+00  0.51338281884E+03  0.78515552218E+03  0.59405999303E+03 0.  0.
        1    1    3    3  502    0  0.42809273791E+02  0.28291552168E+03  0.36203656145E+03  0.46145888027E+03  0.50400001928E-02 0.  1.
       -1    1    3    3    0  502 -0.42809273791E+02 -0.28291552168E+03  0.15134625739E+03  0.32369664191E+03  0.50400001928E-02 0. -1.
</event>
<event>
 5   0  0.2309055E-02  0.5999485E+03  0.7818609E-02  0.9905513E-01
       -1   -1    0    0    0  501  0.00000000000E+00  0.00000000000E+00  0.12199277340E+03  0.12199277350E+03  0.50400001928E-02 0. -1.
        1   -1    0    0  501    0  0.00000000000E+00  0.00000000000E+00 -0.73762203793E+03  0.73762203795E+03  0.50400001928E-02 0.  1.
    10030    2    1    2    0    0  0.00000000000E+00  0.00000000000E+00 -0.61562926453E+03  0.85961481145E+03  0.59994852505E+03 0.  0.
        4    1    3    3  502    0  0.20331923910E+03  0.59372706192E+01 -0.62371356520E+03  0.65604434948E+03  0.12699999809E+01 0.  1.
       -4    1    3    3    0  502 -0.20331923910E+03 -0.59372706192E+01  0.80843006664E+01  0.20357046197E+03  0.12699999809E+01 0. -1.
</event>
<event>
 5   0  0.3724066E-02  0.6003940E+03  0.7818609E-02  0.9904589E-01
        2   -1    0    0  501    0  0.00000000000E+00  0.00000000000E+00  0.11928161112E+03  0.11928161115E+03  0.25500000920E-02 0. -1.
       -2   -1    0    0    0  501  0.00000000000E+00  0.00000000000E+00 -0.75550810897E+03  0.75550810898E+03  0.25500000920E-02 0.  1.
    10030    2    1    2    0    0  0.00000000000E+00  0.00000000000E+00 -0.63622649785E+03  0.87478972013E+03  0.60039395223E+03 0.  0.
        4    1    3    3  502    0 -0.25225557517E+03  0.15720323121E+03 -0.37942757865E+03  0.48198820675E+03  0.12699999809E+01 0. -1.
       -4    1    3    3    0  502  0.25225557517E+03 -0.15720323121E+03 -0.25679891920E+03  0.39280151338E+03  0.12699999809E+01 0.  1.
</event>
<event>
 5   0  0.2276105E-02  0.6003685E+03  0.7818609E-02  0.9904642E-01
       -1   -1    0    0    0  501  0.00000000000E+00  0.00000000000E+00  0.18548077555E+03  0.18548077562E+03  0.50400001928E-02 0. -1.
        1   -1    0    0  501    0  0.00000000000E+00  0.00000000000E+00 -0.48582163345E+03  0.48582163348E+03  0.50400001928E-02 0.  1.
    10030    2    1    2    0    0  0.00000000000E+00  0.00000000000E+00 -0.30034085790E+03  0.67130240910E+03  0.60036846481E+03 0.  0.
        1    1    3    3  502    0  0.10797835165E+03 -0.96694540215E+02  0.14375949564E+03  0.20414688620E+03  0.50400001928E-02 0. -1.
       -1    1    3    3    0  502 -0.10797835165E+03  0.96694540215E+02 -0.44410035354E+03  0.46715552290E+03  0.50400001928E-02 0.  1.
</event>
<event>
 5   0  0.3737642E-02  0.5963198E+03  0.7818609E-02  0.9913071E-01
        2   -1    0    0  501    0  0.00000000000E+00  0.00000000000E+00  0.58050660395E+03  0.58050660395E+03  0.25500000920E-02 0. -1.
       -2   -1    0    0    0  501  0.00000000000E+00  0.00000000000E+00 -0.15314095650E+03  0.15314095652E+03  0.25500000920E-02 0.  1.
    10030    2    1    2    0    0  0.00000000000E+00  0.00000000000E+00  0.42736564745E+03  0.73364756048E+03  0.59631983564E+03 0.  0.
        5    1    3    3  502    0  0.18274723722E+03  0.16381295503E+03  0.42191138047E+03  0.48812143972E+03  0.46999998093E+01 0. -1.
       -5    1    3    3    0  502 -0.18274723722E+03 -0.16381295503E+03  0.54542669726E+01  0.24552612075E+03  0.46999998093E+01 0.  1.
</event>
<event>
 5   0  0.3737642E-02  0.5997481E+03  0.7818609E-02  0.9905929E-01
        2   -1    0    0  501    0  0.00000000000E+00  0.00000000000E+00  0.19802238647E+03  0.19802238649E+03  0.25500000920E-02 0. -1.
       -2   -1    0    0    0  501  0.00000000000E+00  0.00000000000E+00 -0.45411247225E+03  0.45411247226E+03  0.25500000920E-02 0.  1.
    10030    2    1    2    0    0  0.00000000000E+00  0.00000000000E+00 -0.25609008578E+03  0.65213485875E+03  0.59974806540E+03 0.  0.
        5    1    3    3  502    0  0.22196352163E+02 -0.92507663275E+02 -0.43722685791E+03  0.44748157626E+03  0.46999998093E+01 0.  1.
       -5    1    3    3    0  502 -0.22196352163E+02  0.92507663275E+02  0.18113677213E+03  0.20465328248E+03  0.46999998093E+01 0. -1.
</event>
<event>
 5   0  0.3798925E-02  0.6226961E+03  0.7818609E-02  0.9859406E-01
       -2   -1    0    0    0  501  0.00000000000E+00  0.00000000000E+00  0.10954575761E+03  0.10954575764E+03  0.25500000920E-02 0. -1.
        2   -1    0    0  501    0  0.00000000000E+00  0.00000000000E+00 -0.88490519638E+03  0.88490519639E+03  0.25500000920E-02 0.  1.
    10030    2    1    2    0    0  0.00000000000E+00  0.00000000000E+00 -0.77535943877E+03  0.99445095402E+03  0.62269610619E+03 0.  0.
        2    1    3    3  502    0 -0.81488064469E+02  0.26215967671E+03 -0.15313354202E+03  0.31435311743E+03  0.25500000920E-02 0. -1.
       -2    1    3    3    0  502  0.81488064469E+02 -0.26215967671E+03 -0.62222589675E+03  0.68009783659E+03  0.25500000920E-02 0.  1.
</event>
<event>
 5   0  0.3798925E-02  0.5987905E+03  0.7818609E-02  0.9907918E-01
       -2   -1    0    0    0  501  0.00000000000E+00  0.00000000000E+00  0.17647884328E+03  0.17647884330E+03  0.25500000920E-02 0.  1.
        2   -1    0    0  501    0  0.00000000000E+00  0.00000000000E+00 -0.50792222959E+03  0.50792222960E+03  0.25500000920E-02 0. -1.
    10030    2    1    2    0    0  0.00000000000E+00  0.00000000000E+00 -0.33144338631E+03  0.68440107290E+03  0.59879053955E+03 0.  0.
        2    1    3    3  502    0  0.18360017191E+03 -0.15693926670E+03 -0.36792954068E+03  0.44012623583E+03  0.25500000920E-02 0. -1.
       -2    1    3    3    0  502 -0.18360017191E+03  0.15693926670E+03  0.36486154365E+02  0.24427483707E+03  0.25500000920E-02 0.  1.
</event>
<event>
 5   0  0.3934634E-02  0.6013259E+03  0.7818609E-02  0.9902659E-01
        2   -1    0    0  501    0  0.00000000000E+00  0.00000000000E+00  0.50230909148E+03  0.50230909148E+03  0.25500000920E-02 0.  1.
       -2   -1    0    0    0  501  0.00000000000E+00  0.00000000000E+00 -0.17996528459E+03  0.17996528461E+03  0.25500000920E-02 0. -1.
    10030    2    1    2    0    0  0.00000000000E+00  0.00000000000E+00  0.32234380689E+03  0.68227437609E+03  0.60132586376E+03 0.  0.
        1    1    3    3  502    0  0.12086745594E+03 -0.30816233580E+02 -0.14922326583E+03  0.19448949907E+03  0.50400001928E-02 0. -1.
       -1    1    3    3    0  502 -0.12086745594E+03  0.30816233580E+02  0.47156707272E+03  0.48778487702E+03  0.50400001928E-02 0.  1.
</event>
<event>
 5   0  0.2295179E-02  0.6002110E+03  0.7818609E-02  0.9904968E-01
       -1   -1    0    0    0  501  0.00000000000E+00  0.00000000000E+00  0.84428783152E+02  0.84428783302E+02  0.50400001928E-02 0. -1.
        1   -1    0    0  501    0  0.00000000000E+00  0.00000000000E+00 -0.10667369514E+04  0.10667369514E+04  0.50400001928E-02 0.  1.
    10030    2    1    2    0    0  0.00000000000E+00  0.00000000000E+00 -0.98230816826E+03  0.11511657347E+04  0.60021097239E+03 0.  0.
        3    1    3    3  502    0  0.21597391556E+03  0.80805312896E+02 -0.12278537783E+03  0.26124794737E+03  0.10100000352E+00 0. -1.
       -3    1    3    3    0  502 -0.21597391556E+03 -0.80805312896E+02 -0.85952279042E+03  0.88991778735E+03  0.10100000352E+00 0.  1.
</event>
<event>
 5   0  0.2295179E-02  0.5976717E+03  0.7818609E-02  0.9910248E-01
        1   -1    0    0  501    0  0.00000000000E+00  0.00000000000E+00  0.60624510034E+03  0.60624510036E+03  0.50400001928E-02 0. -1.
       -1   -1    0    0    0  501  0.00000000000E+00  0.00000000000E+00 -0.14730488485E+03  0.14730488494E+03  0.50400001928E-02 0.  1.
    10030    2    1    2    0    0  0.00000000000E+00  0.00000000000E+00  0.45894021549E+03  0.75354998530E+03  0.59767169830E+03 0.  0.
        3    1    3    3  502    0  0.25441469604E+03 -0.91147426098E+02  0.68658038065E+02  0.27883440828E+03  0.10100000352E+00 0.  1.
       -3    1    3    3    0  502 -0.25441469604E+03  0.91147426098E+02  0.39028217743E+03  0.47471557702E+03  0.10100000352E+00 0. -1.
</event>
<event>
 5   0  0.2382531E-02  0.6255508E+03  0.7818609E-02  0.9853770E-01
        1   -1    0    0  501    0  0.00000000000E+00  0.00000000000E+00  0.72233919043E+03  0.72233919045E+03  0.50400001928E-02 0. -1.
       -1   -1    0    0    0  501  0.00000000000E+00  0.00000000000E+00 -0.13543283549E+03  0.13543283558E+03  0.50400001928E-02 0.  1.
    10030    2    1    2    0    0  0.00000000000E+00  0.00000000000E+00  0.58690635494E+03  0.85777202603E+03  0.62555078065E+03 0.  0.
        5    1    3    3  502    0  0.29093008265E+03  0.61653782238E+02  0.16075657930E+03  0.33809210230E+03  0.46999998093E+01 0.  1.
       -5    1    3    3    0  502 -0.29093008265E+03 -0.61653782238E+02  0.42614977564E+03  0.51967992373E+03  0.46999998093E+01 0. -1.
</event>
<event>
 5   0  0.3832191E-02  0.6021082E+03  0.7818609E-02  0.9901042E-01
        2   -1    0    0  501    0  0.00000000000E+00  0.00000000000E+00  0.19950629299E+03  0.19950629301E+03  0.25500000920E-02 0.  1.
       -2   -1    0    0    0  501  0.00000000000E+00  0.00000000000E+00 -0.45428931773E+03  0.45428931773E+03  0.25500000920E-02 0. -1.
    10030    2    1    2    0    0  0.00000000000E+00  0.00000000000E+00 -0.25478302473E+03  0.65379561074E+03  0.60210822195E+03 0.  0.
        3    1    3    3  502    0  0.16852402463E+02  0.25988400504E+03 -0.29138584086E+03  0.39080611305E+03  0.10100000352E+00 0. -1.
       -3    1    3    3    0  502 -0.16852402463E+02 -0.25988400504E+03  0.36602816127E+02  0.26298949769E+03  0.10100000352E+00 0.  1.
</event>
<event>
 5   0  0.2309055E-02  0.5999235E+03  0.7818609E-02  0.9905565E-01
       -1   -1    0    0    0  501  0.00000000000E+00  0.00000000000E+00  0.30490046903E+03  0.30490046907E+03  0.50400001928E-02 0. -1.
        1   -1    0    0  501    0  0.00000000000E+00  0.00000000000E+00 -0.29510300711E+03  0.29510300715E+03  0.50400001928E-02 0.  1.
    10030    2    1    2    0    0  0.00000000000E+00  0.00000000000E+00  0.97974619240E+01  0.60000347622E+03  0.59992347947E+03 0.  0.
        4    1    3    3  502    0  0.63327911227E+02 -0.18444571512E+03  0.23284311082E+03  0.30372384385E+03  0.12699999809E+01 0. -1.
       -4    1    3    3    0  502 -0.63327911227E+02  0.18444571512E+03 -0.22304564890E+03  0.29627963237E+03  0.12699999809E+01 0.  1.
</event>
<event>
 5   0  0.3798925E-02  0.5978562E+03  0.7818609E-02  0.9909864E-01
       -2   -1    0    0    0  501  0.00000000000E+00  0.00000000000E+00  0.24627088612E+03  0.24627088613E+03  0.25500000920E-02 0. -1.
        2   -1    0    0  501    0  0.00000000000E+00  0.00000000000E+00 -0.36284434651E+03  0.36284434652E+03  0.25500000920E-02 0.  1.
    10030    2    1    2    0    0  0.00000000000E+00  0.00000000000E+00 -0.11657346039E+03  0.60911523265E+03  0.59785616580E+03 0.  0.
        2    1    3    3  502    0  0.25889802033E+03  0.14940315593E+03 -0.61258998995E+02  0.30512645395E+03  0.25500000920E-02 0.  1.
       -2    1    3    3    0  502 -0.25889802033E+03 -0.14940315593E+03 -0.55314461392E+02  0.30398877870E+03  0.25500000920E-02 0. -1.
</event>
<event>
 5   0  0.2309055E-02  0.5998081E+03  0.7818609E-02  0.9905804E-01
        1   -1    0    0  501    0  0.00000000000E+00  0.00000000000E+00  0.10143431578E+04  0.10143431578E+04  0.50400001928E-02 0. -1.
       -1   -1    0    0    0  501  0.00000000000E+00  0.00000000000E+00 -0.88670626862E+02  0.88670627006E+02  0.50400001928E-02 0.  1.
    10030    2    1    2    0    0  0.00000000000E+00  0.00000000000E+00  0.92567253091E+03  0.11030137848E+04  0.59980811512E+03 0.  0.
        4    1    3    3  502    0  0.91396596138E+02 -0.27098320280E+03  0.62890828908E+03  0.69087805216E+03  0.12699999809E+01 0. -1.
       -4    1    3    3    0  502 -0.91396596138E+02  0.27098320280E+03  0.29676424183E+03  0.41213573264E+03  0.12699999809E+01 0.  1.
</event>
<event>
 5   0  0.2276105E-02  0.6027027E+03  0.7818609E-02  0.9899815E-01
        1   -1    0    0  501    0  0.00000000000E+00  0.00000000000E+00  0.48154268341E+03  0.48154268343E+03  0.50400001928E-02 0. -1.
       -1   -1    0    0    0  501  0.00000000000E+00  0.00000000000E+00 -0.18858690803E+03  0.18858690809E+03  0.50400001928E-02 0.  1.
    10030    2    1    2    0    0  0.00000000000E+00  0.00000000000E+00  0.29295577538E+03  0.67012959153E+03  0.60270273196E+03 0.  0.
        1    1    3    3  502    0  0.20340606274E+03 -0.44207328277E+02  0.38876527125E+03  0.44098384368E+03  0.50400001928E-02 0. -1.
       -1    1    3    3    0  502 -0.20340606274E+03  0.44207328277E+02 -0.95809495868E+02  0.22914574785E+03  0.50400001928E-02 0.  1.
</event>
<event>
 5   0  0.2225808E-02  0.5986224E+03  0.7818609E-02  0.9908268E-01
       -1   -1    0    0    0  501  0.00000000000E+00  0.00000000000E+00  0.66085757026E+02  0.66085757218E+02  0.50400001928E-02 0.  1.
        1   -1    0    0  501    0  0.00000000000E+00  0.00000000000E+00 -0.13556204719E+04  0.13556204720E+04  0.50400001928E-02 0. -1.
    10030    2    1    2    0    0  0.00000000000E+00  0.00000000000E+00 -0.12895347149E+04  0.14217062292E+04  0.59862243617E+03 0.  0.
        2    1    3    3  502    0  0.24119392560E+03  0.15804312212E+03 -0.45425049749E+03  0.53804800221E+03  0.25500000920E-02 0.  1.
       -2    1    3    3    0  502 -0.24119392560E+03 -0.15804312212E+03 -0.83528421743E+03  0.88365822697E+03  0.25500000920E-02 0. -1.
</event>
<event>
 5   0  0.2295179E-02  0.5992779E+03  0.7818609E-02  0.9906905E-01
        1   -1    0    0  501    0  0.00000000000E+00  0.00000000000E+00  0.70339008653E+03  0.70339008654E+03  0.50400001928E-02 0.  1.
       -1   -1    0    0    0  501  0.00000000000E+00  0.00000000000E+00 -0.12764398429E+03  0.12764398439E+03  0.50400001928E-02 0. -1.
    10030    2    1    2    0    0  0.00000000000E+00  0.00000000000E+00  0.57574610223E+03  0.83103407094E+03  0.59927794288E+03 0.  0.
        3    1    3    3  502    0 -0.20838576277E+03 -0.39395973854E+02 -0.56638235464E+01  0.21215267610E+03  0.10100000352E+00 0. -1.
       -3    1    3    3    0  502  0.20838576277E+03  0.39395973854E+02  0.58140992578E+03  0.61888139484E+03  0.10100000352E+00 0.  1.
</event>
<event>
 5   0  0.3724066E-02  0.5973728E+03  0.7818609E-02  0.9910872E-01
        2   -1    0    0  501    0  0.00000000000E+00  0.00000000000E+00  0.90858248989E+03  0.90858248989E+03  0.25500000920E-02 0. -1.
       -2   -1    0    0    0  501  0.00000000000E+00  0.00000000000E+00 -0.98189847674E+02  0.98189847707E+02  0.25500000920E-02 0.  1.
    10030    2    1    2    0    0  0.00000000000E+00  0.00000000000E+00  0.81039264222E+03  0.10067723376E+04  0.59737283601E+03 0.  0.
        4    1    3    3  502    0  0.11792822010E+03  0.10907677225E+03  0.82957635314E+03  0.84498718684E+03  0.12699999809E+01 0. -1.
       -4    1    3    3    0  502 -0.11792822010E+03 -0.10907677225E+03 -0.19183710925E+02  0.16178515076E+03  0.12699999809E+01 0.  1.
</event>
<event>
 5   0  0.3724066E-02  0.5969890E+03  0.7818609E-02  0.9911673E-01
       -2   -1    0    0    0  501  0.00000000000E+00  0.00000000000E+00  0.83469037154E+03  0.83469037154E+03  0.25500000920E-02 0.  1.
        2   -1    0    0  501    0  0.00000000000E+00  0.00000000000E+00 -0.10674492552E+03  0.10674492555E+03  0.25500000920E-02 0. -1.
    10030    2    1    2    0    0  0.00000000000E+00  0.00000000000E+00  0.72794544602E+03  0.94143529709E+03  0.59698898334E+03 0.  0.
        4    1    3    3  502    0 -0.20749623226E+03  0.27251081200E+02  0.28332920350E+02  0.21119108671E+03  0.12699999809E+01 0. -1.
       -4    1    3    3    0  502  0.20749623226E+03 -0.27251081200E+02  0.69961252567E+03  0.73024421039E+03  0.12699999809E+01 0.  1.
</event>
<event>
 5   0  0.2225808E-02  0.6020883E+03  0.7818609E-02  0.9901083E-01
        1   -1    0    0  501    0  0.00000000000E+00  0.00000000000E+00  0.44971263894E+03  0.44971263897E+03  0.50400001928E-02 0. -1.
       -1   -1    0    0    0  501  0.00000000000E+00  0.00000000000E+00 -0.20152333737E+03  0.20152333743E+03  0.50400001928E-02 0.  1.
    10030    2    1    2    0    0  0.00000000000E+00  0.00000000000E+00  0.24818930157E+03  0.65123597640E+03  0.60208833865E+03 0.  0.
        2    1    3    3  502    0 -0.44624362286E+02  0.43706163110E+02 -0.19443722601E+03  0.20422389006E+03  0.25500000920E-02 0.  1.
       -2    1    3    3    0  502  0.44624362286E+02 -0.43706163110E+02  0.44262652759E+03  0.44701208634E+03  0.25500000920E-02 0. -1.
</event>
<event>
 5   0  0.3724066E-02  0.5995884E+03  0.7818609E-02  0.9906260E-01
       -2   -1    0    0    0  501  0.00000000000E+00  0.00000000000E+00  0.14228181796E+03  0.14228181798E+03  0.25500000920E-02 0.  1.
        2   -1    0    0  501    0  0.00000000000E+00  0.00000000000E+00 -0.63167998412E+03  0.63167998413E+03  0.25500000920E-02 0. -1.
    10030    2    1    2    0    0  0.00000000000E+00  0.00000000000E+00 -0.48939816616E+03  0.77396180211E+03  0.59958844725E+03 0.  0.
        4    1    3    3  502    0 -0.12674298370E+03 -0.15702787254E+01 -0.59538642465E+03  0.60873052925E+03  0.12699999809E+01 0. -1.
       -4    1    3    3    0  502  0.12674298370E+03  0.15702787254E+01  0.10598825848E+03  0.16523127285E+03  0.12699999809E+01 0.  1.
</event>
<event>
 5   0  0.3934634E-02  0.6019003E+03  0.7818609E-02  0.9901471E-01
       -2   -1    0    0    0  501  0.00000000000E+00  0.00000000000E+00  0.13660636418E+03  0.13660636420E+03  0.25500000920E-02 0.  1.
        2   -1    0    0  501    0  0.00000000000E+00  0.00000000000E+00 -0.66300701894E+03  0.66300701894E+03  0.25500000920E-02 0. -1.
    10030    2    1    2    0    0  0.00000000000E+00  0.00000000000E+00 -0.52640065476E+03  0.79961338314E+03  0.60190025184E+03 0.  0.
        1    1    3    3  502    0 -0.11536348121E+03 -0.10033577105E+03 -0.60756923976E+03  0.62651127754E+03  0.50400001928E-02 0. -1.
       -1    1    3    3    0  502  0.11536348121E+03  0.10033577105E+03  0.81168585000E+02  0.17310210561E+03  0.50400001928E-02 0.  1.
</event>
<event>
 5   0  0.1521750E-02  0.6206988E+03  0.7818609E-02  0.9863369E-01
        3   -1    0    0  501    0  0.00000000000E+00  0.00000000000E+00  0.51824984384E+03  0.51824985368E+03  0.10100000352E+00 0.  1.
       -3   -1    0    0    0  501  0.00000000000E+00  0.00000000000E+00 -0.18584999216E+03  0.18585001960E+03  0.10100000352E+00 0. -1.
    10030    2    1    2    0    0  0.00000000000E+00  0.00000000000E+00  0.33239985168E+03  0.70409987328E+03  0.62069877571E+03 0.  0.
        1    1    3    3  502    0  0.26592293523E+03  0.11215214124E+02 -0.14858443826E+02  0.26657374568E+03  0.50400001928E-02 0. -1.
       -1    1    3    3    0  502 -0.26592293523E+03 -0.11215214124E+02  0.34725829550E+03  0.43752612760E+03  0.50400001928E-02 0.  1.
</event>
<event>
 5   0  0.3724066E-02  0.6017859E+03  0.7818609E-02  0.9901708E-01
        2   -1    0    0  501    0  0.00000000000E+00  0.00000000000E+00  0.13903117526E+04  0.13903117526E+04  0.25500000920E-02 0.  1.
       -2   -1    0    0    0  501  0.00000000000E+00  0.00000000000E+00 -0.65119624532E+02  0.65119624582E+02  0.25500000920E-02 0. -1.
    10030    2    1    2    0    0  0.00000000000E+00  0.00000000000E+00  0.13251921281E+04  0.14554313772E+04  0.60178593985E+03 0.  0.
        4    1    3    3  502    0  0.19952564128E+03 -0.10834531760E+03  0.18506371777E+03  0.29291531526E+03  0.12699999809E+01 0. -1.
       -4    1    3    3    0  502 -0.19952564128E+03  0.10834531760E+03  0.11401284103E+04  0.11625160619E+04  0.12699999809E+01 0.  1.
</event>
<event>
 5   0  0.2295179E-02  0.5995338E+03  0.7818609E-02  0.9906374E-01
       -1   -1    0    0    0  501  0.00000000000E+00  0.00000000000E+00  0.27380034134E+03  0.27380034139E+03  0.50400001928E-02 0. -1.
        1   -1    0    0  501    0  0.00000000000E+00  0.00000000000E+00 -0.32819610487E+03  0.32819610490E+03  0.50400001928E-02 0.  1.
    10030    2    1    2    0    0  0.00000000000E+00  0.00000000000E+00 -0.54395763525E+02  0.60199644629E+03  0.59953383746E+03 0.  0.
        3    1    3    3  502    0  0.20118824130E+03  0.22194257813E+03 -0.15972564041E+02  0.29998391528E+03  0.10100000352E+00 0.  1.
       -3    1    3    3    0  502 -0.20118824130E+03 -0.22194257813E+03 -0.38423199484E+02  0.30201253101E+03  0.10100000352E+00 0. -1.
</event>
<event>
 5   0  0.3737642E-02  0.6027137E+03  0.7818609E-02  0.9899792E-01
        2   -1    0    0  501    0  0.00000000000E+00  0.00000000000E+00  0.76412765675E+03  0.76412765675E+03  0.25500000920E-02 0. -1.
       -2   -1    0    0    0  501  0.00000000000E+00  0.00000000000E+00 -0.11884919781E+03  0.11884919784E+03  0.25500000920E-02 0.  1.
    10030    2    1    2    0    0  0.00000000000E+00  0.00000000000E+00  0.64527845893E+03  0.88297685459E+03  0.60271372656E+03 0.  0.
        5    1    3    3  502    0 -0.19429631685E+02 -0.15436902489E+03  0.70067381573E+03  0.71775566350E+03  0.46999998093E+01 0. -1.
       -5    1    3    3    0  502  0.19429631685E+02  0.15436902489E+03 -0.55395356801E+02  0.16522119109E+03  0.46999998093E+01 0.  1.
</event>
<event>
 5   0  0.2295179E-02  0.6053594E+03  0.7818609E-02  0.9894349E-01
        1   -1    0    0  501    0  0.00000000000E+00  0.00000000000E+00  0.26671754564E+03  0.26671754569E+03  0.50400001928E-02 0. -1.
       -1   -1    0    0    0  501  0.00000000000E+00  0.00000000000E+00 -0.34349069393E+03  0.34349069397E+03  0.50400001928E-02 0.  1.
    10030    2    1    2    0    0  0.00000000000E+00  0.00000000000E+00 -0.76773148289E+02  0.61020823966E+03  0.60535938041E+03 0.  0.
        3    1    3    3  502    0  0.26804275595E+03 -0.28076567074E+02  0.10048401790E+03  0.28763216212E+03  0.10100000352E+00 0. -1.
       -3    1    3    3    0  502 -0.26804275595E+03  0.28076567074E+02 -0.17725716619E+03  0.32257607754E+03  0.10100000352E+00 0.  1.
</event>
<event>
 5   0  0.2295179E-02  0.5932430E+03  0.7818609E-02  0.9919525E-01
       -1   -1    0    0    0  501  0.00000000000E+00  0.00000000000E+00  0.35049598126E+03  0.35049598130E+03  0.50400001928E-02 0.  1.
        1   -1    0    0  501    0  0.00000000000E+00  0.00000000000E+00 -0.25102805339E+03  0.25102805344E+03  0.50400001928E-02 0. -1.
    10030    2    1    2    0    0  0.00000000000E+00  0.00000000000E+00  0.99467927874E+02  0.60152403474E+03  0.59324303257E+03 0.  0.
        3    1    3    3  502    0 -0.13722633588E+02  0.44167244339E+02 -0.24734950927E+03  0.25163633696E+03  0.10100000352E+00 0. -1.
       -3    1    3    3    0  502  0.13722633588E+02 -0.44167244339E+02  0.34681743714E+03  0.34988769777E+03  0.10100000352E+00 0.  1.
</event>
<event>
 5   0  0.3737642E-02  0.6030581E+03  0.7818609E-02  0.9899082E-01
       -2   -1    0    0    0  501  0.00000000000E+00  0.00000000000E+00  0.21467164617E+03  0.21467164618E+03  0.25500000920E-02 0.  1.
        2   -1    0    0  501    0  0.00000000000E+00  0.00000000000E+00 -0.42352940799E+03  0.42352940800E+03  0.25500000920E-02 0. -1.
    10030    2    1    2    0    0  0.00000000000E+00  0.00000000000E+00 -0.20885776182E+03  0.63820105418E+03  0.60305805764E+03 0.  0.
        5    1    3    3  502    0  0.65095941063E+02  0.15304271032E+03 -0.37055520917E+03  0.40619306465E+03  0.46999998093E+01 0. -1.
       -5    1    3    3    0  502 -0.65095941063E+02 -0.15304271032E+03  0.16169744735E+03  0.23200798953E+03  0.46999998093E+01 0.  1.
</event>
<event>
 5   0  0.1521750E-02  0.6073559E+03  0.7818609E-02  0.9890261E-01
       -3   -1    0    0    0  501  0.00000000000E+00  0.00000000000E+00  0.13078489559E+04  0.13078489598E+04  0.10100000352E+00 0. -1.
        3   -1    0    0  501    0  0.00000000000E+00  0.00000000000E+00 -0.70512917617E+02  0.70512989951E+02  0.10100000352E+00 0.  1.
    10030    2    1    2    0    0  0.00000000000E+00  0.00000000000E+00  0.12373360382E+04  0.13783619497E+04  0.60735590297E+03 0.  0.
        5    1    3    3  502    0  0.20305615253E+03 -0.18133255606E+03  0.31347246006E+03  0.41521123562E+03  0.46999998093E+01 0.  1.
       -5    1    3    3    0  502 -0.20305615253E+03  0.18133255606E+03  0.92386357818E+03  0.96315071409E+03  0.46999998093E+01 0. -1.
</event>
<event>
 5   0  0.2276105E-02  0.5950487E+03  0.7818609E-02  0.9915732E-01
        1   -1    0    0  501    0  0.00000000000E+00  0.00000000000E+00  0.12260505246E+04  0.12260505246E+04  0.50400001928E-02 0.  1.
       -1   -1    0    0    0  501  0.00000000000E+00  0.00000000000E+00 -0.72199915218E+02  0.72199915394E+02  0.50400001928E-02 0. -1.
    10030    2    1    2    0    0  0.00000000000E+00  0.00000000000E+00  0.11538506094E+04  0.12982504400E+04  0.59504871750E+03 0.  0.
        1    1    3    3  502    0  0.14829039853E+03 -0.25952956827E+02  0.11368213593E+04  0.11467460056E+04  0.50400001928E-02 0.  1.
       -1    1    3    3    0  502 -0.14829039853E+03  0.25952956827E+02  0.17029250042E+02  0.15150443441E+03  0.50400001928E-02 0. -1.
</event>
<event>
 5   0  0.2309055E-02  0.5929754E+03  0.7818609E-02  0.9920088E-01
        1   -1    0    0  501    0  0.00000000000E+00  0.00000000000E+00  0.97282699970E+03  0.97282699971E+03  0.50400001928E-02 0. -1.
       -1   -1    0    0    0  501  0.00000000000E+00  0.00000000000E+00 -0.90360330609E+02  0.90360330749E+02  0.50400001928E-02 0.  1.
    10030    2    1    2    0    0  0.00000000000E+00  0.00000000000E+00  0.88246666909E+03  0.10631873305E+04  0.59297544435E+03 0.  0.
        4    1    3    3  502    0  0.17548588747E+03  0.79674112048E+02  0.84518955433E+03  0.86688537678E+03  0.12699999809E+01 0. -1.
       -4    1    3    3    0  502 -0.17548588747E+03 -0.79674112048E+02  0.37277114762E+02  0.19630195368E+03  0.12699999809E+01 0.  1.
</event>
<event>
 5   0  0.2382531E-02  0.5970593E+03  0.7818609E-02  0.9911526E-01
       -1   -1    0    0    0  501  0.00000000000E+00  0.00000000000E+00  0.66716057694E+02  0.66716057884E+02  0.50400001928E-02 0. -1.
        1   -1    0    0  501    0  0.00000000000E+00  0.00000000000E+00 -0.13358097200E+04  0.13358097200E+04  0.50400001928E-02 0.  1.
    10030    2    1    2    0    0  0.00000000000E+00  0.00000000000E+00 -0.12690936623E+04  0.14025257779E+04  0.59705932197E+03 0.  0.
        5    1    3    3  502    0  0.22953361377E+03  0.77374301913E+02 -0.10442898475E+04  0.10720241779E+04  0.46999998093E+01 0.  1.
       -5    1    3    3    0  502 -0.22953361377E+03 -0.77374301913E+02 -0.22480381486E+03  0.33050160003E+03  0.46999998093E+01 0. -1.
</event>
<event>
 5   0  0.1521750E-02  0.5960724E+03  0.7818609E-02  0.9913588E-01
        3   -1    0    0  501    0  0.00000000000E+00  0.00000000000E+00  0.55687616334E+02  0.55687707925E+02  0.10100000352E+00 0.  1.
       -3   -1    0    0    0  501  0.00000000000E+00  0.00000000000E+00 -0.15950672923E+04  0.15950672955E+04  0.10100000352E+00 0. -1.
    10030    2    1    2    0    0  0.00000000000E+00  0.00000000000E+00 -0.15393796759E+04  0.16507550034E+04  0.59607239035E+03 0.  0.
        3    1    3    3  502    0 -0.26243541742E+03 -0.66832770677E+02 -0.11143265982E+04  0.11467618520E+04  0.10100000352E+00 0. -1.
       -3    1    3    3    0  502  0.26243541742E+03  0.66832770677E+02 -0.42505307776E+03  0.50399315141E+03  0.10100000352E+00 0.  1.
</event>
<event>
 5   0  0.2309055E-02  0.6025058E+03  0.7818609E-02  0.9900221E-01
        1   -1    0    0  501    0  0.00000000000E+00  0.00000000000E+00  0.22868926916E+03  0.22868926921E+03  0.50400001928E-02 0.  1.
       -1   -1    0    0    0  501  0.00000000000E+00  0.00000000000E+00 -0.39684113745E+03  0.39684113749E+03  0.50400001928E-02 0. -1.
    10030    2    1    2    0    0  0.00000000000E+00  0.00000000000E+00 -0.16815186830E+03  0.62553040670E+03  0.60250579988E+03 0.  0.
        4    1    3    3  502    0 -0.13759824140E+02  0.81008301758E+02  0.21682732097E+03  0.23187793715E+03  0.12699999809E+01 0.  1.
       -4    1    3    3    0  502  0.13759824140E+02 -0.81008301758E+02 -0.38497918927E+03  0.39365246955E+03  0.12699999809E+01 0. -1.
</event>
<event>
 5   0  0.2276105E-02  0.6008181E+03  0.7818609E-02  0.9903710E-01
        1   -1    0    0  501    0  0.00000000000E+00  0.00000000000E+00  0.13808819316E+03  0.13808819325E+03  0.50400001928E-02 0. -1.
       -1   -1    0    0    0  501  0.00000000000E+00  0.00000000000E+00 -0.65353583462E+03  0.65353583464E+03  0.50400001928E-02 0.  1.
    10030    2    1    2    0    0  0.00000000000E+00  0.00000000000E+00 -0.51544764146E+03  0.79162402789E+03  0.60081805104E+03 0.  0.
        1    1    3    3  502    0  0.23165163654E+03 -0.17378996958E+03 -0.36296637596E+03  0.46433826500E+03  0.50400001928E-02 0.  1.
       -1    1    3    3    0  502 -0.23165163654E+03  0.17378996958E+03 -0.15248126550E+03  0.32728576289E+03  0.50400001928E-02 0. -1.
</event>
<event>
 5   0  0.3724066E-02  0.5983506E+03  0.7818609E-02  0.9908834E-01
       -2   -1    0    0    0  501  0.00000000000E+00  0.00000000000E+00  0.73640537320E+02  0.73640537364E+02  0.25500000920E-02 0. -1.
        2   -1    0    0  501    0  0.00000000000E+00  0.00000000000E+00 -0.12154428680E+04  0.12154428680E+04  0.25500000920E-02 0.  1.
    10030    2    1    2    0    0  0.00000000000E+00  0.00000000000E+00 -0.11418023307E+04  0.12890834054E+04  0.59835061932E+03 0.  0.
        4    1    3    3  502    0 -0.28221789999E+03 -0.99083856150E+02 -0.55732687359E+03  0.63251830847E+03  0.12699999809E+01 0. -1.
       -4    1    3    3    0  502  0.28221789999E+03  0.99083856150E+02 -0.58447545709E+03  0.65656509690E+03  0.12699999809E+01 0.  1.
</event>
<event>
 5   0  0.2309055E-02  0.5985237E+03  0.7818609E-02  0.9908474E-01
        1   -1    0    0  501    0  0.00000000000E+00  0.00000000000E+00  0.60345838147E+03  0.60345838149E+03  0.50400001928E-02 0. -1.
       -1   -1    0    0    0  501  0.00000000000E+00  0.00000000000E+00 -0.14840733896E+03  0.14840733904E+03  0.50400001928E-02 0.  1.
    10030    2    1    2    0    0  0.00000000000E+00  0.00000000000E+00  0.45505104251E+03  0.75186572053E+03  0.59852369245E+03 0.  0.
        4    1    3    3  502    0 -0.11557679097E+03 -0.24890910770E+03  0.77609163931E+02  0.28519911244E+03  0.12699999809E+01 0.  1.
       -4    1    3    3    0  502  0.11557679097E+03  0.24890910770E+03  0.37744187858E+03  0.46666660810E+03  0.12699999809E+01 0. -1.
</event>
<event>
 5   0  0.2309055E-02  0.6003571E+03  0.7818609E-02  0.9904665E-01
        1   -1    0    0  501    0  0.00000000000E+00  0.00000000000E+00  0.53030183991E+03  0.53030183994E+03  0.50400001928E-02 0.  1.
       -1   -1    0    0    0  501  0.00000000000E+00  0.00000000000E+00 -0.16991674950E+03  0.16991674957E+03  0.50400001928E-02 0. -1.
    10030    2    1    2    0    0  0.00000000000E+00  0.00000000000E+00  0.36038509042E+03  0.70021858951E+03  0.60035711014E+03 0.  0.
        4    1    3    3  502    0  0.16281027402E+03 -0.25200962239E+03  0.16915743828E+03  0.34442979971E+03  0.12699999809E+01 0. -1.
       -4    1    3    3    0  502 -0.16281027402E+03  0.25200962239E+03  0.19122765214E+03  0.35578878980E+03  0.12699999809E+01 0.  1.
</event>
<event>
 5   0  0.2295179E-02  0.6013988E+03  0.7818609E-02  0.9902508E-01
       -1   -1    0    0    0  501  0.00000000000E+00  0.00000000000E+00  0.28378118151E+03  0.28378118155E+03  0.50400001928E-02 0.  1.
        1   -1    0    0  501    0  0.00000000000E+00  0.00000000000E+00 -0.31862620721E+03  0.31862620725E+03  0.50400001928E-02 0. -1.
    10030    2    1    2    0    0  0.00000000000E+00  0.00000000000E+00 -0.34845025703E+02  0.60240738880E+03  0.60139877475E+03 0.  0.
        3    1    3    3  502    0 -0.78064896682E+02 -0.24580193874E+03  0.13745695075E+03  0.29224500799E+03  0.10100000352E+00 0.  1.
       -3    1    3    3    0  502  0.78064896682E+02  0.24580193874E+03 -0.17230197645E+03  0.31016238082E+03  0.10100000352E+00 0. -1.
</event>
<event>
 5   0  0.2295179E-02  0.5996350E+03  0.7818609E-02  0.9906164E-01
       -1   -1    0    0    0  501  0.00000000000E+00  0.00000000000E+00  0.12287975368E+03  0.12287975378E+03  0.50400001928E-02 0.  1.
        1   -1    0    0  501    0  0.00000000000E+00  0.00000000000E+00 -0.73153240328E+03  0.73153240330E+03  0.50400001928E-02 0. -1.
    10030    2    1    2    0    0  0.00000000000E+00  0.00000000000E+00 -0.60865264960E+03  0.85441215708E+03  0.59963496088E+03 0.  0.
        3    1    3    3  502    0  0.26599235733E+03  0.11441629446E+03 -0.41513353200E+03  0.50614116823E+03  0.10100000352E+00 0. -1.
       -3    1    3    3    0  502 -0.26599235733E+03 -0.11441629446E+03 -0.19351911760E+03  0.34827098885E+03  0.10100000352E+00 0.  1.
</event>
<event>
 5   0  0.1521750E-02  0.5929173E+03  0.7818609E-02  0.9920210E-01
       -3   -1    0    0    0  501  0.00000000000E+00  0.00000000000E+00  0.12325538337E+03  0.12325542475E+03  0.10100000352E+00 0.  1.
        3   -1    0    0  501    0  0.00000000000E+00  0.00000000000E+00 -0.71305374966E+03  0.71305375681E+03  0.10100000352E+00 0. -1.
    10030    2    1    2    0    0  0.00000000000E+00  0.00000000000E+00 -0.58979836628E+03  0.83630918156E+03  0.59291730814E+03 0.  0.
        1    1    3    3  502    0 -0.12585750368E+03 -0.50177380469E+02 -0.66682676932E+03  0.68045265894E+03  0.50400001928E-02 0. -1.
       -1    1    3    3    0  502  0.12585750368E+03  0.50177380469E+02  0.77028403040E+02  0.15585652263E+03  0.50400001928E-02 0.  1.
</event>
<event>
 5   0  0.3724066E-02  0.5981143E+03  0.7818609E-02  0.9909326E-01
        2   -1    0    0  501    0  0.00000000000E+00  0.00000000000E+00  0.67823308713E+03  0.67823308713E+03  0.25500000920E-02 0. -1.
       -2   -1    0    0    0  501  0.00000000000E+00  0.00000000000E+00 -0.13186498049E+03  0.13186498052E+03  0.25500000920E-02 0.  1.
    10030    2    1    2    0    0  0.00000000000E+00  0.00000000000E+00  0.54636810664E+03  0.81009806765E+03  0.59811434631E+03 0.  0.
        4    1    3    3  502    0 -0.39977382890E+02  0.51483966385E+02 -0.12212285608E+03  0.13843552584E+03  0.12699999809E+01 0.  1.
       -4    1    3    3    0  502  0.39977382890E+02 -0.51483966385E+02  0.66849096272E+03  0.67166254181E+03  0.12699999809E+01 0. -1.
</event>
<event>
 5   0  0.2225808E-02  0.6009220E+03  0.7818609E-02  0.9903495E-01
       -1   -1    0    0    0  501  0.00000000000E+00  0.00000000000E+00  0.33722626486E+02  0.33722626863E+02  0.50400001928E-02 0. -1.
        1   -1    0    0  501    0  0.00000000000E+00  0.00000000000E+00 -0.26770396034E+04  0.26770396034E+04  0.50400001928E-02 0.  1.
    10030    2    1    2    0    0  0.00000000000E+00  0.00000000000E+00 -0.26433169770E+04  0.27107622303E+04  0.60092198213E+03 0.  0.
        2    1    3    3  502    0  0.45228717578E+02  0.26435243783E+03 -0.19327117244E+04  0.19512310109E+04  0.25500000920E-02 0.  1.
       -2    1    3    3    0  502 -0.45228717578E+02 -0.26435243783E+03 -0.71060525256E+03  0.75953121940E+03  0.25500000920E-02 0. -1.
</event>
<event>
 5   0  0.2309055E-02  0.5959432E+03  0.7818609E-02  0.9913859E-01
       -1   -1    0    0    0  501  0.00000000000E+00  0.00000000000E+00  0.92252462186E+02  0.92252462324E+02  0.50400001928E-02 0. -1.
        1   -1    0    0  501    0  0.00000000000E+00  0.00000000000E+00 -0.96243574153E+03  0.96243574154E+03  0.50400001928E-02 0.  1.
    10030    2    1    2    0    0  0.00000000000E+00  0.00000000000E+00 -0.87018327934E+03  0.10546882039E+04  0.59594317491E+03 0.  0.
        4    1    3    3  502    0 -0.28839603114E+03  0.62992503867E+02 -0.36330906239E+03  0.46811901696E+03  0.12699999809E+01 0. -1.
       -4    1    3    3    0  502  0.28839603114E+03 -0.62992503867E+02 -0.50687421695E+03  0.58656918691E+03  0.12699999809E+01 0.  1.
</event>
<event>
 5   0  0.3724066E-02  0.6000174E+03  0.7818609E-02  0.9905370E-01
       -2   -1    0    0    0  501  0.00000000000E+00  0.00000000000E+00  0.16524400856E+03  0.16524400858E+03  0.25500000920E-02 0.  1.
        2   -1    0    0  501    0  0.00000000000E+00  0.00000000000E+00 -0.54468073284E+03  0.54468073285E+03  0.25500000920E-02 0. -1.
    10030    2    1    2    0    0  0.00000000000E+00  0.00000000000E+00 -0.37943672428E+03  0.70992474143E+03  0.60001742538E+03 0.  0.
        4    1    3    3  502    0 -0.86803121294E+02  0.22482978958E+03 -0.40110746814E+03  0.46794447325E+03  0.12699999809E+01 0. -1.
       -4    1    3    3    0  502  0.86803121294E+02 -0.22482978958E+03  0.21670743856E+02  0.24198026818E+03  0.12699999809E+01 0.  1.
</event>
<event>
 5   0  0.3737642E-02  0.6098297E+03  0.7818609E-02  0.9885220E-01
        2   -1    0    0  501    0  0.00000000000E+00  0.00000000000E+00  0.65212268589E+03  0.65212268590E+03  0.25500000920E-02 0.  1.
       -2   -1    0    0    0  501  0.00000000000E+00  0.00000000000E+00 -0.14256988576E+03  0.14256988578E+03  0.25500000920E-02 0. -1.
    10030    2    1    2    0    0  0.00000000000E+00  0.00000000000E+00  0.50955280013E+03  0.79469257168E+03  0.60982967077E+03 0.  0.
        5    1    3    3  502    0  0.12403951237E+03  0.27543329175E+02  0.61592811262E+03  0.62891491120E+03  0.46999998093E+01 0.  1.
       -5    1    3    3    0  502 -0.12403951237E+03 -0.27543329175E+02 -0.10637531249E+03  0.16577766048E+03  0.46999998093E+01 0. -1.
</event>
<event>
 5   0  0.2309055E-02  0.5939323E+03  0.7818609E-02  0.9918075E-01
        1   -1    0    0  501    0  0.00000000000E+00  0.00000000000E+00  0.97373280951E+03  0.97373280952E+03  0.50400001928E-02 0.  1.
       -1   -1    0    0    0  501  0.00000000000E+00  0.00000000000E+00 -0.90567867015E+02  0.90567867155E+02  0.50400001928E-02 0. -1.
    10030    2    1    2    0    0  0.00000000000E+00  0.00000000000E+00  0.88316494249E+03  0.10643006767E+04  0.59393233177E+03 0.  0.
        4    1    3    3  502    0 -0.30028787420E+02 -0.27393175568E+03  0.24327391696E+03  0.36759236447E+03  0.12699999809E+01 0. -1.
       -4    1    3    3    0  502  0.30028787420E+02  0.27393175568E+03  0.63989102553E+03  0.69670831221E+03  0.12699999809E+01 0.  1.
</event>
<event>
 5   0  0.3724066E-02  0.6001196E+03  0.7818609E-02  0.9905158E-01
       -2   -1    0    0    0  501  0.00000000000E+00  0.00000000000E+00  0.50230791359E+02  0.50230791424E+02  0.25500000920E-02 0.  1.
        2   -1    0    0  501    0  0.00000000000E+00  0.00000000000E+00 -0.17924443394E+04  0.17924443394E+04  0.25500000920E-02 0. -1.
    10030    2    1    2    0    0  0.00000000000E+00  0.00000000000E+00 -0.17422135481E+04  0.18426751308E+04  0.60011964706E+03 0.  0.
        4    1    3    3  502    0 -0.64260731665E+02  0.51745451114E+02 -0.17569231517E+04  0.17588597463E+04  0.12699999809E+01 0. -1.
       -4    1    3    3    0  502  0.64260731665E+02 -0.51745451114E+02  0.14709603634E+02  0.83815384531E+02  0.12699999809E+01 0.  1.
</event>
<event>
 5   0  0.3832191E-02  0.6034842E+03  0.7818609E-02  0.9898204E-01
        2   -1    0    0  501    0  0.00000000000E+00  0.00000000000E+00  0.19084607834E+03  0.19084607836E+03  0.25500000920E-02 0.  1.
       -2   -1    0    0    0  501  0.00000000000E+00  0.00000000000E+00 -0.47707717997E+03  0.47707717997E+03  0.25500000920E-02 0. -1.
    10030    2    1    2    0    0  0.00000000000E+00  0.00000000000E+00 -0.28623110162E+03  0.66792325833E+03  0.60348424626E+03 0.  0.
        3    1    3    3  502    0 -0.22942486118E+03 -0.42970150938E+02 -0.35475661560E+03  0.42465805928E+03  0.10100000352E+00 0. -1.
       -3    1    3    3    0  502  0.22942486118E+03  0.42970150938E+02  0.68525513978E+02  0.24326519905E+03  0.10100000352E+00 0.  1.
</event>
<event>
 5   0  0.2382531E-02  0.5973480E+03  0.7818609E-02  0.9910923E-01
        1   -1    0    0  501    0  0.00000000000E+00  0.00000000000E+00  0.10273824152E+04  0.10273824152E+04  0.50400001928E-02 0.  1.
       -1   -1    0    0    0  501  0.00000000000E+00  0.00000000000E+00 -0.86828590815E+02  0.86828590961E+02  0.50400001928E-02 0. -1.
    10030    2    1    2    0    0  0.00000000000E+00  0.00000000000E+00  0.94055382439E+03  0.11142110062E+04  0.59734803064E+03 0.  0.
        5    1    3    3  502    0  0.18469666325E+03  0.15083054093E+03  0.80561653726E+03  0.84018022150E+03  0.46999998093E+01 0.  1.
       -5    1    3    3    0  502 -0.18469666325E+03 -0.15083054093E+03  0.13493728713E+03  0.27403078467E+03  0.46999998093E+01 0. -1.
</event>
<event>
 5   0  0.3798925E-02  0.5937858E+03  0.7818609E-02  0.9918383E-01
        2   -1    0    0  501    0  0.00000000000E+00  0.00000000000E+00  0.26975246871E+03  0.26975246872E+03  0.25500000920E-02 0. -1.
       -2   -1    0    0    0  501  0.00000000000E+00  0.00000000000E+00 -0.32676397728E+03  0.32676397729E+03  0.25500000920E-02 0.  1.
    10030    2    1    2    0    0  0.00000000000E+00  0.00000000000E+00 -0.57011508570E+02  0.59651644601E+03  0.59378578481E+03 0.  0.
        2    1    3    3  502    0  0.24885319657E+02  0.25204452409E+03 -0.18413644500E+03  0.31313248258E+03  0.25500000920E-02 0.  1.
       -2    1    3    3    0  502 -0.24885319657E+02 -0.25204452409E+03  0.12712493644E+03  0.28338396343E+03  0.25500000920E-02 0. -1.
</event>
<event>
 5   0  0.2382531E-02  0.5919150E+03  0.7818609E-02  0.9922323E-01
        1   -1    0    0  501    0  0.00000000000E+00  0.00000000000E+00  0.10126365774E+04  0.10126365774E+04  0.50400001928E-02 0.  1.
       -1   -1    0    0    0  501  0.00000000000E+00  0.00000000000E+00 -0.86497793818E+02  0.86497793965E+02  0.50400001928E-02 0. -1.
    10030    2    1    2    0    0  0.00000000000E+00  0.00000000000E+00  0.92613878360E+03  0.10991343714E+04  0.59191496002E+03 0.  0.
        5    1    3    3  502    0 -0.24986027471E+02  0.35523670534E+02 -0.80478174761E+02  0.91569969684E+02  0.46999998093E+01 0. -1.
       -5    1    3    3    0  502  0.24986027471E+02 -0.35523670534E+02  0.10066169584E+04  0.10075644017E+04  0.46999998093E+01 0.  1.
</event>
<event>
 5   0  0.3798925E-02  0.6016473E+03  0.7818609E-02  0.9901994E-01
       -2   -1    0    0    0  501  0.00000000000E+00  0.00000000000E+00  0.17985297806E+03  0.17985297808E+03  0.25500000920E-02 0. -1.
        2   -1    0    0  501    0  0.00000000000E+00  0.00000000000E+00 -0.50316026554E+03  0.50316026555E+03  0.25500000920E-02 0.  1.
    10030    2    1    2    0    0  0.00000000000E+00  0.00000000000E+00 -0.32330728748E+03  0.68301324363E+03  0.60164731266E+03 0.  0.
        2    1    3    3  502    0 -0.19776260203E+03 -0.45423233665E+02  0.90465326735E+02  0.22216501134E+03  0.25500000920E-02 0. -1.
       -2    1    3    3    0  502  0.19776260203E+03  0.45423233665E+02 -0.41377261422E+03  0.46084823229E+03  0.25500000920E-02 0.  1.
</event>
<event>
 5   0  0.2295179E-02  0.5974232E+03  0.7818609E-02  0.9910766E-01
        1   -1    0    0  501    0  0.00000000000E+00  0.00000000000E+00  0.43842312925E+03  0.43842312928E+03  0.50400001928E-02 0.  1.
       -1   -1    0    0    0  501  0.00000000000E+00  0.00000000000E+00 -0.20352172502E+03  0.20352172508E+03  0.50400001928E-02 0. -1.
    10030    2    1    2    0    0  0.00000000000E+00  0.00000000000E+00  0.23490140423E+03  0.64194485437E+03  0.59742323887E+03 0.  0.
        3    1    3    3  502    0 -0.88062637379E+02  0.25833641231E+03 -0.12987203072E+02  0.27324239728E+03  0.10100000352E+00 0. -1.
       -3    1    3    3    0  502  0.88062637379E+02 -0.25833641231E+03  0.24788860731E+03  0.36870245709E+03  0.10100000352E+00 0.  1.
</event>
<event>
 5   0  0.3832191E-02  0.6078303E+03  0.7818609E-02  0.9889293E-01
       -2   -1    0    0    0  501  0.00000000000E+00  0.00000000000E+00  0.49125402696E+02  0.49125402762E+02  0.25500000920E-02 0. -1.
        2   -1    0    0  501    0  0.00000000000E+00  0.00000000000E+00 -0.18801762617E+04  0.18801762617E+04  0.25500000920E-02 0.  1.
    10030    2    1    2    0    0  0.00000000000E+00  0.00000000000E+00 -0.18310508590E+04  0.19293016645E+04  0.60783029231E+03 0.  0.
        3    1    3    3  502    0  0.13574215550E+03  0.10406402046E+03 -0.11814793527E+03  0.20788024904E+03  0.10100000352E+00 0. -1.
       -3    1    3    3    0  502 -0.13574215550E+03 -0.10406402046E+03 -0.17129029238E+04  0.17214214155E+04  0.10100000352E+00 0.  1.
</event>
<event>
 5   0  0.2225808E-02  0.5990581E+03  0.7818609E-02  0.9907362E-01
       -1   -1    0    0    0  501  0.00000000000E+00  0.00000000000E+00  0.35341422192E+03  0.35341422196E+03  0.50400001928E-02 0.  1.
        1   -1    0    0  501    0  0.00000000000E+00  0.00000000000E+00 -0.25385974688E+03  0.25385974693E+03  0.50400001928E-02 0. -1.
    10030    2    1    2    0    0  0.00000000000E+00  0.00000000000E+00  0.99554475043E+02  0.60727396889E+03  0.59905807714E+03 0.  0.
        2    1    3    3  502    0  0.88381106739E+02  0.26022079401E+03  0.17053939299E+03  0.32343433063E+03  0.25500000920E-02 0.  1.
       -2    1    3    3    0  502 -0.88381106739E+02 -0.26022079401E+03 -0.70984917950E+02  0.28383963826E+03  0.25500000920E-02 0. -1.
</event>
<event>
 5   0  0.2276105E-02  0.5991387E+03  0.7818609E-02  0.9907195E-01
        1   -1    0    0  501    0  0.00000000000E+00  0.00000000000E+00  0.94968866697E+03  0.94968866698E+03  0.50400001928E-02 0. -1.
       -1   -1    0    0    0  501  0.00000000000E+00  0.00000000000E+00 -0.94496020326E+02  0.94496020461E+02  0.50400001928E-02 0.  1.
    10030    2    1    2    0    0  0.00000000000E+00  0.00000000000E+00  0.85519264664E+03  0.10441846874E+04  0.59913871400E+03 0.  0.
        1    1    3    3  502    0  0.86511499676E+02  0.10267399311E+03 -0.39124082346E+02  0.13984592337E+03  0.50400001928E-02 0.  1.
       -1    1    3    3    0  502 -0.86511499676E+02 -0.10267399311E+03  0.89431672899E+03  0.90433876408E+03  0.50400001928E-02 0. -1.
</event>
<event>
 5   0  0.3798925E-02  0.5973676E+03  0.7818609E-02  0.9910883E-01
       -2   -1    0    0    0  501  0.00000000000E+00  0.00000000000E+00  0.29843574650E+03  0.29843574651E+03  0.25500000920E-02 0. -1.
        2   -1    0    0  501    0  0.00000000000E+00  0.00000000000E+00 -0.29893202837E+03  0.29893202838E+03  0.25500000920E-02 0.  1.
    10030    2    1    2    0    0  0.00000000000E+00  0.00000000000E+00 -0.49628186669E+00  0.59736777489E+03  0.59736756874E+03 0.  0.
        2    1    3    3  502    0 -0.85472846360E+02  0.16173840095E+02 -0.28598378593E+03  0.29892127122E+03  0.25500000920E-02 0.  1.
       -2    1    3    3    0  502  0.85472846360E+02 -0.16173840095E+02  0.28548750406E+03  0.29844650367E+03  0.25500000920E-02 0. -1.
</event>
<event>
 5   0  0.2295179E-02  0.6104119E+03  0.7818609E-02  0.9884037E-01
        1   -1    0    0  501    0  0.00000000000E+00  0.00000000000E+00  0.15643276150E+04  0.15643276150E+04  0.50400001928E-02 0. -1.
       -1   -1    0    0    0  501  0.00000000000E+00  0.00000000000E+00 -0.59546773426E+02  0.59546773639E+02  0.50400001928E-02 0.  1.
    10030    2    1    2    0    0  0.00000000000E+00  0.00000000000E+00  0.15047808416E+04  0.16238743887E+04  0.61041186829E+03 0.  0.
        3    1    3    3  502    0 -0.23526797673E+03  0.57024787782E+02  0.25792071253E+03  0.35373146799E+03  0.10100000352E+00 0.  1.
       -3    1    3    3    0  502  0.23526797673E+03 -0.57024787782E+02  0.12468601291E+04  0.12701429207E+04  0.10100000352E+00 0. -1.
</event>
<event>
 5   0  0.3724066E-02  0.6032667E+03  0.7818609E-02  0.9898652E-01
       -2   -1    0    0    0  501  0.00000000000E+00  0.00000000000E+00  0.95563417930E+02  0.95563417964E+02  0.25500000920E-02 0. -1.
        2   -1    0    0  501    0  0.00000000000E+00  0.00000000000E+00 -0.95206591310E+03  0.95206591311E+03  0.25500000920E-02 0.  1.
    10030    2    1    2    0    0  0.00000000000E+00  0.00000000000E+00 -0.85650249517E+03  0.10476293311E+04  0.60326668322E+03 0.  0.
        4    1    3    3  502    0  0.13487076610E+03  0.16716727581E+03 -0.79600774072E+03  0.82447859756E+03  0.12699999809E+01 0.  1.
       -4    1    3    3    0  502 -0.13487076610E+03 -0.16716727581E+03 -0.60494754451E+02  0.22315073351E+03  0.12699999809E+01 0. -1.
</event>
<event>
 5   0  0.3832191E-02  0.6055792E+03  0.7818609E-02  0.9893898E-01
       -2   -1    0    0    0  501  0.00000000000E+00  0.00000000000E+00  0.12826712609E+03  0.12826712611E+03  0.25500000920E-02 0. -1.
        2   -1    0    0  501    0  0.00000000000E+00  0.00000000000E+00 -0.71477037796E+03  0.71477037796E+03  0.25500000920E-02 0.  1.
    10030    2    1    2    0    0  0.00000000000E+00  0.00000000000E+00 -0.58650325187E+03  0.84303750408E+03  0.60557920112E+03 0.  0.
        3    1    3    3  502    0  0.47836598777E+02 -0.23088858557E+03 -0.55769408855E+03  0.60549201954E+03  0.10100000352E+00 0. -1.
       -3    1    3    3    0  502 -0.47836598777E+02  0.23088858557E+03 -0.28809163318E+02  0.23754548453E+03  0.10100000352E+00 0.  1.
</event>
<event>
 5   0  0.3737642E-02  0.6216471E+03  0.7818609E-02  0.9861486E-01
        2   -1    0    0  501    0  0.00000000000E+00  0.00000000000E+00  0.13501804875E+04  0.13501804875E+04  0.25500000920E-02 0. -1.
       -2   -1    0    0    0  501  0.00000000000E+00  0.00000000000E+00 -0.71554347334E+02  0.71554347379E+02  0.25500000920E-02 0.  1.
    10030    2    1    2    0    0  0.00000000000E+00  0.00000000000E+00  0.12786261402E+04  0.14217348349E+04  0.62164711405E+03 0.  0.
        5    1    3    3  502    0  0.15826172850E+03 -0.13349664367E+03  0.11693998700E+04  0.11875968485E+04  0.46999998093E+01 0. -1.
       -5    1    3    3    0  502 -0.15826172850E+03  0.13349664367E+03  0.10922627015E+03  0.23413798639E+03  0.46999998093E+01 0.  1.
</event>
<event>
 5   0  0.2309055E-02  0.6064134E+03  0.7818609E-02  0.9892189E-01
        1   -1    0    0  501    0  0.00000000000E+00  0.00000000000E+00  0.53129830827E+03  0.53129830830E+03  0.50400001928E-02 0.  1.
       -1   -1    0    0    0  501  0.00000000000E+00  0.00000000000E+00 -0.17303708289E+03  0.17303708296E+03  0.50400001928E-02 0. -1.
    10030    2    1    2    0    0  0.00000000000E+00  0.00000000000E+00  0.35826122539E+03  0.70433539126E+03  0.60641342149E+03 0.  0.
        4    1    3    3  502    0 -0.16522095271E+03 -0.14806372683E+03  0.41917136531E+03  0.47426477501E+03  0.12699999809E+01 0.  1.
       -4    1    3    3    0  502  0.16522095271E+03  0.14806372683E+03 -0.60910139925E+02  0.23007061625E+03  0.12699999809E+01 0. -1.
</event>
<event>
 5   0  0.2276105E-02  0.6049078E+03  0.7818609E-02  0.9895276E-01
       -1   -1    0    0    0  501  0.00000000000E+00  0.00000000000E+00  0.73846674778E+02  0.73846674950E+02  0.50400001928E-02 0.  1.
        1   -1    0    0  501    0  0.00000000000E+00  0.00000000000E+00 -0.12387605469E+04  0.12387605470E+04  0.50400001928E-02 0. -1.
    10030    2    1    2    0    0  0.00000000000E+00  0.00000000000E+00 -0.11649138722E+04  0.13126072219E+04  0.60490775283E+03 0.  0.
        1    1    3    3  502    0 -0.14784294073E+03 -0.15490106103E+03 -0.10459615806E+04  0.10676551418E+04  0.50400001928E-02 0. -1.
       -1    1    3    3    0  502  0.14784294073E+03  0.15490106103E+03 -0.11895229161E+03  0.24495208009E+03  0.50400001928E-02 0.  1.
</event>
<event>
 5   0  0.2382531E-02  0.6007761E+03  0.7818609E-02  0.9903797E-01
        1   -1    0    0  501    0  0.00000000000E+00  0.00000000000E+00  0.10935042130E+04  0.10935042130E+04  0.50400001928E-02 0.  1.
       -1   -1    0    0    0  501  0.00000000000E+00  0.00000000000E+00 -0.82517265370E+02  0.82517265524E+02  0.50400001928E-02 0. -1.
    10030    2    1    2    0    0  0.00000000000E+00  0.00000000000E+00  0.10109869477E+04  0.11760214786E+04  0.60077608949E+03 0.  0.
        5    1    3    3  502    0 -0.21972662680E+03  0.14667928962E+03  0.78519249816E+03  0.82845878214E+03  0.46999998093E+01 0.  1.
       -5    1    3    3    0  502  0.21972662680E+03 -0.14667928962E+03  0.22579444950E+03  0.34756269643E+03  0.46999998093E+01 0. -1.
</event>
<event>
 5   0  0.3724066E-02  0.5990974E+03  0.7818609E-02  0.9907280E-01
       -2   -1    0    0    0  501  0.00000000000E+00  0.00000000000E+00  0.82998214243E+02  0.82998214282E+02  0.25500000920E-02 0. -1.
        2   -1    0    0  501    0  0.00000000000E+00  0.00000000000E+00 -0.10811007862E+04  0.10811007862E+04  0.25500000920E-02 0.  1.
    10030    2    1    2    0    0  0.00000000000E+00  0.00000000000E+00 -0.99810257194E+03  0.11640990005E+04  0.59909743680E+03 0.  0.
        4    1    3    3  502    0 -0.18298544307E+03 -0.33173631938E+02 -0.95534054639E+03  0.97327351485E+03  0.12699999809E+01 0.  1.
       -4    1    3    3    0  502  0.18298544307E+03  0.33173631938E+02 -0.42762025545E+02  0.19082548561E+03  0.12699999809E+01 0. -1.
</event>
<event>
 5   0  0.3934634E-02  0.5704014E+03  0.7818609E-02  0.9968791E-01
        2   -1    0    0  501    0  0.00000000000E+00  0.00000000000E+00  0.18041884202E+04  0.18041884202E+04  0.25500000920E-02 0.  1.
       -2   -1    0    0    0  501  0.00000000000E+00  0.00000000000E+00 -0.45083676629E+02  0.45083676701E+02  0.25500000920E-02 0. -1.
    10030    2    1    2    0    0  0.00000000000E+00  0.00000000000E+00  0.17591047436E+04  0.18492720969E+04  0.57040142841E+03 0.  0.
        1    1    3    3  502    0 -0.13188077328E+03  0.25121320876E+02  0.16953385794E+04  0.17006459120E+04  0.50400001928E-02 0.  1.
       -1    1    3    3    0  502  0.13188077328E+03 -0.25121320876E+02  0.63766164164E+02  0.14862618491E+03  0.50400001928E-02 0. -1.
</event>
<event>
 5   0  0.3737642E-02  0.5909915E+03  0.7818609E-02  0.9924274E-01
        2   -1    0    0  501    0  0.00000000000E+00  0.00000000000E+00  0.23151950566E+03  0.23151950567E+03  0.25500000920E-02 0.  1.
       -2   -1    0    0    0  501  0.00000000000E+00  0.00000000000E+00 -0.37715061636E+03  0.37715061637E+03  0.25500000920E-02 0. -1.
    10030    2    1    2    0    0  0.00000000000E+00  0.00000000000E+00 -0.14563111070E+03  0.60867012204E+03  0.59099145261E+03 0.  0.
        5    1    3    3  502    0 -0.16465344063E+03 -0.19672024733E+03 -0.22378143529E+03  0.34045533040E+03  0.46999998093E+01 0. -1.
       -5    1    3    3    0  502  0.16465344063E+03  0.19672024733E+03  0.78150324594E+02  0.26821479164E+03  0.46999998093E+01 0.  1.
</event>
<event>
 5   0  0.3724066E-02  0.6018662E+03  0.7818609E-02  0.9901542E-01
       -2   -1    0    0    0  501  0.00000000000E+00  0.00000000000E+00  0.11012537165E+03  0.11012537168E+03  0.25500000920E-02 0.  1.
        2   -1    0    0  501    0  0.00000000000E+00  0.00000000000E+00 -0.82234216974E+03  0.82234216974E+03  0.25500000920E-02 0. -1.
    10030    2    1    2    0    0  0.00000000000E+00  0.00000000000E+00 -0.71221679809E+03  0.93246754142E+03  0.60186622129E+03 0.  0.
        4    1    3    3  502    0 -0.84820080851E+02  0.25049208890E+03 -0.57857311722E+03  0.63615186676E+03  0.12699999809E+01 0. -1.
       -4    1    3    3    0  502  0.84820080851E+02 -0.25049208890E+03 -0.13364368087E+03  0.29631567466E+03  0.12699999809E+01 0.  1.
</event>
<event>
 5   0  0.3798925E-02  0.6063720E+03  0.7818609E-02  0.9892274E-01
       -2   -1    0    0    0  501  0.00000000000E+00  0.00000000000E+00  0.78806762296E+02  0.78806762338E+02  0.25500000920E-02 0.  1.
        2   -1    0    0  501    0  0.00000000000E+00  0.00000000000E+00 -0.11664194625E+04  0.11664194626E+04  0.25500000920E-02 0. -1.
    10030    2    1    2    0    0  0.00000000000E+00  0.00000000000E+00 -0.10876127003E+04  0.12452262249E+04  0.60637196951E+03 0.  0.
        2    1    3    3  502    0  0.25210770953E+02 -0.23368457875E+01  0.76631974433E+02  0.80706278147E+02  0.25500000920E-02 0.  1.
       -2    1    3    3    0  502 -0.25210770953E+02  0.23368457875E+01 -0.11642446747E+04  0.11645199467E+04  0.25500000920E-02 0. -1.
</event>
<event>
 5   0  0.3737642E-02  0.5998094E+03  0.7818609E-02  0.9905802E-01
       -2   -1    0    0    0  501  0.00000000000E+00  0.00000000000E+00  0.20519804146E+03  0.20519804147E+03  0.25500000920E-02 0.  1.
        2   -1    0    0  501    0  0.00000000000E+00  0.00000000000E+00 -0.43832201553E+03  0.43832201554E+03  0.25500000920E-02 0. -1.
    10030    2    1    2    0    0  0.00000000000E+00  0.00000000000E+00 -0.23312397408E+03  0.64352005701E+03  0.59980936679E+03 0.  0.
        5    1    3    3  502    0 -0.14827925792E+03 -0.19033262757E+03  0.74480392525E+02  0.25255230412E+03  0.46999998093E+01 0.  1.
       -5    1    3    3    0  502  0.14827925792E+03  0.19033262757E+03 -0.30760436660E+03  0.39096775289E+03  0.46999998093E+01 0. -1.
</event>
<event>
 5   0  0.3737642E-02  0.6029653E+03  0.7818609E-02  0.9899273E-01
       -2   -1    0    0    0  501  0.00000000000E+00  0.00000000000E+00  0.20921204125E+03  0.20921204127E+03  0.25500000920E-02 0. -1.
        2   -1    0    0  501    0  0.00000000000E+00  0.00000000000E+00 -0.43444823509E+03  0.43444823510E+03  0.25500000920E-02 0.  1.
    10030    2    1    2    0    0  0.00000000000E+00  0.00000000000E+00 -0.22523619384E+03  0.64366027637E+03  0.60296534590E+03 0.  0.
        5    1    3    3  502    0  0.32551066906E+02 -0.10402701901E+01 -0.43252559929E+03  0.43377544669E+03  0.46999998093E+01 0.  1.
       -5    1    3    3    0  502 -0.32551066906E+02  0.10402701901E+01  0.20728940544E+03  0.20988482967E+03  0.46999998093E+01 0. -1.
</event>
<event>
 5   0  0.1521750E-02  0.5987602E+03  0.7818609E-02  0.9907982E-01
        4   -1    0    0  501    0  0.00000000000E+00  0.00000000000E+00  0.23094696642E+03  0.23095045832E+03  0.12699999809E+01 0. -1.
       -4   -1    0    0    0  501  0.00000000000E+00  0.00000000000E+00 -0.38808358696E+03  0.38808566498E+03  0.12699999809E+01 0.  1.
    10030    2    1    2    0    0  0.00000000000E+00  0.00000000000E+00 -0.15713662054E+03  0.61903612330E+03  0.59876022282E+03 0.  0.
        5    1    3    3  502    0 -0.20010083852E+03 -0.17816998866E+03 -0.21658602159E+03  0.34455258696E+03  0.46999998093E+01 0.  1.
       -5    1    3    3    0  502  0.20010083852E+03  0.17816998866E+03  0.59449401051E+02  0.27448353634E+03  0.46999998093E+01 0. -1.
</event>
<event>
 5   0  0.2225808E-02  0.6029792E+03  0.7818609E-02  0.9899244E-01
        1   -1    0    0  501    0  0.00000000000E+00  0.00000000000E+00  0.45793121274E+03  0.45793121276E+03  0.50400001928E-02 0.  1.
       -1   -1    0    0    0  501  0.00000000000E+00  0.00000000000E+00 -0.19849266338E+03  0.19849266344E+03  0.50400001928E-02 0. -1.
    10030    2    1    2    0    0  0.00000000000E+00  0.00000000000E+00  0.25943854936E+03  0.65642387621E+03  0.60297922382E+03 0.  0.
        2    1    3    3  502    0 -0.29663663077E+03 -0.41043920548E+02  0.91724658814E+02  0.31319531793E+03  0.25500000920E-02 0. -1.
       -2    1    3    3    0  502  0.29663663077E+03  0.41043920548E+02  0.16771389055E+03  0.34322855828E+03  0.25500000920E-02 0.  1.
</event>
<event>
 5   0  0.1521750E-02  0.6045569E+03  0.7818609E-02  0.9895997E-01
        4   -1    0    0  501    0  0.00000000000E+00  0.00000000000E+00  0.69382489086E+02  0.69394111362E+02  0.12699999809E+01 0.  1.
       -4   -1    0    0    0  501  0.00000000000E+00  0.00000000000E+00 -0.13168131708E+04  0.13168137832E+04  0.12699999809E+01 0. -1.
    10030    2    1    2    0    0  0.00000000000E+00  0.00000000000E+00 -0.12474306817E+04  0.13862078946E+04  0.60455688015E+03 0.  0.
        4    1    3    3  502    0 -0.33748442932E+02  0.27786298796E+03 -0.88538948269E+03  0.92858114693E+03  0.12699999809E+01 0. -1.
       -4    1    3    3    0  502  0.33748442932E+02 -0.27786298796E+03 -0.36204119903E+03  0.45762674766E+03  0.12699999809E+01 0.  1.
</event>
<event>
 5   0  0.2295179E-02  0.5979426E+03  0.7818609E-02  0.9909684E-01
        1   -1    0    0  501    0  0.00000000000E+00  0.00000000000E+00  0.63066794745E+03  0.63066794747E+03  0.50400001928E-02 0.  1.
       -1   -1    0    0    0  501  0.00000000000E+00  0.00000000000E+00 -0.14172886347E+03  0.14172886356E+03  0.50400001928E-02 0. -1.
    10030    2    1    2    0    0  0.00000000000E+00  0.00000000000E+00  0.48893908399E+03  0.77239681103E+03  0.59794264427E+03 0.  0.
        3    1    3    3  502    0  0.88368860280E+02  0.93783782366E+02 -0.10401630423E+03  0.16560149470E+03  0.10100000352E+00 0. -1.
       -3    1    3    3    0  502 -0.88368860280E+02 -0.93783782366E+02  0.59295538821E+03  0.60679531633E+03  0.10100000352E+00 0.  1.
</event>
<event>
 5   0  0.3832191E-02  0.6078017E+03  0.7818609E-02  0.9889351E-01
        2   -1    0    0  501    0  0.00000000000E+00  0.00000000000E+00  0.25506664416E+03  0.25506664417E+03  0.25500000920E-02 0.  1.
       -2   -1    0    0    0  501  0.00000000000E+00  0.00000000000E+00 -0.36208466938E+03  0.36208466939E+03  0.25500000920E-02 0. -1.
    10030    2    1    2    0    0  0.00000000000E+00  0.00000000000E+00 -0.10701802522E+03  0.61715131356E+03  0.60780168320E+03 0.  0.
        3    1    3    3  502    0  0.62348492529E+02 -0.84257224596E+02  0.23613163323E+03  0.25835009741E+03  0.10100000352E+00 0.  1.
       -3    1    3    3    0  502 -0.62348492529E+02  0.84257224596E+02 -0.34314965845E+03  0.35880121615E+03  0.10100000352E+00 0. -1.
</event>
<event>
 5   0  0.2276105E-02  0.5895087E+03  0.7818609E-02  0.9927414E-01
       -1   -1    0    0    0  501  0.00000000000E+00  0.00000000000E+00  0.59808026813E+03  0.59808026815E+03  0.50400001928E-02 0. -1.
        1   -1    0    0  501    0  0.00000000000E+00  0.00000000000E+00 -0.14526500542E+03  0.14526500550E+03  0.50400001928E-02 0.  1.
    10030    2    1    2    0    0  0.00000000000E+00  0.00000000000E+00  0.45281526272E+03  0.74334527366E+03  0.58950872235E+03 0.  0.
        1    1    3    3  502    0 -0.56498378505E+02 -0.17082403455E+03  0.52080054300E+03  0.55100464895E+03  0.50400001928E-02 0. -1.
       -1    1    3    3    0  502  0.56498378505E+02  0.17082403455E+03 -0.67985280281E+02  0.19234062471E+03  0.50400001928E-02 0.  1.
</event>
<event>
 5   0  0.2225808E-02  0.6039803E+03  0.7818609E-02  0.9897183E-01
        1   -1    0    0  501    0  0.00000000000E+00  0.00000000000E+00  0.20736588418E+04  0.20736588419E+04  0.50400001928E-02 0. -1.
       -1   -1    0    0    0  501  0.00000000000E+00  0.00000000000E+00 -0.43979286693E+02  0.43979286981E+02  0.50400001928E-02 0.  1.
    10030    2    1    2    0    0  0.00000000000E+00  0.00000000000E+00  0.20296795552E+04  0.21176381288E+04  0.60398025471E+03 0.  0.
        2    1    3    3  502    0 -0.23748879639E+03  0.18625135630E+03  0.97848045315E+03  0.10239699670E+04  0.25500000920E-02 0.  1.
       -2    1    3    3    0  502  0.23748879639E+03 -0.18625135630E+03  0.10511991020E+04  0.10936681618E+04  0.25500000920E-02 0. -1.
</event>
<event>
 5   0  0.2382531E-02  0.6056550E+03  0.7818609E-02  0.9893743E-01
        1   -1    0    0  501    0  0.00000000000E+00  0.00000000000E+00  0.28164547127E+03  0.28164547132E+03  0.50400001928E-02 0.  1.
       -1   -1    0    0    0  501  0.00000000000E+00  0.00000000000E+00 -0.32560257312E+03  0.32560257316E+03  0.50400001928E-02 0. -1.
    10030    2    1    2    0    0  0.00000000000E+00  0.00000000000E+00 -0.43957101853E+02  0.60724804448E+03  0.60565498489E+03 0.  0.
        5    1    3    3  502    0  0.12065874184E+03  0.37422488258E+02 -0.29788125378E+03  0.32359589917E+03  0.46999998093E+01 0. -1.
       -5    1    3    3    0  502 -0.12065874184E+03 -0.37422488258E+02  0.25392415192E+03  0.28365214531E+03  0.46999998093E+01 0.  1.
</event>
<event>
 5   0  0.3798925E-02  0.5982389E+03  0.7818609E-02  0.9909067E-01
       -2   -1    0    0    0  501  0.00000000000E+00  0.00000000000E+00  0.45588186238E+03  0.45588186238E+03  0.25500000920E-02 0.  1.
        2   -1    0    0  501    0  0.00000000000E+00  0.00000000000E+00 -0.19626231795E+03  0.19626231797E+03  0.25500000920E-02 0. -1.
    10030    2    1    2    0    0  0.00000000000E+00  0.00000000000E+00  0.25961954442E+03  0.65214418035E+03  0.59823885206E+03 0.  0.
        2    1    3    3  502    0  0.94531435715E+02 -0.15269373770E+03 -0.13095336858E+03  0.22226190547E+03  0.25500000920E-02 0. -1.
       -2    1    3    3    0  502 -0.94531435715E+02  0.15269373770E+03  0.39057291301E+03  0.42988227488E+03  0.25500000920E-02 0.  1.
</event>
<event>
 5   0  0.3724066E-02  0.6097161E+03  0.7818609E-02  0.9885451E-01
        2   -1    0    0  501    0  0.00000000000E+00  0.00000000000E+00  0.62734179287E+03  0.62734179287E+03  0.25500000920E-02 0. -1.
       -2   -1    0    0    0  501  0.00000000000E+00  0.00000000000E+00 -0.14814638457E+03  0.14814638459E+03  0.25500000920E-02 0.  1.
    10030    2    1    2    0    0  0.00000000000E+00  0.00000000000E+00  0.47919540830E+03  0.77548817747E+03  0.60971606020E+03 0.  0.
        4    1    3    3  502    0 -0.13427178434E+03  0.17008471493E+03  0.51232443125E+03  0.55626941142E+03  0.12699999809E+01 0. -1.
       -4    1    3    3    0  502  0.13427178434E+03 -0.17008471493E+03 -0.33129022958E+02  0.21921876605E+03  0.12699999809E+01 0.  1.
</event>
<event>
 5   0  0.2295179E-02  0.5914555E+03  0.7818609E-02  0.9923293E-01
        1   -1    0    0  501    0  0.00000000000E+00  0.00000000000E+00  0.31724572567E+03  0.31724572571E+03  0.50400001928E-02 0. -1.
       -1   -1    0    0    0  501  0.00000000000E+00  0.00000000000E+00 -0.27566930943E+03  0.27566930947E+03  0.50400001928E-02 0.  1.
    10030    2    1    2    0    0  0.00000000000E+00  0.00000000000E+00  0.41576416245E+02  0.59291503519E+03  0.59145552712E+03 0.  0.
        3    1    3    3  502    0  0.16019963653E+03 -0.25236857421E+02 -0.22711553149E+03  0.27907399980E+03  0.10100000352E+00 0.  1.
       -3    1    3    3    0  502 -0.16019963653E+03  0.25236857421E+02  0.26869194773E+03  0.31384103539E+03  0.10100000352E+00 0. -1.
</event>
<event>
 5   0  0.3798925E-02  0.5980746E+03  0.7818609E-02  0.9909409E-01
       -2   -1    0    0    0  501  0.00000000000E+00  0.00000000000E+00  0.26395901285E+03  0.26395901286E+03  0.25500000920E-02 0. -1.
        2   -1    0    0  501    0  0.00000000000E+00  0.00000000000E+00 -0.33877727348E+03  0.33877727349E+03  0.25500000920E-02 0.  1.
    10030    2    1    2    0    0  0.00000000000E+00  0.00000000000E+00 -0.74818260633E+02  0.60273628635E+03  0.59807462642E+03 0.  0.
        2    1    3    3  502    0  0.53647585863E+02 -0.17472817273E+03  0.20111117623E+03  0.27176037795E+03  0.25500000920E-02 0. -1.
       -2    1    3    3    0  502 -0.53647585863E+02  0.17472817273E+03 -0.27592943686E+03  0.33097590841E+03  0.25500000920E-02 0.  1.
</event>
<event>
 5   0  0.2382531E-02  0.5801968E+03  0.7818609E-02  0.9947365E-01
       -1   -1    0    0    0  501  0.00000000000E+00  0.00000000000E+00  0.91531049399E+02  0.91531049537E+02  0.50400001928E-02 0.  1.
        1   -1    0    0  501    0  0.00000000000E+00  0.00000000000E+00 -0.91943766188E+03  0.91943766189E+03  0.50400001928E-02 0. -1.
    10030    2    1    2    0    0  0.00000000000E+00  0.00000000000E+00 -0.82790661248E+03  0.10109687114E+04  0.58019684289E+03 0.  0.
        5    1    3    3  502    0 -0.10633139034E+03  0.52636506322E+02 -0.87515547200E+03  0.88317391070E+03  0.46999998093E+01 0. -1.
       -5    1    3    3    0  502  0.10633139034E+03 -0.52636506322E+02  0.47248859520E+02  0.12779480073E+03  0.46999998093E+01 0.  1.
</event>
<event>
 5   0  0.1521750E-02  0.6018483E+03  0.7818609E-02  0.9901579E-01
        3   -1    0    0  501    0  0.00000000000E+00  0.00000000000E+00  0.32637791514E+03  0.32637793076E+03  0.10100000352E+00 0. -1.
       -3   -1    0    0    0  501  0.00000000000E+00  0.00000000000E+00 -0.27745549088E+03  0.27745550926E+03  0.10100000352E+00 0.  1.
    10030    2    1    2    0    0  0.00000000000E+00  0.00000000000E+00  0.48922424256E+02  0.60383344003E+03  0.60184833613E+03 0.  0.
        2    1    3    3  502    0 -0.25470664676E+03  0.13075132182E+03 -0.68494099975E+02  0.29438550542E+03  0.25500000920E-02 0. -1.
       -2    1    3    3    0  502  0.25470664676E+03 -0.13075132182E+03  0.11741652423E+03  0.30944793461E+03  0.25500000920E-02 0.  1.
</event>
<event>
 5   0  0.2309055E-02  0.5996054E+03  0.7818609E-02  0.9906225E-01
        1   -1    0    0  501    0  0.00000000000E+00  0.00000000000E+00  0.10792296741E+04  0.10792296741E+04  0.50400001928E-02 0. -1.
       -1   -1    0    0    0  501  0.00000000000E+00  0.00000000000E+00 -0.83283152261E+02  0.83283152413E+02  0.50400001928E-02 0.  1.
    10030    2    1    2    0    0  0.00000000000E+00  0.00000000000E+00  0.99594652181E+03  0.11625128265E+04  0.59960536811E+03 0.  0.
        4    1    3    3  502    0 -0.24772750260E+03  0.21896158683E+02  0.82257945137E+03  0.85935261914E+03  0.12699999809E+01 0. -1.
       -4    1    3    3    0  502  0.24772750260E+03 -0.21896158683E+02  0.17336707045E+03  0.30316020736E+03  0.12699999809E+01 0.  1.
</event>
<event>
 5   0  0.2225808E-02  0.5994709E+03  0.7818609E-02  0.9906504E-01
       -1   -1    0    0    0  501  0.00000000000E+00  0.00000000000E+00  0.63489465937E+03  0.63489465939E+03  0.50400001928E-02 0. -1.
        1   -1    0    0  501    0  0.00000000000E+00  0.00000000000E+00 -0.14150588386E+03  0.14150588395E+03  0.50400001928E-02 0.  1.
    10030    2    1    2    0    0  0.00000000000E+00  0.00000000000E+00  0.49338877551E+03  0.77640054333E+03  0.59947086659E+03 0.  0.
        2    1    3    3  502    0 -0.34058280480E+02 -0.74342937870E+02 -0.12677981061E+03  0.15086404232E+03  0.25500000920E-02 0.  1.
       -2    1    3    3    0  502  0.34058280480E+02  0.74342937870E+02  0.62016858612E+03  0.62553650101E+03  0.25500000920E-02 0. -1.
</event>
<event>
 5   0  0.2382531E-02  0.6054365E+03  0.7818609E-02  0.9894191E-01
        1   -1    0    0  501    0  0.00000000000E+00  0.00000000000E+00  0.10302168688E+04  0.10302168688E+04  0.50400001928E-02 0.  1.
       -1   -1    0    0    0  501  0.00000000000E+00  0.00000000000E+00 -0.88950539357E+02  0.88950539499E+02  0.50400001928E-02 0. -1.
    10030    2    1    2    0    0  0.00000000000E+00  0.00000000000E+00  0.94126632943E+03  0.11191674083E+04  0.60543652423E+03 0.  0.
        5    1    3    3  502    0 -0.18499370646E+02  0.30151200435E+03  0.50592705013E+03  0.58926732943E+03  0.46999998093E+01 0.  1.
       -5    1    3    3    0  502  0.18499370646E+02 -0.30151200435E+03  0.43533927929E+03  0.52990007886E+03  0.46999998093E+01 0. -1.
</event>
<event>
 5   0  0.2276105E-02  0.5965237E+03  0.7818609E-02  0.9912645E-01
        1   -1    0    0  501    0  0.00000000000E+00  0.00000000000E+00  0.50552428695E+03  0.50552428698E+03  0.50400001928E-02 0. -1.
       -1   -1    0    0    0  501  0.00000000000E+00  0.00000000000E+00 -0.17597596560E+03  0.17597596567E+03  0.50400001928E-02 0.  1.
    10030    2    1    2    0    0  0.00000000000E+00  0.00000000000E+00  0.32954832135E+03  0.68150025265E+03  0.59652367786E+03 0.  0.
        1    1    3    3  502    0  0.98892156228E+02 -0.39926707948E+02 -0.15344836776E+03  0.18686947895E+03  0.50400001928E-02 0.  1.
       -1    1    3    3    0  502 -0.98892156228E+02  0.39926707948E+02  0.48299668911E+03  0.49463077370E+03  0.50400001928E-02 0. -1.
</event>
<event>
 5   0  0.3832191E-02  0.6306943E+03  0.7818609E-02  0.9843695E-01
       -2   -1    0    0    0  501  0.00000000000E+00  0.00000000000E+00  0.92739694123E+02  0.92739694158E+02  0.25500000920E-02 0.  1.
        2   -1    0    0  501    0  0.00000000000E+00  0.00000000000E+00 -0.10722898713E+04  0.10722898713E+04  0.25500000920E-02 0. -1.
    10030    2    1    2    0    0  0.00000000000E+00  0.00000000000E+00 -0.97955017716E+03  0.11650295654E+04  0.63069433071E+03 0.  0.
        3    1    3    3  502    0  0.20484299978E+03  0.43262619950E+02 -0.54162536429E+02  0.21625424712E+03  0.10100000352E+00 0.  1.
       -3    1    3    3    0  502 -0.20484299978E+03 -0.43262619950E+02 -0.92538764073E+03  0.94877531833E+03  0.10100000352E+00 0. -1.
</event>
<event>
 5   0  0.3832191E-02  0.6010425E+03  0.7818609E-02  0.9903246E-01
        2   -1    0    0  501    0  0.00000000000E+00  0.00000000000E+00  0.56170204901E+03  0.56170204901E+03  0.25500000920E-02 0. -1.
       -2   -1    0    0    0  501  0.00000000000E+00  0.00000000000E+00 -0.16078455926E+03  0.16078455928E+03  0.25500000920E-02 0.  1.
    10030    2    1    2    0    0  0.00000000000E+00  0.00000000000E+00  0.40091748975E+03  0.72248660829E+03  0.60104248233E+03 0.  0.
        3    1    3    3  502    0 -0.18503183793E+03 -0.20915473701E+03  0.66979006119E+02  0.28717361042E+03  0.10100000352E+00 0.  1.
       -3    1    3    3    0  502  0.18503183793E+03  0.20915473701E+03  0.33393848363E+03  0.43531299787E+03  0.10100000352E+00 0. -1.
</event>
<event>
 5   0  0.2382531E-02  0.6006509E+03  0.7818609E-02  0.9904057E-01
       -1   -1    0    0    0  501  0.00000000000E+00  0.00000000000E+00  0.20285738963E+03  0.20285738969E+03  0.50400001928E-02 0.  1.
        1   -1    0    0  501    0  0.00000000000E+00  0.00000000000E+00 -0.44462454623E+03  0.44462454625E+03  0.50400001928E-02 0. -1.
    10030    2    1    2    0    0  0.00000000000E+00  0.00000000000E+00 -0.24176715660E+03  0.64748193595E+03  0.60065089642E+03 0.  0.
        5    1    3    3  502    0 -0.91353297364E+02  0.28206672650E+03 -0.17220004246E+03  0.34290232976E+03  0.46999998093E+01 0. -1.
       -5    1    3    3    0  502  0.91353297364E+02 -0.28206672650E+03 -0.69567114133E+02  0.30457960618E+03  0.46999998093E+01 0.  1.
</event>
<event>
 5   0  0.2276105E-02  0.6006396E+03  0.7818609E-02  0.9904080E-01
        1   -1    0    0  501    0  0.00000000000E+00  0.00000000000E+00  0.30815921277E+03  0.30815921281E+03  0.50400001928E-02 0. -1.
       -1   -1    0    0    0  501  0.00000000000E+00  0.00000000000E+00 -0.29267978292E+03  0.29267978296E+03  0.50400001928E-02 0.  1.
    10030    2    1    2    0    0  0.00000000000E+00  0.00000000000E+00  0.15479429848E+02  0.60083899577E+03  0.60063956421E+03 0.  0.
        1    1    3    3  502    0  0.10740148425E+03 -0.91050273583E+01 -0.27266388345E+03  0.29319545307E+03  0.50400001928E-02 0.  1.
       -1    1    3    3    0  502 -0.10740148425E+03  0.91050273583E+01  0.28814331330E+03  0.30764354270E+03  0.50400001928E-02 0. -1.
</event>
<event>
 5   0  0.2295179E-02  0.5984227E+03  0.7818609E-02  0.9908684E-01
       -1   -1    0    0    0  501  0.00000000000E+00  0.00000000000E+00  0.12738827530E+03  0.12738827540E+03  0.50400001928E-02 0.  1.
        1   -1    0    0  501    0  0.00000000000E+00  0.00000000000E+00 -0.70279188098E+03  0.70279188099E+03  0.50400001928E-02 0. -1.
    10030    2    1    2    0    0  0.00000000000E+00  0.00000000000E+00 -0.57540360568E+03  0.83018015639E+03  0.59842274576E+03 0.  0.
        3    1    3    3  502    0  0.22250724896E+03  0.13694828260E+03 -0.48999339270E+03  0.55529977763E+03  0.10100000352E+00 0. -1.
       -3    1    3    3    0  502 -0.22250724896E+03 -0.13694828260E+03 -0.85410212976E+02  0.27488037876E+03  0.10100000352E+00 0.  1.
</event>
<event>
 5   0  0.3798925E-02  0.6039527E+03  0.7818609E-02  0.9897239E-01
        2   -1    0    0  501    0  0.00000000000E+00  0.00000000000E+00  0.61081599557E+03  0.61081599558E+03  0.25500000920E-02 0. -1.
       -2   -1    0    0    0  501  0.00000000000E+00  0.00000000000E+00 -0.14929165450E+03  0.14929165452E+03  0.25500000920E-02 0.  1.
    10030    2    1    2    0    0  0.00000000000E+00  0.00000000000E+00  0.46152434107E+03  0.76010765010E+03  0.60395274843E+03 0.  0.
        2    1    3    3  502    0 -0.60891497993E+01 -0.25141572361E+03  0.44114340531E+03  0.50779370602E+03  0.25500000920E-02 0. -1.
       -2    1    3    3    0  502  0.60891497993E+01  0.25141572361E+03  0.20380935764E+02  0.25231394407E+03  0.25500000920E-02 0.  1.
</event>
<event>
 5   0  0.3798925E-02  0.5967062E+03  0.7818609E-02  0.9912263E-01
        2   -1    0    0  501    0  0.00000000000E+00  0.00000000000E+00  0.65963730431E+03  0.65963730431E+03  0.25500000920E-02 0. -1.
       -2   -1    0    0    0  501  0.00000000000E+00  0.00000000000E+00 -0.13494472526E+03  0.13494472528E+03  0.25500000920E-02 0.  1.
    10030    2    1    2    0    0  0.00000000000E+00  0.00000000000E+00  0.52469257905E+03  0.79458202959E+03  0.59670620849E+03 0.  0.
        2    1    3    3  502    0 -0.19728896301E+03  0.73053142578E+02  0.54405376530E+03  0.58331312013E+03  0.25500000920E-02 0. -1.
       -2    1    3    3    0  502  0.19728896301E+03 -0.73053142578E+02 -0.19361186253E+02  0.21126890947E+03  0.25500000920E-02 0.  1.
</event>
<event>
 5   0  0.2309055E-02  0.5997089E+03  0.7818609E-02  0.9906010E-01
        1   -1    0    0  501    0  0.00000000000E+00  0.00000000000E+00  0.15195735368E+03  0.15195735376E+03  0.50400001928E-02 0.  1.
       -1   -1    0    0    0  501  0.00000000000E+00  0.00000000000E+00 -0.59169682333E+03  0.59169682335E+03  0.50400001928E-02 0. -1.
    10030    2    1    2    0    0  0.00000000000E+00  0.00000000000E+00 -0.43973946965E+03  0.74365417712E+03  0.59970887435E+03 0.  0.
        4    1    3    3  502    0  0.68847033547E+02 -0.50928472081E+02  0.13646755533E+03  0.16111682052E+03  0.12699999809E+01 0.  1.
       -4    1    3    3    0  502 -0.68847033547E+02  0.50928472081E+02 -0.57620702498E+03  0.58253735660E+03  0.12699999809E+01 0. -1.
</event>
<event>
 5   0  0.3934634E-02  0.6002924E+03  0.7818609E-02  0.9904800E-01
        2   -1    0    0  501    0  0.00000000000E+00  0.00000000000E+00  0.14435847059E+04  0.14435847059E+04  0.25500000920E-02 0.  1.
       -2   -1    0    0    0  501  0.00000000000E+00  0.00000000000E+00 -0.62405580085E+02  0.62405580137E+02  0.25500000920E-02 0. -1.
    10030    2    1    2    0    0  0.00000000000E+00  0.00000000000E+00  0.13811791258E+04  0.15059902860E+04  0.60029239880E+03 0.  0.
        1    1    3    3  502    0  0.69934147363E+02 -0.20810715307E+03  0.17713023139E+03  0.28208950888E+03  0.50400001928E-02 0.  1.
       -1    1    3    3    0  502 -0.69934147363E+02  0.20810715307E+03  0.12040488944E+04  0.12239007772E+04  0.50400001928E-02 0. -1.
</event>
<event>
 5   0  0.2382531E-02  0.6070029E+03  0.7818609E-02  0.9890983E-01
        1   -1    0    0  501    0  0.00000000000E+00  0.00000000000E+00  0.45419276870E+03  0.45419276873E+03  0.50400001928E-02 0. -1.
       -1   -1    0    0    0  501  0.00000000000E+00  0.00000000000E+00 -0.20280627144E+03  0.20280627151E+03  0.50400001928E-02 0.  1.
    10030    2    1    2    0    0  0.00000000000E+00  0.00000000000E+00  0.25138649725E+03  0.65699904023E+03  0.60700293892E+03 0.  0.
        5    1    3    3  502    0  0.18064209734E+03 -0.21849938582E+03  0.24285651711E+03  0.37332951509E+03  0.46999998093E+01 0.  1.
       -5    1    3    3    0  502 -0.18064209734E+03  0.21849938582E+03  0.85299801449E+01  0.28366952514E+03  0.46999998093E+01 0. -1.
</event>
<event>
 5   0  0.3737642E-02  0.5395634E+03  0.7818609E-02  0.1003939E+00
       -2   -1    0    0    0  501  0.00000000000E+00  0.00000000000E+00  0.14292373211E+03  0.14292373214E+03  0.25500000920E-02 0. -1.
        2   -1    0    0  501    0  0.00000000000E+00  0.00000000000E+00 -0.50923782843E+03  0.50923782843E+03  0.25500000920E-02 0.  1.
    10030    2    1    2    0    0  0.00000000000E+00  0.00000000000E+00 -0.36631409631E+03  0.65216156057E+03  0.53956341975E+03 0.  0.
        5    1    3    3  502    0  0.18794208197E+03  0.17150893028E+03 -0.74896882156E+02  0.26527188373E+03  0.46999998093E+01 0. -1.
       -5    1    3    3    0  502 -0.18794208197E+03 -0.17150893028E+03 -0.29141721416E+03  0.38688967684E+03  0.46999998093E+01 0.  1.
</event>
<event>
 5   0  0.3737642E-02  0.5990813E+03  0.7818609E-02  0.9907314E-01
        2   -1    0    0  501    0  0.00000000000E+00  0.00000000000E+00  0.55656936830E+03  0.55656936830E+03  0.25500000920E-02 0. -1.
       -2   -1    0    0    0  501  0.00000000000E+00  0.00000000000E+00 -0.16121008530E+03  0.16121008532E+03  0.25500000920E-02 0.  1.
    10030    2    1    2    0    0  0.00000000000E+00  0.00000000000E+00  0.39535928300E+03  0.71777945362E+03  0.59908128112E+03 0.  0.
        5    1    3    3  502    0 -0.34414165292E+02  0.29596885956E+03  0.16132650583E+03  0.33886609757E+03  0.46999998093E+01 0.  1.
       -5    1    3    3    0  502  0.34414165292E+02 -0.29596885956E+03  0.23403277717E+03  0.37891335605E+03  0.46999998093E+01 0. -1.
</event>
<event>
 5   0  0.1521750E-02  0.5977378E+03  0.7818609E-02  0.9910110E-01
       -3   -1    0    0    0  501  0.00000000000E+00  0.00000000000E+00  0.50518075764E+03  0.50518076774E+03  0.10100000352E+00 0.  1.
        3   -1    0    0  501    0  0.00000000000E+00  0.00000000000E+00 -0.17681317575E+03  0.17681320460E+03  0.10100000352E+00 0. -1.
    10030    2    1    2    0    0  0.00000000000E+00  0.00000000000E+00  0.32836758189E+03  0.68199397234E+03  0.59773782670E+03 0.  0.
        1    1    3    3  502    0 -0.18507394567E+03  0.14754538009E+03 -0.44023519414E+02  0.24074898720E+03  0.50400001928E-02 0. -1.
       -1    1    3    3    0  502  0.18507394567E+03 -0.14754538009E+03  0.37239110131E+03  0.44124498514E+03  0.50400001928E-02 0.  1.
</event>
<event>
 5   0  0.3798925E-02  0.6072831E+03  0.7818609E-02  0.9890410E-01
        2   -1    0    0  501    0  0.00000000000E+00  0.00000000000E+00  0.66093746001E+03  0.66093746002E+03  0.25500000920E-02 0. -1.
       -2   -1    0    0    0  501  0.00000000000E+00  0.00000000000E+00 -0.13949610081E+03  0.13949610083E+03  0.25500000920E-02 0.  1.
    10030    2    1    2    0    0  0.00000000000E+00  0.00000000000E+00  0.52144135920E+03  0.80043356085E+03  0.60728312528E+03 0.  0.
        2    1    3    3  502    0  0.20321919035E+03 -0.84055178873E+02  0.53667933331E+03  0.57998967166E+03  0.25500000920E-02 0. -1.
       -2    1    3    3    0  502 -0.20321919035E+03  0.84055178873E+02 -0.15237974110E+02  0.22044388919E+03  0.25500000920E-02 0.  1.
</event>
<event>
 5   0  0.2382531E-02  0.5955669E+03  0.7818609E-02  0.9914646E-01
       -1   -1    0    0    0  501  0.00000000000E+00  0.00000000000E+00  0.14771235721E+03  0.14771235729E+03  0.50400001928E-02 0. -1.
        1   -1    0    0  501    0  0.00000000000E+00  0.00000000000E+00 -0.60032211537E+03  0.60032211539E+03  0.50400001928E-02 0.  1.
    10030    2    1    2    0    0  0.00000000000E+00  0.00000000000E+00 -0.45260975816E+03  0.74803447268E+03  0.59556693926E+03 0.  0.
        5    1    3    3  502    0 -0.89774717242E+02  0.20722290386E+03  0.17411926595E+02  0.22655263610E+03  0.46999998093E+01 0. -1.
       -5    1    3    3    0  502  0.89774717242E+02 -0.20722290386E+03 -0.47002168476E+03  0.52148183658E+03  0.46999998093E+01 0.  1.
</event>
<event>
 5   0  0.3832191E-02  0.5984452E+03  0.7818609E-02  0.9908637E-01
       -2   -1    0    0    0  501  0.00000000000E+00  0.00000000000E+00  0.10893350729E+03  0.10893350732E+03  0.25500000920E-02 0.  1.
        2   -1    0    0  501    0  0.00000000000E+00  0.00000000000E+00 -0.82191570736E+03  0.82191570736E+03  0.25500000920E-02 0. -1.
    10030    2    1    2    0    0  0.00000000000E+00  0.00000000000E+00 -0.71298220007E+03  0.93084921468E+03  0.59844518784E+03 0.  0.
        3    1    3    3  502    0 -0.45039428466E+02 -0.24548888558E+03 -0.61321419854E+03  0.66206118037E+03  0.10100000352E+00 0. -1.
       -3    1    3    3    0  502  0.45039428466E+02  0.24548888558E+03 -0.99768001525E+02  0.26878803431E+03  0.10100000352E+00 0.  1.
</event>
<event>
 5   0  0.2295179E-02  0.6002248E+03  0.7818609E-02  0.9904940E-01
        1   -1    0    0  501    0  0.00000000000E+00  0.00000000000E+00  0.78674681521E+03  0.78674681523E+03  0.50400001928E-02 0. -1.
       -1   -1    0    0    0  501  0.00000000000E+00  0.00000000000E+00 -0.11448085959E+03  0.11448085970E+03  0.50400001928E-02 0.  1.
    10030    2    1    2    0    0  0.00000000000E+00  0.00000000000E+00  0.67226595562E+03  0.90122767493E+03  0.60022479703E+03 0.  0.
        3    1    3    3  502    0  0.12528642627E+03  0.21536099919E+03  0.84929826089E+02  0.26323019230E+03  0.10100000352E+00 0.  1.
       -3    1    3    3    0  502 -0.12528642627E+03 -0.21536099919E+03  0.58733612953E+03  0.63799748262E+03  0.10100000352E+00 0. -1.
</event>
<event>
 5   0  0.3724066E-02  0.5990880E+03  0.7818609E-02  0.9907300E-01
        2   -1    0    0  501    0  0.00000000000E+00  0.00000000000E+00  0.98481428353E+03  0.98481428354E+03  0.25500000920E-02 0. -1.
       -2   -1    0    0    0  501  0.00000000000E+00  0.00000000000E+00 -0.91110188117E+02  0.91110188153E+02  0.25500000920E-02 0.  1.
    10030    2    1    2    0    0  0.00000000000E+00  0.00000000000E+00  0.89370409542E+03  0.10759244717E+04  0.59908802243E+03 0.  0.
        4    1    3    3  502    0 -0.16651161710E+03 -0.23926809567E+03  0.57062406782E+03  0.64077201867E+03  0.12699999809E+01 0. -1.
       -4    1    3    3    0  502  0.16651161710E+03  0.23926809567E+03  0.32308002760E+03  0.43515245302E+03  0.12699999809E+01 0.  1.
</event>
<event>
 5   0  0.2225808E-02  0.6207866E+03  0.7818609E-02  0.9863195E-01
       -1   -1    0    0    0  501  0.00000000000E+00  0.00000000000E+00  0.75476152327E+02  0.75476152495E+02  0.50400001928E-02 0.  1.
        1   -1    0    0  501    0  0.00000000000E+00  0.00000000000E+00 -0.12764827906E+04  0.12764827906E+04  0.50400001928E-02 0. -1.
    10030    2    1    2    0    0  0.00000000000E+00  0.00000000000E+00 -0.12010066382E+04  0.13519589431E+04  0.62078662893E+03 0.  0.
        2    1    3    3  502    0  0.21288070563E+03  0.11262578562E+03 -0.10269397178E+04  0.10548023257E+04  0.25500000920E-02 0. -1.
       -2    1    3    3    0  502 -0.21288070563E+03 -0.11262578562E+03 -0.17406692044E+03  0.29715661732E+03  0.25500000920E-02 0.  1.
</event>
<event>
 5   0  0.2276105E-02  0.5982652E+03  0.7818609E-02  0.9909012E-01
        1   -1    0    0  501    0  0.00000000000E+00  0.00000000000E+00  0.23757977312E+03  0.23757977318E+03  0.50400001928E-02 0. -1.
       -1   -1    0    0    0  501  0.00000000000E+00  0.00000000000E+00 -0.37663275283E+03  0.37663275287E+03  0.50400001928E-02 0.  1.
    10030    2    1    2    0    0  0.00000000000E+00  0.00000000000E+00 -0.13905297971E+03  0.61421252604E+03  0.59826523882E+03 0.  0.
        1    1    3    3  502    0 -0.23786568591E+03  0.16245836293E+03 -0.15234599797E+03  0.32585596104E+03  0.50400001928E-02 0.  1.
       -1    1    3    3    0  502  0.23786568591E+03 -0.16245836293E+03  0.13293018263E+02  0.28835656500E+03  0.50400001928E-02 0. -1.
</event>
<event>
 5   0  0.3737642E-02  0.5288919E+03  0.7818609E-02  0.1006501E+00
       -2   -1    0    0    0  501  0.00000000000E+00  0.00000000000E+00  0.48215555539E+02  0.48215555606E+02  0.25500000920E-02 0. -1.
        2   -1    0    0  501    0  0.00000000000E+00  0.00000000000E+00 -0.14503963595E+04  0.14503963595E+04  0.25500000920E-02 0.  1.
    10030    2    1    2    0    0  0.00000000000E+00  0.00000000000E+00 -0.14021808039E+04  0.14986119151E+04  0.52889192195E+03 0.  0.
        5    1    3    3  502    0  0.44804365391E+02 -0.98549808562E+02 -0.13846033183E+04  0.13888369000E+04  0.46999998093E+01 0.  1.
       -5    1    3    3    0  502 -0.44804365391E+02  0.98549808562E+02 -0.17577485648E+02  0.10977501503E+03  0.46999998093E+01 0. -1.
</event>
<event>
 5   0  0.2382531E-02  0.5999823E+03  0.7818609E-02  0.9905443E-01
       -1   -1    0    0    0  501  0.00000000000E+00  0.00000000000E+00  0.91448090155E+02  0.91448090293E+02  0.50400001928E-02 0.  1.
        1   -1    0    0  501    0  0.00000000000E+00  0.00000000000E+00 -0.98410682937E+03  0.98410682938E+03  0.50400001928E-02 0. -1.
    10030    2    1    2    0    0  0.00000000000E+00  0.00000000000E+00 -0.89265873922E+03  0.10755549197E+04  0.59998230019E+03 0.  0.
        5    1    3    3  502    0  0.49119843788E+02 -0.17344575831E+03 -0.87610221284E+03  0.89446820373E+03  0.46999998093E+01 0.  1.
       -5    1    3    3    0  502 -0.49119843788E+02  0.17344575831E+03 -0.16556526373E+02  0.18108671595E+03  0.46999998093E+01 0. -1.
</event>
<event>
 5   0  0.3832191E-02  0.5965234E+03  0.7818609E-02  0.9912645E-01
       -2   -1    0    0    0  501  0.00000000000E+00  0.00000000000E+00  0.14854556081E+03  0.14854556083E+03  0.25500000920E-02 0. -1.
        2   -1    0    0  501    0  0.00000000000E+00  0.00000000000E+00 -0.59887374269E+03  0.59887374269E+03  0.25500000920E-02 0.  1.
    10030    2    1    2    0    0  0.00000000000E+00  0.00000000000E+00 -0.45032818188E+03  0.74741930353E+03  0.59652338084E+03 0.  0.
        3    1    3    3  502    0  0.48330754196E+02  0.25648177058E+03 -0.44280620882E+02  0.26472541250E+03  0.10100000352E+00 0. -1.
       -3    1    3    3    0  502 -0.48330754196E+02 -0.25648177058E+03 -0.40604756100E+03  0.48269389102E+03  0.10100000352E+00 0.  1.
</event>
<event>
 5   0  0.3934634E-02  0.6059323E+03  0.7818609E-02  0.9893174E-01
       -2   -1    0    0    0  501  0.00000000000E+00  0.00000000000E+00  0.76597312694E+03  0.76597312694E+03  0.25500000920E-02 0. -1.
        2   -1    0    0  501    0  0.00000000000E+00  0.00000000000E+00 -0.11983251715E+03  0.11983251718E+03  0.25500000920E-02 0.  1.
    10030    2    1    2    0    0  0.00000000000E+00  0.00000000000E+00  0.64614060979E+03  0.88580564412E+03  0.60593229948E+03 0.  0.
        1    1    3    3  502    0  0.16598227129E+02  0.14596387862E+03  0.71042265547E+03  0.72545248255E+03  0.50400001928E-02 0. -1.
       -1    1    3    3    0  502 -0.16598227129E+02 -0.14596387862E+03 -0.64282045684E+02  0.16035316158E+03  0.50400001928E-02 0.  1.
</event>
<event>
 5   0  0.2225808E-02  0.5985714E+03  0.7818609E-02  0.9908374E-01
        1   -1    0    0  501    0  0.00000000000E+00  0.00000000000E+00  0.37777763493E+03  0.37777763496E+03  0.50400001928E-02 0.  1.
       -1   -1    0    0    0  501  0.00000000000E+00  0.00000000000E+00 -0.23710229094E+03  0.23710229099E+03  0.50400001928E-02 0. -1.
    10030    2    1    2    0    0  0.00000000000E+00  0.00000000000E+00  0.14067534399E+03  0.61487992595E+03  0.59857144179E+03 0.  0.
        2    1    3    3  502    0  0.97989031888E+02  0.21444994714E+03 -0.11902501044E+03  0.26411660932E+03  0.25500000920E-02 0. -1.
       -2    1    3    3    0  502 -0.97989031888E+02 -0.21444994714E+03  0.25970035443E+03  0.35076331664E+03  0.25500000920E-02 0.  1.
</event>
<event>
 5   0  0.1521750E-02  0.5876358E+03  0.7818609E-02  0.9931395E-01
       -4   -1    0    0    0  501  0.00000000000E+00  0.00000000000E+00  0.63915173276E+03  0.63915299451E+03  0.12699999809E+01 0.  1.
        4   -1    0    0  501    0  0.00000000000E+00  0.00000000000E+00 -0.13506362134E+03  0.13506959210E+03  0.12699999809E+01 0. -1.
    10030    2    1    2    0    0  0.00000000000E+00  0.00000000000E+00  0.50408811142E+03  0.77422258661E+03  0.58763576265E+03 0.  0.
        5    1    3    3  502    0 -0.13480317629E+03  0.25134571543E+03  0.34483620987E+03  0.44752728033E+03  0.46999998093E+01 0.  1.
       -5    1    3    3    0  502  0.13480317629E+03 -0.25134571543E+03  0.15925190155E+03  0.32669530628E+03  0.46999998093E+01 0. -1.
</event>
<event>
 5   0  0.3832191E-02  0.5971548E+03  0.7818609E-02  0.9911327E-01
       -2   -1    0    0    0  501  0.00000000000E+00  0.00000000000E+00  0.11151384704E+03  0.11151384707E+03  0.25500000920E-02 0.  1.
        2   -1    0    0  501    0  0.00000000000E+00  0.00000000000E+00 -0.79943855980E+03  0.79943855980E+03  0.25500000920E-02 0. -1.
    10030    2    1    2    0    0  0.00000000000E+00  0.00000000000E+00 -0.68792471276E+03  0.91095240687E+03  0.59715481842E+03 0.  0.
        3    1    3    3  502    0 -0.10131623585E+03 -0.12555397103E+03 -0.72722027809E+03  0.74490141788E+03  0.10100000352E+00 0. -1.
       -3    1    3    3    0  502  0.10131623585E+03  0.12555397103E+03  0.39295565335E+02  0.16605098899E+03  0.10100000352E+00 0.  1.
</event>
<event>
 5   0  0.3737642E-02  0.6039745E+03  0.7818609E-02  0.9897194E-01
       -2   -1    0    0    0  501  0.00000000000E+00  0.00000000000E+00  0.31252057900E+03  0.31252057901E+03  0.25500000920E-02 0.  1.
        2   -1    0    0  501    0  0.00000000000E+00  0.00000000000E+00 -0.29180898377E+03  0.29180898378E+03  0.25500000920E-02 0. -1.
    10030    2    1    2    0    0  0.00000000000E+00  0.00000000000E+00  0.20711595228E+02  0.60432956279E+03  0.60397454440E+03 0.  0.
        5    1    3    3  502    0  0.19310089157E+03 -0.54417454276E+02 -0.21544255118E+03  0.29442621573E+03  0.46999998093E+01 0. -1.
       -5    1    3    3    0  502 -0.19310089157E+03  0.54417454276E+02  0.23615414641E+03  0.30990334706E+03  0.46999998093E+01 0.  1.
</event>
<event>
 5   0  0.2309055E-02  0.6001199E+03  0.7818609E-02  0.9905157E-01
       -1   -1    0    0    0  501  0.00000000000E+00  0.00000000000E+00  0.29662968131E+03  0.29662968136E+03  0.50400001928E-02 0. -1.
        1   -1    0    0  501    0  0.00000000000E+00  0.00000000000E+00 -0.30352985438E+03  0.30352985442E+03  0.50400001928E-02 0.  1.
    10030    2    1    2    0    0  0.00000000000E+00  0.00000000000E+00 -0.69001730686E+01  0.60015953578E+03  0.60011986802E+03 0.  0.
        4    1    3    3  502    0 -0.20668711255E+03 -0.14839133591E+03 -0.16250398967E+03  0.30190844742E+03  0.12699999809E+01 0.  1.
       -4    1    3    3    0  502  0.20668711255E+03  0.14839133591E+03  0.15560381660E+03  0.29825108836E+03  0.12699999809E+01 0. -1.
</event>
<event>
 5   0  0.2309055E-02  0.6020858E+03  0.7818609E-02  0.9901088E-01
        1   -1    0    0  501    0  0.00000000000E+00  0.00000000000E+00  0.77918543442E+03  0.77918543443E+03  0.50400001928E-02 0. -1.
       -1   -1    0    0    0  501  0.00000000000E+00  0.00000000000E+00 -0.11630971036E+03  0.11630971047E+03  0.50400001928E-02 0.  1.
    10030    2    1    2    0    0  0.00000000000E+00  0.00000000000E+00  0.66287572406E+03  0.89549514490E+03  0.60208581531E+03 0.  0.
        4    1    3    3  502    0 -0.41415166278E+02 -0.72316289960E+02  0.76168362638E+03  0.76623000554E+03  0.12699999809E+01 0. -1.
       -4    1    3    3    0  502  0.41415166278E+02  0.72316289960E+02 -0.98807902325E+02  0.12926513936E+03  0.12699999809E+01 0.  1.
</event>
<event>
 5   0  0.2276105E-02  0.6259968E+03  0.7818609E-02  0.9852892E-01
        1   -1    0    0  501    0  0.00000000000E+00  0.00000000000E+00  0.13234406277E+04  0.13234406277E+04  0.50400001928E-02 0. -1.
       -1   -1    0    0    0  501  0.00000000000E+00  0.00000000000E+00 -0.74025231450E+02  0.74025231621E+02  0.50400001928E-02 0.  1.
    10030    2    1    2    0    0  0.00000000000E+00  0.00000000000E+00  0.12494153963E+04  0.13974658593E+04  0.62599680160E+03 0.  0.
        1    1    3    3  502    0 -0.23964263665E+03  0.16608592253E+03  0.37061882089E+03  0.47156276081E+03  0.50400001928E-02 0. -1.
       -1    1    3    3    0  502  0.23964263665E+03 -0.16608592253E+03  0.87879657536E+03  0.92590309852E+03  0.50400001928E-02 0.  1.
</event>
<event>
 5   0  0.2276105E-02  0.6043622E+03  0.7818609E-02  0.9896397E-01
       -1   -1    0    0    0  501  0.00000000000E+00  0.00000000000E+00  0.13383268354E+03  0.13383268363E+03  0.50400001928E-02 0.  1.
        1   -1    0    0  501    0  0.00000000000E+00  0.00000000000E+00 -0.68229541119E+03  0.68229541121E+03  0.50400001928E-02 0. -1.
    10030    2    1    2    0    0  0.00000000000E+00  0.00000000000E+00 -0.54846272765E+03  0.81612809484E+03  0.60436222878E+03 0.  0.
        1    1    3    3  502    0  0.23724192673E+03  0.74807664604E+02 -0.42554842855E+02  0.25237042846E+03  0.50400001928E-02 0.  1.
       -1    1    3    3    0  502 -0.23724192673E+03 -0.74807664604E+02 -0.50590788479E+03  0.56375766638E+03  0.50400001928E-02 0. -1.
</event>
<event>
 5   0  0.2225808E-02  0.5929263E+03  0.7818609E-02  0.9920191E-01
       -1   -1    0    0    0  501  0.00000000000E+00  0.00000000000E+00  0.15880492378E+03  0.15880492386E+03  0.50400001928E-02 0.  1.
        1   -1    0    0  501    0  0.00000000000E+00  0.00000000000E+00 -0.55344878149E+03  0.55344878152E+03  0.50400001928E-02 0. -1.
    10030    2    1    2    0    0  0.00000000000E+00  0.00000000000E+00 -0.39464385771E+03  0.71225370538E+03  0.59292627400E+03 0.  0.
        2    1    3    3  502    0 -0.17849015725E+03  0.19606029320E+03 -0.35664983077E+03  0.44440688181E+03  0.25500000920E-02 0. -1.
       -2    1    3    3    0  502  0.17849015725E+03 -0.19606029320E+03 -0.37994026943E+02  0.26784682357E+03  0.25500000920E-02 0.  1.
</event>
<event>
 5   0  0.2382531E-02  0.5981994E+03  0.7818609E-02  0.9909149E-01
        1   -1    0    0  501    0  0.00000000000E+00  0.00000000000E+00  0.77790134430E+03  0.77790134431E+03  0.50400001928E-02 0. -1.
       -1   -1    0    0    0  501  0.00000000000E+00  0.00000000000E+00 -0.11500253190E+03  0.11500253201E+03  0.50400001928E-02 0.  1.
    10030    2    1    2    0    0  0.00000000000E+00  0.00000000000E+00  0.66289881240E+03  0.89290387632E+03  0.59819937886E+03 0.  0.
        5    1    3    3  502    0 -0.15415412910E+02  0.74474260113E+02  0.76317059330E+03  0.76696511971E+03  0.46999998093E+01 0. -1.
       -5    1    3    3    0  502  0.15415412910E+02 -0.74474260113E+02 -0.10027178090E+03  0.12593875661E+03  0.46999998093E+01 0.  1.
</event>
<event>
 5   0  0.1521750E-02  0.6057288E+03  0.7818609E-02  0.9893591E-01
       -3   -1    0    0    0  501  0.00000000000E+00  0.00000000000E+00  0.13216326662E+03  0.13216330521E+03  0.10100000352E+00 0.  1.
        3   -1    0    0  501    0  0.00000000000E+00  0.00000000000E+00 -0.69404179645E+03  0.69404180380E+03  0.10100000352E+00 0. -1.
    10030    2    1    2    0    0  0.00000000000E+00  0.00000000000E+00 -0.56187852984E+03  0.82620510901E+03  0.60572881710E+03 0.  0.
        1    1    3    3  502    0 -0.27205409275E+03  0.13154008227E+03 -0.30857897976E+03  0.43189953624E+03  0.50400001928E-02 0. -1.
       -1    1    3    3    0  502  0.27205409275E+03 -0.13154008227E+03 -0.25329955008E+03  0.39430557277E+03  0.50400001928E-02 0.  1.
</event>
<event>
 5   0  0.2225808E-02  0.6005843E+03  0.7818609E-02  0.9904195E-01
       -1   -1    0    0    0  501  0.00000000000E+00  0.00000000000E+00  0.14235590393E+03  0.14235590402E+03  0.50400001928E-02 0.  1.
        1   -1    0    0  501    0  0.00000000000E+00  0.00000000000E+00 -0.63345015474E+03  0.63345015476E+03  0.50400001928E-02 0. -1.
    10030    2    1    2    0    0  0.00000000000E+00  0.00000000000E+00 -0.49109425081E+03  0.77580605878E+03  0.60058428023E+03 0.  0.
        2    1    3    3  502    0  0.24559562214E+02  0.12687020890E+03 -0.59569572570E+03  0.60955116243E+03  0.25500000920E-02 0. -1.
       -2    1    3    3    0  502 -0.24559562214E+02 -0.12687020890E+03  0.10460147489E+03  0.16625489635E+03  0.25500000920E-02 0.  1.
</event>
<event>
 5   0  0.3934634E-02  0.5985129E+03  0.7818609E-02  0.9908496E-01
       -2   -1    0    0    0  501  0.00000000000E+00  0.00000000000E+00  0.12003578127E+03  0.12003578130E+03  0.25500000920E-02 0.  1.
        2   -1    0    0  501    0  0.00000000000E+00  0.00000000000E+00 -0.74606439810E+03  0.74606439811E+03  0.25500000920E-02 0. -1.
    10030    2    1    2    0    0  0.00000000000E+00  0.00000000000E+00 -0.62602861683E+03  0.86610017940E+03  0.59851290017E+03 0.  0.
        1    1    3    3  502    0  0.14027281470E+03  0.22409088142E+03 -0.51592271226E+03  0.57971495645E+03  0.50400001928E-02 0. -1.
       -1    1    3    3    0  502 -0.14027281470E+03 -0.22409088142E+03 -0.11010590458E+03  0.28638522296E+03  0.50400001928E-02 0.  1.
</event>
<event>
 5   0  0.3934634E-02  0.5992807E+03  0.7818609E-02  0.9906899E-01
       -2   -1    0    0    0  501  0.00000000000E+00  0.00000000000E+00  0.21351783907E+03  0.21351783909E+03  0.25500000920E-02 0.  1.
        2   -1    0    0  501    0  0.00000000000E+00  0.00000000000E+00 -0.42050045831E+03  0.42050045832E+03  0.25500000920E-02 0. -1.
    10030    2    1    2    0    0  0.00000000000E+00  0.00000000000E+00 -0.20698261924E+03  0.63401829740E+03  0.59928073286E+03 0.  0.
        1    1    3    3  502    0  0.41769161138E+00  0.21150706122E+03  0.12105904943E+03  0.24370208224E+03  0.50400001928E-02 0.  1.
       -1    1    3    3    0  502 -0.41769161138E+00 -0.21150706122E+03 -0.32804166867E+03  0.39031621516E+03  0.50400001928E-02 0. -1.
</event>
<event>
 5   0  0.3798925E-02  0.5946106E+03  0.7818609E-02  0.9916651E-01
        2   -1    0    0  501    0  0.00000000000E+00  0.00000000000E+00  0.63359390544E+03  0.63359390545E+03  0.25500000920E-02 0. -1.
       -2   -1    0    0    0  501  0.00000000000E+00  0.00000000000E+00 -0.13950645101E+03  0.13950645103E+03  0.25500000920E-02 0.  1.
    10030    2    1    2    0    0  0.00000000000E+00  0.00000000000E+00  0.49408745443E+03  0.77310035648E+03  0.59461058564E+03 0.  0.
        2    1    3    3  502    0  0.11909949818E+03  0.25623175031E+03  0.36727366565E+03  0.46338897896E+03  0.25500000920E-02 0. -1.
       -2    1    3    3    0  502 -0.11909949818E+03 -0.25623175031E+03  0.12681378879E+03  0.30971137752E+03  0.25500000920E-02 0.  1.
</event>
<event>
 5   0  0.2225808E-02  0.6042824E+03  0.7818609E-02  0.9896561E-01
       -1   -1    0    0    0  501  0.00000000000E+00  0.00000000000E+00  0.11676958119E+03  0.11676958130E+03  0.50400001928E-02 0. -1.
        1   -1    0    0  501    0  0.00000000000E+00  0.00000000000E+00 -0.78179015306E+03  0.78179015307E+03  0.50400001928E-02 0.  1.
    10030    2    1    2    0    0  0.00000000000E+00  0.00000000000E+00 -0.66502057187E+03  0.89855973437E+03  0.60428241346E+03 0.  0.
        2    1    3    3  502    0  0.18280391329E+03 -0.19120915230E+03 -0.54958533760E+03  0.60993627040E+03  0.25500000920E-02 0.  1.
       -2    1    3    3    0  502 -0.18280391329E+03  0.19120915230E+03 -0.11543523427E+03  0.28862346397E+03  0.25500000920E-02 0. -1.
</event>
<event>
 5   0  0.2309055E-02  0.5981491E+03  0.7818609E-02  0.9909253E-01
       -1   -1    0    0    0  501  0.00000000000E+00  0.00000000000E+00  0.61143532964E+02  0.61143533172E+02  0.50400001928E-02 0.  1.
        1   -1    0    0  501    0  0.00000000000E+00  0.00000000000E+00 -0.14628791025E+04  0.14628791025E+04  0.50400001928E-02 0. -1.
    10030    2    1    2    0    0  0.00000000000E+00  0.00000000000E+00 -0.14017355695E+04  0.15240226356E+04  0.59814913454E+03 0.  0.
        4    1    3    3  502    0 -0.26429318722E+03  0.12100003501E+03 -0.52156953328E+03  0.59709989803E+03  0.12699999809E+01 0.  1.
       -4    1    3    3    0  502  0.26429318722E+03 -0.12100003501E+03 -0.88016603622E+03  0.92692273761E+03  0.12699999809E+01 0. -1.
</event>
<event>
 5   0  0.2276105E-02  0.6053682E+03  0.7818609E-02  0.9894331E-01
        1   -1    0    0  501    0  0.00000000000E+00  0.00000000000E+00  0.10625096779E+04  0.10625096779E+04  0.50400001928E-02 0. -1.
       -1   -1    0    0    0  501  0.00000000000E+00  0.00000000000E+00 -0.86227592823E+02  0.86227592970E+02  0.50400001928E-02 0.  1.
    10030    2    1    2    0    0  0.00000000000E+00  0.00000000000E+00  0.97628208504E+03  0.11487372708E+04  0.60536815894E+03 0.  0.
        1    1    3    3  502    0 -0.12583842498E+03  0.24649272126E+03  0.72073011992E+03  0.77204007449E+03  0.50400001928E-02 0. -1.
       -1    1    3    3    0  502  0.12583842498E+03 -0.24649272126E+03  0.25555196511E+03  0.37669719635E+03  0.50400001928E-02 0.  1.
</event>
<event>
 5   0  0.2225808E-02  0.6045141E+03  0.7818609E-02  0.9896085E-01
       -1   -1    0    0    0  501  0.00000000000E+00  0.00000000000E+00  0.32536016570E+03  0.32536016574E+03  0.50400001928E-02 0.  1.
        1   -1    0    0  501    0  0.00000000000E+00  0.00000000000E+00 -0.28079445160E+03  0.28079445164E+03  0.50400001928E-02 0. -1.
    10030    2    1    2    0    0  0.00000000000E+00  0.00000000000E+00  0.44565714103E+02  0.60615461738E+03  0.60451411671E+03 0.  0.
        2    1    3    3  502    0  0.12109548785E+03  0.23815891044E+03 -0.11943556071E+03  0.29265788383E+03  0.25500000920E-02 0. -1.
       -2    1    3    3    0  502 -0.12109548785E+03 -0.23815891044E+03  0.16400127481E+03  0.31349673355E+03  0.25500000920E-02 0.  1.
</event>
<event>
 5   0  0.1521750E-02  0.5980101E+03  0.7818609E-02  0.9909543E-01
        4   -1    0    0  501    0  0.00000000000E+00  0.00000000000E+00  0.27030768044E+03  0.27031066388E+03  0.12699999809E+01 0. -1.
       -4   -1    0    0    0  501  0.00000000000E+00  0.00000000000E+00 -0.33074306919E+03  0.33074550748E+03  0.12699999809E+01 0.  1.
    10030    2    1    2    0    0  0.00000000000E+00  0.00000000000E+00 -0.60435388747E+02  0.60105617136E+03  0.59801010436E+03 0.  0.
        3    1    3    3  502    0 -0.33690997788E+01 -0.17888938859E+03 -0.27100266110E+03  0.32473868988E+03  0.10100000352E+00 0.  1.
       -3    1    3    3    0  502  0.33690997788E+01  0.17888938859E+03  0.21056727235E+03  0.27631748148E+03  0.10100000352E+00 0. -1.
</event>
<event>
 5   0  0.3832191E-02  0.5999211E+03  0.7818609E-02  0.9905570E-01
       -2   -1    0    0    0  501  0.00000000000E+00  0.00000000000E+00  0.22046685070E+03  0.22046685071E+03  0.25500000920E-02 0. -1.
        2   -1    0    0  501    0  0.00000000000E+00  0.00000000000E+00 -0.40811721835E+03  0.40811721836E+03  0.25500000920E-02 0.  1.
    10030    2    1    2    0    0  0.00000000000E+00  0.00000000000E+00 -0.18765036765E+03  0.62858406907E+03  0.59992105432E+03 0.  0.
        3    1    3    3  502    0 -0.25177182035E+03  0.16278364713E+03 -0.83954784017E+02  0.31134543718E+03  0.10100000352E+00 0. -1.
       -3    1    3    3    0  502  0.25177182035E+03 -0.16278364713E+03 -0.10369558364E+03  0.31723863189E+03  0.10100000352E+00 0.  1.
</event>
<event>
 5   0  0.3934634E-02  0.6364335E+03  0.7818609E-02  0.9832574E-01
        2   -1    0    0  501    0  0.00000000000E+00  0.00000000000E+00  0.14368626040E+03  0.14368626042E+03  0.25500000920E-02 0.  1.
       -2   -1    0    0    0  501  0.00000000000E+00  0.00000000000E+00 -0.70474306216E+03  0.70474306216E+03  0.25500000920E-02 0. -1.
    10030    2    1    2    0    0  0.00000000000E+00  0.00000000000E+00 -0.56105680176E+03  0.84842932258E+03  0.63643348483E+03 0.  0.
        1    1    3    3  502    0 -0.16896281440E+03  0.16139699655E+03  0.74472884858E+01  0.23377956557E+03  0.50400001928E-02 0.  1.
       -1    1    3    3    0  502  0.16896281440E+03 -0.16139699655E+03 -0.56850409024E+03  0.61464975701E+03  0.50400001928E-02 0. -1.
</event>
<event>
 5   0  0.3832191E-02  0.6048149E+03  0.7818609E-02  0.9895467E-01
        2   -1    0    0  501    0  0.00000000000E+00  0.00000000000E+00  0.14060181563E+04  0.14060181563E+04  0.25500000920E-02 0.  1.
       -2   -1    0    0    0  501  0.00000000000E+00  0.00000000000E+00 -0.65042019223E+02  0.65042019273E+02  0.25500000920E-02 0. -1.
    10030    2    1    2    0    0  0.00000000000E+00  0.00000000000E+00  0.13409761371E+04  0.14710601756E+04  0.60481488073E+03 0.  0.
        3    1    3    3  502    0  0.21557112152E+03 -0.13034083073E+03  0.10774128566E+04  0.11064710183E+04  0.10100000352E+00 0.  1.
       -3    1    3    3    0  502 -0.21557112152E+03  0.13034083073E+03  0.26356328051E+03  0.36458915730E+03  0.10100000352E+00 0. -1.
</event>
<event>
 5   0  0.2309055E-02  0.5998864E+03  0.7818609E-02  0.9905642E-01
        1   -1    0    0  501    0  0.00000000000E+00  0.00000000000E+00  0.26390573306E+03  0.26390573311E+03  0.50400001928E-02 0.  1.
       -1   -1    0    0    0  501  0.00000000000E+00  0.00000000000E+00 -0.34090173647E+03  0.34090173651E+03  0.50400001928E-02 0. -1.
    10030    2    1    2    0    0  0.00000000000E+00  0.00000000000E+00 -0.76996003412E+02  0.60480746962E+03  0.59988639822E+03 0.  0.
        4    1    3    3  502    0 -0.12972613146E+03 -0.52578030505E+02  0.22895345387E+03  0.26835539014E+03  0.12699999809E+01 0.  1.
       -4    1    3    3    0  502  0.12972613146E+03  0.52578030505E+02 -0.30594945729E+03  0.33645207948E+03  0.12699999809E+01 0. -1.
</event>
<event>
 5   0  0.3798925E-02  0.6010880E+03  0.7818609E-02  0.9903151E-01
        2   -1    0    0  501    0  0.00000000000E+00  0.00000000000E+00  0.13093183123E+04  0.13093183123E+04  0.25500000920E-02 0. -1.
       -2   -1    0    0    0  501  0.00000000000E+00  0.00000000000E+00 -0.68987583894E+02  0.68987583941E+02  0.25500000920E-02 0.  1.
    10030    2    1    2    0    0  0.00000000000E+00  0.00000000000E+00  0.12403307284E+04  0.13783058962E+04  0.60108803663E+03 0.  0.
        2    1    3    3  502    0 -0.24399377167E+03 -0.46310914941E+02  0.10082823126E+04  0.10384174899E+04  0.25500000920E-02 0. -1.
       -2    1    3    3    0  502  0.24399377167E+03  0.46310914941E+02  0.23204841574E+03  0.33988840626E+03  0.25500000920E-02 0.  1.
</event>
<event>
 5   0  0.3798925E-02  0.5860116E+03  0.7818609E-02  0.9934860E-01
       -2   -1    0    0    0  501  0.00000000000E+00  0.00000000000E+00  0.98454807288E+02  0.98454807321E+02  0.25500000920E-02 0.  1.
        2   -1    0    0  501    0  0.00000000000E+00  0.00000000000E+00 -0.87199804553E+03  0.87199804553E+03  0.25500000920E-02 0. -1.
    10030    2    1    2    0    0  0.00000000000E+00  0.00000000000E+00 -0.77354323824E+03  0.97045285285E+03  0.58601160243E+03 0.  0.
        2    1    3    3  502    0 -0.16802698782E+03 -0.24004020543E+03 -0.38648155109E+03  0.48499521461E+03  0.25500000920E-02 0. -1.
       -2    1    3    3    0  502  0.16802698782E+03  0.24004020543E+03 -0.38706168715E+03  0.48545763824E+03  0.25500000920E-02 0.  1.
</event>
<event>
 5   0  0.2309055E-02  0.5975531E+03  0.7818609E-02  0.9910496E-01
        1   -1    0    0  501    0  0.00000000000E+00  0.00000000000E+00  0.12744980520E+03  0.12744980530E+03  0.50400001928E-02 0.  1.
       -1   -1    0    0    0  501  0.00000000000E+00  0.00000000000E+00 -0.70041248423E+03  0.70041248425E+03  0.50400001928E-02 0. -1.
    10030    2    1    2    0    0  0.00000000000E+00  0.00000000000E+00 -0.57296267903E+03  0.82786228955E+03  0.59755312643E+03 0.  0.
        4    1    3    3  502    0  0.67176035922E+02 -0.23206996964E+03 -0.42959539844E+02  0.24538994595E+03  0.12699999809E+01 0.  1.
       -4    1    3    3    0  502 -0.67176035922E+02  0.23206996964E+03 -0.53000313918E+03  0.58247234360E+03  0.12699999809E+01 0. -1.
</event>
<event>
 5   0  0.2225808E-02  0.5847579E+03  0.7818609E-02  0.9937543E-01
        1   -1    0    0  501    0  0.00000000000E+00  0.00000000000E+00  0.37180159610E+03  0.37180159613E+03  0.50400001928E-02 0. -1.
       -1   -1    0    0    0  501  0.00000000000E+00  0.00000000000E+00 -0.22992224801E+03  0.22992224807E+03  0.50400001928E-02 0.  1.
    10030    2    1    2    0    0  0.00000000000E+00  0.00000000000E+00  0.14187934809E+03  0.60172384420E+03  0.58475792878E+03 0.  0.
        2    1    3    3  502    0 -0.57956261718E+02 -0.26412700797E+03 -0.43477446601E+02  0.27388372165E+03  0.25500000920E-02 0.  1.
       -2    1    3    3    0  502  0.57956261718E+02  0.26412700797E+03  0.18535679469E+03  0.32784012255E+03  0.25500000920E-02 0. -1.
</event>
<event>
 5   0  0.2382531E-02  0.6024996E+03  0.7818609E-02  0.9900234E-01
       -1   -1    0    0    0  501  0.00000000000E+00  0.00000000000E+00  0.16354717251E+03  0.16354717259E+03  0.50400001928E-02 0.  1.
        1   -1    0    0  501    0  0.00000000000E+00  0.00000000000E+00 -0.55489465325E+03  0.55489465327E+03  0.50400001928E-02 0. -1.
    10030    2    1    2    0    0  0.00000000000E+00  0.00000000000E+00 -0.39134748073E+03  0.71844182587E+03  0.60249963193E+03 0.  0.
        5    1    3    3  502    0  0.87055614029E+02 -0.22417131267E+03  0.20607543139E+02  0.24140881962E+03  0.46999998093E+01 0.  1.
       -5    1    3    3    0  502 -0.87055614029E+02  0.22417131267E+03 -0.41195502387E+03  0.47703300625E+03  0.46999998093E+01 0. -1.
</event>
<event>
 5   0  0.3724066E-02  0.6041019E+03  0.7818609E-02  0.9896932E-01
       -2   -1    0    0    0  501  0.00000000000E+00  0.00000000000E+00  0.22659782030E+03  0.22659782031E+03  0.25500000920E-02 0.  1.
        2   -1    0    0  501    0  0.00000000000E+00  0.00000000000E+00 -0.40262859314E+03  0.40262859314E+03  0.25500000920E-02 0. -1.
    10030    2    1    2    0    0  0.00000000000E+00  0.00000000000E+00 -0.17603077284E+03  0.62922641345E+03  0.60410185102E+03 0.  0.
        4    1    3    3  502    0  0.20807966042E+03 -0.12361882985E+03  0.10020538821E+03  0.26195704399E+03  0.12699999809E+01 0. -1.
       -4    1    3    3    0  502 -0.20807966042E+03  0.12361882985E+03 -0.27623616105E+03  0.36726936946E+03  0.12699999809E+01 0.  1.
</event>
<event>
 5   0  0.2382531E-02  0.6008158E+03  0.7818609E-02  0.9903715E-01
       -1   -1    0    0    0  501  0.00000000000E+00  0.00000000000E+00  0.25724953876E+03  0.25724953881E+03  0.50400001928E-02 0.  1.
        1   -1    0    0  501    0  0.00000000000E+00  0.00000000000E+00 -0.35080681852E+03  0.35080681855E+03  0.50400001928E-02 0. -1.
    10030    2    1    2    0    0  0.00000000000E+00  0.00000000000E+00 -0.93557279759E+02  0.60805635736E+03  0.60081575307E+03 0.  0.
        5    1    3    3  502    0 -0.19553149537E+03  0.88151812444E+02  0.16603987563E+03  0.27128331687E+03  0.46999998093E+01 0.  1.
       -5    1    3    3    0  502  0.19553149537E+03 -0.88151812444E+02 -0.25959715539E+03  0.33677304049E+03  0.46999998093E+01 0. -1.
</event>
<event>
 5   0  0.3934634E-02  0.5984573E+03  0.7818609E-02  0.9908612E-01
        2   -1    0    0  501    0  0.00000000000E+00  0.00000000000E+00  0.47433638246E+03  0.47433638247E+03  0.25500000920E-02 0.  1.
       -2   -1    0    0    0  501  0.00000000000E+00  0.00000000000E+00 -0.18876434482E+03  0.18876434483E+03  0.25500000920E-02 0. -1.
    10030    2    1    2    0    0  0.00000000000E+00  0.00000000000E+00  0.28557203765E+03  0.66310072731E+03  0.59845733839E+03 0.  0.
        1    1    3    3  502    0  0.46853866316E+02  0.24455637010E+03  0.32664566955E+03  0.41073165985E+03  0.50400001928E-02 0.  1.
       -1    1    3    3    0  502 -0.46853866316E+02 -0.24455637010E+03 -0.41073631900E+02  0.25236906745E+03  0.50400001928E-02 0. -1.
</event>
<event>
 5   0  0.2382531E-02  0.5983841E+03  0.7818609E-02  0.9908764E-01
       -1   -1    0    0    0  501  0.00000000000E+00  0.00000000000E+00  0.13313572107E+03  0.13313572117E+03  0.50400001928E-02 0.  1.
        1   -1    0    0  501    0  0.00000000000E+00  0.00000000000E+00 -0.67236555859E+03  0.67236555861E+03  0.50400001928E-02 0. -1.
    10030    2    1    2    0    0  0.00000000000E+00  0.00000000000E+00 -0.53922983752E+03  0.80550127978E+03  0.59838406902E+03 0.  0.
        5    1    3    3  502    0 -0.32360663123E+02 -0.22109406807E+03 -0.53736907519E+03  0.58199434054E+03  0.46999998093E+01 0. -1.
       -5    1    3    3    0  502  0.32360663123E+02  0.22109406807E+03 -0.18607623273E+01  0.22350693924E+03  0.46999998093E+01 0.  1.
</event>
<event>
 5   0  0.2276105E-02  0.6037138E+03  0.7818609E-02  0.9897731E-01
       -1   -1    0    0    0  501  0.00000000000E+00  0.00000000000E+00  0.50566101935E+03  0.50566101938E+03  0.50400001928E-02 0.  1.
        1   -1    0    0  501    0  0.00000000000E+00  0.00000000000E+00 -0.18019500029E+03  0.18019500036E+03  0.50400001928E-02 0. -1.
    10030    2    1    2    0    0  0.00000000000E+00  0.00000000000E+00  0.32546601906E+03  0.68585601974E+03  0.60371379829E+03 0.  0.
        1    1    3    3  502    0  0.31075442279E+02 -0.34393867987E+02  0.50159364815E+03  0.50373088962E+03  0.50400001928E-02 0.  1.
       -1    1    3    3    0  502 -0.31075442279E+02  0.34393867987E+02 -0.17612762909E+03  0.18212513012E+03  0.50400001928E-02 0. -1.
</event>
<event>
 5   0  0.2276105E-02  0.5989453E+03  0.7818609E-02  0.9907597E-01
       -1   -1    0    0    0  501  0.00000000000E+00  0.00000000000E+00  0.19793960204E+03  0.19793960211E+03  0.50400001928E-02 0.  1.
        1   -1    0    0  501    0  0.00000000000E+00  0.00000000000E+00 -0.45308700927E+03  0.45308700929E+03  0.50400001928E-02 0. -1.
    10030    2    1    2    0    0  0.00000000000E+00  0.00000000000E+00 -0.25514740723E+03  0.65102661140E+03  0.59894528075E+03 0.  0.
        1    1    3    3  502    0  0.11133496762E+03 -0.24972128723E+03  0.52291932453E+01  0.27346579457E+03  0.50400001928E-02 0.  1.
       -1    1    3    3    0  502 -0.11133496762E+03  0.24972128723E+03 -0.26037660047E+03  0.37756081683E+03  0.50400001928E-02 0. -1.
</event>
<event>
 5   0  0.2382531E-02  0.6034569E+03  0.7818609E-02  0.9898260E-01
        1   -1    0    0  501    0  0.00000000000E+00  0.00000000000E+00  0.24724752798E+03  0.24724752803E+03  0.50400001928E-02 0. -1.
       -1   -1    0    0    0  501  0.00000000000E+00  0.00000000000E+00 -0.36821424441E+03  0.36821424444E+03  0.50400001928E-02 0.  1.
    10030    2    1    2    0    0  0.00000000000E+00  0.00000000000E+00 -0.12096671643E+03  0.61546177247E+03  0.60345691387E+03 0.  0.
        5    1    3    3  502    0 -0.18127585037E+03  0.39252181062E+02  0.18219194079E+03  0.26003396111E+03  0.46999998093E+01 0. -1.
       -5    1    3    3    0  502  0.18127585037E+03 -0.39252181062E+02 -0.30315865721E+03  0.35542781136E+03  0.46999998093E+01 0.  1.
</event>
<event>
 5   0  0.3724066E-02  0.5993844E+03  0.7818609E-02  0.9906684E-01
        2   -1    0    0  501    0  0.00000000000E+00  0.00000000000E+00  0.10363921560E+04  0.10363921560E+04  0.25500000920E-02 0. -1.
       -2   -1    0    0    0  501  0.00000000000E+00  0.00000000000E+00 -0.86661614454E+02  0.86661614491E+02  0.25500000920E-02 0.  1.
    10030    2    1    2    0    0  0.00000000000E+00  0.00000000000E+00  0.94973054155E+03  0.11230537705E+04  0.59938440911E+03 0.  0.
        4    1    3    3  502    0 -0.62533551682E+02 -0.20188298431E+03  0.76751014693E+02  0.22485443202E+03  0.12699999809E+01 0.  1.
       -4    1    3    3    0  502  0.62533551682E+02  0.20188298431E+03  0.87297952686E+03  0.89819933848E+03  0.12699999809E+01 0. -1.
</event>
<event>
 5   0  0.3832191E-02  0.5961604E+03  0.7818609E-02  0.9913404E-01
       -2   -1    0    0    0  501  0.00000000000E+00  0.00000000000E+00  0.36180624882E+03  0.36180624883E+03  0.25500000920E-02 0. -1.
        2   -1    0    0  501    0  0.00000000000E+00  0.00000000000E+00 -0.24557841906E+03  0.24557841907E+03  0.25500000920E-02 0.  1.
    10030    2    1    2    0    0  0.00000000000E+00  0.00000000000E+00  0.11622782976E+03  0.60738466790E+03  0.59616040324E+03 0.  0.
        3    1    3    3  502    0  0.14917895692E+03 -0.23324632519E+03 -0.54389689980E+02  0.28216388497E+03  0.10100000352E+00 0.  1.
       -3    1    3    3    0  502 -0.14917895692E+03  0.23324632519E+03  0.17061751974E+03  0.32522078293E+03  0.10100000352E+00 0. -1.
</event>
<event>
 5   0  0.3798925E-02  0.6099327E+03  0.7818609E-02  0.9885011E-01
        2   -1    0    0  501    0  0.00000000000E+00  0.00000000000E+00  0.48453798357E+03  0.48453798358E+03  0.25500000920E-02 0.  1.
       -2   -1    0    0    0  501  0.00000000000E+00  0.00000000000E+00 -0.19194462276E+03  0.19194462278E+03  0.25500000920E-02 0. -1.
    10030    2    1    2    0    0  0.00000000000E+00  0.00000000000E+00  0.29259336082E+03  0.67648260636E+03  0.60993265359E+03 0.  0.
        2    1    3    3  502    0  0.15285518846E+03  0.13789718729E+03  0.39584432960E+03  0.44617605963E+03  0.25500000920E-02 0.  1.
       -2    1    3    3    0  502 -0.15285518846E+03 -0.13789718729E+03 -0.10325096879E+03  0.23030654673E+03  0.25500000920E-02 0. -1.
</event>
<event>
 5   0  0.3934634E-02  0.6060008E+03  0.7818609E-02  0.9893034E-01
        2   -1    0    0  501    0  0.00000000000E+00  0.00000000000E+00  0.11361849512E+04  0.11361849512E+04  0.25500000920E-02 0. -1.
       -2   -1    0    0    0  501  0.00000000000E+00  0.00000000000E+00 -0.80804834081E+02  0.80804834121E+02  0.25500000920E-02 0.  1.
    10030    2    1    2    0    0  0.00000000000E+00  0.00000000000E+00  0.10553801172E+04  0.12169897854E+04  0.60600078052E+03 0.  0.
        1    1    3    3  502    0  0.11703558986E+03 -0.15245178371E+03  0.57273438111E+02  0.20054705779E+03  0.50400001928E-02 0.  1.
       -1    1    3    3    0  502 -0.11703558986E+03  0.15245178371E+03  0.99810667905E+03  0.10164427276E+04  0.50400001928E-02 0. -1.
</event>
<event>
 5   0  0.3737642E-02  0.6005699E+03  0.7818609E-02  0.9904224E-01
        2   -1    0    0  501    0  0.00000000000E+00  0.00000000000E+00  0.84897036300E+02  0.84897036339E+02  0.25500000920E-02 0. -1.
       -2   -1    0    0    0  501  0.00000000000E+00  0.00000000000E+00 -0.10621223958E+04  0.10621223958E+04  0.25500000920E-02 0.  1.
    10030    2    1    2    0    0  0.00000000000E+00  0.00000000000E+00 -0.97722535952E+03  0.11470194322E+04  0.60056987476E+03 0.  0.
        5    1    3    3  502    0  0.48196226505E+02 -0.12510623890E+03  0.24483927398E+02  0.13636715133E+03  0.46999998093E+01 0. -1.
       -5    1    3    3    0  502 -0.48196226505E+02  0.12510623890E+03 -0.10017092869E+04  0.10106522808E+04  0.46999998093E+01 0.  1.
</event>
<event>
 5   0  0.3832191E-02  0.5984159E+03  0.7818609E-02  0.9908698E-01
        2   -1    0    0  501    0  0.00000000000E+00  0.00000000000E+00  0.15069727197E+04  0.15069727197E+04  0.25500000920E-02 0.  1.
       -2   -1    0    0    0  501  0.00000000000E+00  0.00000000000E+00 -0.59407447125E+02  0.59407447180E+02  0.25500000920E-02 0. -1.
    10030    2    1    2    0    0  0.00000000000E+00  0.00000000000E+00  0.14475652726E+04  0.15663801669E+04  0.59841591626E+03 0.  0.
        3    1    3    3  502    0 -0.26754189362E+03  0.13274071568E+03  0.77108924195E+03  0.82690833330E+03  0.10100000352E+00 0. -1.
       -3    1    3    3    0  502  0.26754189362E+03 -0.13274071568E+03  0.67647603062E+03  0.73947183357E+03  0.10100000352E+00 0.  1.
</event>
<event>
 5   0  0.2276105E-02  0.6014616E+03  0.7818609E-02  0.9902378E-01
        1   -1    0    0  501    0  0.00000000000E+00  0.00000000000E+00  0.11259571053E+04  0.11259571053E+04  0.50400001928E-02 0.  1.
       -1   -1    0    0    0  501  0.00000000000E+00  0.00000000000E+00 -0.80321894999E+02  0.80321895157E+02  0.50400001928E-02 0. -1.
    10030    2    1    2    0    0  0.00000000000E+00  0.00000000000E+00  0.10456352103E+04  0.12062790005E+04  0.60146158144E+03 0.  0.
        1    1    3    3  502    0  0.28160291907E+03 -0.77496215738E+02  0.66650923527E+03  0.72769528527E+03  0.50400001928E-02 0.  1.
       -1    1    3    3    0  502 -0.28160291907E+03  0.77496215738E+02  0.37912597504E+03  0.47858371520E+03  0.50400001928E-02 0. -1.
</event>
<event>
 5   0  0.2295179E-02  0.6022805E+03  0.7818609E-02  0.9900686E-01
        1   -1    0    0  501    0  0.00000000000E+00  0.00000000000E+00  0.16408713324E+03  0.16408713332E+03  0.50400001928E-02 0. -1.
       -1   -1    0    0    0  501  0.00000000000E+00  0.00000000000E+00 -0.55266640960E+03  0.55266640962E+03  0.50400001928E-02 0.  1.
    10030    2    1    2    0    0  0.00000000000E+00  0.00000000000E+00 -0.38857927636E+03  0.71675354294E+03  0.60228048889E+03 0.  0.
        3    1    3    3  502    0  0.52211612593E+01 -0.30100269475E+03 -0.18541954580E+03  0.35356795802E+03  0.10100000352E+00 0.  1.
       -3    1    3    3    0  502 -0.52211612593E+01  0.30100269475E+03 -0.20315973056E+03  0.36318558492E+03  0.10100000352E+00 0. -1.
</event>
<event>
 5   0  0.2382531E-02  0.5998511E+03  0.7818609E-02  0.9905715E-01
        1   -1    0    0  501    0  0.00000000000E+00  0.00000000000E+00  0.40728047246E+03  0.40728047249E+03  0.50400001928E-02 0. -1.
       -1   -1    0    0    0  501  0.00000000000E+00  0.00000000000E+00 -0.22086824815E+03  0.22086824820E+03  0.50400001928E-02 0.  1.
    10030    2    1    2    0    0  0.00000000000E+00  0.00000000000E+00  0.18641222431E+03  0.62814872069E+03  0.59985106313E+03 0.  0.
        5    1    3    3  502    0 -0.59850501307E+02  0.60217782618E+02  0.39439389920E+03  0.40345619536E+03  0.46999998093E+01 0. -1.
       -5    1    3    3    0  502  0.59850501307E+02 -0.60217782618E+02 -0.20798167489E+03  0.22469252533E+03  0.46999998093E+01 0.  1.
</event>
<event>
 5   0  0.2295179E-02  0.5979353E+03  0.7818609E-02  0.9909699E-01
        1   -1    0    0  501    0  0.00000000000E+00  0.00000000000E+00  0.47528808394E+03  0.47528808397E+03  0.50400001928E-02 0. -1.
       -1   -1    0    0    0  501  0.00000000000E+00  0.00000000000E+00 -0.18805783387E+03  0.18805783394E+03  0.50400001928E-02 0.  1.
    10030    2    1    2    0    0  0.00000000000E+00  0.00000000000E+00  0.28723025007E+03  0.66334591791E+03  0.59793527262E+03 0.  0.
        3    1    3    3  502    0  0.28192144265E+03  0.76225629753E+02  0.72652121379E+02  0.30094582137E+03  0.10100000352E+00 0. -1.
       -3    1    3    3    0  502 -0.28192144265E+03 -0.76225629753E+02  0.21457812869E+03  0.36240009654E+03  0.10100000352E+00 0.  1.
</event>
<event>
 5   0  0.3798925E-02  0.5996156E+03  0.7818609E-02  0.9906204E-01
        2   -1    0    0  501    0  0.00000000000E+00  0.00000000000E+00  0.50774466911E+03  0.50774466911E+03  0.25500000920E-02 0. -1.
       -2   -1    0    0    0  501  0.00000000000E+00  0.00000000000E+00 -0.17702741787E+03  0.17702741789E+03  0.25500000920E-02 0.  1.
    10030    2    1    2    0    0  0.00000000000E+00  0.00000000000E+00  0.33071725123E+03  0.68477208700E+03  0.59961563595E+03 0.  0.
        2    1    3    3  502    0 -0.59201239333E+01 -0.14654229607E+03 -0.13326343068E+03  0.19816365552E+03  0.25500000920E-02 0.  1.
       -2    1    3    3    0  502  0.59201239333E+01  0.14654229607E+03  0.46398068191E+03  0.48660843149E+03  0.25500000920E-02 0. -1.
</event>
<event>
 5   0  0.3832191E-02  0.5995078E+03  0.7818609E-02  0.9906428E-01
        2   -1    0    0  501    0  0.00000000000E+00  0.00000000000E+00  0.37742639090E+03  0.37742639091E+03  0.25500000920E-02 0.  1.
       -2   -1    0    0    0  501  0.00000000000E+00  0.00000000000E+00 -0.23806600236E+03  0.23806600238E+03  0.25500000920E-02 0. -1.
    10030    2    1    2    0    0  0.00000000000E+00  0.00000000000E+00  0.13936038854E+03  0.61549239329E+03  0.59950777168E+03 0.  0.
        3    1    3    3  502    0 -0.60932208716E+02  0.28508501868E+03 -0.19377670968E+01  0.29153038792E+03  0.10100000352E+00 0.  1.
       -3    1    3    3    0  502  0.60932208716E+02 -0.28508501868E+03  0.14129815563E+03  0.32396200537E+03  0.10100000352E+00 0. -1.
</event>
<event>
 5   0  0.2295179E-02  0.5968438E+03  0.7818609E-02  0.9911976E-01
        1   -1    0    0  501    0  0.00000000000E+00  0.00000000000E+00  0.43470687946E+03  0.43470687949E+03  0.50400001928E-02 0. -1.
       -1   -1    0    0    0  501  0.00000000000E+00  0.00000000000E+00 -0.20486363917E+03  0.20486363923E+03  0.50400001928E-02 0.  1.
    10030    2    1    2    0    0  0.00000000000E+00  0.00000000000E+00  0.22984324030E+03  0.63957051872E+03  0.59684380981E+03 0.  0.
        3    1    3    3  502    0  0.24904799571E+03 -0.10562702549E+03  0.24993168591E+03  0.36830399198E+03  0.10100000352E+00 0. -1.
       -3    1    3    3    0  502 -0.24904799571E+03  0.10562702549E+03 -0.20088445619E+02  0.27126652674E+03  0.10100000352E+00 0.  1.
</event>
<event>
 5   0  0.2225808E-02  0.5957338E+03  0.7818609E-02  0.9914297E-01
        1   -1    0    0  501    0  0.00000000000E+00  0.00000000000E+00  0.89423034575E+03  0.89423034577E+03  0.50400001928E-02 0.  1.
       -1   -1    0    0    0  501  0.00000000000E+00  0.00000000000E+00 -0.99219064099E+02  0.99219064227E+02  0.50400001928E-02 0. -1.
    10030    2    1    2    0    0  0.00000000000E+00  0.00000000000E+00  0.79501128165E+03  0.99344940999E+03  0.59573382669E+03 0.  0.
        2    1    3    3  502    0  0.23736058848E+03 -0.12387649622E+03  0.17982545688E+03  0.32252539470E+03  0.25500000920E-02 0. -1.
       -2    1    3    3    0  502 -0.23736058848E+03  0.12387649622E+03  0.61518582477E+03  0.67092401529E+03  0.25500000920E-02 0.  1.
</event>
<event>
 5   0  0.3798925E-02  0.5985507E+03  0.7818609E-02  0.9908418E-01
       -2   -1    0    0    0  501  0.00000000000E+00  0.00000000000E+00  0.75741116527E+02  0.75741116570E+02  0.25500000920E-02 0. -1.
        2   -1    0    0  501    0  0.00000000000E+00  0.00000000000E+00 -0.11825244490E+04  0.11825244490E+04  0.25500000920E-02 0.  1.
    10030    2    1    2    0    0  0.00000000000E+00  0.00000000000E+00 -0.11067833325E+04  0.12582655656E+04  0.59855065656E+03 0.  0.
        2    1    3    3  502    0 -0.38575586837E+02 -0.25493428915E+03 -0.23398263006E+03  0.34817730951E+03  0.25500000920E-02 0. -1.
       -2    1    3    3    0  502  0.38575586837E+02  0.25493428915E+03 -0.87280070241E+03  0.91008825606E+03  0.25500000920E-02 0.  1.
</event>
<event>
 5   0  0.2225808E-02  0.6004031E+03  0.7818609E-02  0.9904570E-01
       -1   -1    0    0    0  501  0.00000000000E+00  0.00000000000E+00  0.14415039292E+03  0.14415039301E+03  0.50400001928E-02 0. -1.
        1   -1    0    0  501    0  0.00000000000E+00  0.00000000000E+00 -0.62518711025E+03  0.62518711027E+03  0.50400001928E-02 0.  1.
    10030    2    1    2    0    0  0.00000000000E+00  0.00000000000E+00 -0.48103671733E+03  0.76933750327E+03  0.60040309003E+03 0.  0.
        2    1    3    3  502    0  0.18445613672E+03  0.22920523936E+03 -0.31699210693E+03  0.43248480203E+03  0.25500000920E-02 0.  1.
       -2    1    3    3    0  502 -0.18445613672E+03 -0.22920523936E+03 -0.16404461040E+03  0.33685270124E+03  0.25500000920E-02 0. -1.
</event>
<event>
 5   0  0.1521750E-02  0.5996313E+03  0.7818609E-02  0.9906171E-01
        3   -1    0    0  501    0  0.00000000000E+00  0.00000000000E+00  0.12620986191E+04  0.12620986231E+04  0.10100000352E+00 0.  1.
       -3   -1    0    0    0  501  0.00000000000E+00  0.00000000000E+00 -0.71222157103E+02  0.71222228717E+02  0.10100000352E+00 0. -1.
    10030    2    1    2    0    0  0.00000000000E+00  0.00000000000E+00  0.11908764620E+04  0.13333208519E+04  0.59963134196E+03 0.  0.
        2    1    3    3  502    0  0.47604010285E+02  0.15184155129E+02 -0.61898672739E+02  0.79549645226E+02  0.25500000920E-02 0. -1.
       -2    1    3    3    0  502 -0.47604010285E+02 -0.15184155129E+02  0.12527751347E+04  0.12537712066E+04  0.25500000920E-02 0.  1.
</event>
<event>
 5   0  0.3934634E-02  0.5910057E+03  0.7818609E-02  0.9924244E-01
        2   -1    0    0  501    0  0.00000000000E+00  0.00000000000E+00  0.10244666994E+04  0.10244666994E+04  0.25500000920E-02 0.  1.
       -2   -1    0    0    0  501  0.00000000000E+00  0.00000000000E+00 -0.85236472569E+02  0.85236472607E+02  0.25500000920E-02 0. -1.
    10030    2    1    2    0    0  0.00000000000E+00  0.00000000000E+00  0.93923022687E+03  0.11097031721E+04  0.59100567763E+03 0.  0.
        1    1    3    3  502    0  0.19328555923E+03 -0.97106946735E+02  0.91591607834E+02  0.23490016850E+03  0.50400001928E-02 0. -1.
       -1    1    3    3    0  502 -0.19328555923E+03  0.97106946735E+02  0.84763861904E+03  0.87480300355E+03  0.50400001928E-02 0.  1.
</event>
<event>
 5   0  0.2225808E-02  0.5980203E+03  0.7818609E-02  0.9909522E-01
       -1   -1    0    0    0  501  0.00000000000E+00  0.00000000000E+00  0.54274929868E+03  0.54274929870E+03  0.50400001928E-02 0.  1.
        1   -1    0    0  501    0  0.00000000000E+00  0.00000000000E+00 -0.16472993822E+03  0.16472993829E+03  0.50400001928E-02 0. -1.
    10030    2    1    2    0    0  0.00000000000E+00  0.00000000000E+00  0.37801936046E+03  0.70747923699E+03  0.59802026211E+03 0.  0.
        2    1    3    3  502    0 -0.23951440716E+03  0.15511882530E+03  0.29467838265E+03  0.41020037836E+03  0.25500000920E-02 0. -1.
       -2    1    3    3    0  502  0.23951440716E+03 -0.15511882530E+03  0.83340977809E+02  0.29727885863E+03  0.25500000920E-02 0.  1.
</event>
<event>
 5   0  0.2276105E-02  0.5945545E+03  0.7818609E-02  0.9916769E-01
        1   -1    0    0  501    0  0.00000000000E+00  0.00000000000E+00  0.32799249685E+04  0.32799249685E+04  0.50400001928E-02 0. -1.
       -1   -1    0    0    0  501  0.00000000000E+00  0.00000000000E+00 -0.26943837067E+02  0.26943837538E+02  0.50400001928E-02 0.  1.
    10030    2    1    2    0    0  0.00000000000E+00  0.00000000000E+00  0.32529811315E+04  0.33068688061E+04  0.59455450458E+03 0.  0.
        1    1    3    3  502    0  0.16824240993E+03  0.24102987823E+03  0.18735336868E+04  0.18964517886E+04  0.50400001928E-02 0. -1.
       -1    1    3    3    0  502 -0.16824240993E+03 -0.24102987823E+03  0.13794474447E+04  0.14104170175E+04  0.50400001928E-02 0.  1.
</event>
<event>
 5   0  0.2225808E-02  0.5997892E+03  0.7818609E-02  0.9905843E-01
        1   -1    0    0  501    0  0.00000000000E+00  0.00000000000E+00  0.29887279300E+03  0.29887279304E+03  0.50400001928E-02 0.  1.
       -1   -1    0    0    0  501  0.00000000000E+00  0.00000000000E+00 -0.30091990442E+03  0.30091990447E+03  0.50400001928E-02 0. -1.
    10030    2    1    2    0    0  0.00000000000E+00  0.00000000000E+00 -0.20471114281E+01  0.59979269751E+03  0.59978920407E+03 0.  0.
        2    1    3    3  502    0 -0.21494970540E+03  0.99220285431E+02  0.18306643912E+03  0.29926804378E+03  0.25500000920E-02 0.  1.
       -2    1    3    3    0  502  0.21494970540E+03 -0.99220285431E+02 -0.18511355055E+03  0.30052465372E+03  0.25500000920E-02 0. -1.
</event>
<event>
 5   0  0.3934634E-02  0.5975360E+03  0.7818609E-02  0.9910531E-01
        2   -1    0    0  501    0  0.00000000000E+00  0.00000000000E+00  0.25740484228E+03  0.25740484229E+03  0.25500000920E-02 0. -1.
       -2   -1    0    0    0  501  0.00000000000E+00  0.00000000000E+00 -0.34677796211E+03  0.34677796212E+03  0.25500000920E-02 0.  1.
    10030    2    1    2    0    0  0.00000000000E+00  0.00000000000E+00 -0.89373119828E+02  0.60418280441E+03  0.59753602954E+03 0.  0.
        1    1    3    3  502    0  0.16133634935E+03  0.18530303555E+03  0.12719165265E+03  0.27666649442E+03  0.50400001928E-02 0. -1.
       -1    1    3    3    0  502 -0.16133634935E+03 -0.18530303555E+03 -0.21656477248E+03  0.32751630999E+03  0.50400001928E-02 0.  1.
</event>
<event>
 5   0  0.3737642E-02  0.5967615E+03  0.7818609E-02  0.9912148E-01
       -2   -1    0    0    0  501  0.00000000000E+00  0.00000000000E+00  0.18067957181E+03  0.18067957183E+03  0.25500000920E-02 0. -1.
        2   -1    0    0  501    0  0.00000000000E+00  0.00000000000E+00 -0.49275665396E+03  0.49275665397E+03  0.25500000920E-02 0.  1.
    10030    2    1    2    0    0  0.00000000000E+00  0.00000000000E+00 -0.31207708215E+03  0.67343622580E+03  0.59676146408E+03 0.  0.
        5    1    3    3  502    0  0.25684640673E+03  0.60731657226E+02 -0.31301787331E+03  0.40946390542E+03  0.46999998093E+01 0. -1.
       -5    1    3    3    0  502 -0.25684640673E+03 -0.60731657226E+02  0.94079115394E+00  0.26397232037E+03  0.46999998093E+01 0.  1.
</event>
<event>
 5   0  0.2295179E-02  0.6003700E+03  0.7818609E-02  0.9904639E-01
       -1   -1    0    0    0  501  0.00000000000E+00  0.00000000000E+00  0.68103741083E+02  0.68103741269E+02  0.50400001928E-02 0. -1.
        1   -1    0    0  501    0  0.00000000000E+00  0.00000000000E+00 -0.13231438899E+04  0.13231438899E+04  0.50400001928E-02 0.  1.
    10030    2    1    2    0    0  0.00000000000E+00  0.00000000000E+00 -0.12550401488E+04  0.13912476312E+04  0.60037004932E+03 0.  0.
        3    1    3    3  502    0 -0.17040557582E+02  0.27696188002E+03 -0.36216174272E+03  0.45624489222E+03  0.10100000352E+00 0. -1.
       -3    1    3    3    0  502  0.17040557582E+02 -0.27696188002E+03 -0.89287840612E+03  0.93500273898E+03  0.10100000352E+00 0.  1.
</event>
<event>
 5   0  0.3724066E-02  0.5887397E+03  0.7818609E-02  0.9929047E-01
       -2   -1    0    0    0  501  0.00000000000E+00  0.00000000000E+00  0.83178464189E+02  0.83178464228E+02  0.25500000920E-02 0.  1.
        2   -1    0    0  501    0  0.00000000000E+00  0.00000000000E+00 -0.10417792827E+04  0.10417792827E+04  0.25500000920E-02 0. -1.
    10030    2    1    2    0    0  0.00000000000E+00  0.00000000000E+00 -0.95860081849E+03  0.11249577469E+04  0.58873967347E+03 0.  0.
        4    1    3    3  502    0  0.11940701154E+03 -0.17288265380E+02 -0.99235749516E+03  0.99966590901E+03  0.12699999809E+01 0. -1.
       -4    1    3    3    0  502 -0.11940701154E+03  0.17288265380E+02  0.33756676677E+02  0.12529183790E+03  0.12699999809E+01 0.  1.
</event>
<event>
 5   0  0.2309055E-02  0.6008386E+03  0.7818609E-02  0.9903668E-01
       -1   -1    0    0    0  501  0.00000000000E+00  0.00000000000E+00  0.45518790364E+03  0.45518790367E+03  0.50400001928E-02 0. -1.
        1   -1    0    0  501    0  0.00000000000E+00  0.00000000000E+00 -0.19827360197E+03  0.19827360203E+03  0.50400001928E-02 0.  1.
    10030    2    1    2    0    0  0.00000000000E+00  0.00000000000E+00  0.25691430168E+03  0.65346150570E+03  0.60083856487E+03 0.  0.
        4    1    3    3  502    0 -0.70389107506E+02 -0.21125987395E+03 -0.90859385008E+02  0.24050447302E+03  0.12699999809E+01 0.  1.
       -4    1    3    3    0  502  0.70389107506E+02  0.21125987395E+03  0.34777368669E+03  0.41295703269E+03  0.12699999809E+01 0. -1.
</event>
<event>
 5   0  0.2382531E-02  0.5356122E+03  0.7818609E-02  0.1004880E+00
       -1   -1    0    0    0  501  0.00000000000E+00  0.00000000000E+00  0.66149542675E+02  0.66149542867E+02  0.50400001928E-02 0. -1.
        1   -1    0    0  501    0  0.00000000000E+00  0.00000000000E+00 -0.10842116636E+04  0.10842116636E+04  0.50400001928E-02 0.  1.
    10030    2    1    2    0    0  0.00000000000E+00  0.00000000000E+00 -0.10180621210E+04  0.11503612065E+04  0.53561219489E+03 0.  0.
        5    1    3    3  502    0  0.10682750406E+02  0.12910227274E+03 -0.57214909082E+01  0.12975493609E+03  0.46999998093E+01 0. -1.
       -5    1    3    3    0  502 -0.10682750406E+02 -0.12910227274E+03 -0.10123406300E+04  0.10206062704E+04  0.46999998093E+01 0.  1.
</event>
<event>
 5   0  0.2225808E-02  0.5997082E+03  0.7818609E-02  0.9906012E-01
        1   -1    0    0  501    0  0.00000000000E+00  0.00000000000E+00  0.38770537164E+03  0.38770537167E+03  0.50400001928E-02 0. -1.
       -1   -1    0    0    0  501  0.00000000000E+00  0.00000000000E+00 -0.23190931694E+03  0.23190931699E+03  0.50400001928E-02 0.  1.
    10030    2    1    2    0    0  0.00000000000E+00  0.00000000000E+00  0.15579605470E+03  0.61961468866E+03  0.59970822218E+03 0.  0.
        2    1    3    3  502    0  0.26465319896E+03  0.10125706659E+03  0.17922571264E+03  0.33528519999E+03  0.25500000920E-02 0. -1.
       -2    1    3    3    0  502 -0.26465319896E+03 -0.10125706659E+03 -0.23429657939E+02  0.28432948868E+03  0.25500000920E-02 0.  1.
</event>
<event>
 5   0  0.2225808E-02  0.6006467E+03  0.7818609E-02  0.9904065E-01
        1   -1    0    0  501    0  0.00000000000E+00  0.00000000000E+00  0.95326582394E+03  0.95326582395E+03  0.50400001928E-02 0.  1.
       -1   -1    0    0    0  501  0.00000000000E+00  0.00000000000E+00 -0.94615912388E+02  0.94615912522E+02  0.50400001928E-02 0. -1.
    10030    2    1    2    0    0  0.00000000000E+00  0.00000000000E+00  0.85864991155E+03  0.10478817365E+04  0.60064670400E+03 0.  0.
        2    1    3    3  502    0  0.15483619619E+03 -0.16388644805E+03  0.83204881972E+02  0.24032492150E+03  0.25500000920E-02 0. -1.
       -2    1    3    3    0  502 -0.15483619619E+03  0.16388644805E+03  0.77544502958E+03  0.80755681497E+03  0.25500000920E-02 0.  1.
</event>
<event>
 5   0  0.2382531E-02  0.6053992E+03  0.7818609E-02  0.9894267E-01
       -1   -1    0    0    0  501  0.00000000000E+00  0.00000000000E+00  0.10206672338E+04  0.10206672338E+04  0.50400001928E-02 0.  1.
        1   -1    0    0  501    0  0.00000000000E+00  0.00000000000E+00 -0.89771708736E+02  0.89771708878E+02  0.50400001928E-02 0. -1.
    10030    2    1    2    0    0  0.00000000000E+00  0.00000000000E+00  0.93089552510E+03  0.11104389427E+04  0.60539917977E+03 0.  0.
        5    1    3    3  502    0  0.16682400505E+03 -0.29142490518E+02  0.53332714865E+01  0.16949946076E+03  0.46999998093E+01 0. -1.
       -5    1    3    3    0  502 -0.16682400505E+03  0.29142490518E+02  0.92556225361E+03  0.94093948197E+03  0.46999998093E+01 0.  1.
</event>
<event>
 5   0  0.2382531E-02  0.6028463E+03  0.7818609E-02  0.9899518E-01
       -1   -1    0    0    0  501  0.00000000000E+00  0.00000000000E+00  0.32129566553E+03  0.32129566557E+03  0.50400001928E-02 0. -1.
        1   -1    0    0  501    0  0.00000000000E+00  0.00000000000E+00 -0.28277976933E+03  0.28277976938E+03  0.50400001928E-02 0.  1.
    10030    2    1    2    0    0  0.00000000000E+00  0.00000000000E+00  0.38515896198E+02  0.60407543495E+03  0.60284629621E+03 0.  0.
        5    1    3    3  502    0 -0.17103188725E+03  0.21972701945E+03  0.13482720217E+03  0.30940642200E+03  0.46999998093E+01 0. -1.
       -5    1    3    3    0  502  0.17103188725E+03 -0.21972701945E+03 -0.96311305974E+02  0.29466901295E+03  0.46999998093E+01 0.  1.
</event>
<event>
 5   0  0.2225808E-02  0.6105460E+03  0.7818609E-02  0.9883765E-01
        1   -1    0    0  501    0  0.00000000000E+00  0.00000000000E+00  0.42255058292E+03  0.42255058295E+03  0.50400001928E-02 0. -1.
       -1   -1    0    0    0  501  0.00000000000E+00  0.00000000000E+00 -0.22054543114E+03  0.22054543120E+03  0.50400001928E-02 0.  1.
    10030    2    1    2    0    0  0.00000000000E+00  0.00000000000E+00  0.20200515178E+03  0.64309601414E+03  0.61054598685E+03 0.  0.
        2    1    3    3  502    0  0.16549314099E+03 -0.25495151312E+03  0.13085701786E+03  0.33092569088E+03  0.25500000920E-02 0. -1.
       -2    1    3    3    0  502 -0.16549314099E+03  0.25495151312E+03  0.71148133922E+02  0.31217032326E+03  0.25500000920E-02 0.  1.
</event>
<event>
 5   0  0.1521750E-02  0.5538462E+03  0.7818609E-02  0.1000608E+00
        4   -1    0    0  501    0  0.00000000000E+00  0.00000000000E+00  0.22564007559E+03  0.22564364961E+03  0.12699999809E+01 0. -1.
       -4   -1    0    0    0  501  0.00000000000E+00  0.00000000000E+00 -0.33985413389E+03  0.33985650682E+03  0.12699999809E+01 0.  1.
    10030    2    1    2    0    0  0.00000000000E+00  0.00000000000E+00 -0.11421405831E+03  0.56550015643E+03  0.55384616619E+03 0.  0.
        5    1    3    3  502    0  0.15886320643E+03  0.21719463937E+03 -0.12369645461E+03  0.29619914350E+03  0.46999998093E+01 0. -1.
       -5    1    3    3    0  502 -0.15886320643E+03 -0.21719463937E+03  0.94823963057E+01  0.26930101293E+03  0.46999998093E+01 0.  1.
</event>
<event>
 5   0  0.1521750E-02  0.5998586E+03  0.7818609E-02  0.9905699E-01
       -3   -1    0    0    0  501  0.00000000000E+00  0.00000000000E+00  0.15138710303E+03  0.15138713672E+03  0.10100000352E+00 0. -1.
        3   -1    0    0  501    0  0.00000000000E+00  0.00000000000E+00 -0.59422220386E+03  0.59422221245E+03  0.10100000352E+00 0.  1.
    10030    2    1    2    0    0  0.00000000000E+00  0.00000000000E+00 -0.44283510084E+03  0.74560934917E+03  0.59985862920E+03 0.  0.
        3    1    3    3  502    0 -0.27904118530E+03 -0.25652548110E+02 -0.35433772726E+03  0.45174912449E+03  0.10100000352E+00 0.  1.
       -3    1    3    3    0  502  0.27904118530E+03  0.25652548110E+02 -0.88497373575E+02  0.29386022468E+03  0.10100000352E+00 0. -1.
</event>
<event>
 5   0  0.1521750E-02  0.6000331E+03  0.7818609E-02  0.9905337E-01
        4   -1    0    0  501    0  0.00000000000E+00  0.00000000000E+00  0.57938096918E+03  0.57938236109E+03  0.12699999809E+01 0. -1.
       -4   -1    0    0    0  501  0.00000000000E+00  0.00000000000E+00 -0.15535114799E+03  0.15535633905E+03  0.12699999809E+01 0.  1.
    10030    2    1    2    0    0  0.00000000000E+00  0.00000000000E+00  0.42402982119E+03  0.73473870014E+03  0.60003305594E+03 0.  0.
        4    1    3    3  502    0  0.29963203876E+03 -0.15076577007E+02  0.21358414679E+03  0.36827498216E+03  0.12699999809E+01 0.  1.
       -4    1    3    3    0  502 -0.29963203876E+03  0.15076577007E+02  0.21044567440E+03  0.36646371798E+03  0.12699999809E+01 0. -1.
</event>
<event>
 5   0  0.3934634E-02  0.5991371E+03  0.7818609E-02  0.9907198E-01
       -2   -1    0    0    0  501  0.00000000000E+00  0.00000000000E+00  0.12627799591E+03  0.12627799593E+03  0.25500000920E-02 0.  1.
        2   -1    0    0  501    0  0.00000000000E+00  0.00000000000E+00 -0.71066483025E+03  0.71066483026E+03  0.25500000920E-02 0. -1.
    10030    2    1    2    0    0  0.00000000000E+00  0.00000000000E+00 -0.58438683435E+03  0.83694282619E+03  0.59913714803E+03 0.  0.
        1    1    3    3  502    0  0.79923562955E+02 -0.11036837511E+03  0.80477306530E+02  0.15825786246E+03  0.50400001928E-02 0.  1.
       -1    1    3    3    0  502 -0.79923562955E+02  0.11036837511E+03 -0.66486414088E+03  0.67868496373E+03  0.50400001928E-02 0. -1.
</event>
<event>
 5   0  0.2382531E-02  0.6046660E+03  0.7818609E-02  0.9895773E-01
        1   -1    0    0  501    0  0.00000000000E+00  0.00000000000E+00  0.32617447989E+03  0.32617447993E+03  0.50400001928E-02 0.  1.
       -1   -1    0    0    0  501  0.00000000000E+00  0.00000000000E+00 -0.28023417225E+03  0.28023417230E+03  0.50400001928E-02 0. -1.
    10030    2    1    2    0    0  0.00000000000E+00  0.00000000000E+00  0.45940307640E+02  0.60640865223E+03  0.60466597526E+03 0.  0.
        5    1    3    3  502    0  0.99849906584E+02  0.13418603220E+03  0.27550383990E+03  0.32233577351E+03  0.46999998093E+01 0.  1.
       -5    1    3    3    0  502 -0.99849906584E+02 -0.13418603220E+03 -0.22956353226E+03  0.28407287872E+03  0.46999998093E+01 0. -1.
</event>
<event>
 5   0  0.2225808E-02  0.5772475E+03  0.7818609E-02  0.9953768E-01
        1   -1    0    0  501    0  0.00000000000E+00  0.00000000000E+00  0.19685315761E+03  0.19685315767E+03  0.50400001928E-02 0.  1.
       -1   -1    0    0    0  501  0.00000000000E+00  0.00000000000E+00 -0.42317663496E+03  0.42317663499E+03  0.50400001928E-02 0. -1.
    10030    2    1    2    0    0  0.00000000000E+00  0.00000000000E+00 -0.22632347735E+03  0.62002979266E+03  0.57724745767E+03 0.  0.
        2    1    3    3  502    0 -0.15914185017E+03 -0.10332123979E+03 -0.34677173772E+03  0.39528729445E+03  0.25500000920E-02 0. -1.
       -2    1    3    3    0  502  0.15914185017E+03  0.10332123979E+03  0.12044826037E+03  0.22474249821E+03  0.25500000920E-02 0.  1.
</event>
<event>
 5   0  0.2276105E-02  0.5999998E+03  0.7818609E-02  0.9905406E-01
        1   -1    0    0  501    0  0.00000000000E+00  0.00000000000E+00  0.58694445137E+03  0.58694445140E+03  0.50400001928E-02 0. -1.
       -1   -1    0    0    0  501  0.00000000000E+00  0.00000000000E+00 -0.15333638803E+03  0.15333638811E+03  0.50400001928E-02 0.  1.
    10030    2    1    2    0    0  0.00000000000E+00  0.00000000000E+00  0.43360806334E+03  0.74028083951E+03  0.59999980729E+03 0.  0.
        1    1    3    3  502    0  0.27914681456E+03  0.33675047145E+02  0.34587048763E+03  0.44573910207E+03  0.50400001928E-02 0.  1.
       -1    1    3    3    0  502 -0.27914681456E+03 -0.33675047145E+02  0.87737575715E+02  0.29454173744E+03  0.50400001928E-02 0. -1.
</event>
<event>
 5   0  0.3737642E-02  0.6114240E+03  0.7818609E-02  0.9881984E-01
       -2   -1    0    0    0  501  0.00000000000E+00  0.00000000000E+00  0.17155103502E+03  0.17155103504E+03  0.25500000920E-02 0. -1.
        2   -1    0    0  501    0  0.00000000000E+00  0.00000000000E+00 -0.54479305833E+03  0.54479305834E+03  0.25500000920E-02 0.  1.
    10030    2    1    2    0    0  0.00000000000E+00  0.00000000000E+00 -0.37324202331E+03  0.71634409338E+03  0.61142395451E+03 0.  0.
        5    1    3    3  502    0 -0.51061173421E+02 -0.60144263055E+02 -0.53261632342E+03  0.53844852473E+03  0.46999998093E+01 0.  1.
       -5    1    3    3    0  502  0.51061173421E+02  0.60144263055E+02  0.15937430011E+03  0.17789556864E+03  0.46999998093E+01 0. -1.
</event>
<event>
 5   0  0.3737642E-02  0.6029452E+03  0.7818609E-02  0.9899315E-01
       -2   -1    0    0    0  501  0.00000000000E+00  0.00000000000E+00  0.15513408594E+03  0.15513408596E+03  0.25500000920E-02 0. -1.
        2   -1    0    0  501    0  0.00000000000E+00  0.00000000000E+00 -0.58585266705E+03  0.58585266706E+03  0.25500000920E-02 0.  1.
    10030    2    1    2    0    0  0.00000000000E+00  0.00000000000E+00 -0.43071858111E+03  0.74098675302E+03  0.60294516503E+03 0.  0.
        5    1    3    3  502    0 -0.23449338283E+03 -0.18447400872E+03 -0.26815850735E+03  0.40118434858E+03  0.46999998093E+01 0. -1.
       -5    1    3    3    0  502  0.23449338283E+03  0.18447400872E+03 -0.16256007376E+03  0.33980240444E+03  0.46999998093E+01 0.  1.
</event>
<event>
 5   0  0.3724066E-02  0.6064378E+03  0.7818609E-02  0.9892139E-01
        2   -1    0    0  501    0  0.00000000000E+00  0.00000000000E+00  0.16370229714E+03  0.16370229716E+03  0.25500000920E-02 0.  1.
       -2   -1    0    0    0  501  0.00000000000E+00  0.00000000000E+00 -0.56163956898E+03  0.56163956899E+03  0.25500000920E-02 0. -1.
    10030    2    1    2    0    0  0.00000000000E+00  0.00000000000E+00 -0.39793727184E+03  0.72534186615E+03  0.60643775482E+03 0.  0.
        4    1    3    3  502    0  0.20177167966E+03 -0.20453719733E+03 -0.31488747592E+03  0.42626636179E+03  0.12699999809E+01 0. -1.
       -4    1    3    3    0  502 -0.20177167966E+03  0.20453719733E+03 -0.83049795921E+02  0.29907550436E+03  0.12699999809E+01 0.  1.
</event>
<event>
 5   0  0.2382531E-02  0.5912698E+03  0.7818609E-02  0.9923686E-01
        1   -1    0    0  501    0  0.00000000000E+00  0.00000000000E+00  0.35424411616E+03  0.35424411619E+03  0.50400001928E-02 0. -1.
       -1   -1    0    0    0  501  0.00000000000E+00  0.00000000000E+00 -0.24672249475E+03  0.24672249480E+03  0.50400001928E-02 0.  1.
    10030    2    1    2    0    0  0.00000000000E+00  0.00000000000E+00  0.10752162141E+03  0.60096661099E+03  0.59126979329E+03 0.  0.
        5    1    3    3  502    0 -0.15291688374E+03  0.16841367723E+02  0.31031010830E+03  0.34638368655E+03  0.46999998093E+01 0. -1.
       -5    1    3    3    0  502  0.15291688374E+03 -0.16841367723E+02 -0.20278848689E+03  0.25458292443E+03  0.46999998093E+01 0.  1.
</event>
<event>
 5   0  0.3798925E-02  0.5910005E+03  0.7818609E-02  0.9924255E-01
       -2   -1    0    0    0  501  0.00000000000E+00  0.00000000000E+00  0.16168758305E+03  0.16168758307E+03  0.25500000920E-02 0. -1.
        2   -1    0    0  501    0  0.00000000000E+00  0.00000000000E+00 -0.54005634776E+03  0.54005634777E+03  0.25500000920E-02 0.  1.
    10030    2    1    2    0    0  0.00000000000E+00  0.00000000000E+00 -0.37836876471E+03  0.70174393084E+03  0.59100052653E+03 0.  0.
        2    1    3    3  502    0  0.17545854424E+03  0.71416542713E+02  0.80103965337E+02  0.20567612547E+03  0.25500000920E-02 0. -1.
       -2    1    3    3    0  502 -0.17545854424E+03 -0.71416542713E+02 -0.45847273005E+03  0.49606780537E+03  0.25500000920E-02 0.  1.
</event>
<event>
 5   0  0.2225808E-02  0.5915912E+03  0.7818609E-02  0.9923007E-01
        1   -1    0    0  501    0  0.00000000000E+00  0.00000000000E+00  0.56427481262E+03  0.56427481264E+03  0.50400001928E-02 0.  1.
       -1   -1    0    0    0  501  0.00000000000E+00  0.00000000000E+00 -0.15505750493E+03  0.15505750501E+03  0.50400001928E-02 0. -1.
    10030    2    1    2    0    0  0.00000000000E+00  0.00000000000E+00  0.40921730769E+03  0.71933231766E+03  0.59159122569E+03 0.  0.
        2    1    3    3  502    0  0.47685102171E+02 -0.29192544019E+03  0.20563535351E+03  0.36025023279E+03  0.25500000920E-02 0. -1.
       -2    1    3    3    0  502 -0.47685102171E+02  0.29192544019E+03  0.20358195417E+03  0.35908208487E+03  0.25500000920E-02 0.  1.
</event>
<event>
 5   0  0.3798925E-02  0.5972992E+03  0.7818609E-02  0.9911025E-01
        2   -1    0    0  501    0  0.00000000000E+00  0.00000000000E+00  0.68428570569E+03  0.68428570569E+03  0.25500000920E-02 0. -1.
       -2   -1    0    0    0  501  0.00000000000E+00  0.00000000000E+00 -0.13034259416E+03  0.13034259418E+03  0.25500000920E-02 0.  1.
    10030    2    1    2    0    0  0.00000000000E+00  0.00000000000E+00  0.55394311153E+03  0.81462829988E+03  0.59729916805E+03 0.  0.
        2    1    3    3  502    0 -0.25986700106E+03 -0.14716550414E+03  0.27934567075E+03  0.40892853609E+03  0.25500000920E-02 0.  1.
       -2    1    3    3    0  502  0.25986700106E+03  0.14716550414E+03  0.27459744078E+03  0.40569976379E+03  0.25500000920E-02 0. -1.
</event>
<event>
 5   0  0.2382531E-02  0.6014990E+03  0.7818609E-02  0.9902301E-01
       -1   -1    0    0    0  501  0.00000000000E+00  0.00000000000E+00  0.32077040233E+03  0.32077040237E+03  0.50400001928E-02 0. -1.
        1   -1    0    0  501    0  0.00000000000E+00  0.00000000000E+00 -0.28197817780E+03  0.28197817784E+03  0.50400001928E-02 0.  1.
    10030    2    1    2    0    0  0.00000000000E+00  0.00000000000E+00  0.38792224536E+02  0.60274858021E+03  0.60149897279E+03 0.  0.
        5    1    3    3  502    0  0.18014084369E+03  0.21509048421E+03 -0.89057765446E+02  0.29439431983E+03  0.46999998093E+01 0. -1.
       -5    1    3    3    0  502 -0.18014084369E+03 -0.21509048421E+03  0.12784998998E+03  0.30835426039E+03  0.46999998093E+01 0.  1.
</event>
<event>
 5   0  0.3724066E-02  0.6027897E+03  0.7818609E-02  0.9899635E-01
       -2   -1    0    0    0  501  0.00000000000E+00  0.00000000000E+00  0.51369726053E+02  0.51369726116E+02  0.25500000920E-02 0. -1.
        2   -1    0    0  501    0  0.00000000000E+00  0.00000000000E+00 -0.17683345941E+04  0.17683345941E+04  0.25500000920E-02 0.  1.
    10030    2    1    2    0    0  0.00000000000E+00  0.00000000000E+00 -0.17169648680E+04  0.18197043202E+04  0.60278972694E+03 0.  0.
        4    1    3    3  502    0 -0.38711724959E+01 -0.16457589415E+03 -0.96349149451E+02  0.19074847945E+03  0.12699999809E+01 0. -1.
       -4    1    3    3    0  502  0.38711724959E+01  0.16457589415E+03 -0.16206157186E+04  0.16289558407E+04  0.12699999809E+01 0.  1.
</event>
<event>
 5   0  0.2276105E-02  0.6103444E+03  0.7818609E-02  0.9884174E-01
        1   -1    0    0  501    0  0.00000000000E+00  0.00000000000E+00  0.97043946787E+03  0.97043946789E+03  0.50400001928E-02 0. -1.
       -1   -1    0    0    0  501  0.00000000000E+00  0.00000000000E+00 -0.95966889526E+02  0.95966889659E+02  0.50400001928E-02 0.  1.
    10030    2    1    2    0    0  0.00000000000E+00  0.00000000000E+00  0.87447257835E+03  0.10664063575E+04  0.61034435291E+03 0.  0.
        1    1    3    3  502    0  0.53463319991E+02 -0.23702611922E+02  0.96055711965E+03  0.96233576289E+03  0.50400001928E-02 0. -1.
       -1    1    3    3    0  502 -0.53463319991E+02  0.23702611922E+02 -0.86084541301E+02  0.10407059466E+03  0.50400001928E-02 0.  1.
</event>
<event>
 5   0  0.2382531E-02  0.5960946E+03  0.7818609E-02  0.9913542E-01
       -1   -1    0    0    0  501  0.00000000000E+00  0.00000000000E+00  0.30615443008E+03  0.30615443013E+03  0.50400001928E-02 0.  1.
        1   -1    0    0  501    0  0.00000000000E+00  0.00000000000E+00 -0.29015487241E+03  0.29015487246E+03  0.50400001928E-02 0. -1.
    10030    2    1    2    0    0  0.00000000000E+00  0.00000000000E+00  0.15999557672E+02  0.59630930258E+03  0.59609462210E+03 0.  0.
        5    1    3    3  502    0 -0.10237587433E+03 -0.82706731636E+02  0.27547012957E+03  0.30533114054E+03  0.46999998093E+01 0.  1.
       -5    1    3    3    0  502  0.10237587433E+03  0.82706731636E+02 -0.25947057190E+03  0.29097816204E+03  0.46999998093E+01 0. -1.
</event>
<event>
 5   0  0.2309055E-02  0.6077824E+03  0.7818609E-02  0.9889390E-01
       -1   -1    0    0    0  501  0.00000000000E+00  0.00000000000E+00  0.64953503395E+02  0.64953503591E+02  0.50400001928E-02 0.  1.
        1   -1    0    0  501    0  0.00000000000E+00  0.00000000000E+00 -0.14217839638E+04  0.14217839638E+04  0.50400001928E-02 0. -1.
    10030    2    1    2    0    0  0.00000000000E+00  0.00000000000E+00 -0.13568304604E+04  0.14867374674E+04  0.60778236128E+03 0.  0.
        4    1    3    3  502    0  0.21536877343E+03  0.39740866006E+01 -0.15406317672E+03  0.26483311208E+03  0.12699999809E+01 0.  1.
       -4    1    3    3    0  502 -0.21536877343E+03 -0.39740866006E+01 -0.12027672837E+04  0.12219043553E+04  0.12699999809E+01 0. -1.
</event>
<event>
 5   0  0.3798925E-02  0.6007054E+03  0.7818609E-02  0.9903944E-01
       -2   -1    0    0    0  501  0.00000000000E+00  0.00000000000E+00  0.79916242714E+02  0.79916242755E+02  0.25500000920E-02 0. -1.
        2   -1    0    0  501    0  0.00000000000E+00  0.00000000000E+00 -0.11288287810E+04  0.11288287810E+04  0.25500000920E-02 0.  1.
    10030    2    1    2    0    0  0.00000000000E+00  0.00000000000E+00 -0.10489125383E+04  0.12087450238E+04  0.60070543488E+03 0.  0.
        2    1    3    3  502    0 -0.26206040419E+03  0.11267336707E+03 -0.33525710646E+03  0.44019117498E+03  0.25500000920E-02 0. -1.
       -2    1    3    3    0  502  0.26206040419E+03 -0.11267336707E+03 -0.71365543186E+03  0.76855384881E+03  0.25500000920E-02 0.  1.
</event>
<event>
 5   0  0.3832191E-02  0.6021981E+03  0.7818609E-02  0.9900856E-01
       -2   -1    0    0    0  501  0.00000000000E+00  0.00000000000E+00  0.77491918486E+02  0.77491918528E+02  0.25500000920E-02 0. -1.
        2   -1    0    0  501    0  0.00000000000E+00  0.00000000000E+00 -0.11699366173E+04  0.11699366173E+04  0.25500000920E-02 0.  1.
    10030    2    1    2    0    0  0.00000000000E+00  0.00000000000E+00 -0.10924446988E+04  0.12474285358E+04  0.60219808372E+03 0.  0.
        3    1    3    3  502    0  0.46358528257E+02  0.11066589541E+03 -0.11182772578E+04  0.11246955539E+04  0.10100000352E+00 0.  1.
       -3    1    3    3    0  502 -0.46358528257E+02 -0.11066589541E+03  0.25832558949E+02  0.12273298192E+03  0.10100000352E+00 0. -1.
</event>
<event>
 5   0  0.2295179E-02  0.5977563E+03  0.7818609E-02  0.9910072E-01
        1   -1    0    0  501    0  0.00000000000E+00  0.00000000000E+00  0.95068127272E+03  0.95068127273E+03  0.50400001928E-02 0. -1.
       -1   -1    0    0    0  501  0.00000000000E+00  0.00000000000E+00 -0.93962236532E+02  0.93962236667E+02  0.50400001928E-02 0.  1.
    10030    2    1    2    0    0  0.00000000000E+00  0.00000000000E+00  0.85671903618E+03  0.10446435094E+04  0.59775626702E+03 0.  0.
        3    1    3    3  502    0  0.11650747519E+03 -0.48517488797E+01 -0.52568039354E+02  0.12790989095E+03  0.10100000352E+00 0.  1.
       -3    1    3    3    0  502 -0.11650747519E+03  0.48517488797E+01  0.90928707554E+03  0.91673361844E+03  0.10100000352E+00 0. -1.
</event>
<event>
 5   0  0.3737642E-02  0.5949848E+03  0.7818609E-02  0.9915866E-01
        2   -1    0    0  501    0  0.00000000000E+00  0.00000000000E+00  0.93160237599E+03  0.93160237599E+03  0.25500000920E-02 0.  1.
       -2   -1    0    0    0  501  0.00000000000E+00  0.00000000000E+00 -0.94999469941E+02  0.94999469975E+02  0.25500000920E-02 0. -1.
    10030    2    1    2    0    0  0.00000000000E+00  0.00000000000E+00  0.83660290605E+03  0.10266018460E+04  0.59498481303E+03 0.  0.
        5    1    3    3  502    0 -0.15664391102E+03 -0.24940229647E+03  0.49029163847E+03  0.57196748256E+03  0.46999998093E+01 0.  1.
       -5    1    3    3    0  502  0.15664391102E+03  0.24940229647E+03  0.34631126758E+03  0.45463436341E+03  0.46999998093E+01 0. -1.
</event>
<event>
 5   0  0.3737642E-02  0.5997112E+03  0.7818609E-02  0.9906005E-01
        2   -1    0    0  501    0  0.00000000000E+00  0.00000000000E+00  0.77049312142E+03  0.77049312143E+03  0.25500000920E-02 0.  1.
       -2   -1    0    0    0  501  0.00000000000E+00  0.00000000000E+00 -0.11669587934E+03  0.11669587937E+03  0.25500000920E-02 0. -1.
    10030    2    1    2    0    0  0.00000000000E+00  0.00000000000E+00  0.65379724208E+03  0.88718900080E+03  0.59971117163E+03 0.  0.
        5    1    3    3  502    0 -0.10998535727E+03 -0.17804978503E+03  0.92913401804E+01  0.20953979040E+03  0.46999998093E+01 0. -1.
       -5    1    3    3    0  502  0.10998535727E+03  0.17804978503E+03  0.64450590190E+03  0.67764921039E+03  0.46999998093E+01 0.  1.
</event>
<event>
 5   0  0.3737642E-02  0.6024657E+03  0.7818609E-02  0.9900304E-01
       -2   -1    0    0    0  501  0.00000000000E+00  0.00000000000E+00  0.20647503309E+03  0.20647503311E+03  0.25500000920E-02 0.  1.
        2   -1    0    0  501    0  0.00000000000E+00  0.00000000000E+00 -0.43947798530E+03  0.43947798531E+03  0.25500000920E-02 0. -1.
    10030    2    1    2    0    0  0.00000000000E+00  0.00000000000E+00 -0.23300295221E+03  0.64595301842E+03  0.60246570547E+03 0.  0.
        5    1    3    3  502    0  0.70207964095E+02  0.21043507785E+03  0.10193722987E+03  0.24418306461E+03  0.46999998093E+01 0.  1.
       -5    1    3    3    0  502 -0.70207964095E+02 -0.21043507785E+03 -0.33494018208E+03  0.40176995381E+03  0.46999998093E+01 0. -1.
</event>
<event>
 5   0  0.2309055E-02  0.6014647E+03  0.7818609E-02  0.9902372E-01
       -1   -1    0    0    0  501  0.00000000000E+00  0.00000000000E+00  0.92188081769E+02  0.92188081907E+02  0.50400001928E-02 0. -1.
        1   -1    0    0  501    0  0.00000000000E+00  0.00000000000E+00 -0.98103734575E+03  0.98103734577E+03  0.50400001928E-02 0.  1.
    10030    2    1    2    0    0  0.00000000000E+00  0.00000000000E+00 -0.88884926399E+03  0.10732254277E+04  0.60146471594E+03 0.  0.
        4    1    3    3  502    0 -0.60120741367E+02 -0.29148977405E+03 -0.36752033197E+03  0.47292028846E+03  0.12699999809E+01 0. -1.
       -4    1    3    3    0  502  0.60120741367E+02  0.29148977405E+03 -0.52132893201E+03  0.60030513922E+03  0.12699999809E+01 0.  1.
</event>
<event>
 5   0  0.3724066E-02  0.6013511E+03  0.7818609E-02  0.9902607E-01
        2   -1    0    0  501    0  0.00000000000E+00  0.00000000000E+00  0.10389136722E+04  0.10389136722E+04  0.25500000920E-02 0.  1.
       -2   -1    0    0    0  501  0.00000000000E+00  0.00000000000E+00 -0.87019525136E+02  0.87019525174E+02  0.25500000920E-02 0. -1.
    10030    2    1    2    0    0  0.00000000000E+00  0.00000000000E+00  0.95189414706E+03  0.11259331974E+04  0.60135106031E+03 0.  0.
        4    1    3    3  502    0  0.20934399475E+03 -0.17968936322E+03  0.69977570648E+03  0.75219733293E+03  0.12699999809E+01 0. -1.
       -4    1    3    3    0  502 -0.20934399475E+03  0.17968936322E+03  0.25211844058E+03  0.37373586444E+03  0.12699999809E+01 0.  1.
</event>
<event>
 5   0  0.2309055E-02  0.5985406E+03  0.7818609E-02  0.9908438E-01
       -1   -1    0    0    0  501  0.00000000000E+00  0.00000000000E+00  0.78079013342E+02  0.78079013505E+02  0.50400001928E-02 0.  1.
        1   -1    0    0  501    0  0.00000000000E+00  0.00000000000E+00 -0.11470780630E+04  0.11470780630E+04  0.50400001928E-02 0. -1.
    10030    2    1    2    0    0  0.00000000000E+00  0.00000000000E+00 -0.10689990497E+04  0.12251570765E+04  0.59854063686E+03 0.  0.
        4    1    3    3  502    0 -0.50650381582E+01 -0.16684008157E+03 -0.10429400534E+04  0.10562134421E+04  0.12699999809E+01 0. -1.
       -4    1    3    3    0  502  0.50650381582E+01  0.16684008157E+03 -0.26058996305E+02  0.16894363444E+03  0.12699999809E+01 0.  1.
</event>
<event>
 5   0  0.1521750E-02  0.5974036E+03  0.7818609E-02  0.9910807E-01
        3   -1    0    0  501    0  0.00000000000E+00  0.00000000000E+00  0.27310898549E+03  0.27310900417E+03  0.10100000352E+00 0.  1.
       -3   -1    0    0    0  501  0.00000000000E+00  0.00000000000E+00 -0.32669288737E+03  0.32669290298E+03  0.10100000352E+00 0. -1.
    10030    2    1    2    0    0  0.00000000000E+00  0.00000000000E+00 -0.53583901877E+02  0.59980190714E+03  0.59740362677E+03 0.  0.
        4    1    3    3  502    0 -0.16533485903E+02 -0.17261075300E+03 -0.27098291789E+03  0.32171599727E+03  0.12699999809E+01 0. -1.
       -4    1    3    3    0  502  0.16533485903E+02  0.17261075300E+03  0.21739901602E+03  0.27808590988E+03  0.12699999809E+01 0.  1.
</event>
<event>
 5   0  0.2276105E-02  0.5984937E+03  0.7818609E-02  0.9908536E-01
        1   -1    0    0  501    0  0.00000000000E+00  0.00000000000E+00  0.37523927121E+03  0.37523927124E+03  0.50400001928E-02 0.  1.
       -1   -1    0    0    0  501  0.00000000000E+00  0.00000000000E+00 -0.23864418034E+03  0.23864418040E+03  0.50400001928E-02 0. -1.
    10030    2    1    2    0    0  0.00000000000E+00  0.00000000000E+00  0.13659509087E+03  0.61388345164E+03  0.59849367027E+03 0.  0.
        1    1    3    3  502    0  0.13602769183E+02  0.28228283735E+03 -0.32619558134E+02  0.28448668017E+03  0.50400001928E-02 0. -1.
       -1    1    3    3    0  502 -0.13602769183E+02 -0.28228283735E+03  0.16921464900E+03  0.32939677147E+03  0.50400001928E-02 0.  1.
</event>
<event>
 5   0  0.2225808E-02  0.6010701E+03  0.7818609E-02  0.9903189E-01
        1   -1    0    0  501    0  0.00000000000E+00  0.00000000000E+00  0.84920808912E+03  0.84920808913E+03  0.50400001928E-02 0. -1.
       -1   -1    0    0    0  501  0.00000000000E+00  0.00000000000E+00 -0.10635944643E+03  0.10635944655E+03  0.50400001928E-02 0.  1.
    10030    2    1    2    0    0  0.00000000000E+00  0.00000000000E+00  0.74284864269E+03  0.95556753568E+03  0.60107005356E+03 0.  0.
        2    1    3    3  502    0 -0.18539451007E+03 -0.20515357459E+03  0.55860119970E+03  0.62329320054E+03  0.25500000920E-02 0.  1.
       -2    1    3    3    0  502  0.18539451007E+03  0.20515357459E+03  0.18424744299E+03  0.33227433514E+03  0.25500000920E-02 0. -1.
</event>
<event>
 5   0  0.3724066E-02  0.6013887E+03  0.7818609E-02  0.9902529E-01
        2   -1    0    0  501    0  0.00000000000E+00  0.00000000000E+00  0.79137799599E+03  0.79137799600E+03  0.25500000920E-02 0. -1.
       -2   -1    0    0    0  501  0.00000000000E+00  0.00000000000E+00 -0.11425272467E+03  0.11425272470E+03  0.25500000920E-02 0.  1.
    10030    2    1    2    0    0  0.00000000000E+00  0.00000000000E+00  0.67712527133E+03  0.90563072069E+03  0.60138870059E+03 0.  0.
        4    1    3    3  502    0 -0.96185004314E+02  0.13809771187E+03  0.71380945181E+03  0.73338126474E+03  0.12699999809E+01 0. -1.
       -4    1    3    3    0  502  0.96185004314E+02 -0.13809771187E+03 -0.36684180484E+02  0.17224945595E+03  0.12699999809E+01 0.  1.
</event>
<event>
 5   0  0.2309055E-02  0.6061024E+03  0.7818609E-02  0.9892826E-01
       -1   -1    0    0    0  501  0.00000000000E+00  0.00000000000E+00  0.34597097724E+03  0.34597097727E+03  0.50400001928E-02 0.  1.
        1   -1    0    0  501    0  0.00000000000E+00  0.00000000000E+00 -0.26545587983E+03  0.26545587988E+03  0.50400001928E-02 0. -1.
    10030    2    1    2    0    0  0.00000000000E+00  0.00000000000E+00  0.80515097404E+02  0.61142685715E+03  0.60610240120E+03 0.  0.
        4    1    3    3  502    0  0.72846332342E+02  0.20634438412E+03  0.25175095923E+03  0.33356371410E+03  0.12699999809E+01 0.  1.
       -4    1    3    3    0  502 -0.72846332342E+02 -0.20634438412E+03 -0.17123586182E+03  0.27786314305E+03  0.12699999809E+01 0. -1.
</event>
<event>
 5   0  0.2276105E-02  0.6200867E+03  0.7818609E-02  0.9864587E-01
        1   -1    0    0  501    0  0.00000000000E+00  0.00000000000E+00  0.72556257022E+03  0.72556257023E+03  0.50400001928E-02 0.  1.
       -1   -1    0    0    0  501  0.00000000000E+00  0.00000000000E+00 -0.13248598807E+03  0.13248598817E+03  0.50400001928E-02 0. -1.
    10030    2    1    2    0    0  0.00000000000E+00  0.00000000000E+00  0.59307658214E+03  0.85804855840E+03  0.62008668450E+03 0.  0.
        1    1    3    3  502    0  0.13539356364E+03 -0.17338123611E+03 -0.57875100436E+01  0.22005900438E+03  0.50400001928E-02 0. -1.
       -1    1    3    3    0  502 -0.13539356364E+03  0.17338123611E+03  0.59886409219E+03  0.63798955403E+03  0.50400001928E-02 0.  1.
</event>
<event>
 5   0  0.3934634E-02  0.5986985E+03  0.7818609E-02  0.9908110E-01
       -2   -1    0    0    0  501  0.00000000000E+00  0.00000000000E+00  0.19377851135E+03  0.19377851137E+03  0.25500000920E-02 0. -1.
        2   -1    0    0  501    0  0.00000000000E+00  0.00000000000E+00 -0.46243505517E+03  0.46243505517E+03  0.25500000920E-02 0.  1.
    10030    2    1    2    0    0  0.00000000000E+00  0.00000000000E+00 -0.26865654381E+03  0.65621356654E+03  0.59869851042E+03 0.  0.
        1    1    3    3  502    0 -0.22618443641E+03  0.19057096002E+03 -0.83703670216E+02  0.30738086230E+03  0.50400001928E-02 0. -1.
       -1    1    3    3    0  502  0.22618443641E+03 -0.19057096002E+03 -0.18495287359E+03  0.34883270425E+03  0.50400001928E-02 0.  1.
</event>
<event>
 5   0  0.1521750E-02  0.5982178E+03  0.7818609E-02  0.9909111E-01
       -3   -1    0    0    0  501  0.00000000000E+00  0.00000000000E+00  0.46347258259E+03  0.46347259359E+03  0.10100000352E+00 0.  1.
        3   -1    0    0  501    0  0.00000000000E+00  0.00000000000E+00 -0.19303432006E+03  0.19303434648E+03  0.10100000352E+00 0. -1.
    10030    2    1    2    0    0  0.00000000000E+00  0.00000000000E+00  0.27043826253E+03  0.65650694007E+03  0.59821777684E+03 0.  0.
        5    1    3    3  502    0 -0.24685310755E+02  0.12207527047E+03  0.43361796277E+03  0.45117442731E+03  0.46999998093E+01 0.  1.
       -5    1    3    3    0  502  0.24685310755E+02 -0.12207527047E+03 -0.16317970024E+03  0.20533251276E+03  0.46999998093E+01 0. -1.
</event>
<event>
 5   0  0.3737642E-02  0.5989084E+03  0.7818609E-02  0.9907673E-01
       -2   -1    0    0    0  501  0.00000000000E+00  0.00000000000E+00  0.69905588022E+02  0.69905588068E+02  0.25500000920E-02 0. -1.
        2   -1    0    0  501    0  0.00000000000E+00  0.00000000000E+00 -0.12827702864E+04  0.12827702865E+04  0.25500000920E-02 0.  1.
    10030    2    1    2    0    0  0.00000000000E+00  0.00000000000E+00 -0.12128646984E+04  0.13526758745E+04  0.59890837765E+03 0.  0.
        5    1    3    3  502    0 -0.87836705108E+02 -0.90215868223E+01  0.39747529124E+02  0.96946541262E+02  0.46999998093E+01 0. -1.
       -5    1    3    3    0  502  0.87836705108E+02  0.90215868223E+01 -0.12526122276E+04  0.12557293333E+04  0.46999998093E+01 0.  1.
</event>
<event>
 5   0  0.2309055E-02  0.5982820E+03  0.7818609E-02  0.9908977E-01
        1   -1    0    0  501    0  0.00000000000E+00  0.00000000000E+00  0.66658346130E+03  0.66658346132E+03  0.50400001928E-02 0. -1.
       -1   -1    0    0    0  501  0.00000000000E+00  0.00000000000E+00 -0.13424476251E+03  0.13424476260E+03  0.50400001928E-02 0.  1.
    10030    2    1    2    0    0  0.00000000000E+00  0.00000000000E+00  0.53233869880E+03  0.80082822392E+03  0.59828200206E+03 0.  0.
        4    1    3    3  502    0 -0.74267173179E+02  0.17341489102E+03  0.57691798790E+03  0.60697966614E+03  0.12699999809E+01 0. -1.
       -4    1    3    3    0  502  0.74267173179E+02 -0.17341489102E+03 -0.44579289103E+02  0.19384855779E+03  0.12699999809E+01 0.  1.
</event>
<event>
 5   0  0.3724066E-02  0.5995972E+03  0.7818609E-02  0.9906242E-01
        2   -1    0    0  501    0  0.00000000000E+00  0.00000000000E+00  0.31307740622E+03  0.31307740623E+03  0.25500000920E-02 0. -1.
       -2   -1    0    0    0  501  0.00000000000E+00  0.00000000000E+00 -0.28708303344E+03  0.28708303345E+03  0.25500000920E-02 0.  1.
    10030    2    1    2    0    0  0.00000000000E+00  0.00000000000E+00  0.25994372784E+02  0.60016043968E+03  0.59959723643E+03 0.  0.
        4    1    3    3  502    0  0.16649800353E+03 -0.20160311018E+03  0.15980533086E+03  0.30643882894E+03  0.12699999809E+01 0. -1.
       -4    1    3    3    0  502 -0.16649800353E+03  0.20160311018E+03 -0.13381095808E+03  0.29372161074E+03  0.12699999809E+01 0.  1.
</event>
<event>
 5   0  0.3798925E-02  0.6023633E+03  0.7818609E-02  0.9900515E-01
        2   -1    0    0  501    0  0.00000000000E+00  0.00000000000E+00  0.20890462486E+04  0.20890462486E+04  0.25500000920E-02 0. -1.
       -2   -1    0    0    0  501  0.00000000000E+00  0.00000000000E+00 -0.43421910074E+02  0.43421910148E+02  0.25500000920E-02 0.  1.
    10030    2    1    2    0    0  0.00000000000E+00  0.00000000000E+00  0.20456243385E+04  0.21324681587E+04  0.60236327387E+03 0.  0.
        2    1    3    3  502    0 -0.27588477801E+03 -0.82686610456E+01  0.59608445118E+03  0.65688465840E+03  0.25500000920E-02 0.  1.
       -2    1    3    3    0  502  0.27588477801E+03  0.82686610456E+01  0.14495398873E+04  0.14755835003E+04  0.25500000920E-02 0. -1.
</event>
<event>
 5   0  0.2276105E-02  0.5948572E+03  0.7818609E-02  0.9916134E-01
       -1   -1    0    0    0  501  0.00000000000E+00  0.00000000000E+00  0.49235242422E+02  0.49235242680E+02  0.50400001928E-02 0. -1.
        1   -1    0    0  501    0  0.00000000000E+00  0.00000000000E+00 -0.17967568661E+04  0.17967568661E+04  0.50400001928E-02 0.  1.
    10030    2    1    2    0    0  0.00000000000E+00  0.00000000000E+00 -0.17475216237E+04  0.18459921088E+04  0.59485715973E+03 0.  0.
        1    1    3    3  502    0  0.10276978721E+03  0.16363730025E+03 -0.15754320233E+04  0.15872381218E+04  0.50400001928E-02 0.  1.
       -1    1    3    3    0  502 -0.10276978721E+03 -0.16363730025E+03 -0.17208960034E+03  0.25875398696E+03  0.50400001928E-02 0. -1.
</event>
<event>
 5   0  0.3798925E-02  0.6726844E+03  0.7818609E-02  0.9765121E-01
       -2   -1    0    0    0  501  0.00000000000E+00  0.00000000000E+00  0.13772688279E+03  0.13772688281E+03  0.25500000920E-02 0.  1.
        2   -1    0    0  501    0  0.00000000000E+00  0.00000000000E+00 -0.82137977639E+03  0.82137977640E+03  0.25500000920E-02 0. -1.
    10030    2    1    2    0    0  0.00000000000E+00  0.00000000000E+00 -0.68365289361E+03  0.95910665921E+03  0.67268440208E+03 0.  0.
        2    1    3    3  502    0 -0.44037354760E+01 -0.19660714540E+03 -0.73086679749E+03  0.75686196772E+03  0.25500000920E-02 0. -1.
       -2    1    3    3    0  502  0.44037354760E+01  0.19660714540E+03  0.47213903882E+02  0.20224469148E+03  0.25500000920E-02 0.  1.
</event>
<event>
 5   0  0.2225808E-02  0.5347848E+03  0.7818609E-02  0.1005078E+00
        1   -1    0    0  501    0  0.00000000000E+00  0.00000000000E+00  0.28066088448E+03  0.28066088453E+03  0.50400001928E-02 0.  1.
       -1   -1    0    0    0  501  0.00000000000E+00  0.00000000000E+00 -0.25475119743E+03  0.25475119748E+03  0.50400001928E-02 0. -1.
    10030    2    1    2    0    0  0.00000000000E+00  0.00000000000E+00  0.25909687058E+02  0.53541208201E+03  0.53478480315E+03 0.  0.
        2    1    3    3  502    0 -0.23419604959E+03 -0.89762124594E+02 -0.79855929355E+02  0.26321473765E+03  0.25500000920E-02 0. -1.
       -2    1    3    3    0  502  0.23419604959E+03  0.89762124594E+02  0.10576561641E+03  0.27219734436E+03  0.25500000920E-02 0.  1.
</event>
<event>
 5   0  0.2309055E-02  0.6030548E+03  0.7818609E-02  0.9899089E-01
        1   -1    0    0  501    0  0.00000000000E+00  0.00000000000E+00  0.95498265141E+03  0.95498265142E+03  0.50400001928E-02 0. -1.
       -1   -1    0    0    0  501  0.00000000000E+00  0.00000000000E+00 -0.95204633832E+02  0.95204633966E+02  0.50400001928E-02 0.  1.
    10030    2    1    2    0    0  0.00000000000E+00  0.00000000000E+00  0.85977801758E+03  0.10501872854E+04  0.60305480255E+03 0.  0.
        4    1    3    3  502    0 -0.28215703983E+03 -0.17379506386E+02  0.24722371975E+03  0.37554736436E+03  0.12699999809E+01 0.  1.
       -4    1    3    3    0  502  0.28215703983E+03  0.17379506386E+02  0.61255429782E+03  0.67463992103E+03  0.12699999809E+01 0. -1.
</event>
<event>
 5   0  0.3934634E-02  0.5786936E+03  0.7818609E-02  0.9950623E-01
        2   -1    0    0  501    0  0.00000000000E+00  0.00000000000E+00  0.19675833880E+04  0.19675833880E+04  0.25500000920E-02 0.  1.
       -2   -1    0    0    0  501  0.00000000000E+00  0.00000000000E+00 -0.42550451132E+02  0.42550451208E+02  0.25500000920E-02 0. -1.
    10030    2    1    2    0    0  0.00000000000E+00  0.00000000000E+00  0.19250329368E+04  0.20101338392E+04  0.57869356615E+03 0.  0.
        1    1    3    3  502    0  0.12343090125E+03  0.25685143360E+03  0.11366708069E+04  0.11718482708E+04  0.50400001928E-02 0. -1.
       -1    1    3    3    0  502 -0.12343090125E+03 -0.25685143360E+03  0.78836212988E+03  0.83828556840E+03  0.50400001928E-02 0.  1.
</event>
<event>
 5   0  0.3798925E-02  0.6027662E+03  0.7818609E-02  0.9899684E-01
        2   -1    0    0  501    0  0.00000000000E+00  0.00000000000E+00  0.56340564105E+03  0.56340564106E+03  0.25500000920E-02 0.  1.
       -2   -1    0    0    0  501  0.00000000000E+00  0.00000000000E+00 -0.16121913037E+03  0.16121913039E+03  0.25500000920E-02 0. -1.
    10030    2    1    2    0    0  0.00000000000E+00  0.00000000000E+00  0.40218651068E+03  0.72462477144E+03  0.60276618188E+03 0.  0.
        2    1    3    3  502    0  0.21715023080E+03  0.13383010434E+03  0.39406629189E+03  0.46941768392E+03  0.25500000920E-02 0.  1.
       -2    1    3    3    0  502 -0.21715023080E+03 -0.13383010434E+03  0.81202187922E+01  0.25520708752E+03  0.25500000920E-02 0. -1.
</event>
<event>
 5   0  0.2276105E-02  0.5994526E+03  0.7818609E-02  0.9906542E-01
       -1   -1    0    0    0  501  0.00000000000E+00  0.00000000000E+00  0.12788567615E+03  0.12788567625E+03  0.50400001928E-02 0. -1.
        1   -1    0    0  501    0  0.00000000000E+00  0.00000000000E+00 -0.70247007548E+03  0.70247007550E+03  0.50400001928E-02 0.  1.
    10030    2    1    2    0    0  0.00000000000E+00  0.00000000000E+00 -0.57458439934E+03  0.83035575175E+03  0.59945261907E+03 0.  0.
        1    1    3    3  502    0 -0.68324665835E+02 -0.19798259901E+03  0.97026431782E+01  0.20966523503E+03  0.50400001928E-02 0. -1.
       -1    1    3    3    0  502  0.68324665835E+02  0.19798259901E+03 -0.58428704251E+03  0.62069051672E+03  0.50400001928E-02 0.  1.
</event>
<event>
 5   0  0.2225808E-02  0.5889108E+03  0.7818609E-02  0.9928684E-01
        1   -1    0    0  501    0  0.00000000000E+00  0.00000000000E+00  0.84798559294E+03  0.84798559295E+03  0.50400001928E-02 0.  1.
       -1   -1    0    0    0  501  0.00000000000E+00  0.00000000000E+00 -0.10224698718E+03  0.10224698731E+03  0.50400001928E-02 0. -1.
    10030    2    1    2    0    0  0.00000000000E+00  0.00000000000E+00  0.74573860576E+03  0.95023258026E+03  0.58891076444E+03 0.  0.
        2    1    3    3  502    0  0.56325772283E+02  0.16964997256E+03  0.75041849221E+03  0.77141533513E+03  0.25500000920E-02 0.  1.
       -2    1    3    3    0  502 -0.56325772283E+02 -0.16964997256E+03 -0.46798864518E+01  0.17881724514E+03  0.25500000920E-02 0. -1.
</event>
<event>
 5   0  0.3934634E-02  0.6019084E+03  0.7818609E-02  0.9901455E-01
       -2   -1    0    0    0  501  0.00000000000E+00  0.00000000000E+00  0.17431366278E+03  0.17431366279E+03  0.25500000920E-02 0.  1.
        2   -1    0    0  501    0  0.00000000000E+00  0.00000000000E+00 -0.51960021647E+03  0.51960021648E+03  0.25500000920E-02 0. -1.
    10030    2    1    2    0    0  0.00000000000E+00  0.00000000000E+00 -0.34528655370E+03  0.69391387927E+03  0.60190835489E+03 0.  0.
        1    1    3    3  502    0 -0.27845047357E+03 -0.11107797048E+02 -0.41625994508E+02  0.28176368260E+03  0.50400001928E-02 0.  1.
       -1    1    3    3    0  502  0.27845047357E+03  0.11107797048E+02 -0.30366055919E+03  0.41215019667E+03  0.50400001928E-02 0. -1.
</event>
<event>
 5   0  0.2225808E-02  0.5952850E+03  0.7818609E-02  0.9915237E-01
        1   -1    0    0  501    0  0.00000000000E+00  0.00000000000E+00  0.10871399012E+03  0.10871399024E+03  0.50400001928E-02 0.  1.
       -1   -1    0    0    0  501  0.00000000000E+00  0.00000000000E+00 -0.81490038092E+03  0.81490038093E+03  0.50400001928E-02 0. -1.
    10030    2    1    2    0    0  0.00000000000E+00  0.00000000000E+00 -0.70618639079E+03  0.92361437117E+03  0.59528504777E+03 0.  0.
        2    1    3    3  502    0  0.63684491555E+01  0.14866805691E+03 -0.75304505684E+03  0.76760641342E+03  0.25500000920E-02 0. -1.
       -2    1    3    3    0  502 -0.63684491555E+01 -0.14866805691E+03  0.46858666049E+02  0.15600795775E+03  0.25500000920E-02 0.  1.
</event>
<event>
 5   0  0.2276105E-02  0.5962557E+03  0.7818609E-02  0.9913205E-01
       -1   -1    0    0    0  501  0.00000000000E+00  0.00000000000E+00  0.73975099139E+02  0.73975099311E+02  0.50400001928E-02 0. -1.
        1   -1    0    0  501    0  0.00000000000E+00  0.00000000000E+00 -0.12014884401E+04  0.12014884401E+04  0.50400001928E-02 0.  1.
    10030    2    1    2    0    0  0.00000000000E+00  0.00000000000E+00 -0.11275133410E+04  0.12754635394E+04  0.59625573905E+03 0.  0.
        1    1    3    3  502    0 -0.35748037454E+02 -0.24799635929E+03 -0.90934307295E+03  0.94323111735E+03  0.50400001928E-02 0.  1.
       -1    1    3    3    0  502  0.35748037454E+02  0.24799635929E+03 -0.21817026801E+03  0.33223242206E+03  0.50400001928E-02 0. -1.
</event>
<event>
 5   0  0.1521750E-02  0.6005089E+03  0.7818609E-02  0.9904351E-01
        3   -1    0    0  501    0  0.00000000000E+00  0.00000000000E+00  0.12625260001E+04  0.12625260041E+04  0.10100000352E+00 0. -1.
       -3   -1    0    0    0  501  0.00000000000E+00  0.00000000000E+00 -0.71406592391E+02  0.71406663820E+02  0.10100000352E+00 0.  1.
    10030    2    1    2    0    0  0.00000000000E+00  0.00000000000E+00  0.11911194077E+04  0.13339326680E+04  0.60050888356E+03 0.  0.
        3    1    3    3  502    0 -0.90602055992E+01  0.59454139396E+02 -0.57890462523E+02  0.83475732215E+02  0.10100000352E+00 0.  1.
       -3    1    3    3    0  502  0.90602055992E+01 -0.59454139396E+02  0.12490098702E+04  0.12504569357E+04  0.10100000352E+00 0. -1.
</event>
<event>
 5   0  0.3724066E-02  0.5995204E+03  0.7818609E-02  0.9906402E-01
       -2   -1    0    0    0  501  0.00000000000E+00  0.00000000000E+00  0.31834538786E+03  0.31834538787E+03  0.25500000920E-02 0. -1.
        2   -1    0    0  501    0  0.00000000000E+00  0.00000000000E+00 -0.28225998677E+03  0.28225998678E+03  0.25500000920E-02 0.  1.
    10030    2    1    2    0    0  0.00000000000E+00  0.00000000000E+00  0.36085401092E+02  0.60060537466E+03  0.59952035820E+03 0.  0.
        4    1    3    3  502    0  0.21858720145E+03 -0.77271214555E+02  0.20839538718E+03  0.31173940324E+03  0.12699999809E+01 0. -1.
       -4    1    3    3    0  502 -0.21858720145E+03  0.77271214555E+02 -0.17230998609E+03  0.28886597142E+03  0.12699999809E+01 0.  1.
</event>
<event>
 5   0  0.3724066E-02  0.5802393E+03  0.7818609E-02  0.9947273E-01
        2   -1    0    0  501    0  0.00000000000E+00  0.00000000000E+00  0.11057214016E+03  0.11057214019E+03  0.25500000920E-02 0. -1.
       -2   -1    0    0    0  501  0.00000000000E+00  0.00000000000E+00 -0.76121723606E+03  0.76121723607E+03  0.25500000920E-02 0.  1.
    10030    2    1    2    0    0  0.00000000000E+00  0.00000000000E+00 -0.65064509590E+03  0.87178937626E+03  0.58023932626E+03 0.  0.
        4    1    3    3  502    0 -0.20092820212E+03  0.20739313607E+03 -0.36738488455E+03  0.46728719390E+03  0.12699999809E+01 0. -1.
       -4    1    3    3    0  502  0.20092820212E+03 -0.20739313607E+03 -0.28326021135E+03  0.40450218235E+03  0.12699999809E+01 0.  1.
</event>
<event>
 5   0  0.3724066E-02  0.6035325E+03  0.7818609E-02  0.9898104E-01
        2   -1    0    0  501    0  0.00000000000E+00  0.00000000000E+00  0.55095920793E+03  0.55095920794E+03  0.25500000920E-02 0.  1.
       -2   -1    0    0    0  501  0.00000000000E+00  0.00000000000E+00 -0.16528061987E+03  0.16528061989E+03  0.25500000920E-02 0. -1.
    10030    2    1    2    0    0  0.00000000000E+00  0.00000000000E+00  0.38567858806E+03  0.71623982783E+03  0.60353253241E+03 0.  0.
        4    1    3    3  502    0 -0.75556299087E+02  0.14716729433E+03 -0.10666845661E+03  0.19684191471E+03  0.12699999809E+01 0. -1.
       -4    1    3    3    0  502  0.75556299087E+02 -0.14716729433E+03  0.49234704467E+03  0.51939791311E+03  0.12699999809E+01 0.  1.
</event>
<event>
 5   0  0.3832191E-02  0.6085788E+03  0.7818609E-02  0.9887766E-01
        2   -1    0    0  501    0  0.00000000000E+00  0.00000000000E+00  0.11911211275E+04  0.11911211275E+04  0.25500000920E-02 0.  1.
       -2   -1    0    0    0  501  0.00000000000E+00  0.00000000000E+00 -0.77735187465E+02  0.77735187507E+02  0.25500000920E-02 0. -1.
    10030    2    1    2    0    0  0.00000000000E+00  0.00000000000E+00  0.11133859400E+04  0.12688563150E+04  0.60857875141E+03 0.  0.
        3    1    3    3  502    0  0.30098230630E+03 -0.93319816200E+01  0.64792185128E+03  0.71447895011E+03  0.10100000352E+00 0.  1.
       -3    1    3    3    0  502 -0.30098230630E+03  0.93319816200E+01  0.46546408873E+03  0.55437736487E+03  0.10100000352E+00 0. -1.
</event>
<event>
 5   0  0.2276105E-02  0.5997589E+03  0.7818609E-02  0.9905906E-01
        1   -1    0    0  501    0  0.00000000000E+00  0.00000000000E+00  0.29826563313E+03  0.29826563317E+03  0.50400001928E-02 0.  1.
       -1   -1    0    0    0  501  0.00000000000E+00  0.00000000000E+00 -0.30150204346E+03  0.30150204350E+03  0.50400001928E-02 0. -1.
    10030    2    1    2    0    0  0.00000000000E+00  0.00000000000E+00 -0.32364103324E+01  0.59976767668E+03  0.59975894461E+03 0.  0.
        1    1    3    3  502    0  0.72208369966E+02 -0.21655174888E+03  0.19285567609E+03  0.29883443654E+03  0.50400001928E-02 0.  1.
       -1    1    3    3    0  502 -0.72208369966E+02  0.21655174888E+03 -0.19609208642E+03  0.30093324014E+03  0.50400001928E-02 0. -1.
</event>
<event>
 5   0  0.3798925E-02  0.6181941E+03  0.7818609E-02  0.9868362E-01
       -2   -1    0    0    0  501  0.00000000000E+00  0.00000000000E+00  0.93766023886E+02  0.93766023921E+02  0.25500000920E-02 0. -1.
        2   -1    0    0  501    0  0.00000000000E+00  0.00000000000E+00 -0.10189295706E+04  0.10189295706E+04  0.25500000920E-02 0.  1.
    10030    2    1    2    0    0  0.00000000000E+00  0.00000000000E+00 -0.92516354674E+03  0.11126955946E+04  0.61819406169E+03 0.  0.
        2    1    3    3  502    0  0.37258368504E+02 -0.67843147067E+02  0.76040820605E+02  0.10850384801E+03  0.25500000920E-02 0. -1.
       -2    1    3    3    0  502 -0.37258368504E+02  0.67843147067E+02 -0.10012043673E+04  0.10041917465E+04  0.25500000920E-02 0.  1.
</event>
<event>
 5   0  0.3934634E-02  0.5947708E+03  0.7818609E-02  0.9916315E-01
        2   -1    0    0  501    0  0.00000000000E+00  0.00000000000E+00  0.32915470034E+03  0.32915470035E+03  0.25500000920E-02 0. -1.
       -2   -1    0    0    0  501  0.00000000000E+00  0.00000000000E+00 -0.26868242507E+03  0.26868242509E+03  0.25500000920E-02 0.  1.
    10030    2    1    2    0    0  0.00000000000E+00  0.00000000000E+00  0.60472275265E+02  0.59783712543E+03  0.59477082349E+03 0.  0.
        1    1    3    3  502    0 -0.83880165750E+01 -0.28898956403E+03 -0.39784725411E+02  0.29183582944E+03  0.50400001928E-02 0.  1.
       -1    1    3    3    0  502  0.83880165750E+01  0.28898956403E+03  0.10025700068E+03  0.30600129600E+03  0.50400001928E-02 0. -1.
</event>
<event>
 5   0  0.2225808E-02  0.6021563E+03  0.7818609E-02  0.9900942E-01
        1   -1    0    0  501    0  0.00000000000E+00  0.00000000000E+00  0.32514289813E+03  0.32514289817E+03  0.50400001928E-02 0. -1.
       -1   -1    0    0    0  501  0.00000000000E+00  0.00000000000E+00 -0.27879453491E+03  0.27879453495E+03  0.50400001928E-02 0.  1.
    10030    2    1    2    0    0  0.00000000000E+00  0.00000000000E+00  0.46348363227E+02  0.60393743312E+03  0.60215633548E+03 0.  0.
        2    1    3    3  502    0 -0.61203326046E+02 -0.13409370549E+03  0.28647897800E+03  0.32217568780E+03  0.25500000920E-02 0. -1.
       -2    1    3    3    0  502  0.61203326046E+02  0.13409370549E+03 -0.24013061477E+03  0.28176174532E+03  0.25500000920E-02 0.  1.
</event>
<event>
 5   0  0.2225808E-02  0.5971729E+03  0.7818609E-02  0.9911289E-01
       -1   -1    0    0    0  501  0.00000000000E+00  0.00000000000E+00  0.50025881331E+02  0.50025881584E+02  0.50400001928E-02 0.  1.
        1   -1    0    0  501    0  0.00000000000E+00  0.00000000000E+00 -0.17821545877E+04  0.17821545877E+04  0.50400001928E-02 0. -1.
    10030    2    1    2    0    0  0.00000000000E+00  0.00000000000E+00 -0.17321287064E+04  0.18321804693E+04  0.59717285322E+03 0.  0.
        2    1    3    3  502    0  0.25159803067E+03 -0.99963988673E+02 -0.47968603533E+03  0.55081127491E+03  0.25500000920E-02 0.  1.
       -2    1    3    3    0  502 -0.25159803067E+03  0.99963988673E+02 -0.12524426710E+04  0.12813691944E+04  0.25500000920E-02 0. -1.
</event>
<event>
 5   0  0.3724066E-02  0.5872866E+03  0.7818609E-02  0.9932139E-01
       -2   -1    0    0    0  501  0.00000000000E+00  0.00000000000E+00  0.34607112006E+03  0.34607112007E+03  0.25500000920E-02 0.  1.
        2   -1    0    0  501    0  0.00000000000E+00  0.00000000000E+00 -0.24915803084E+03  0.24915803086E+03  0.25500000920E-02 0. -1.
    10030    2    1    2    0    0  0.00000000000E+00  0.00000000000E+00  0.96913089216E+02  0.59522915092E+03  0.58728663806E+03 0.  0.
        4    1    3    3  502    0  0.23021998336E+03 -0.82000950814E+02  0.21344441035E+03  0.32447731182E+03  0.12699999809E+01 0.  1.
       -4    1    3    3    0  502 -0.23021998336E+03  0.82000950814E+02 -0.11653132113E+03  0.27075183911E+03  0.12699999809E+01 0. -1.
</event>
<event>
 5   0  0.3724066E-02  0.5958397E+03  0.7818609E-02  0.9914075E-01
       -2   -1    0    0    0  501  0.00000000000E+00  0.00000000000E+00  0.23388576907E+03  0.23388576908E+03  0.25500000920E-02 0.  1.
        2   -1    0    0  501    0  0.00000000000E+00  0.00000000000E+00 -0.37948543520E+03  0.37948543521E+03  0.25500000920E-02 0. -1.
    10030    2    1    2    0    0  0.00000000000E+00  0.00000000000E+00 -0.14559966613E+03  0.61337120429E+03  0.59583971961E+03 0.  0.
        4    1    3    3  502    0  0.21154620811E+03 -0.20663472973E+03 -0.35613280228E+02  0.29785840315E+03  0.12699999809E+01 0.  1.
       -4    1    3    3    0  502 -0.21154620811E+03  0.20663472973E+03 -0.10998638590E+03  0.31551280114E+03  0.12699999809E+01 0. -1.
</event>
<event>
 5   0  0.3724066E-02  0.6034179E+03  0.7818609E-02  0.9898340E-01
        2   -1    0    0  501    0  0.00000000000E+00  0.00000000000E+00  0.13177527895E+04  0.13177527895E+04  0.25500000920E-02 0. -1.
       -2   -1    0    0    0  501  0.00000000000E+00  0.00000000000E+00 -0.69078428540E+02  0.69078428587E+02  0.25500000920E-02 0.  1.
    10030    2    1    2    0    0  0.00000000000E+00  0.00000000000E+00  0.12486743609E+04  0.13868312181E+04  0.60341790473E+03 0.  0.
        4    1    3    3  502    0 -0.17404594534E+03  0.14125543706E+03  0.16020947818E+03  0.27552455315E+03  0.12699999809E+01 0.  1.
       -4    1    3    3    0  502  0.17404594534E+03 -0.14125543706E+03  0.10884648828E+04  0.11113066649E+04  0.12699999809E+01 0. -1.
</event>
<event>
 5   0  0.2295179E-02  0.6072610E+03  0.7818609E-02  0.9890455E-01
        1   -1    0    0  501    0  0.00000000000E+00  0.00000000000E+00  0.63059366299E+03  0.63059366301E+03  0.50400001928E-02 0.  1.
       -1   -1    0    0    0  501  0.00000000000E+00  0.00000000000E+00 -0.14619790594E+03  0.14619790603E+03  0.50400001928E-02 0. -1.
    10030    2    1    2    0    0  0.00000000000E+00  0.00000000000E+00  0.48439575705E+03  0.77679156904E+03  0.60726097543E+03 0.  0.
        3    1    3    3  502    0  0.12043698069E+02 -0.12414950815E+03 -0.11191190660E+03  0.16757814916E+03  0.10100000352E+00 0. -1.
       -3    1    3    3    0  502 -0.12043698069E+02  0.12414950815E+03  0.59630766364E+03  0.60921341988E+03  0.10100000352E+00 0.  1.
</event>
<event>
 5   0  0.1521750E-02  0.6012547E+03  0.7818609E-02  0.9902806E-01
       -3   -1    0    0    0  501  0.00000000000E+00  0.00000000000E+00  0.43967255580E+03  0.43967256740E+03  0.10100000352E+00 0.  1.
        3   -1    0    0  501    0  0.00000000000E+00  0.00000000000E+00 -0.20555475079E+03  0.20555477560E+03  0.10100000352E+00 0. -1.
    10030    2    1    2    0    0  0.00000000000E+00  0.00000000000E+00  0.23411780501E+03  0.64522734300E+03  0.60125466945E+03 0.  0.
        4    1    3    3  502    0  0.18501562770E+03 -0.11608852021E+03 -0.10460996561E+03  0.24218213151E+03  0.12699999809E+01 0. -1.
       -4    1    3    3    0  502 -0.18501562770E+03  0.11608852021E+03  0.33872777062E+03  0.40304521149E+03  0.12699999809E+01 0.  1.
</event>
<event>
 5   0  0.2295179E-02  0.6440474E+03  0.7818609E-02  0.9818013E-01
       -1   -1    0    0    0  501  0.00000000000E+00  0.00000000000E+00  0.17884255524E+03  0.17884255531E+03  0.50400001928E-02 0. -1.
        1   -1    0    0  501    0  0.00000000000E+00  0.00000000000E+00 -0.57983546070E+03  0.57983546072E+03  0.50400001928E-02 0.  1.
    10030    2    1    2    0    0  0.00000000000E+00  0.00000000000E+00 -0.40099290546E+03  0.75867801603E+03  0.64404737541E+03 0.  0.
        3    1    3    3  502    0  0.61369464379E+02 -0.21710734324E+03 -0.47117017766E+03  0.52240133630E+03  0.10100000352E+00 0.  1.
       -3    1    3    3    0  502 -0.61369464379E+02  0.21710734324E+03  0.70177272206E+02  0.23627667973E+03  0.10100000352E+00 0. -1.
</event>
<event>
 5   0  0.3798925E-02  0.5962825E+03  0.7818609E-02  0.9913149E-01
       -2   -1    0    0    0  501  0.00000000000E+00  0.00000000000E+00  0.92395460033E+02  0.92395460068E+02  0.25500000920E-02 0.  1.
        2   -1    0    0  501    0  0.00000000000E+00  0.00000000000E+00 -0.96204073260E+03  0.96204073261E+03  0.25500000920E-02 0. -1.
    10030    2    1    2    0    0  0.00000000000E+00  0.00000000000E+00 -0.86964527257E+03  0.10544361927E+04  0.59628247024E+03 0.  0.
        2    1    3    3  502    0 -0.14559367419E+03  0.11967215980E+03 -0.84334310495E+03  0.86414497422E+03  0.25500000920E-02 0. -1.
       -2    1    3    3    0  502  0.14559367419E+03 -0.11967215980E+03 -0.26302167625E+02  0.19029121846E+03  0.25500000920E-02 0.  1.
</event>
<event>
 5   0  0.2225808E-02  0.6039942E+03  0.7818609E-02  0.9897154E-01
        1   -1    0    0  501    0  0.00000000000E+00  0.00000000000E+00  0.67921339522E+03  0.67921339524E+03  0.50400001928E-02 0. -1.
       -1   -1    0    0    0  501  0.00000000000E+00  0.00000000000E+00 -0.13427625941E+03  0.13427625950E+03  0.50400001928E-02 0.  1.
    10030    2    1    2    0    0  0.00000000000E+00  0.00000000000E+00  0.54493713581E+03  0.81348965474E+03  0.60399415260E+03 0.  0.
        2    1    3    3  502    0 -0.14514102151E+03  0.10088273966E+03 -0.57328247282E+02  0.18582188038E+03  0.25500000920E-02 0.  1.
       -2    1    3    3    0  502  0.14514102151E+03 -0.10088273966E+03  0.60226538309E+03  0.62766777435E+03  0.25500000920E-02 0. -1.
</event>
<event>
 5   0  0.2225808E-02  0.6001798E+03  0.7818609E-02  0.9905033E-01
        1   -1    0    0  501    0  0.00000000000E+00  0.00000000000E+00  0.42311073411E+03  0.42311073414E+03  0.50400001928E-02 0. -1.
       -1   -1    0    0    0  501  0.00000000000E+00  0.00000000000E+00 -0.21283776084E+03  0.21283776090E+03  0.50400001928E-02 0.  1.
    10030    2    1    2    0    0  0.00000000000E+00  0.00000000000E+00  0.21027297326E+03  0.63594849504E+03  0.60017977728E+03 0.  0.
        2    1    3    3  502    0 -0.80802133635E+02 -0.96380615822E+02  0.39383668843E+03  0.41343142729E+03  0.25500000920E-02 0. -1.
       -2    1    3    3    0  502  0.80802133635E+02  0.96380615822E+02 -0.18356371517E+03  0.22251706775E+03  0.25500000920E-02 0.  1.
</event>
<event>
 5   0  0.2276105E-02  0.6044114E+03  0.7818609E-02  0.9896296E-01
       -1   -1    0    0    0  501  0.00000000000E+00  0.00000000000E+00  0.71371458957E+02  0.71371459135E+02  0.50400001928E-02 0. -1.
        1   -1    0    0  501    0  0.00000000000E+00  0.00000000000E+00 -0.12796192168E+04  0.12796192169E+04  0.50400001928E-02 0.  1.
    10030    2    1    2    0    0  0.00000000000E+00  0.00000000000E+00 -0.12082477579E+04  0.13509906760E+04  0.60441141797E+03 0.  0.
        1    1    3    3  502    0 -0.22519722432E+03 -0.24742314959E+02 -0.15706752326E+03  0.27567404463E+03  0.50400001928E-02 0. -1.
       -1    1    3    3    0  502  0.22519722432E+03  0.24742314959E+02 -0.10511802346E+04  0.10753166314E+04  0.50400001928E-02 0.  1.
</event>
<event>
 5   0  0.3798925E-02  0.6011445E+03  0.7818609E-02  0.9903034E-01
       -2   -1    0    0    0  501  0.00000000000E+00  0.00000000000E+00  0.56371939273E+02  0.56371939331E+02  0.25500000920E-02 0. -1.
        2   -1    0    0  501    0  0.00000000000E+00  0.00000000000E+00 -0.16026357639E+04  0.16026357639E+04  0.25500000920E-02 0.  1.
    10030    2    1    2    0    0  0.00000000000E+00  0.00000000000E+00 -0.15462638246E+04  0.16590077032E+04  0.60114452841E+03 0.  0.
        2    1    3    3  502    0  0.15262713203E+03 -0.25222189814E+03 -0.93482488310E+03  0.98020839081E+03  0.25500000920E-02 0.  1.
       -2    1    3    3    0  502 -0.15262713203E+03  0.25222189814E+03 -0.61143894152E+03  0.67879931243E+03  0.25500000920E-02 0. -1.
</event>
<event>
 5   0  0.3724066E-02  0.6017318E+03  0.7818609E-02  0.9901820E-01
       -2   -1    0    0    0  501  0.00000000000E+00  0.00000000000E+00  0.90641709818E+02  0.90641709854E+02  0.25500000920E-02 0. -1.
        2   -1    0    0  501    0  0.00000000000E+00  0.00000000000E+00 -0.99866043366E+03  0.99866043366E+03  0.25500000920E-02 0.  1.
    10030    2    1    2    0    0  0.00000000000E+00  0.00000000000E+00 -0.90801872384E+03  0.10893021435E+04  0.60173179825E+03 0.  0.
        4    1    3    3  502    0 -0.30647328772E+02 -0.16576291394E+03 -0.90513597513E+03  0.92070046637E+03  0.12699999809E+01 0. -1.
       -4    1    3    3    0  502  0.30647328772E+02  0.16576291394E+03 -0.28827487129E+01  0.16860167715E+03  0.12699999809E+01 0.  1.
</event>
<event>
 5   0  0.2276105E-02  0.6002980E+03  0.7818609E-02  0.9904788E-01
        1   -1    0    0  501    0  0.00000000000E+00  0.00000000000E+00  0.23225724211E+03  0.23225724216E+03  0.50400001928E-02 0.  1.
       -1   -1    0    0    0  501  0.00000000000E+00  0.00000000000E+00 -0.38788637063E+03  0.38788637066E+03  0.50400001928E-02 0. -1.
    10030    2    1    2    0    0  0.00000000000E+00  0.00000000000E+00 -0.15562912852E+03  0.62014361283E+03  0.60029798841E+03 0.  0.
        1    1    3    3  502    0 -0.12792949799E+03 -0.23974356171E+03 -0.20949010751E+03  0.34311665219E+03  0.50400001928E-02 0. -1.
       -1    1    3    3    0  502  0.12792949799E+03  0.23974356171E+03  0.53860978992E+02  0.27702696064E+03  0.50400001928E-02 0.  1.
</event>
<event>
 5   0  0.3934634E-02  0.5997616E+03  0.7818609E-02  0.9905901E-01
       -2   -1    0    0    0  501  0.00000000000E+00  0.00000000000E+00  0.93272488803E+02  0.93272488838E+02  0.25500000920E-02 0. -1.
        2   -1    0    0  501    0  0.00000000000E+00  0.00000000000E+00 -0.96414820703E+03  0.96414820703E+03  0.25500000920E-02 0.  1.
    10030    2    1    2    0    0  0.00000000000E+00  0.00000000000E+00 -0.87087571823E+03  0.10574206959E+04  0.59976162887E+03 0.  0.
        1    1    3    3  502    0 -0.14387704583E+03 -0.92549245633E+02 -0.86967744184E+03  0.88634351132E+03  0.50400001928E-02 0.  1.
       -1    1    3    3    0  502  0.14387704583E+03  0.92549245633E+02 -0.11982763849E+01  0.17107718455E+03  0.50400001928E-02 0. -1.
</event>
<event>
 5   0  0.2225808E-02  0.5907646E+03  0.7818609E-02  0.9924754E-01
        1   -1    0    0  501    0  0.00000000000E+00  0.00000000000E+00  0.45961902672E+03  0.45961902674E+03  0.50400001928E-02 0.  1.
       -1   -1    0    0    0  501  0.00000000000E+00  0.00000000000E+00 -0.18983268552E+03  0.18983268559E+03  0.50400001928E-02 0. -1.
    10030    2    1    2    0    0  0.00000000000E+00  0.00000000000E+00  0.26978634119E+03  0.64945171233E+03  0.59076463736E+03 0.  0.
        2    1    3    3  502    0 -0.24964808113E+02 -0.14282723442E+03  0.41780604778E+03  0.44224965134E+03  0.25500000920E-02 0.  1.
       -2    1    3    3    0  502  0.24964808113E+02  0.14282723442E+03 -0.14801970659E+03  0.20720206100E+03  0.25500000920E-02 0. -1.
</event>
<event>
 5   0  0.2309055E-02  0.5995206E+03  0.7818609E-02  0.9906401E-01
        1   -1    0    0  501    0  0.00000000000E+00  0.00000000000E+00  0.84235422558E+03  0.84235422560E+03  0.50400001928E-02 0.  1.
       -1   -1    0    0    0  501  0.00000000000E+00  0.00000000000E+00 -0.10667273792E+03  0.10667273804E+03  0.50400001928E-02 0. -1.
    10030    2    1    2    0    0  0.00000000000E+00  0.00000000000E+00  0.73568148766E+03  0.94902696364E+03  0.59952058049E+03 0.  0.
        4    1    3    3  502    0  0.11257454776E+03  0.10470966698E+03 -0.39502732472E+02  0.15874262797E+03  0.12699999809E+01 0. -1.
       -4    1    3    3    0  502 -0.11257454776E+03 -0.10470966698E+03  0.77518422013E+03  0.79028433567E+03  0.12699999809E+01 0.  1.
</event>
<event>
 5   0  0.2276105E-02  0.5985235E+03  0.7818609E-02  0.9908474E-01
        1   -1    0    0  501    0  0.00000000000E+00  0.00000000000E+00  0.21221026451E+04  0.21221026451E+04  0.50400001928E-02 0.  1.
       -1   -1    0    0    0  501  0.00000000000E+00  0.00000000000E+00 -0.42202292544E+02  0.42202292845E+02  0.50400001928E-02 0. -1.
    10030    2    1    2    0    0  0.00000000000E+00  0.00000000000E+00  0.20799003525E+04  0.21643049379E+04  0.59852350653E+03 0.  0.
        1    1    3    3  502    0 -0.18915343970E+03 -0.55789606605E+02  0.22600351407E+03  0.29994848283E+03  0.50400001928E-02 0. -1.
       -1    1    3    3    0  502  0.18915343970E+03  0.55789606605E+02  0.18538968385E+04  0.18643564551E+04  0.50400001928E-02 0.  1.
</event>
<event>
 5   0  0.2276105E-02  0.6017213E+03  0.7818609E-02  0.9901841E-01
       -1   -1    0    0    0  501  0.00000000000E+00  0.00000000000E+00  0.12136297057E+03  0.12136297068E+03  0.50400001928E-02 0. -1.
        1   -1    0    0  501    0  0.00000000000E+00  0.00000000000E+00 -0.74583804169E+03  0.74583804171E+03  0.50400001928E-02 0.  1.
    10030    2    1    2    0    0  0.00000000000E+00  0.00000000000E+00 -0.62447507112E+03  0.86720101239E+03  0.60172126556E+03 0.  0.
        1    1    3    3  502    0 -0.19157266380E+03 -0.14647648579E+03 -0.57150015512E+03  0.62029660142E+03  0.50400001928E-02 0.  1.
       -1    1    3    3    0  502  0.19157266380E+03  0.14647648579E+03 -0.52974916002E+02  0.24690441097E+03  0.50400001928E-02 0. -1.
</event>
<event>
 5   0  0.2276105E-02  0.6084520E+03  0.7818609E-02  0.9888024E-01
       -1   -1    0    0    0  501  0.00000000000E+00  0.00000000000E+00  0.67144248609E+03  0.67144248611E+03  0.50400001928E-02 0.  1.
        1   -1    0    0  501    0  0.00000000000E+00  0.00000000000E+00 -0.13784271113E+03  0.13784271122E+03  0.50400001928E-02 0. -1.
    10030    2    1    2    0    0  0.00000000000E+00  0.00000000000E+00  0.53359977496E+03  0.80928519733E+03  0.60845197902E+03 0.  0.
        1    1    3    3  502    0  0.24782310066E+03  0.24922088042E+02  0.34451603767E+02  0.25144445256E+03  0.50400001928E-02 0. -1.
       -1    1    3    3    0  502 -0.24782310066E+03 -0.24922088042E+02  0.49914817119E+03  0.55784074477E+03  0.50400001928E-02 0.  1.
</event>
<event>
 5   0  0.1521750E-02  0.6030289E+03  0.7818609E-02  0.9899142E-01
       -3   -1    0    0    0  501  0.00000000000E+00  0.00000000000E+00  0.19042796580E+03  0.19042799259E+03  0.10100000352E+00 0.  1.
        3   -1    0    0  501    0  0.00000000000E+00  0.00000000000E+00 -0.47740338388E+03  0.47740339456E+03  0.10100000352E+00 0. -1.
    10030    2    1    2    0    0  0.00000000000E+00  0.00000000000E+00 -0.28697541807E+03  0.66783138715E+03  0.60302891397E+03 0.  0.
        3    1    3    3  502    0  0.12275718363E+03 -0.77779131218E+02  0.14908353007E+03  0.20819420867E+03  0.10100000352E+00 0.  1.
       -3    1    3    3    0  502 -0.12275718363E+03  0.77779131218E+02 -0.43605894814E+03  0.45963717848E+03  0.10100000352E+00 0. -1.
</event>
<event>
 5   0  0.2225808E-02  0.5557781E+03  0.7818609E-02  0.1000165E+00
        1   -1    0    0  501    0  0.00000000000E+00  0.00000000000E+00  0.15546970291E+03  0.15546970299E+03  0.50400001928E-02 0.  1.
       -1   -1    0    0    0  501  0.00000000000E+00  0.00000000000E+00 -0.49670335716E+03  0.49670335719E+03  0.50400001928E-02 0. -1.
    10030    2    1    2    0    0  0.00000000000E+00  0.00000000000E+00 -0.34123365425E+03  0.65217306018E+03  0.55577809747E+03 0.  0.
        2    1    3    3  502    0 -0.97678259602E+02 -0.96681245032E+02 -0.45403152727E+03  0.47437636250E+03  0.25500000920E-02 0. -1.
       -2    1    3    3    0  502  0.97678259602E+02  0.96681245032E+02  0.11279787302E+03  0.17779669767E+03  0.25500000920E-02 0.  1.
</event>
<event>
 5   0  0.2309055E-02  0.6012325E+03  0.7818609E-02  0.9902852E-01
        1   -1    0    0  501    0  0.00000000000E+00  0.00000000000E+00  0.52142492168E+03  0.52142492171E+03  0.50400001928E-02 0.  1.
       -1   -1    0    0    0  501  0.00000000000E+00  0.00000000000E+00 -0.17331377614E+03  0.17331377621E+03  0.50400001928E-02 0. -1.
    10030    2    1    2    0    0  0.00000000000E+00  0.00000000000E+00  0.34811114555E+03  0.69473869792E+03  0.60123247478E+03 0.  0.
        4    1    3    3  502    0 -0.15315979659E+03  0.14709491845E+03 -0.71812374316E+02  0.22417285369E+03  0.12699999809E+01 0.  1.
       -4    1    3    3    0  502  0.15315979659E+03 -0.14709491845E+03  0.41992351986E+03  0.47056584423E+03  0.12699999809E+01 0. -1.
</event>
<event>
 5   0  0.3798925E-02  0.6001683E+03  0.7818609E-02  0.9905057E-01
       -2   -1    0    0    0  501  0.00000000000E+00  0.00000000000E+00  0.25685465372E+03  0.25685465373E+03  0.25500000920E-02 0.  1.
        2   -1    0    0  501    0  0.00000000000E+00  0.00000000000E+00 -0.35058930056E+03  0.35058930057E+03  0.25500000920E-02 0. -1.
    10030    2    1    2    0    0  0.00000000000E+00  0.00000000000E+00 -0.93734646847E+02  0.60744395430E+03  0.60016828773E+03 0.  0.
        2    1    3    3  502    0  0.12324628318E+03 -0.36576154956E+02  0.22757107371E+03  0.26137340153E+03  0.25500000920E-02 0.  1.
       -2    1    3    3    0  502 -0.12324628318E+03  0.36576154956E+02 -0.32130572056E+03  0.34607055278E+03  0.25500000920E-02 0. -1.
</event>
<event>
 5   0  0.1521750E-02  0.5989137E+03  0.7818609E-02  0.9907662E-01
        4   -1    0    0  501    0  0.00000000000E+00  0.00000000000E+00  0.63897160270E+03  0.63897286480E+03  0.12699999809E+01 0. -1.
       -4   -1    0    0    0  501  0.00000000000E+00  0.00000000000E+00 -0.14033748267E+03  0.14034322906E+03  0.12699999809E+01 0.  1.
    10030    2    1    2    0    0  0.00000000000E+00  0.00000000000E+00  0.49863412002E+03  0.77931609386E+03  0.59891367367E+03 0.  0.
        5    1    3    3  502    0 -0.20021972975E+03 -0.17760948377E+03  0.74647337624E+02  0.27789815386E+03  0.46999998093E+01 0.  1.
       -5    1    3    3    0  502  0.20021972975E+03  0.17760948377E+03  0.42398678240E+03  0.50141794000E+03  0.46999998093E+01 0. -1.
</event>
<event>
 5   0  0.2295179E-02  0.6007634E+03  0.7818609E-02  0.9903823E-01
       -1   -1    0    0    0  501  0.00000000000E+00  0.00000000000E+00  0.99665838307E+02  0.99665838434E+02  0.50400001928E-02 0. -1.
        1   -1    0    0  501    0  0.00000000000E+00  0.00000000000E+00 -0.90531690832E+03  0.90531690833E+03  0.50400001928E-02 0.  1.
    10030    2    1    2    0    0  0.00000000000E+00  0.00000000000E+00 -0.80565107001E+03  0.10049827468E+04  0.60076340991E+03 0.  0.
        3    1    3    3  502    0  0.28965122832E+03 -0.99620778381E+00 -0.53592256829E+03  0.60918949096E+03  0.10100000352E+00 0.  1.
       -3    1    3    3    0  502 -0.28965122832E+03  0.99620778381E+00 -0.26972850172E+03  0.39579325580E+03  0.10100000352E+00 0. -1.
</event>
<event>
 5   0  0.3934634E-02  0.5993645E+03  0.7818609E-02  0.9906725E-01
       -2   -1    0    0    0  501  0.00000000000E+00  0.00000000000E+00  0.15612961110E+03  0.15612961112E+03  0.25500000920E-02 0.  1.
        2   -1    0    0  501    0  0.00000000000E+00  0.00000000000E+00 -0.57522360524E+03  0.57522360525E+03  0.25500000920E-02 0. -1.
    10030    2    1    2    0    0  0.00000000000E+00  0.00000000000E+00 -0.41909399414E+03  0.73135321637E+03  0.59936445605E+03 0.  0.
        1    1    3    3  502    0  0.87237701066E+02 -0.15703066901E+03 -0.50224690967E+03  0.53340510478E+03  0.50400001928E-02 0. -1.
       -1    1    3    3    0  502 -0.87237701066E+02  0.15703066901E+03  0.83152915535E+02  0.19794811160E+03  0.50400001928E-02 0.  1.
</event>
<event>
 5   0  0.3934634E-02  0.6007759E+03  0.7818609E-02  0.9903798E-01
       -2   -1    0    0    0  501  0.00000000000E+00  0.00000000000E+00  0.80710604242E+02  0.80710604282E+02  0.25500000920E-02 0. -1.
        2   -1    0    0  501    0  0.00000000000E+00  0.00000000000E+00 -0.11179810626E+04  0.11179810626E+04  0.25500000920E-02 0.  1.
    10030    2    1    2    0    0  0.00000000000E+00  0.00000000000E+00 -0.10372704584E+04  0.11986916669E+04  0.60077592202E+03 0.  0.
        1    1    3    3  502    0 -0.25777749299E+03  0.10780330285E+03 -0.73867437514E+03  0.78975351883E+03  0.50400001928E-02 0.  1.
       -1    1    3    3    0  502  0.25777749299E+03 -0.10780330285E+03 -0.29859608322E+03  0.40893814806E+03  0.50400001928E-02 0. -1.
</event>
<event>
 5   0  0.3798925E-02  0.5980707E+03  0.7818609E-02  0.9909417E-01
       -2   -1    0    0    0  501  0.00000000000E+00  0.00000000000E+00  0.10889091652E+03  0.10889091655E+03  0.25500000920E-02 0.  1.
        2   -1    0    0  501    0  0.00000000000E+00  0.00000000000E+00 -0.82120851013E+03  0.82120851014E+03  0.25500000920E-02 0. -1.
    10030    2    1    2    0    0  0.00000000000E+00  0.00000000000E+00 -0.71231759361E+03  0.93009942668E+03  0.59807072269E+03 0.  0.
        2    1    3    3  502    0 -0.24382134150E+03  0.10911315723E+03 -0.56519778940E+03  0.62514243881E+03  0.25500000920E-02 0. -1.
       -2    1    3    3    0  502  0.24382134150E+03 -0.10911315723E+03 -0.14711980421E+03  0.30495698787E+03  0.25500000920E-02 0.  1.
</event>
<event>
 5   0  0.3737642E-02  0.6293109E+03  0.7818609E-02  0.9846394E-01
       -2   -1    0    0    0  501  0.00000000000E+00  0.00000000000E+00  0.90919355798E+02  0.90919355833E+02  0.25500000920E-02 0.  1.
        2   -1    0    0  501    0  0.00000000000E+00  0.00000000000E+00 -0.10889656415E+04  0.10889656415E+04  0.25500000920E-02 0. -1.
    10030    2    1    2    0    0  0.00000000000E+00  0.00000000000E+00 -0.99804628570E+03  0.11798849973E+04  0.62931090769E+03 0.  0.
        5    1    3    3  502    0  0.22163571921E+03  0.12995481563E+03 -0.15856092877E+03  0.30195083087E+03  0.46999998093E+01 0.  1.
       -5    1    3    3    0  502 -0.22163571921E+03 -0.12995481563E+03 -0.83948535693E+03  0.87793416646E+03  0.46999998093E+01 0. -1.
</event>
<event>
 5   0  0.2225808E-02  0.5973645E+03  0.7818609E-02  0.9910889E-01
        1   -1    0    0  501    0  0.00000000000E+00  0.00000000000E+00  0.67797449169E+02  0.67797449357E+02  0.50400001928E-02 0.  1.
       -1   -1    0    0    0  501  0.00000000000E+00  0.00000000000E+00 -0.13158473264E+04  0.13158473264E+04  0.50400001928E-02 0. -1.
    10030    2    1    2    0    0  0.00000000000E+00  0.00000000000E+00 -0.12480498772E+04  0.13836447758E+04  0.59736451974E+03 0.  0.
        2    1    3    3  502    0  0.74712312323E+02 -0.26557686678E+03 -0.88911239504E+03  0.93093171221E+03  0.25500000920E-02 0. -1.
       -2    1    3    3    0  502 -0.74712312323E+02  0.26557686678E+03 -0.35893748218E+03  0.45271306355E+03  0.25500000920E-02 0.  1.
</event>
<event>
 5   0  0.3934634E-02  0.6035483E+03  0.7818609E-02  0.9898072E-01
        2   -1    0    0  501    0  0.00000000000E+00  0.00000000000E+00  0.12320631484E+04  0.12320631484E+04  0.25500000920E-02 0.  1.
       -2   -1    0    0    0  501  0.00000000000E+00  0.00000000000E+00 -0.73914747895E+02  0.73914747939E+02  0.25500000920E-02 0. -1.
    10030    2    1    2    0    0  0.00000000000E+00  0.00000000000E+00  0.11581484005E+04  0.13059778963E+04  0.60354829810E+03 0.  0.
        1    1    3    3  502    0 -0.20996574969E+03  0.42875285558E+02  0.11932337130E+03  0.24527937769E+03  0.50400001928E-02 0. -1.
       -1    1    3    3    0  502  0.20996574969E+03 -0.42875285558E+02  0.10388250292E+04  0.10606985186E+04  0.50400001928E-02 0.  1.
</event>
<event>
 5   0  0.2276105E-02  0.5989078E+03  0.7818609E-02  0.9907675E-01
        1   -1    0    0  501    0  0.00000000000E+00  0.00000000000E+00  0.11000429897E+04  0.11000429897E+04  0.50400001928E-02 0.  1.
       -1   -1    0    0    0  501  0.00000000000E+00  0.00000000000E+00 -0.81517391044E+02  0.81517391200E+02  0.50400001928E-02 0. -1.
    10030    2    1    2    0    0  0.00000000000E+00  0.00000000000E+00  0.10185255987E+04  0.11815603809E+04  0.59890778808E+03 0.  0.
        1    1    3    3  502    0  0.40802921720E+02  0.85552027653E+02 -0.51142286405E+02  0.10770125970E+03  0.50400001928E-02 0. -1.
       -1    1    3    3    0  502 -0.40802921720E+02 -0.85552027653E+02  0.10696678851E+04  0.10738591212E+04  0.50400001928E-02 0.  1.
</event>
<event>
 5   0  0.1521750E-02  0.5989221E+03  0.7818609E-02  0.9907645E-01
        4   -1    0    0  501    0  0.00000000000E+00  0.00000000000E+00  0.23361134417E+03  0.23361479625E+03  0.12699999809E+01 0.  1.
       -4   -1    0    0    0  501  0.00000000000E+00  0.00000000000E+00 -0.38386496969E+03  0.38386707055E+03  0.12699999809E+01 0. -1.
    10030    2    1    2    0    0  0.00000000000E+00  0.00000000000E+00 -0.15025362551E+03  0.61748186680E+03  0.59892211835E+03 0.  0.
        1    1    3    3  502    0 -0.16264700559E+03  0.23795522151E+03  0.86323017850E+01  0.28835958893E+03  0.50400001928E-02 0.  1.
       -1    1    3    3    0  502  0.16264700559E+03 -0.23795522151E+03 -0.15888592730E+03  0.32912227787E+03  0.50400001928E-02 0. -1.
</event>
<event>
 5   0  0.2276105E-02  0.6092699E+03  0.7818609E-02  0.9886358E-01
        1   -1    0    0  501    0  0.00000000000E+00  0.00000000000E+00  0.28687369075E+03  0.28687369079E+03  0.50400001928E-02 0. -1.
       -1   -1    0    0    0  501  0.00000000000E+00  0.00000000000E+00 -0.32349587479E+03  0.32349587483E+03  0.50400001928E-02 0.  1.
    10030    2    1    2    0    0  0.00000000000E+00  0.00000000000E+00 -0.36622184045E+02  0.61036956563E+03  0.60926990922E+03 0.  0.
        1    1    3    3  502    0 -0.29464955042E+02  0.76676856825E+02  0.27556957904E+03  0.28755193768E+03  0.50400001928E-02 0. -1.
       -1    1    3    3    0  502  0.29464955042E+02 -0.76676856825E+02 -0.31219176308E+03  0.32281762794E+03  0.50400001928E-02 0.  1.
</event>
<event>
 5   0  0.2382531E-02  0.5979355E+03  0.7818609E-02  0.9909698E-01
       -1   -1    0    0    0  501  0.00000000000E+00  0.00000000000E+00  0.21848290577E+03  0.21848290582E+03  0.50400001928E-02 0. -1.
        1   -1    0    0  501    0  0.00000000000E+00  0.00000000000E+00 -0.40910168100E+03  0.40910168103E+03  0.50400001928E-02 0.  1.
    10030    2    1    2    0    0  0.00000000000E+00  0.00000000000E+00 -0.19061877523E+03  0.62758458685E+03  0.59793552845E+03 0.  0.
        5    1    3    3  502    0  0.13193009021E+03 -0.16627943232E+03  0.12561590326E+03  0.24668977171E+03  0.46999998093E+01 0. -1.
       -5    1    3    3    0  502 -0.13193009021E+03  0.16627943232E+03 -0.31623467849E+03  0.38089481514E+03  0.46999998093E+01 0.  1.
</event>
<event>
 5   0  0.1521750E-02  0.5975364E+03  0.7818609E-02  0.9910530E-01
        4   -1    0    0  501    0  0.00000000000E+00  0.00000000000E+00  0.25680055723E+03  0.25680369758E+03  0.12699999809E+01 0.  1.
       -4   -1    0    0    0  501  0.00000000000E+00  0.00000000000E+00 -0.34758797386E+03  0.34759029399E+03  0.12699999809E+01 0. -1.
    10030    2    1    2    0    0  0.00000000000E+00  0.00000000000E+00 -0.90787416639E+02  0.60439399157E+03  0.59753639389E+03 0.  0.
        3    1    3    3  502    0  0.61124880466E+01 -0.17440730968E+03 -0.29067863138E+03  0.33904181029E+03  0.10100000352E+00 0. -1.
       -3    1    3    3    0  502 -0.61124880466E+01  0.17440730968E+03  0.19989121474E+03  0.26535218128E+03  0.10100000352E+00 0.  1.
</event>
<event>
 5   0  0.3934634E-02  0.5841841E+03  0.7818609E-02  0.9938773E-01
        2   -1    0    0  501    0  0.00000000000E+00  0.00000000000E+00  0.20062194876E+04  0.20062194876E+04  0.25500000920E-02 0.  1.
       -2   -1    0    0    0  501  0.00000000000E+00  0.00000000000E+00 -0.42526629240E+02  0.42526629317E+02  0.25500000920E-02 0. -1.
    10030    2    1    2    0    0  0.00000000000E+00  0.00000000000E+00  0.19636928584E+04  0.20487461170E+04  0.58418405458E+03 0.  0.
        1    1    3    3  502    0 -0.15789651059E+02  0.28993576909E+03  0.10930632090E+04  0.11309726973E+04  0.50400001928E-02 0.  1.
       -1    1    3    3    0  502  0.15789651059E+02 -0.28993576909E+03  0.87062964943E+03  0.91777341963E+03  0.50400001928E-02 0. -1.
</event>
<event>
 5   0  0.3832191E-02  0.5944145E+03  0.7818609E-02  0.9917062E-01
        2   -1    0    0  501    0  0.00000000000E+00  0.00000000000E+00  0.76121789072E+03  0.76121789072E+03  0.25500000920E-02 0. -1.
       -2   -1    0    0    0  501  0.00000000000E+00  0.00000000000E+00 -0.11604055767E+03  0.11604055770E+03  0.25500000920E-02 0.  1.
    10030    2    1    2    0    0  0.00000000000E+00  0.00000000000E+00  0.64517733305E+03  0.87725844842E+03  0.59441449700E+03 0.  0.
        3    1    3    3  502    0 -0.13193393789E+02  0.22597232905E+03  0.38343301855E+02  0.22958174608E+03  0.10100000352E+00 0.  1.
       -3    1    3    3    0  502  0.13193393789E+02 -0.22597232905E+03  0.60683403119E+03  0.64767670234E+03  0.10100000352E+00 0. -1.
</event>
<event>
 5   0  0.2276105E-02  0.5926541E+03  0.7818609E-02  0.9920765E-01
       -1   -1    0    0    0  501  0.00000000000E+00  0.00000000000E+00  0.53140590404E+02  0.53140590643E+02  0.50400001928E-02 0. -1.
        1   -1    0    0  501    0  0.00000000000E+00  0.00000000000E+00 -0.16524040694E+04  0.16524040694E+04  0.50400001928E-02 0.  1.
    10030    2    1    2    0    0  0.00000000000E+00  0.00000000000E+00 -0.15992634790E+04  0.17055446600E+04  0.59265412525E+03 0.  0.
        1    1    3    3  502    0 -0.17247891184E+03 -0.21643419834E+03 -0.11044212144E+04  0.11385688192E+04  0.50400001928E-02 0.  1.
       -1    1    3    3    0  502  0.17247891184E+03  0.21643419834E+03 -0.49484226459E+03  0.56697584083E+03  0.50400001928E-02 0. -1.
</event>
<event>
 5   0  0.2225808E-02  0.5976277E+03  0.7818609E-02  0.9910340E-01
        1   -1    0    0  501    0  0.00000000000E+00  0.00000000000E+00  0.35633033015E+03  0.35633033018E+03  0.50400001928E-02 0. -1.
       -1   -1    0    0    0  501  0.00000000000E+00  0.00000000000E+00 -0.25058129885E+03  0.25058129890E+03  0.50400001928E-02 0.  1.
    10030    2    1    2    0    0  0.00000000000E+00  0.00000000000E+00  0.10574903130E+03  0.60691162909E+03  0.59762770008E+03 0.  0.
        2    1    3    3  502    0  0.52592619840E+02 -0.21229446826E+03 -0.15389290531E+03  0.26742840392E+03  0.25500000920E-02 0.  1.
       -2    1    3    3    0  502 -0.52592619840E+02  0.21229446826E+03  0.25964193661E+03  0.33948322516E+03  0.25500000920E-02 0. -1.
</event>
<event>
 5   0  0.1521750E-02  0.6021825E+03  0.7818609E-02  0.9900888E-01
       -3   -1    0    0    0  501  0.00000000000E+00  0.00000000000E+00  0.31659471851E+02  0.31659632955E+02  0.10100000352E+00 0. -1.
        3   -1    0    0  501    0  0.00000000000E+00  0.00000000000E+00 -0.28634619968E+04  0.28634619985E+04  0.10100000352E+00 0.  1.
    10030    2    1    2    0    0  0.00000000000E+00  0.00000000000E+00 -0.28318025249E+04  0.28951216315E+04  0.60218246494E+03 0.  0.
        2    1    3    3  502    0 -0.11697557708E+03  0.63625313199E+02 -0.11760043909E+03  0.17765508547E+03  0.25500000920E-02 0. -1.
       -2    1    3    3    0  502  0.11697557708E+03 -0.63625313199E+02 -0.27142020858E+04  0.27174665460E+04  0.25500000920E-02 0.  1.
</event>
<event>
 5   0  0.2309055E-02  0.5485236E+03  0.7818609E-02  0.1001836E+00
       -1   -1    0    0    0  501  0.00000000000E+00  0.00000000000E+00  0.70065848907E+03  0.70065848908E+03  0.50400001928E-02 0. -1.
        1   -1    0    0  501    0  0.00000000000E+00  0.00000000000E+00 -0.10735550584E+03  0.10735550596E+03  0.50400001928E-02 0.  1.
    10030    2    1    2    0    0  0.00000000000E+00  0.00000000000E+00  0.59330298322E+03  0.80801399504E+03  0.54852364241E+03 0.  0.
        4    1    3    3  502    0  0.17728514112E+03  0.14439496193E+03  0.51975241910E+03  0.56782401883E+03  0.12699999809E+01 0. -1.
       -4    1    3    3    0  502 -0.17728514112E+03 -0.14439496193E+03  0.73550564121E+02  0.24018997622E+03  0.12699999809E+01 0.  1.
</event>
<event>
 5   0  0.2225808E-02  0.5998102E+03  0.7818609E-02  0.9905800E-01
        1   -1    0    0  501    0  0.00000000000E+00  0.00000000000E+00  0.16114432390E+04  0.16114432390E+04  0.50400001928E-02 0.  1.
       -1   -1    0    0    0  501  0.00000000000E+00  0.00000000000E+00 -0.55815224691E+02  0.55815224918E+02  0.50400001928E-02 0. -1.
    10030    2    1    2    0    0  0.00000000000E+00  0.00000000000E+00  0.15556280143E+04  0.16672584639E+04  0.59981019216E+03 0.  0.
        2    1    3    3  502    0  0.65386924916E+02 -0.54150396032E+01 -0.35621439190E+02  0.74656945694E+02  0.25500000920E-02 0. -1.
       -2    1    3    3    0  502 -0.65386924916E+02  0.54150396032E+01  0.15912494535E+04  0.15926015182E+04  0.25500000920E-02 0.  1.
</event>
<event>
 5   0  0.2295179E-02  0.5999486E+03  0.7818609E-02  0.9905513E-01
       -1   -1    0    0    0  501  0.00000000000E+00  0.00000000000E+00  0.20424258166E+03  0.20424258173E+03  0.50400001928E-02 0. -1.
        1   -1    0    0  501    0  0.00000000000E+00  0.00000000000E+00 -0.44057702942E+03  0.44057702945E+03  0.50400001928E-02 0.  1.
    10030    2    1    2    0    0  0.00000000000E+00  0.00000000000E+00 -0.23633444776E+03  0.64481961118E+03  0.59994863094E+03 0.  0.
        3    1    3    3  502    0 -0.16391725602E+02 -0.24048387506E+03  0.73746690477E+02  0.25207095705E+03  0.10100000352E+00 0. -1.
       -3    1    3    3    0  502  0.16391725602E+02  0.24048387506E+03 -0.31008113823E+03  0.39274865413E+03  0.10100000352E+00 0.  1.
</event>
<event>
 5   0  0.3934634E-02  0.5951723E+03  0.7818609E-02  0.9915473E-01
       -2   -1    0    0    0  501  0.00000000000E+00  0.00000000000E+00  0.10215142410E+03  0.10215142413E+03  0.25500000920E-02 0.  1.
        2   -1    0    0  501    0  0.00000000000E+00  0.00000000000E+00 -0.86692387234E+03  0.86692387235E+03  0.25500000920E-02 0. -1.
    10030    2    1    2    0    0  0.00000000000E+00  0.00000000000E+00 -0.76477244825E+03  0.96907529647E+03  0.59517227139E+03 0.  0.
        1    1    3    3  502    0 -0.90145625252E+02  0.23373211237E+03 -0.64392104393E+03  0.69093505117E+03  0.50400001928E-02 0. -1.
       -1    1    3    3    0  502  0.90145625252E+02 -0.23373211237E+03 -0.12085140432E+03  0.27814024530E+03  0.50400001928E-02 0.  1.
</event>
<event>
 5   0  0.2382531E-02  0.6203779E+03  0.7818609E-02  0.9864008E-01
        1   -1    0    0  501    0  0.00000000000E+00  0.00000000000E+00  0.86608286037E+03  0.86608286038E+03  0.50400001928E-02 0.  1.
       -1   -1    0    0    0  501  0.00000000000E+00  0.00000000000E+00 -0.11109466630E+03  0.11109466642E+03  0.50400001928E-02 0. -1.
    10030    2    1    2    0    0  0.00000000000E+00  0.00000000000E+00  0.75498819406E+03  0.97717752680E+03  0.62037790556E+03 0.  0.
        5    1    3    3  502    0  0.10784746884E+03 -0.26668417698E+03  0.56012507672E+03  0.62969335264E+03  0.46999998093E+01 0.  1.
       -5    1    3    3    0  502 -0.10784746884E+03  0.26668417698E+03  0.19486311734E+03  0.34748417415E+03  0.46999998093E+01 0. -1.
</event>
<event>
 5   0  0.3798925E-02  0.6028013E+03  0.7818609E-02  0.9899611E-01
       -2   -1    0    0    0  501  0.00000000000E+00  0.00000000000E+00  0.13642301272E+03  0.13642301274E+03  0.25500000920E-02 0.  1.
        2   -1    0    0  501    0  0.00000000000E+00  0.00000000000E+00 -0.66588727435E+03  0.66588727435E+03  0.25500000920E-02 0. -1.
    10030    2    1    2    0    0  0.00000000000E+00  0.00000000000E+00 -0.52946426163E+03  0.80231028710E+03  0.60280128768E+03 0.  0.
        2    1    3    3  502    0 -0.23690850694E+03  0.10689280525E+03 -0.46785501749E+03  0.53520092477E+03  0.25500000920E-02 0. -1.
       -2    1    3    3    0  502  0.23690850694E+03 -0.10689280525E+03 -0.61609244141E+02  0.26710936233E+03  0.25500000920E-02 0.  1.
</event>
<event>
 5   0  0.2225808E-02  0.6011219E+03  0.7818609E-02  0.9903081E-01
        1   -1    0    0  501    0  0.00000000000E+00  0.00000000000E+00  0.11151043006E+03  0.11151043017E+03  0.50400001928E-02 0. -1.
       -1   -1    0    0    0  501  0.00000000000E+00  0.00000000000E+00 -0.81012038172E+03  0.81012038174E+03  0.50400001928E-02 0.  1.
    10030    2    1    2    0    0  0.00000000000E+00  0.00000000000E+00 -0.69860995166E+03  0.92163081191E+03  0.60112185861E+03 0.  0.
        2    1    3    3  502    0 -0.16138750640E+03 -0.13903137516E+03 -0.67440239137E+03  0.70724411344E+03  0.25500000920E-02 0.  1.
       -2    1    3    3    0  502  0.16138750640E+03  0.13903137516E+03 -0.24207560294E+02  0.21438669847E+03  0.25500000920E-02 0. -1.
</event>
<event>
 5   0  0.3832191E-02  0.5964178E+03  0.7818609E-02  0.9912866E-01
       -2   -1    0    0    0  501  0.00000000000E+00  0.00000000000E+00  0.30732483350E+03  0.30732483351E+03  0.25500000920E-02 0. -1.
        2   -1    0    0  501    0  0.00000000000E+00  0.00000000000E+00 -0.28936335888E+03  0.28936335889E+03  0.25500000920E-02 0.  1.
    10030    2    1    2    0    0  0.00000000000E+00  0.00000000000E+00  0.17961474617E+02  0.59668819240E+03  0.59641779348E+03 0.  0.
        3    1    3    3  502    0 -0.10771959610E+03 -0.96806563840E+02  0.26977786933E+03  0.30619459689E+03  0.10100000352E+00 0. -1.
       -3    1    3    3    0  502  0.10771959610E+03  0.96806563840E+02 -0.25181639471E+03  0.29049359551E+03  0.10100000352E+00 0.  1.
</event>
<event>
 5   0  0.2276105E-02  0.5996802E+03  0.7818609E-02  0.9906070E-01
        1   -1    0    0  501    0  0.00000000000E+00  0.00000000000E+00  0.53687555624E+03  0.53687555626E+03  0.50400001928E-02 0.  1.
       -1   -1    0    0    0  501  0.00000000000E+00  0.00000000000E+00 -0.16745795012E+03  0.16745795020E+03  0.50400001928E-02 0. -1.
    10030    2    1    2    0    0  0.00000000000E+00  0.00000000000E+00  0.36941760611E+03  0.70433350646E+03  0.59968018195E+03 0.  0.
        1    1    3    3  502    0  0.69692861386E+01  0.29678695904E+03  0.23416426466E+03  0.37810576943E+03  0.50400001928E-02 0. -1.
       -1    1    3    3    0  502 -0.69692861386E+01 -0.29678695904E+03  0.13525334145E+03  0.32622773703E+03  0.50400001928E-02 0.  1.
</event>
<event>
 5   0  0.3832191E-02  0.5911098E+03  0.7818609E-02  0.9924024E-01
       -2   -1    0    0    0  501  0.00000000000E+00  0.00000000000E+00  0.13293771239E+03  0.13293771241E+03  0.25500000920E-02 0.  1.
        2   -1    0    0  501    0  0.00000000000E+00  0.00000000000E+00 -0.65709497701E+03  0.65709497701E+03  0.25500000920E-02 0. -1.
    10030    2    1    2    0    0  0.00000000000E+00  0.00000000000E+00 -0.52415726462E+03  0.79003268942E+03  0.59110981408E+03 0.  0.
        3    1    3    3  502    0 -0.13521590257E+03  0.12578900480E+03  0.46327026667E+02  0.19040067657E+03  0.10100000352E+00 0.  1.
       -3    1    3    3    0  502  0.13521590257E+03 -0.12578900480E+03 -0.57048429129E+03  0.59963201286E+03  0.10100000352E+00 0. -1.
</event>
<event>
 5   0  0.2295179E-02  0.5995784E+03  0.7818609E-02  0.9906281E-01
       -1   -1    0    0    0  501  0.00000000000E+00  0.00000000000E+00  0.29873733025E+03  0.29873733030E+03  0.50400001928E-02 0.  1.
        1   -1    0    0  501    0  0.00000000000E+00  0.00000000000E+00 -0.30084474265E+03  0.30084474269E+03  0.50400001928E-02 0. -1.
    10030    2    1    2    0    0  0.00000000000E+00  0.00000000000E+00 -0.21074123916E+01  0.59958207299E+03  0.59957836941E+03 0.  0.
        3    1    3    3  502    0 -0.23404450308E+03  0.12165062014E+03  0.14141766995E+03  0.29929027779E+03  0.10100000352E+00 0.  1.
       -3    1    3    3    0  502  0.23404450308E+03 -0.12165062014E+03 -0.14352508234E+03  0.30029179520E+03  0.10100000352E+00 0. -1.
</event>
<event>
 5   0  0.2382531E-02  0.5985382E+03  0.7818609E-02  0.9908444E-01
        1   -1    0    0  501    0  0.00000000000E+00  0.00000000000E+00  0.22606313783E+03  0.22606313789E+03  0.50400001928E-02 0.  1.
       -1   -1    0    0    0  501  0.00000000000E+00  0.00000000000E+00 -0.39618130898E+03  0.39618130901E+03  0.50400001928E-02 0. -1.
    10030    2    1    2    0    0  0.00000000000E+00  0.00000000000E+00 -0.17011817115E+03  0.62224444690E+03  0.59853818553E+03 0.  0.
        5    1    3    3  502    0  0.37926078208E+02 -0.19110684547E+03  0.15104772475E+03  0.24657193462E+03  0.46999998093E+01 0.  1.
       -5    1    3    3    0  502 -0.37926078208E+02  0.19110684547E+03 -0.32116589590E+03  0.37567251228E+03  0.46999998093E+01 0. -1.
</event>
<event>
 5   0  0.2295179E-02  0.5910075E+03  0.7818609E-02  0.9924240E-01
        1   -1    0    0  501    0  0.00000000000E+00  0.00000000000E+00  0.40805172620E+03  0.40805172623E+03  0.50400001928E-02 0.  1.
       -1   -1    0    0    0  501  0.00000000000E+00  0.00000000000E+00 -0.21399854699E+03  0.21399854705E+03  0.50400001928E-02 0. -1.
    10030    2    1    2    0    0  0.00000000000E+00  0.00000000000E+00  0.19405317921E+03  0.62205027328E+03  0.59100753475E+03 0.  0.
        3    1    3    3  502    0 -0.34100110772E+02  0.16130969682E+03  0.35513963596E+03  0.39154540870E+03  0.10100000352E+00 0.  1.
       -3    1    3    3    0  502  0.34100110772E+02 -0.16130969682E+03 -0.16108645675E+03  0.23050486458E+03  0.10100000352E+00 0. -1.
</event>
<event>
 5   0  0.3737642E-02  0.5980627E+03  0.7818609E-02  0.9909433E-01
       -2   -1    0    0    0  501  0.00000000000E+00  0.00000000000E+00  0.92791229805E+02  0.92791229840E+02  0.25500000920E-02 0.  1.
        2   -1    0    0  501    0  0.00000000000E+00  0.00000000000E+00 -0.96366602703E+03  0.96366602703E+03  0.25500000920E-02 0. -1.
    10030    2    1    2    0    0  0.00000000000E+00  0.00000000000E+00 -0.87087479722E+03  0.10564572569E+04  0.59806272510E+03 0.  0.
        5    1    3    3  502    0 -0.16340766742E+02 -0.13239574808E+03 -0.90811802822E+03  0.91787586195E+03  0.46999998093E+01 0. -1.
       -5    1    3    3    0  502  0.16340766742E+02  0.13239574808E+03  0.37243230994E+02  0.13858139493E+03  0.46999998093E+01 0.  1.
</event>
<event>
 5   0  0.3934634E-02  0.5985766E+03  0.7818609E-02  0.9908364E-01
       -2   -1    0    0    0  501  0.00000000000E+00  0.00000000000E+00  0.13395765671E+03  0.13395765674E+03  0.25500000920E-02 0. -1.
        2   -1    0    0  501    0  0.00000000000E+00  0.00000000000E+00 -0.66867014115E+03  0.66867014115E+03  0.25500000920E-02 0.  1.
    10030    2    1    2    0    0  0.00000000000E+00  0.00000000000E+00 -0.53471248443E+03  0.80262779789E+03  0.59857659571E+03 0.  0.
        1    1    3    3  502    0 -0.10932824492E+03 -0.23812688608E+03 -0.46128311693E+03  0.53050842877E+03  0.50400001928E-02 0.  1.
       -1    1    3    3    0  502  0.10932824492E+03  0.23812688608E+03 -0.73429367505E+02  0.27211936911E+03  0.50400001928E-02 0. -1.
</event>
<event>
 5   0  0.3934634E-02  0.6042424E+03  0.7818609E-02  0.9896643E-01
        2   -1    0    0  501    0  0.00000000000E+00  0.00000000000E+00  0.40964780697E+03  0.40964780697E+03  0.25500000920E-02 0. -1.
       -2   -1    0    0    0  501  0.00000000000E+00  0.00000000000E+00 -0.22281879717E+03  0.22281879718E+03  0.25500000920E-02 0.  1.
    10030    2    1    2    0    0  0.00000000000E+00  0.00000000000E+00  0.18682900980E+03  0.63246660416E+03  0.60424244015E+03 0.  0.
        1    1    3    3  502    0 -0.11791550903E+03  0.20515901524E+03 -0.10319693026E+03  0.25815478931E+03  0.50400001928E-02 0.  1.
       -1    1    3    3    0  502  0.11791550903E+03 -0.20515901524E+03  0.29002594005E+03  0.37431181485E+03  0.50400001928E-02 0. -1.
</event>
<event>
 5   0  0.2225808E-02  0.5993567E+03  0.7818609E-02  0.9906742E-01
       -1   -1    0    0    0  501  0.00000000000E+00  0.00000000000E+00  0.37928390674E+03  0.37928390677E+03  0.50400001928E-02 0.  1.
        1   -1    0    0  501    0  0.00000000000E+00  0.00000000000E+00 -0.23678074233E+03  0.23678074238E+03  0.50400001928E-02 0. -1.
    10030    2    1    2    0    0  0.00000000000E+00  0.00000000000E+00  0.14250316441E+03  0.61606464915E+03  0.59935673857E+03 0.  0.
        2    1    3    3  502    0  0.29292700649E+03  0.48254740295E+02  0.29216917331E+02  0.29830920093E+03  0.25500000920E-02 0. -1.
       -2    1    3    3    0  502 -0.29292700649E+03 -0.48254740295E+02  0.11328624708E+03  0.31775544823E+03  0.25500000920E-02 0.  1.
</event>
<event>
 5   0  0.1521750E-02  0.6034667E+03  0.7818609E-02  0.9898240E-01
       -4   -1    0    0    0  501  0.00000000000E+00  0.00000000000E+00  0.32186792655E+03  0.32187043208E+03  0.12699999809E+01 0.  1.
        4   -1    0    0  501    0  0.00000000000E+00  0.00000000000E+00 -0.28285331096E+03  0.28285616207E+03  0.12699999809E+01 0. -1.
    10030    2    1    2    0    0  0.00000000000E+00  0.00000000000E+00  0.39014615596E+02  0.60472659414E+03  0.60346674592E+03 0.  0.
        4    1    3    3  502    0 -0.21721966781E+03  0.20921464361E+03  0.10200061396E+02  0.30176282961E+03  0.12699999809E+01 0.  1.
       -4    1    3    3    0  502  0.21721966781E+03 -0.20921464361E+03  0.28814554199E+02  0.30296376453E+03  0.12699999809E+01 0. -1.
</event>
<event>
 5   0  0.3798925E-02  0.5423861E+03  0.7818609E-02  0.1003272E+00
        2   -1    0    0  501    0  0.00000000000E+00  0.00000000000E+00  0.42088606759E+03  0.42088606759E+03  0.25500000920E-02 0.  1.
       -2   -1    0    0    0  501  0.00000000000E+00  0.00000000000E+00 -0.17474006997E+03  0.17474006999E+03  0.25500000920E-02 0. -1.
    10030    2    1    2    0    0  0.00000000000E+00  0.00000000000E+00  0.24614599762E+03  0.59562613758E+03  0.54238606512E+03 0.  0.
        2    1    3    3  502    0 -0.21455088055E+03 -0.13224253152E+03  0.13117209044E+02  0.25237319324E+03  0.25500000920E-02 0. -1.
       -2    1    3    3    0  502  0.21455088055E+03  0.13224253152E+03  0.23302878857E+03  0.34325294434E+03  0.25500000920E-02 0.  1.
</event>
<event>
 5   0  0.2382531E-02  0.6052237E+03  0.7818609E-02  0.9894627E-01
        1   -1    0    0  501    0  0.00000000000E+00  0.00000000000E+00  0.18292936836E+04  0.18292936836E+04  0.50400001928E-02 0.  1.
       -1   -1    0    0    0  501  0.00000000000E+00  0.00000000000E+00 -0.50059723950E+02  0.50059724204E+02  0.50400001928E-02 0. -1.
    10030    2    1    2    0    0  0.00000000000E+00  0.00000000000E+00  0.17792339596E+04  0.18793534078E+04  0.60522371754E+03 0.  0.
        5    1    3    3  502    0 -0.26197573926E+03 -0.89987989384E+02  0.51156067755E+03  0.58176072659E+03  0.46999998093E+01 0.  1.
       -5    1    3    3    0  502  0.26197573926E+03  0.89987989384E+02  0.12676732821E+04  0.12975926812E+04  0.46999998093E+01 0. -1.
</event>
<event>
 5   0  0.2309055E-02  0.6022599E+03  0.7818609E-02  0.9900729E-01
       -1   -1    0    0    0  501  0.00000000000E+00  0.00000000000E+00  0.14697329029E+03  0.14697329037E+03  0.50400001928E-02 0. -1.
        1   -1    0    0  501    0  0.00000000000E+00  0.00000000000E+00 -0.61697772983E+03  0.61697772986E+03  0.50400001928E-02 0.  1.
    10030    2    1    2    0    0  0.00000000000E+00  0.00000000000E+00 -0.47000443955E+03  0.76395102023E+03  0.60225990080E+03 0.  0.
        4    1    3    3  502    0  0.25718714037E+03  0.13131386432E+03 -0.34329957872E+03  0.44860313172E+03  0.12699999809E+01 0. -1.
       -4    1    3    3    0  502 -0.25718714037E+03 -0.13131386432E+03 -0.12670486082E+03  0.31534788851E+03  0.12699999809E+01 0.  1.
</event>
<event>
 5   0  0.2295179E-02  0.5928557E+03  0.7818609E-02  0.9920340E-01
        1   -1    0    0  501    0  0.00000000000E+00  0.00000000000E+00  0.84124290760E+03  0.84124290762E+03  0.50400001928E-02 0. -1.
       -1   -1    0    0    0  501  0.00000000000E+00  0.00000000000E+00 -0.10445194264E+03  0.10445194276E+03  0.50400001928E-02 0.  1.
    10030    2    1    2    0    0  0.00000000000E+00  0.00000000000E+00  0.73679096496E+03  0.94569485038E+03  0.59285565190E+03 0.  0.
        3    1    3    3  502    0 -0.24486389441E+03  0.93554810645E+02  0.14760307712E+03  0.30082803719E+03  0.10100000352E+00 0.  1.
       -3    1    3    3    0  502  0.24486389441E+03 -0.93554810645E+02  0.58918788784E+03  0.64486681319E+03  0.10100000352E+00 0. -1.
</event>
<event>
 5   0  0.2295179E-02  0.6065945E+03  0.7818609E-02  0.9891818E-01
       -1   -1    0    0    0  501  0.00000000000E+00  0.00000000000E+00  0.36510876870E+03  0.36510876873E+03  0.50400001928E-02 0. -1.
        1   -1    0    0  501    0  0.00000000000E+00  0.00000000000E+00 -0.25195021628E+03  0.25195021633E+03  0.50400001928E-02 0.  1.
    10030    2    1    2    0    0  0.00000000000E+00  0.00000000000E+00  0.11315855242E+03  0.61705898507E+03  0.60659453762E+03 0.  0.
        3    1    3    3  502    0  0.17289028762E+03  0.32289713273E+02  0.30793613755E+03  0.35462424078E+03  0.10100000352E+00 0. -1.
       -3    1    3    3    0  502 -0.17289028762E+03 -0.32289713273E+02 -0.19477758513E+03  0.26243474429E+03  0.10100000352E+00 0.  1.
</event>
<event>
 5   0  0.3798925E-02  0.5976912E+03  0.7818609E-02  0.9910208E-01
        2   -1    0    0  501    0  0.00000000000E+00  0.00000000000E+00  0.66806747457E+03  0.66806747458E+03  0.25500000920E-02 0. -1.
       -2   -1    0    0    0  501  0.00000000000E+00  0.00000000000E+00 -0.13368215186E+03  0.13368215188E+03  0.25500000920E-02 0.  1.
    10030    2    1    2    0    0  0.00000000000E+00  0.00000000000E+00  0.53438532272E+03  0.80174962646E+03  0.59769121659E+03 0.  0.
        2    1    3    3  502    0  0.27704583332E+03  0.10557678193E+00  0.41749232798E+03  0.50105313973E+03  0.25500000920E-02 0.  1.
       -2    1    3    3    0  502 -0.27704583332E+03 -0.10557678193E+00  0.11689299474E+03  0.30069648673E+03  0.25500000920E-02 0. -1.
</event>
<event>
 5   0  0.3798925E-02  0.6003712E+03  0.7818609E-02  0.9904636E-01
       -2   -1    0    0    0  501  0.00000000000E+00  0.00000000000E+00  0.93849165374E+02  0.93849165408E+02  0.25500000920E-02 0.  1.
        2   -1    0    0  501    0  0.00000000000E+00  0.00000000000E+00 -0.96017243691E+03  0.96017243691E+03  0.25500000920E-02 0. -1.
    10030    2    1    2    0    0  0.00000000000E+00  0.00000000000E+00 -0.86632327153E+03  0.10540216023E+04  0.60037115800E+03 0.  0.
        2    1    3    3  502    0 -0.20978127516E+03  0.21048902510E+03 -0.50759582197E+03  0.58818987715E+03  0.25500000920E-02 0. -1.
       -2    1    3    3    0  502  0.20978127516E+03 -0.21048902510E+03 -0.35872744957E+03  0.46583172517E+03  0.25500000920E-02 0.  1.
</event>
<event>
 5   0  0.2309055E-02  0.5991945E+03  0.7818609E-02  0.9907079E-01
       -1   -1    0    0    0  501  0.00000000000E+00  0.00000000000E+00  0.17475181809E+03  0.17475181816E+03  0.50400001928E-02 0. -1.
        1   -1    0    0  501    0  0.00000000000E+00  0.00000000000E+00 -0.51363424365E+03  0.51363424368E+03  0.50400001928E-02 0.  1.
    10030    2    1    2    0    0  0.00000000000E+00  0.00000000000E+00 -0.33888242557E+03  0.68838606184E+03  0.59919451914E+03 0.  0.
        4    1    3    3  502    0  0.62880226344E+02 -0.24066463566E+03 -0.36128069724E+03  0.43863281321E+03  0.12699999809E+01 0.  1.
       -4    1    3    3    0  502 -0.62880226344E+02  0.24066463566E+03  0.22398271678E+02  0.24975324862E+03  0.12699999809E+01 0. -1.
</event>
<event>
 5   0  0.2276105E-02  0.5962757E+03  0.7818609E-02  0.9913163E-01
        1   -1    0    0  501    0  0.00000000000E+00  0.00000000000E+00  0.35172834458E+03  0.35172834462E+03  0.50400001928E-02 0. -1.
       -1   -1    0    0    0  501  0.00000000000E+00  0.00000000000E+00 -0.25271258210E+03  0.25271258215E+03  0.50400001928E-02 0.  1.
    10030    2    1    2    0    0  0.00000000000E+00  0.00000000000E+00  0.99015762484E+02  0.60444092677E+03  0.59627570195E+03 0.  0.
        1    1    3    3  502    0 -0.97758756987E+02 -0.12041015579E+02  0.33475851218E+03  0.34894845196E+03  0.50400001928E-02 0. -1.
       -1    1    3    3    0  502  0.97758756987E+02  0.12041015579E+02 -0.23574274970E+03  0.25549247481E+03  0.50400001928E-02 0.  1.
</event>
<event>
 5   0  0.2309055E-02  0.5974784E+03  0.7818609E-02  0.9910651E-01
        1   -1    0    0  501    0  0.00000000000E+00  0.00000000000E+00  0.32511842084E+03  0.32511842088E+03  0.50400001928E-02 0. -1.
       -1   -1    0    0    0  501  0.00000000000E+00  0.00000000000E+00 -0.27450033267E+03  0.27450033272E+03  0.50400001928E-02 0.  1.
    10030    2    1    2    0    0  0.00000000000E+00  0.00000000000E+00  0.50618088168E+02  0.59961875359E+03  0.59747841703E+03 0.  0.
        4    1    3    3  502    0  0.17841934746E+03 -0.23761990216E+03  0.56189718658E+02  0.30241623440E+03  0.12699999809E+01 0. -1.
       -4    1    3    3    0  502 -0.17841934746E+03  0.23761990216E+03 -0.55716304903E+01  0.29720251919E+03  0.12699999809E+01 0.  1.
</event>
<event>
 5   0  0.1521750E-02  0.6026607E+03  0.7818609E-02  0.9899901E-01
        3   -1    0    0  501    0  0.00000000000E+00  0.00000000000E+00  0.50004493565E+02  0.50004595565E+02  0.10100000352E+00 0. -1.
       -3   -1    0    0    0  501  0.00000000000E+00  0.00000000000E+00 -0.18158345911E+04  0.18158345939E+04  0.10100000352E+00 0.  1.
    10030    2    1    2    0    0  0.00000000000E+00  0.00000000000E+00 -0.17658300975E+04  0.18658391895E+04  0.60266072347E+03 0.  0.
        3    1    3    3  502    0 -0.24662439500E+03  0.17000522220E+03 -0.98440581754E+03  0.10289704522E+04  0.10100000352E+00 0. -1.
       -3    1    3    3    0  502  0.24662439500E+03 -0.17000522220E+03 -0.78142428001E+03  0.83686873724E+03  0.10100000352E+00 0.  1.
</event>
<event>
 5   0  0.1521750E-02  0.6031203E+03  0.7818609E-02  0.9898953E-01
       -3   -1    0    0    0  501  0.00000000000E+00  0.00000000000E+00  0.23638748574E+04  0.23638748596E+04  0.10100000352E+00 0.  1.
        3   -1    0    0  501    0  0.00000000000E+00  0.00000000000E+00 -0.38470046815E+02  0.38470179398E+02  0.10100000352E+00 0. -1.
    10030    2    1    2    0    0  0.00000000000E+00  0.00000000000E+00  0.23254048106E+04  0.24023450390E+04  0.60312034712E+03 0.  0.
        2    1    3    3  502    0 -0.68485660291E+02 -0.23283124272E+03  0.44974565241E+03  0.51104972862E+03  0.25500000920E-02 0. -1.
       -2    1    3    3    0  502  0.68485660291E+02  0.23283124272E+03  0.18756591582E+04  0.18912953104E+04  0.25500000920E-02 0.  1.
</event>
<event>
 5   0  0.2295179E-02  0.5980721E+03  0.7818609E-02  0.9909414E-01
       -1   -1    0    0    0  501  0.00000000000E+00  0.00000000000E+00  0.12944397592E+03  0.12944397602E+03  0.50400001928E-02 0. -1.
        1   -1    0    0  501    0  0.00000000000E+00  0.00000000000E+00 -0.69082058957E+03  0.69082058959E+03  0.50400001928E-02 0.  1.
    10030    2    1    2    0    0  0.00000000000E+00  0.00000000000E+00 -0.56137661365E+03  0.82026456562E+03  0.59807211543E+03 0.  0.
        3    1    3    3  502    0  0.93299425829E+02 -0.25779795698E+03 -0.11692015038E+03  0.29805184322E+03  0.10100000352E+00 0. -1.
       -3    1    3    3    0  502 -0.93299425829E+02  0.25779795698E+03 -0.44445646327E+03  0.52221272239E+03  0.10100000352E+00 0.  1.
</event>
<event>
 5   0  0.3724066E-02  0.6027716E+03  0.7818609E-02  0.9899673E-01
       -2   -1    0    0    0  501  0.00000000000E+00  0.00000000000E+00  0.18113174452E+03  0.18113174454E+03  0.25500000920E-02 0.  1.
        2   -1    0    0  501    0  0.00000000000E+00  0.00000000000E+00 -0.50147697740E+03  0.50147697740E+03  0.25500000920E-02 0. -1.
    10030    2    1    2    0    0  0.00000000000E+00  0.00000000000E+00 -0.32034523288E+03  0.68260872194E+03  0.60277159774E+03 0.  0.
        4    1    3    3  502    0 -0.73735533348E+02  0.16948599952E+03  0.10941080660E+03  0.21479006126E+03  0.12699999809E+01 0.  1.
       -4    1    3    3    0  502  0.73735533348E+02 -0.16948599952E+03 -0.42975603948E+03  0.46781866069E+03  0.12699999809E+01 0. -1.
</event>
<event>
 5   0  0.3832191E-02  0.6124166E+03  0.7818609E-02  0.9879975E-01
        2   -1    0    0  501    0  0.00000000000E+00  0.00000000000E+00  0.31409277003E+03  0.31409277004E+03  0.25500000920E-02 0. -1.
       -2   -1    0    0    0  501  0.00000000000E+00  0.00000000000E+00 -0.29852174326E+03  0.29852174327E+03  0.25500000920E-02 0.  1.
    10030    2    1    2    0    0  0.00000000000E+00  0.00000000000E+00  0.15571026770E+02  0.61261451332E+03  0.61241659437E+03 0.  0.
        3    1    3    3  502    0  0.98813488577E+02  0.15536230673E+03  0.25253162153E+03  0.31252804987E+03  0.10100000352E+00 0. -1.
       -3    1    3    3    0  502 -0.98813488577E+02 -0.15536230673E+03 -0.23696059476E+03  0.30008646345E+03  0.10100000352E+00 0.  1.
</event>
<event>
 5   0  0.3934634E-02  0.5992901E+03  0.7818609E-02  0.9906880E-01
        2   -1    0    0  501    0  0.00000000000E+00  0.00000000000E+00  0.98466146315E+03  0.98466146316E+03  0.25500000920E-02 0.  1.
       -2   -1    0    0    0  501  0.00000000000E+00  0.00000000000E+00 -0.91185823890E+02  0.91185823925E+02  0.25500000920E-02 0. -1.
    10030    2    1    2    0    0  0.00000000000E+00  0.00000000000E+00  0.89347563926E+03  0.10758472871E+04  0.59929013605E+03 0.  0.
        1    1    3    3  502    0  0.23228008282E+03  0.18718991295E+03  0.39618233600E+03  0.49593804428E+03  0.50400001928E-02 0. -1.
       -1    1    3    3    0  502 -0.23228008282E+03 -0.18718991295E+03  0.49729330327E+03  0.57990924280E+03  0.50400001928E-02 0.  1.
</event>
<event>
 5   0  0.1521750E-02  0.5978525E+03  0.7818609E-02  0.9909871E-01
        3   -1    0    0  501    0  0.00000000000E+00  0.00000000000E+00  0.15431296695E+04  0.15431296728E+04  0.10100000352E+00 0. -1.
       -3   -1    0    0    0  501  0.00000000000E+00  0.00000000000E+00 -0.57906233311E+02  0.57906321393E+02  0.10100000352E+00 0.  1.
    10030    2    1    2    0    0  0.00000000000E+00  0.00000000000E+00  0.14852234362E+04  0.16010359942E+04  0.59785248960E+03 0.  0.
        1    1    3    3  502    0  0.29752652039E+03  0.14204338479E+02  0.67522949282E+03  0.73800993324E+03  0.50400001928E-02 0.  1.
       -1    1    3    3    0  502 -0.29752652039E+03 -0.14204338479E+02  0.80999394340E+03  0.86302606099E+03  0.50400001928E-02 0. -1.
</event>
<event>
 5   0  0.3832191E-02  0.6214440E+03  0.7818609E-02  0.9861889E-01
        2   -1    0    0  501    0  0.00000000000E+00  0.00000000000E+00  0.84921478573E+03  0.84921478574E+03  0.25500000920E-02 0. -1.
       -2   -1    0    0    0  501  0.00000000000E+00  0.00000000000E+00 -0.11369108379E+03  0.11369108382E+03  0.25500000920E-02 0.  1.
    10030    2    1    2    0    0  0.00000000000E+00  0.00000000000E+00  0.73552370194E+03  0.96290586955E+03  0.62144396167E+03 0.  0.
        3    1    3    3  502    0  0.20314435520E+03 -0.23482811763E+03  0.38584918216E+03  0.49526909398E+03  0.10100000352E+00 0.  1.
       -3    1    3    3    0  502 -0.20314435520E+03  0.23482811763E+03  0.34967451978E+03  0.46763677557E+03  0.10100000352E+00 0. -1.
</event>
<event>
 5   0  0.3737642E-02  0.6010447E+03  0.7818609E-02  0.9903241E-01
       -2   -1    0    0    0  501  0.00000000000E+00  0.00000000000E+00  0.50694212980E+03  0.50694212981E+03  0.25500000920E-02 0.  1.
        2   -1    0    0  501    0  0.00000000000E+00  0.00000000000E+00 -0.17815381616E+03  0.17815381617E+03  0.25500000920E-02 0. -1.
    10030    2    1    2    0    0  0.00000000000E+00  0.00000000000E+00  0.32878831365E+03  0.68509594598E+03  0.60104467389E+03 0.  0.
        5    1    3    3  502    0  0.17805827966E+03  0.21508792321E+03  0.29093211726E+03  0.40327552928E+03  0.46999998093E+01 0.  1.
       -5    1    3    3    0  502 -0.17805827966E+03 -0.21508792321E+03  0.37856196389E+02  0.28182041670E+03  0.46999998093E+01 0. -1.
</event>
<event>
 5   0  0.1521750E-02  0.6067497E+03  0.7818609E-02  0.9891501E-01
        4   -1    0    0  501    0  0.00000000000E+00  0.00000000000E+00  0.76784029449E+03  0.76784134477E+03  0.12699999809E+01 0.  1.
       -4   -1    0    0    0  501  0.00000000000E+00  0.00000000000E+00 -0.11985937203E+03  0.11986610014E+03  0.12699999809E+01 0. -1.
    10030    2    1    2    0    0  0.00000000000E+00  0.00000000000E+00  0.64798092246E+03  0.88770744491E+03  0.60674972755E+03 0.  0.
        2    1    3    3  502    0  0.21407945892E+03  0.13169527900E+03  0.75432115977E+02  0.26241887389E+03  0.25500000920E-02 0. -1.
       -2    1    3    3    0  502 -0.21407945892E+03 -0.13169527900E+03  0.57254880649E+03  0.62528857103E+03  0.25500000920E-02 0.  1.
</event>
<event>
 5   0  0.2276105E-02  0.5951161E+03  0.7818609E-02  0.9915591E-01
        1   -1    0    0  501    0  0.00000000000E+00  0.00000000000E+00  0.34373600746E+03  0.34373600749E+03  0.50400001928E-02 0. -1.
       -1   -1    0    0    0  501  0.00000000000E+00  0.00000000000E+00 -0.25758374235E+03  0.25758374240E+03  0.50400001928E-02 0.  1.
    10030    2    1    2    0    0  0.00000000000E+00  0.00000000000E+00  0.86152265106E+02  0.60131974989E+03  0.59511614734E+03 0.  0.
        1    1    3    3  502    0 -0.23272418381E+03 -0.18505529636E+03  0.31344818833E+02  0.29897910652E+03  0.50400001928E-02 0.  1.
       -1    1    3    3    0  502  0.23272418381E+03  0.18505529636E+03  0.54807446273E+02  0.30234064337E+03  0.50400001928E-02 0. -1.
</event>
<event>
 5   0  0.3934634E-02  0.6027931E+03  0.7818609E-02  0.9899628E-01
        2   -1    0    0  501    0  0.00000000000E+00  0.00000000000E+00  0.11666564765E+04  0.11666564765E+04  0.25500000920E-02 0.  1.
       -2   -1    0    0    0  501  0.00000000000E+00  0.00000000000E+00 -0.77863424641E+02  0.77863424683E+02  0.25500000920E-02 0. -1.
    10030    2    1    2    0    0  0.00000000000E+00  0.00000000000E+00  0.10887930519E+04  0.12445199012E+04  0.60279306124E+03 0.  0.
        1    1    3    3  502    0 -0.17038798151E+03  0.51518044680E+02  0.42256845398E+02  0.18295303818E+03  0.50400001928E-02 0. -1.
       -1    1    3    3    0  502  0.17038798151E+03 -0.51518044680E+02  0.10465362065E+04  0.10615668630E+04  0.50400001928E-02 0.  1.
</event>
<event>
 5   0  0.2295179E-02  0.6123226E+03  0.7818609E-02  0.9880165E-01
       -1   -1    0    0    0  501  0.00000000000E+00  0.00000000000E+00  0.62833343626E+02  0.62833343828E+02  0.50400001928E-02 0.  1.
        1   -1    0    0  501    0  0.00000000000E+00  0.00000000000E+00 -0.14917994312E+04  0.14917994312E+04  0.50400001928E-02 0. -1.
    10030    2    1    2    0    0  0.00000000000E+00  0.00000000000E+00 -0.14289660876E+04  0.15546327750E+04  0.61232261577E+03 0.  0.
        3    1    3    3  502    0 -0.16722621456E+03 -0.17230247468E+02 -0.64833014881E+02  0.18017996083E+03  0.10100000352E+00 0.  1.
       -3    1    3    3    0  502  0.16722621456E+03  0.17230247468E+02 -0.13641330727E+04  0.13744528142E+04  0.10100000352E+00 0. -1.
</event>
<event>
 5   0  0.2225808E-02  0.6019580E+03  0.7818609E-02  0.9901352E-01
       -1   -1    0    0    0  501  0.00000000000E+00  0.00000000000E+00  0.27683623878E+03  0.27683623883E+03  0.50400001928E-02 0.  1.
        1   -1    0    0  501    0  0.00000000000E+00  0.00000000000E+00 -0.32722727434E+03  0.32722727438E+03  0.50400001928E-02 0. -1.
    10030    2    1    2    0    0  0.00000000000E+00  0.00000000000E+00 -0.50391035557E+02  0.60406351320E+03  0.60195803136E+03 0.  0.
        2    1    3    3  502    0  0.98077119315E+02 -0.15383199783E+03  0.21502633326E+03  0.28199242701E+03  0.25500000920E-02 0.  1.
       -2    1    3    3    0  502 -0.98077119315E+02  0.15383199783E+03 -0.26541736882E+03  0.32207108620E+03  0.25500000920E-02 0. -1.
</event>
<event>
 5   0  0.2309055E-02  0.5991465E+03  0.7818609E-02  0.9907178E-01
        1   -1    0    0  501    0  0.00000000000E+00  0.00000000000E+00  0.35731159793E+03  0.35731159796E+03  0.50400001928E-02 0.  1.
       -1   -1    0    0    0  501  0.00000000000E+00  0.00000000000E+00 -0.25116486095E+03  0.25116486100E+03  0.50400001928E-02 0. -1.
    10030    2    1    2    0    0  0.00000000000E+00  0.00000000000E+00  0.10614673697E+03  0.60847645896E+03  0.59914645233E+03 0.  0.
        4    1    3    3  502    0 -0.18632057497E+03  0.22370217005E+03  0.12477367949E+03  0.31674611527E+03  0.12699999809E+01 0.  1.
       -4    1    3    3    0  502  0.18632057497E+03 -0.22370217005E+03 -0.18626942512E+02  0.29173034370E+03  0.12699999809E+01 0. -1.
</event>
<event>
 5   0  0.3724066E-02  0.6003646E+03  0.7818609E-02  0.9904650E-01
       -2   -1    0    0    0  501  0.00000000000E+00  0.00000000000E+00  0.92324769925E+02  0.92324769961E+02  0.25500000920E-02 0. -1.
        2   -1    0    0  501    0  0.00000000000E+00  0.00000000000E+00 -0.97600471083E+03  0.97600471083E+03  0.25500000920E-02 0.  1.
    10030    2    1    2    0    0  0.00000000000E+00  0.00000000000E+00 -0.88367994090E+03  0.10683294808E+04  0.60036459054E+03 0.  0.
        4    1    3    3  502    0 -0.90256163371E+02 -0.20721592707E+03 -0.79336113897E+03  0.82492916374E+03  0.12699999809E+01 0.  1.
       -4    1    3    3    0  502  0.90256163371E+02  0.20721592707E+03 -0.90318801931E+02  0.24340031705E+03  0.12699999809E+01 0. -1.
</event>
<event>
 5   0  0.2382531E-02  0.6015295E+03  0.7818609E-02  0.9902238E-01
       -1   -1    0    0    0  501  0.00000000000E+00  0.00000000000E+00  0.14495318244E+03  0.14495318253E+03  0.50400001928E-02 0. -1.
        1   -1    0    0  501    0  0.00000000000E+00  0.00000000000E+00 -0.62405970220E+03  0.62405970222E+03  0.50400001928E-02 0.  1.
    10030    2    1    2    0    0  0.00000000000E+00  0.00000000000E+00 -0.47910651976E+03  0.76901288475E+03  0.60152951684E+03 0.  0.
        5    1    3    3  502    0 -0.17039815779E+03 -0.22813553898E+03 -0.36321109280E+03  0.46154712029E+03  0.46999998093E+01 0. -1.
       -5    1    3    3    0  502  0.17039815779E+03  0.22813553898E+03 -0.11589542697E+03  0.30746576446E+03  0.46999998093E+01 0.  1.
</event>
<event>
 5   0  0.2295179E-02  0.5993574E+03  0.7818609E-02  0.9906740E-01
        1   -1    0    0  501    0  0.00000000000E+00  0.00000000000E+00  0.29239043598E+03  0.29239043602E+03  0.50400001928E-02 0.  1.
       -1   -1    0    0    0  501  0.00000000000E+00  0.00000000000E+00 -0.30714864252E+03  0.30714864256E+03  0.50400001928E-02 0. -1.
    10030    2    1    2    0    0  0.00000000000E+00  0.00000000000E+00 -0.14758206539E+02  0.59953907858E+03  0.59935740764E+03 0.  0.
        3    1    3    3  502    0 -0.26131257219E+02 -0.25721313974E+03  0.14421178670E+03  0.29603798993E+03  0.10100000352E+00 0.  1.
       -3    1    3    3    0  502  0.26131257219E+02  0.25721313974E+03 -0.15896999324E+03  0.30350108865E+03  0.10100000352E+00 0. -1.
</event>
<event>
 5   0  0.2382531E-02  0.5990815E+03  0.7818609E-02  0.9907314E-01
       -1   -1    0    0    0  501  0.00000000000E+00  0.00000000000E+00  0.83721438611E+02  0.83721438762E+02  0.50400001928E-02 0.  1.
        1   -1    0    0  501    0  0.00000000000E+00  0.00000000000E+00 -0.10717045786E+04  0.10717045787E+04  0.50400001928E-02 0. -1.
    10030    2    1    2    0    0  0.00000000000E+00  0.00000000000E+00 -0.98798314003E+03  0.11554260174E+04  0.59908146085E+03 0.  0.
        5    1    3    3  502    0  0.25373900519E+03  0.25698139761E+02 -0.79685106428E+03  0.83668248804E+03  0.46999998093E+01 0. -1.
       -5    1    3    3    0  502 -0.25373900519E+03 -0.25698139761E+02 -0.19113207575E+03  0.31874352938E+03  0.46999998093E+01 0.  1.
</event>
<event>
 5   0  0.3737642E-02  0.6003064E+03  0.7818609E-02  0.9904771E-01
        2   -1    0    0  501    0  0.00000000000E+00  0.00000000000E+00  0.57132128982E+03  0.57132128983E+03  0.25500000920E-02 0. -1.
       -2   -1    0    0    0  501  0.00000000000E+00  0.00000000000E+00 -0.15769048924E+03  0.15769048926E+03  0.25500000920E-02 0.  1.
    10030    2    1    2    0    0  0.00000000000E+00  0.00000000000E+00  0.41363080058E+03  0.72901177909E+03  0.60030636750E+03 0.  0.
        5    1    3    3  502    0  0.11627584997E+03  0.26605135531E+03  0.29903340880E+03  0.41682906152E+03  0.46999998093E+01 0.  1.
       -5    1    3    3    0  502 -0.11627584997E+03 -0.26605135531E+03  0.11459739178E+03  0.31218271757E+03  0.46999998093E+01 0. -1.
</event>
<event>
 5   0  0.3934634E-02  0.5980352E+03  0.7818609E-02  0.9909491E-01
        2   -1    0    0  501    0  0.00000000000E+00  0.00000000000E+00  0.23605486933E+04  0.23605486933E+04  0.25500000920E-02 0.  1.
       -2   -1    0    0    0  501  0.00000000000E+00  0.00000000000E+00 -0.37877438056E+02  0.37877438142E+02  0.25500000920E-02 0. -1.
    10030    2    1    2    0    0  0.00000000000E+00  0.00000000000E+00  0.23226712552E+04  0.23984261314E+04  0.59803523980E+03 0.  0.
        1    1    3    3  502    0 -0.45943094990E+02  0.25137815093E+03  0.53861059600E+03  0.59615695659E+03  0.50400001928E-02 0. -1.
       -1    1    3    3    0  502  0.45943094990E+02 -0.25137815093E+03  0.17840606592E+04  0.18022691748E+04  0.50400001928E-02 0.  1.
</event>
<event>
 5   0  0.2225808E-02  0.5745166E+03  0.7818609E-02  0.9959733E-01
        1   -1    0    0  501    0  0.00000000000E+00  0.00000000000E+00  0.16400641221E+03  0.16400641229E+03  0.50400001928E-02 0.  1.
       -1   -1    0    0    0  501  0.00000000000E+00  0.00000000000E+00 -0.50313482214E+03  0.50313482216E+03  0.50400001928E-02 0. -1.
    10030    2    1    2    0    0  0.00000000000E+00  0.00000000000E+00 -0.33912840992E+03  0.66714123445E+03  0.57451662142E+03 0.  0.
        2    1    3    3  502    0 -0.14037174980E+03  0.11887733169E+03 -0.42577429002E+03  0.46381008417E+03  0.25500000920E-02 0. -1.
       -2    1    3    3    0  502  0.14037174980E+03 -0.11887733169E+03  0.86645880093E+02  0.20333115028E+03  0.25500000920E-02 0.  1.
</event>
<event>
 5   0  0.1521750E-02  0.5981378E+03  0.7818609E-02  0.9909277E-01
       -4   -1    0    0    0  501  0.00000000000E+00  0.00000000000E+00  0.13078259293E+03  0.13078875913E+03  0.12699999809E+01 0.  1.
        4   -1    0    0  501    0  0.00000000000E+00  0.00000000000E+00 -0.68387702039E+03  0.68387819962E+03  0.12699999809E+01 0. -1.
    10030    2    1    2    0    0  0.00000000000E+00  0.00000000000E+00 -0.55309442746E+03  0.81466695875E+03  0.59813778346E+03 0.  0.
        2    1    3    3  502    0 -0.76495769818E+02  0.96469808058E+02 -0.64776349751E+03  0.65935997405E+03  0.25500000920E-02 0. -1.
       -2    1    3    3    0  502  0.76495769818E+02 -0.96469808058E+02  0.94669070051E+02  0.15530698470E+03  0.25500000920E-02 0.  1.
</event>
<event>
 5   0  0.3934634E-02  0.6010879E+03  0.7818609E-02  0.9903152E-01
       -2   -1    0    0    0  501  0.00000000000E+00  0.00000000000E+00  0.25813065090E+03  0.25813065091E+03  0.25500000920E-02 0.  1.
        2   -1    0    0  501    0  0.00000000000E+00  0.00000000000E+00 -0.34992610653E+03  0.34992610654E+03  0.25500000920E-02 0. -1.
    10030    2    1    2    0    0  0.00000000000E+00  0.00000000000E+00 -0.91795455638E+02  0.60805675745E+03  0.60108785931E+03 0.  0.
        1    1    3    3  502    0  0.71672226590E+02  0.94460274918E+02  0.23346888391E+03  0.26185372135E+03  0.50400001928E-02 0.  1.
       -1    1    3    3    0  502 -0.71672226590E+02 -0.94460274918E+02 -0.32526433955E+03  0.34620303611E+03  0.50400001928E-02 0. -1.
</event>
<event>
 5   0  0.2382531E-02  0.6001262E+03  0.7818609E-02  0.9905144E-01
       -1   -1    0    0    0  501  0.00000000000E+00  0.00000000000E+00  0.20641241778E+03  0.20641241784E+03  0.50400001928E-02 0.  1.
        1   -1    0    0  501    0  0.00000000000E+00  0.00000000000E+00 -0.43620370229E+03  0.43620370232E+03  0.50400001928E-02 0. -1.
    10030    2    1    2    0    0  0.00000000000E+00  0.00000000000E+00 -0.22979128452E+03  0.64261612016E+03  0.60012618960E+03 0.  0.
        5    1    3    3  502    0 -0.15153565941E+03 -0.16213395547E+01  0.16237807552E+03  0.22215853399E+03  0.46999998093E+01 0.  1.
       -5    1    3    3    0  502  0.15153565941E+03  0.16213395547E+01 -0.39216936004E+03  0.42045758617E+03  0.46999998093E+01 0. -1.
</event>
<event>
 5   0  0.3934634E-02  0.5650061E+03  0.7818609E-02  0.9980791E-01
        2   -1    0    0  501    0  0.00000000000E+00  0.00000000000E+00  0.11066176081E+04  0.11066176081E+04  0.25500000920E-02 0. -1.
       -2   -1    0    0    0  501  0.00000000000E+00  0.00000000000E+00 -0.72118833895E+02  0.72118833940E+02  0.25500000920E-02 0.  1.
    10030    2    1    2    0    0  0.00000000000E+00  0.00000000000E+00  0.10344987742E+04  0.11787364420E+04  0.56500609374E+03 0.  0.
        1    1    3    3  502    0 -0.23016824261E+03  0.11621887530E+03  0.27643834228E+03  0.37802434312E+03  0.50400001928E-02 0.  1.
       -1    1    3    3    0  502  0.23016824261E+03 -0.11621887530E+03  0.75806043192E+03  0.80071209892E+03  0.50400001928E-02 0. -1.
</event>
<event>
 5   0  0.3832191E-02  0.5974587E+03  0.7818609E-02  0.9910693E-01
        2   -1    0    0  501    0  0.00000000000E+00  0.00000000000E+00  0.47029232062E+03  0.47029232062E+03  0.25500000920E-02 0.  1.
       -2   -1    0    0    0  501  0.00000000000E+00  0.00000000000E+00 -0.18975266898E+03  0.18975266900E+03  0.25500000920E-02 0. -1.
    10030    2    1    2    0    0  0.00000000000E+00  0.00000000000E+00  0.28053965163E+03  0.66004498962E+03  0.59745869496E+03 0.  0.
        3    1    3    3  502    0  0.24001151420E+02 -0.16918091804E+03 -0.13043096169E+03  0.21496623983E+03  0.10100000352E+00 0. -1.
       -3    1    3    3    0  502 -0.24001151420E+02  0.16918091804E+03  0.41097061333E+03  0.44507874979E+03  0.10100000352E+00 0.  1.
</event>
<event>
 5   0  0.2309055E-02  0.6024127E+03  0.7818609E-02  0.9900413E-01
        1   -1    0    0  501    0  0.00000000000E+00  0.00000000000E+00  0.55823423639E+03  0.55823423642E+03  0.50400001928E-02 0.  1.
       -1   -1    0    0    0  501  0.00000000000E+00  0.00000000000E+00 -0.16252184861E+03  0.16252184869E+03  0.50400001928E-02 0. -1.
    10030    2    1    2    0    0  0.00000000000E+00  0.00000000000E+00  0.39571238779E+03  0.72075608510E+03  0.60241268277E+03 0.  0.
        4    1    3    3  502    0  0.17616410703E+03  0.21334420038E+03  0.34029950512E+03  0.43858283884E+03  0.12699999809E+01 0.  1.
       -4    1    3    3    0  502 -0.17616410703E+03 -0.21334420038E+03  0.55412882670E+02  0.28217324626E+03  0.12699999809E+01 0. -1.
</event>
<event>
 5   0  0.2309055E-02  0.5896288E+03  0.7818609E-02  0.9927160E-01
       -1   -1    0    0    0  501  0.00000000000E+00  0.00000000000E+00  0.34686001953E+03  0.34686001957E+03  0.50400001928E-02 0.  1.
        1   -1    0    0  501    0  0.00000000000E+00  0.00000000000E+00 -0.25057808954E+03  0.25057808959E+03  0.50400001928E-02 0. -1.
    10030    2    1    2    0    0  0.00000000000E+00  0.00000000000E+00  0.96281929987E+02  0.59743810916E+03  0.58962876816E+03 0.  0.
        4    1    3    3  502    0 -0.27351404473E+03 -0.82625760790E+02  0.12174576265E+03  0.31058105646E+03  0.12699999809E+01 0.  1.
       -4    1    3    3    0  502  0.27351404473E+03  0.82625760790E+02 -0.25463832659E+02  0.28685705270E+03  0.12699999809E+01 0. -1.
</event>
<event>
 5   0  0.2276105E-02  0.6002780E+03  0.7818609E-02  0.9904830E-01
       -1   -1    0    0    0  501  0.00000000000E+00  0.00000000000E+00  0.14705695880E+03  0.14705695889E+03  0.50400001928E-02 0. -1.
        1   -1    0    0  501    0  0.00000000000E+00  0.00000000000E+00 -0.61257494318E+03  0.61257494320E+03  0.50400001928E-02 0.  1.
    10030    2    1    2    0    0  0.00000000000E+00  0.00000000000E+00 -0.46551798438E+03  0.75963190209E+03  0.60027796302E+03 0.  0.
        1    1    3    3  502    0 -0.16968134121E+03  0.10194732421E+03 -0.51825683673E+03  0.55477487624E+03  0.50400001928E-02 0.  1.
       -1    1    3    3    0  502  0.16968134121E+03 -0.10194732421E+03  0.52738852350E+02  0.20485702585E+03  0.50400001928E-02 0. -1.
</event>
<event>
 5   0  0.3737642E-02  0.6012047E+03  0.7818609E-02  0.9902910E-01
       -2   -1    0    0    0  501  0.00000000000E+00  0.00000000000E+00  0.10929361206E+03  0.10929361209E+03  0.25500000920E-02 0. -1.
        2   -1    0    0  501    0  0.00000000000E+00  0.00000000000E+00 -0.82678000776E+03  0.82678000776E+03  0.25500000920E-02 0.  1.
    10030    2    1    2    0    0  0.00000000000E+00  0.00000000000E+00 -0.71748639569E+03  0.93607361985E+03  0.60120470206E+03 0.  0.
        5    1    3    3  502    0  0.17903626752E+03  0.49221487101E+02  0.92582655849E+01  0.18596920541E+03  0.46999998093E+01 0. -1.
       -5    1    3    3    0  502 -0.17903626752E+03 -0.49221487101E+02 -0.72674466128E+03  0.75010441445E+03  0.46999998093E+01 0.  1.
</event>
<event>
 5   0  0.2276105E-02  0.5977705E+03  0.7818609E-02  0.9910042E-01
       -1   -1    0    0    0  501  0.00000000000E+00  0.00000000000E+00  0.71454099605E+02  0.71454099783E+02  0.50400001928E-02 0. -1.
        1   -1    0    0  501    0  0.00000000000E+00  0.00000000000E+00 -0.12502067730E+04  0.12502067730E+04  0.50400001928E-02 0.  1.
    10030    2    1    2    0    0  0.00000000000E+00  0.00000000000E+00 -0.11787526734E+04  0.13216608727E+04  0.59777052254E+03 0.  0.
        1    1    3    3  502    0  0.45469550691E+02  0.19153990226E+03 -0.92139008322E+02  0.21735825514E+03  0.50400001928E-02 0. -1.
       -1    1    3    3    0  502 -0.45469550691E+02 -0.19153990226E+03 -0.10866136650E+04  0.11043026176E+04  0.50400001928E-02 0.  1.
</event>
<event>
 5   0  0.1521750E-02  0.5991743E+03  0.7818609E-02  0.9907121E-01
       -3   -1    0    0    0  501  0.00000000000E+00  0.00000000000E+00  0.18790609580E+03  0.18790612294E+03  0.10100000352E+00 0. -1.
        3   -1    0    0  501    0  0.00000000000E+00  0.00000000000E+00 -0.47764522329E+03  0.47764523397E+03  0.10100000352E+00 0.  1.
    10030    2    1    2    0    0  0.00000000000E+00  0.00000000000E+00 -0.28973912749E+03  0.66555135691E+03  0.59917430410E+03 0.  0.
        2    1    3    3  502    0  0.21566842800E+03  0.51673047487E+02  0.78862460020E+02  0.23537685163E+03  0.25500000920E-02 0. -1.
       -2    1    3    3    0  502 -0.21566842800E+03 -0.51673047487E+02 -0.36860158751E+03  0.43017450529E+03  0.25500000920E-02 0.  1.
</event>
<event>
 5   0  0.3737642E-02  0.5998975E+03  0.7818609E-02  0.9905619E-01
       -2   -1    0    0    0  501  0.00000000000E+00  0.00000000000E+00  0.66235933335E+02  0.66235933385E+02  0.25500000920E-02 0.  1.
        2   -1    0    0  501    0  0.00000000000E+00  0.00000000000E+00 -0.13583148729E+04  0.13583148729E+04  0.25500000920E-02 0. -1.
    10030    2    1    2    0    0  0.00000000000E+00  0.00000000000E+00 -0.12920789395E+04  0.14245508062E+04  0.59989750259E+03 0.  0.
        5    1    3    3  502    0  0.11338833777E+03 -0.19897371280E+03 -0.18619089711E+03  0.29518908125E+03  0.46999998093E+01 0.  1.
       -5    1    3    3    0  502 -0.11338833777E+03  0.19897371280E+03 -0.11058880424E+04  0.11293617250E+04  0.46999998093E+01 0. -1.
</event>
<event>
 5   0  0.3934634E-02  0.6026560E+03  0.7818609E-02  0.9899911E-01
       -2   -1    0    0    0  501  0.00000000000E+00  0.00000000000E+00  0.12857546443E+03  0.12857546446E+03  0.25500000920E-02 0.  1.
        2   -1    0    0  501    0  0.00000000000E+00  0.00000000000E+00 -0.70618898327E+03  0.70618898328E+03  0.25500000920E-02 0. -1.
    10030    2    1    2    0    0  0.00000000000E+00  0.00000000000E+00 -0.57761351884E+03  0.83476444773E+03  0.60265604290E+03 0.  0.
        1    1    3    3  502    0 -0.15823593035E+03 -0.23037776566E+03 -0.13279487916E+03  0.30943012866E+03  0.50400001928E-02 0.  1.
       -1    1    3    3    0  502  0.15823593035E+03  0.23037776566E+03 -0.44481863968E+03  0.52533431907E+03  0.50400001928E-02 0. -1.
</event>
<event>
 5   0  0.3724066E-02  0.5968059E+03  0.7818609E-02  0.9912055E-01
        2   -1    0    0  501    0  0.00000000000E+00  0.00000000000E+00  0.47133965698E+03  0.47133965699E+03  0.25500000920E-02 0. -1.
       -2   -1    0    0    0  501  0.00000000000E+00  0.00000000000E+00 -0.18891754302E+03  0.18891754304E+03  0.25500000920E-02 0.  1.
    10030    2    1    2    0    0  0.00000000000E+00  0.00000000000E+00  0.28242211396E+03  0.66025720003E+03  0.59680593138E+03 0.  0.
        4    1    3    3  502    0 -0.70404607675E+02  0.28973731829E+03  0.12820559988E+03  0.32456557293E+03  0.12699999809E+01 0.  1.
       -4    1    3    3    0  502  0.70404607675E+02 -0.28973731829E+03  0.15421651408E+03  0.33569162710E+03  0.12699999809E+01 0. -1.
</event>
<event>
 5   0  0.3737642E-02  0.6014955E+03  0.7818609E-02  0.9902308E-01
       -2   -1    0    0    0  501  0.00000000000E+00  0.00000000000E+00  0.19190393009E+03  0.19190393010E+03  0.25500000920E-02 0. -1.
        2   -1    0    0  501    0  0.00000000000E+00  0.00000000000E+00 -0.47132546574E+03  0.47132546574E+03  0.25500000920E-02 0.  1.
    10030    2    1    2    0    0  0.00000000000E+00  0.00000000000E+00 -0.27942153565E+03  0.66322939585E+03  0.60149550034E+03 0.  0.
        5    1    3    3  502    0  0.15172253772E+03 -0.25926087670E+03 -0.15495699463E+03  0.33803800204E+03  0.46999998093E+01 0.  1.
       -5    1    3    3    0  502 -0.15172253772E+03  0.25926087670E+03 -0.12446454102E+03  0.32519139381E+03  0.46999998093E+01 0. -1.
</event>
<event>
 5   0  0.2309055E-02  0.6165601E+03  0.7818609E-02  0.9871632E-01
       -1   -1    0    0    0  501  0.00000000000E+00  0.00000000000E+00  0.24013881280E+03  0.24013881286E+03  0.50400001928E-02 0.  1.
        1   -1    0    0  501    0  0.00000000000E+00  0.00000000000E+00 -0.39575694890E+03  0.39575694893E+03  0.50400001928E-02 0. -1.
    10030    2    1    2    0    0  0.00000000000E+00  0.00000000000E+00 -0.15561813610E+03  0.63589576179E+03  0.61656014758E+03 0.  0.
        4    1    3    3  502    0 -0.94648330983E+02 -0.19766631048E+03  0.14579576612E+03  0.26322669921E+03  0.12699999809E+01 0.  1.
       -4    1    3    3    0  502  0.94648330983E+02  0.19766631048E+03 -0.30141390222E+03  0.37266906258E+03  0.12699999809E+01 0. -1.
</event>
<event>
 5   0  0.3934634E-02  0.5821270E+03  0.7818609E-02  0.9943197E-01
        2   -1    0    0  501    0  0.00000000000E+00  0.00000000000E+00  0.44860709397E+03  0.44860709397E+03  0.25500000920E-02 0.  1.
       -2   -1    0    0    0  501  0.00000000000E+00  0.00000000000E+00 -0.18884669527E+03  0.18884669529E+03  0.25500000920E-02 0. -1.
    10030    2    1    2    0    0  0.00000000000E+00  0.00000000000E+00  0.25976039870E+03  0.63745378926E+03  0.58212702111E+03 0.  0.
        1    1    3    3  502    0  0.81945709839E+02  0.43813407899E+02 -0.17216746721E+03  0.19564342786E+03  0.50400001928E-02 0. -1.
       -1    1    3    3    0  502 -0.81945709839E+02 -0.43813407899E+02  0.43192786591E+03  0.44181036140E+03  0.50400001928E-02 0.  1.
</event>
<event>
 5   0  0.2309055E-02  0.6012107E+03  0.7818609E-02  0.9902897E-01
        1   -1    0    0  501    0  0.00000000000E+00  0.00000000000E+00  0.48090198266E+02  0.48090198530E+02  0.50400001928E-02 0. -1.
       -1   -1    0    0    0  501  0.00000000000E+00  0.00000000000E+00 -0.18790434641E+04  0.18790434641E+04  0.50400001928E-02 0.  1.
    10030    2    1    2    0    0  0.00000000000E+00  0.00000000000E+00 -0.18309532658E+04  0.19271336626E+04  0.60121068852E+03 0.  0.
        4    1    3    3  502    0 -0.50024749587E+02  0.28840614248E+03 -0.69615970078E+03  0.75519568357E+03  0.12699999809E+01 0.  1.
       -4    1    3    3    0  502  0.50024749587E+02 -0.28840614248E+03 -0.11347935650E+04  0.11719379790E+04  0.12699999809E+01 0. -1.
</event>
<event>
 5   0  0.2225808E-02  0.6084459E+03  0.7818609E-02  0.9888037E-01
       -1   -1    0    0    0  501  0.00000000000E+00  0.00000000000E+00  0.33516340364E+03  0.33516340368E+03  0.50400001928E-02 0.  1.
        1   -1    0    0  501    0  0.00000000000E+00  0.00000000000E+00 -0.27613874421E+03  0.27613874426E+03  0.50400001928E-02 0. -1.
    10030    2    1    2    0    0  0.00000000000E+00  0.00000000000E+00  0.59024659430E+02  0.61130214794E+03  0.60844589378E+03 0.  0.
        2    1    3    3  502    0  0.11022932356E+03 -0.10270732575E+03  0.29504888772E+03  0.33129012163E+03  0.25500000920E-02 0.  1.
       -2    1    3    3    0  502 -0.11022932356E+03  0.10270732575E+03 -0.23602422829E+03  0.28001202632E+03  0.25500000920E-02 0. -1.
</event>
<event>
 5   0  0.1521750E-02  0.6042051E+03  0.7818609E-02  0.9896720E-01
       -4   -1    0    0    0  501  0.00000000000E+00  0.00000000000E+00  0.25936806311E+03  0.25937117238E+03  0.12699999809E+01 0. -1.
        4   -1    0    0  501    0  0.00000000000E+00  0.00000000000E+00 -0.35187175854E+03  0.35187405042E+03  0.12699999809E+01 0.  1.
    10030    2    1    2    0    0  0.00000000000E+00  0.00000000000E+00 -0.92503695426E+02  0.61124522280E+03  0.60420508830E+03 0.  0.
        1    1    3    3  502    0  0.19309750286E+03  0.19704223764E+03 -0.17078639380E+03  0.32446923022E+03  0.50400001928E-02 0.  1.
       -1    1    3    3    0  502 -0.19309750286E+03 -0.19704223764E+03  0.78282698375E+02  0.28677599257E+03  0.50400001928E-02 0. -1.
</event>
<event>
 5   0  0.2309055E-02  0.5998034E+03  0.7818609E-02  0.9905814E-01
       -1   -1    0    0    0  501  0.00000000000E+00  0.00000000000E+00  0.99567266705E+02  0.99567266833E+02  0.50400001928E-02 0.  1.
        1   -1    0    0  501    0  0.00000000000E+00  0.00000000000E+00 -0.90331918096E+03  0.90331918098E+03  0.50400001928E-02 0. -1.
    10030    2    1    2    0    0  0.00000000000E+00  0.00000000000E+00 -0.80375191426E+03  0.10028864478E+04  0.59980337406E+03 0.  0.
        4    1    3    3  502    0 -0.18866903400E+03 -0.22715069742E+03 -0.48949336029E+03  0.57166319314E+03  0.12699999809E+01 0. -1.
       -4    1    3    3    0  502  0.18866903400E+03  0.22715069742E+03 -0.31425855397E+03  0.43122325467E+03  0.12699999809E+01 0.  1.
</event>
<event>
 5   0  0.2309055E-02  0.5987278E+03  0.7818609E-02  0.9908049E-01
       -1   -1    0    0    0  501  0.00000000000E+00  0.00000000000E+00  0.17047237469E+03  0.17047237477E+03  0.50400001928E-02 0. -1.
        1   -1    0    0  501    0  0.00000000000E+00  0.00000000000E+00 -0.52570834895E+03  0.52570834898E+03  0.50400001928E-02 0.  1.
    10030    2    1    2    0    0  0.00000000000E+00  0.00000000000E+00 -0.35523597426E+03  0.69618072375E+03  0.59872782022E+03 0.  0.
        4    1    3    3  502    0  0.12184426146E+03 -0.13912818227E+02  0.13992066986E+03  0.18606181047E+03  0.12699999809E+01 0. -1.
       -4    1    3    3    0  502 -0.12184426146E+03  0.13912818227E+02 -0.49515664412E+03  0.51011891327E+03  0.12699999809E+01 0.  1.
</event>
<event>
 5   0  0.3724066E-02  0.5999755E+03  0.7818609E-02  0.9905457E-01
        2   -1    0    0  501    0  0.00000000000E+00  0.00000000000E+00  0.29459723319E+03  0.29459723321E+03  0.25500000920E-02 0.  1.
       -2   -1    0    0    0  501  0.00000000000E+00  0.00000000000E+00 -0.30547694838E+03  0.30547694839E+03  0.25500000920E-02 0. -1.
    10030    2    1    2    0    0  0.00000000000E+00  0.00000000000E+00 -0.10879715184E+02  0.60007418159E+03  0.59997554551E+03 0.  0.
        4    1    3    3  502    0 -0.15086888118E+03 -0.25533635119E+03  0.39656127341E+02  0.29921947276E+03  0.12699999809E+01 0. -1.
       -4    1    3    3    0  502  0.15086888118E+03  0.25533635119E+03 -0.50535842525E+02  0.30085470883E+03  0.12699999809E+01 0.  1.
</event>
<event>
 5   0  0.3724066E-02  0.5967366E+03  0.7818609E-02  0.9912200E-01
        2   -1    0    0  501    0  0.00000000000E+00  0.00000000000E+00  0.15811589539E+04  0.15811589539E+04  0.25500000920E-02 0.  1.
       -2   -1    0    0    0  501  0.00000000000E+00  0.00000000000E+00 -0.56302773895E+02  0.56302773953E+02  0.25500000920E-02 0. -1.
    10030    2    1    2    0    0  0.00000000000E+00  0.00000000000E+00  0.15248561800E+04  0.16374617279E+04  0.59673657546E+03 0.  0.
        4    1    3    3  502    0  0.13592646411E+03 -0.26237504340E+03  0.87574531289E+03  0.92425544791E+03  0.12699999809E+01 0.  1.
       -4    1    3    3    0  502 -0.13592646411E+03  0.26237504340E+03  0.64911086713E+03  0.71320627996E+03  0.12699999809E+01 0. -1.
</event>
<event>
 5   0  0.2295179E-02  0.5978696E+03  0.7818609E-02  0.9909836E-01
        1   -1    0    0  501    0  0.00000000000E+00  0.00000000000E+00  0.74958344946E+03  0.74958344948E+03  0.50400001928E-02 0.  1.
       -1   -1    0    0    0  501  0.00000000000E+00  0.00000000000E+00 -0.11921555486E+03  0.11921555497E+03  0.50400001928E-02 0. -1.
    10030    2    1    2    0    0  0.00000000000E+00  0.00000000000E+00  0.63036789459E+03  0.86879900445E+03  0.59786957407E+03 0.  0.
        3    1    3    3  502    0  0.24187216196E+03  0.42456194029E+02  0.56289231739E+03  0.61412738282E+03  0.10100000352E+00 0.  1.
       -3    1    3    3    0  502 -0.24187216196E+03 -0.42456194029E+02  0.67475577200E+02  0.25467162163E+03  0.10100000352E+00 0. -1.
</event>
<event>
 5   0  0.3798925E-02  0.6022247E+03  0.7818609E-02  0.9900801E-01
       -2   -1    0    0    0  501  0.00000000000E+00  0.00000000000E+00  0.20071135859E+03  0.20071135860E+03  0.25500000920E-02 0. -1.
        2   -1    0    0  501    0  0.00000000000E+00  0.00000000000E+00 -0.45173649953E+03  0.45173649953E+03  0.25500000920E-02 0.  1.
    10030    2    1    2    0    0  0.00000000000E+00  0.00000000000E+00 -0.25102514094E+03  0.65244785814E+03  0.60222469744E+03 0.  0.
        2    1    3    3  502    0  0.67797647568E+02 -0.26382736909E+03 -0.26453911196E+03  0.37971350182E+03  0.25500000920E-02 0.  1.
       -2    1    3    3    0  502 -0.67797647568E+02  0.26382736909E+03  0.13513971019E+02  0.27273435632E+03  0.25500000920E-02 0. -1.
</event>
<event>
 5   0  0.2382531E-02  0.6461470E+03  0.7818609E-02  0.9814036E-01
       -1   -1    0    0    0  501  0.00000000000E+00  0.00000000000E+00  0.63886007239E+03  0.63886007241E+03  0.50400001928E-02 0.  1.
        1   -1    0    0  501    0  0.00000000000E+00  0.00000000000E+00 -0.16337926454E+03  0.16337926462E+03  0.50400001928E-02 0. -1.
    10030    2    1    2    0    0  0.00000000000E+00  0.00000000000E+00  0.47548080785E+03  0.80223933703E+03  0.64614700745E+03 0.  0.
        5    1    3    3  502    0  0.15137405465E+03 -0.26247121482E+03  0.98655539536E+02  0.31868518715E+03  0.46999998093E+01 0. -1.
       -5    1    3    3    0  502 -0.15137405465E+03  0.26247121482E+03  0.37682526831E+03  0.48355414988E+03  0.46999998093E+01 0.  1.
</event>
<event>
 5   0  0.3934634E-02  0.6061635E+03  0.7818609E-02  0.9892701E-01
       -2   -1    0    0    0  501  0.00000000000E+00  0.00000000000E+00  0.22182160962E+03  0.22182160964E+03  0.25500000920E-02 0. -1.
        2   -1    0    0  501    0  0.00000000000E+00  0.00000000000E+00 -0.41410998688E+03  0.41410998689E+03  0.25500000920E-02 0.  1.
    10030    2    1    2    0    0  0.00000000000E+00  0.00000000000E+00 -0.19228837726E+03  0.63593159653E+03  0.60616348903E+03 0.  0.
        1    1    3    3  502    0 -0.19479077867E+03  0.13200200693E+03 -0.29655028687E+03  0.37856313866E+03  0.50400001928E-02 0.  1.
       -1    1    3    3    0  502  0.19479077867E+03 -0.13200200693E+03  0.10426190961E+03  0.25736845787E+03  0.50400001928E-02 0. -1.
</event>
<event>
 5   0  0.3724066E-02  0.5988611E+03  0.7818609E-02  0.9907772E-01
        2   -1    0    0  501    0  0.00000000000E+00  0.00000000000E+00  0.10457812032E+04  0.10457812032E+04  0.25500000920E-02 0.  1.
       -2   -1    0    0    0  501  0.00000000000E+00  0.00000000000E+00 -0.85733659331E+02  0.85733659369E+02  0.25500000920E-02 0. -1.
    10030    2    1    2    0    0  0.00000000000E+00  0.00000000000E+00  0.96004754389E+03  0.11315148626E+04  0.59886108384E+03 0.  0.
        4    1    3    3  502    0  0.12226892105E+03  0.10278327425E+03  0.14943752415E+01  0.15974334596E+03  0.12699999809E+01 0. -1.
       -4    1    3    3    0  502 -0.12226892105E+03 -0.10278327425E+03  0.95855316865E+03  0.97177151664E+03  0.12699999809E+01 0.  1.
</event>
<event>
 5   0  0.2295179E-02  0.5989420E+03  0.7818609E-02  0.9907604E-01
        1   -1    0    0  501    0  0.00000000000E+00  0.00000000000E+00  0.62376155237E+03  0.62376155239E+03  0.50400001928E-02 0. -1.
       -1   -1    0    0    0  501  0.00000000000E+00  0.00000000000E+00 -0.14377748291E+03  0.14377748300E+03  0.50400001928E-02 0.  1.
    10030    2    1    2    0    0  0.00000000000E+00  0.00000000000E+00  0.47998406946E+03  0.76753903539E+03  0.59894195371E+03 0.  0.
        3    1    3    3  502    0 -0.54256008482E+02  0.23543001792E+03  0.46675393462E+03  0.52557611578E+03  0.10100000352E+00 0. -1.
       -3    1    3    3    0  502  0.54256008482E+02 -0.23543001792E+03  0.13230134834E+02  0.24196291961E+03  0.10100000352E+00 0.  1.
</event>
<event>
 5   0  0.3724066E-02  0.6438311E+03  0.7818609E-02  0.9818424E-01
       -2   -1    0    0    0  501  0.00000000000E+00  0.00000000000E+00  0.15046524813E+03  0.15046524815E+03  0.25500000920E-02 0. -1.
        2   -1    0    0  501    0  0.00000000000E+00  0.00000000000E+00 -0.68872803271E+03  0.68872803272E+03  0.25500000920E-02 0.  1.
    10030    2    1    2    0    0  0.00000000000E+00  0.00000000000E+00 -0.53826278458E+03  0.83919328087E+03  0.64383114043E+03 0.  0.
        4    1    3    3  502    0 -0.21365255335E+03 -0.63993042931E+02 -0.57170146614E+03  0.61366660524E+03  0.12699999809E+01 0.  1.
       -4    1    3    3    0  502  0.21365255335E+03  0.63993042931E+02  0.33438681560E+02  0.22552667563E+03  0.12699999809E+01 0. -1.
</event>
<event>
 5   0  0.3737642E-02  0.5995911E+03  0.7818609E-02  0.9906255E-01
        2   -1    0    0  501    0  0.00000000000E+00  0.00000000000E+00  0.69501036243E+03  0.69501036243E+03  0.25500000920E-02 0.  1.
       -2   -1    0    0    0  501  0.00000000000E+00  0.00000000000E+00 -0.12931804669E+03  0.12931804672E+03  0.25500000920E-02 0. -1.
    10030    2    1    2    0    0  0.00000000000E+00  0.00000000000E+00  0.56569231573E+03  0.82432840915E+03  0.59959113574E+03 0.  0.
        5    1    3    3  502    0  0.23858603074E+03  0.96401098507E+02  0.71469015819E+02  0.26710742423E+03  0.46999998093E+01 0. -1.
       -5    1    3    3    0  502 -0.23858603074E+03 -0.96401098507E+02  0.49422329991E+03  0.55722098492E+03  0.46999998093E+01 0.  1.
</event>
<event>
 5   0  0.3934634E-02  0.6122285E+03  0.7818609E-02  0.9880356E-01
       -2   -1    0    0    0  501  0.00000000000E+00  0.00000000000E+00  0.14209195235E+03  0.14209195237E+03  0.25500000920E-02 0. -1.
        2   -1    0    0  501    0  0.00000000000E+00  0.00000000000E+00 -0.65947390358E+03  0.65947390359E+03  0.25500000920E-02 0.  1.
    10030    2    1    2    0    0  0.00000000000E+00  0.00000000000E+00 -0.51738195124E+03  0.80156585596E+03  0.61222850144E+03 0.  0.
        1    1    3    3  502    0 -0.28359352589E+02 -0.50956048618E+02 -0.65213409567E+03  0.65473632138E+03  0.50400001928E-02 0.  1.
       -1    1    3    3    0  502  0.28359352589E+02  0.50956048618E+02  0.13475214443E+03  0.14682953458E+03  0.50400001928E-02 0. -1.
</event>
<event>
 5   0  0.2309055E-02  0.5991973E+03  0.7818609E-02  0.9907073E-01
       -1   -1    0    0    0  501  0.00000000000E+00  0.00000000000E+00  0.15131090632E+03  0.15131090640E+03  0.50400001928E-02 0. -1.
        1   -1    0    0  501    0  0.00000000000E+00  0.00000000000E+00 -0.59321147035E+03  0.59321147037E+03  0.50400001928E-02 0.  1.
    10030    2    1    2    0    0  0.00000000000E+00  0.00000000000E+00 -0.44190056403E+03  0.74452237677E+03  0.59919734731E+03 0.  0.
        4    1    3    3  502    0  0.18196034696E+03  0.78652966226E+02 -0.50006944400E+03  0.53792835832E+03  0.12699999809E+01 0.  1.
       -4    1    3    3    0  502 -0.18196034696E+03 -0.78652966226E+02  0.58168879972E+02  0.20659401845E+03  0.12699999809E+01 0. -1.
</event>
<event>
 5   0  0.3934634E-02  0.5919577E+03  0.7818609E-02  0.9922233E-01
        2   -1    0    0  501    0  0.00000000000E+00  0.00000000000E+00  0.13111013693E+03  0.13111013696E+03  0.25500000920E-02 0.  1.
       -2   -1    0    0    0  501  0.00000000000E+00  0.00000000000E+00 -0.66816704827E+03  0.66816704828E+03  0.25500000920E-02 0. -1.
    10030    2    1    2    0    0  0.00000000000E+00  0.00000000000E+00 -0.53705691134E+03  0.79927718524E+03  0.59195767824E+03 0.  0.
        1    1    3    3  502    0 -0.25099133366E+03 -0.55350035586E+02 -0.70347537329E+02  0.26647523721E+03  0.50400001928E-02 0. -1.
       -1    1    3    3    0  502  0.25099133366E+03  0.55350035586E+02 -0.46670937401E+03  0.53280194803E+03  0.50400001928E-02 0.  1.
</event>
<event>
 5   0  0.2225808E-02  0.5994558E+03  0.7818609E-02  0.9906536E-01
        1   -1    0    0  501    0  0.00000000000E+00  0.00000000000E+00  0.10720048539E+04  0.10720048539E+04  0.50400001928E-02 0. -1.
       -1   -1    0    0    0  501  0.00000000000E+00  0.00000000000E+00 -0.83802632506E+02  0.83802632658E+02  0.50400001928E-02 0.  1.
    10030    2    1    2    0    0  0.00000000000E+00  0.00000000000E+00  0.98820222136E+03  0.11558074865E+04  0.59945584961E+03 0.  0.
        2    1    3    3  502    0 -0.97975627693E+02 -0.23297136710E+03  0.80476940535E+03  0.84352159267E+03  0.25500000920E-02 0. -1.
       -2    1    3    3    0  502  0.97975627693E+02  0.23297136710E+03  0.18343281601E+03  0.31228589387E+03  0.25500000920E-02 0.  1.
</event>
<event>
 5   0  0.3832191E-02  0.5990704E+03  0.7818609E-02  0.9907337E-01
       -2   -1    0    0    0  501  0.00000000000E+00  0.00000000000E+00  0.16503526591E+03  0.16503526593E+03  0.25500000920E-02 0. -1.
        2   -1    0    0  501    0  0.00000000000E+00  0.00000000000E+00 -0.54364952577E+03  0.54364952578E+03  0.25500000920E-02 0.  1.
    10030    2    1    2    0    0  0.00000000000E+00  0.00000000000E+00 -0.37861425986E+03  0.70868479171E+03  0.59907042677E+03 0.  0.
        3    1    3    3  502    0  0.52818906819E+02  0.23591164500E+03  0.19906085722E+02  0.24257040960E+03  0.10100000352E+00 0. -1.
       -3    1    3    3    0  502 -0.52818906819E+02 -0.23591164500E+03 -0.39852034558E+03  0.46611438211E+03  0.10100000352E+00 0.  1.
</event>
<event>
 5   0  0.2309055E-02  0.6000361E+03  0.7818609E-02  0.9905331E-01
       -1   -1    0    0    0  501  0.00000000000E+00  0.00000000000E+00  0.72899780910E+03  0.72899780912E+03  0.50400001928E-02 0. -1.
        1   -1    0    0  501    0  0.00000000000E+00  0.00000000000E+00 -0.12347199821E+03  0.12347199831E+03  0.50400001928E-02 0.  1.
    10030    2    1    2    0    0  0.00000000000E+00  0.00000000000E+00  0.60552581089E+03  0.85246980743E+03  0.60003605302E+03 0.  0.
        4    1    3    3  502    0 -0.22453358087E+03 -0.19898033506E+03  0.30395209939E+03  0.42707961120E+03  0.12699999809E+01 0. -1.
       -4    1    3    3    0  502  0.22453358087E+03  0.19898033506E+03  0.30157371150E+03  0.42539019623E+03  0.12699999809E+01 0.  1.
</event>
<event>
 5   0  0.2309055E-02  0.6040461E+03  0.7818609E-02  0.9897047E-01
        1   -1    0    0  501    0  0.00000000000E+00  0.00000000000E+00  0.23738600931E+03  0.23738600937E+03  0.50400001928E-02 0.  1.
       -1   -1    0    0    0  501  0.00000000000E+00  0.00000000000E+00 -0.38425983393E+03  0.38425983396E+03  0.50400001928E-02 0. -1.
    10030    2    1    2    0    0  0.00000000000E+00  0.00000000000E+00 -0.14687382462E+03  0.62164584333E+03  0.60404605302E+03 0.  0.
        4    1    3    3  502    0 -0.12200603178E+03  0.88474976778E+02  0.19591978987E+03  0.24718307036E+03  0.12699999809E+01 0.  1.
       -4    1    3    3    0  502  0.12200603178E+03 -0.88474976778E+02 -0.34279361449E+03  0.37446277297E+03  0.12699999809E+01 0. -1.
</event>
<event>
 5   0  0.3934634E-02  0.6020684E+03  0.7818609E-02  0.9901124E-01
        2   -1    0    0  501    0  0.00000000000E+00  0.00000000000E+00  0.21961810773E+04  0.21961810773E+04  0.25500000920E-02 0. -1.
       -2   -1    0    0    0  501  0.00000000000E+00  0.00000000000E+00 -0.41263256828E+02  0.41263256907E+02  0.25500000920E-02 0.  1.
    10030    2    1    2    0    0  0.00000000000E+00  0.00000000000E+00  0.21549178205E+04  0.22374443342E+04  0.60206838124E+03 0.  0.
        1    1    3    3  502    0 -0.26859931937E+03 -0.13586674987E+03  0.10624939434E+04  0.11043091722E+04  0.50400001928E-02 0.  1.
       -1    1    3    3    0  502  0.26859931937E+03  0.13586674987E+03  0.10924238771E+04  0.11331351620E+04  0.50400001928E-02 0. -1.
</event>
<event>
 5   0  0.3724066E-02  0.6003741E+03  0.7818609E-02  0.9904630E-01
        2   -1    0    0  501    0  0.00000000000E+00  0.00000000000E+00  0.75851841855E+03  0.75851841855E+03  0.25500000920E-02 0.  1.
       -2   -1    0    0    0  501  0.00000000000E+00  0.00000000000E+00 -0.11880036686E+03  0.11880036688E+03  0.25500000920E-02 0. -1.
    10030    2    1    2    0    0  0.00000000000E+00  0.00000000000E+00  0.63971805169E+03  0.87731878544E+03  0.60037410472E+03 0.  0.
        4    1    3    3  502    0 -0.92008672435E+02 -0.14081552499E+03 -0.43458281275E+02  0.17373785711E+03  0.12699999809E+01 0. -1.
       -4    1    3    3    0  502  0.92008672435E+02  0.14081552499E+03  0.68317633297E+03  0.70358092833E+03  0.12699999809E+01 0.  1.
</event>
<event>
 5   0  0.2382531E-02  0.6104943E+03  0.7818609E-02  0.9883870E-01
       -1   -1    0    0    0  501  0.00000000000E+00  0.00000000000E+00  0.11014687779E+04  0.11014687779E+04  0.50400001928E-02 0. -1.
        1   -1    0    0  501    0  0.00000000000E+00  0.00000000000E+00 -0.84592328264E+02  0.84592328414E+02  0.50400001928E-02 0.  1.
    10030    2    1    2    0    0  0.00000000000E+00  0.00000000000E+00  0.10168764496E+04  0.11860611063E+04  0.61049425395E+03 0.  0.
        5    1    3    3  502    0  0.19517944501E+03  0.79668626330E+02  0.79651098145E+02  0.22540739387E+03  0.46999998093E+01 0.  1.
       -5    1    3    3    0  502 -0.19517944501E+03 -0.79668626330E+02  0.93722535147E+03  0.96065371244E+03  0.46999998093E+01 0. -1.
</event>
<event>
 5   0  0.3934634E-02  0.6013388E+03  0.7818609E-02  0.9902632E-01
        2   -1    0    0  501    0  0.00000000000E+00  0.00000000000E+00  0.18467765094E+04  0.18467765094E+04  0.25500000920E-02 0.  1.
       -2   -1    0    0    0  501  0.00000000000E+00  0.00000000000E+00 -0.48951289423E+02  0.48951289490E+02  0.25500000920E-02 0. -1.
    10030    2    1    2    0    0  0.00000000000E+00  0.00000000000E+00  0.17978252200E+04  0.18957277989E+04  0.60133881124E+03 0.  0.
        1    1    3    3  502    0  0.86910296704E+02  0.28758474497E+03  0.86112107315E+03  0.91202406101E+03  0.50400001928E-02 0.  1.
       -1    1    3    3    0  502 -0.86910296704E+02 -0.28758474497E+03  0.93670414683E+03  0.98370373788E+03  0.50400001928E-02 0. -1.
</event>
<event>
 5   0  0.3832191E-02  0.5924071E+03  0.7818609E-02  0.9921285E-01
        2   -1    0    0  501    0  0.00000000000E+00  0.00000000000E+00  0.18815727914E+03  0.18815727915E+03  0.25500000920E-02 0. -1.
       -2   -1    0    0    0  501  0.00000000000E+00  0.00000000000E+00 -0.46629366429E+03  0.46629366430E+03  0.25500000920E-02 0.  1.
    10030    2    1    2    0    0  0.00000000000E+00  0.00000000000E+00 -0.27813638515E+03  0.65445094345E+03  0.59240711393E+03 0.  0.
        3    1    3    3  502    0  0.92229075844E+02  0.84044842468E+02  0.15770560505E+03  0.20109899562E+03  0.10100000352E+00 0. -1.
       -3    1    3    3    0  502 -0.92229075844E+02 -0.84044842468E+02 -0.43584199020E+03  0.45335194783E+03  0.10100000352E+00 0.  1.
</event>
<event>
 5   0  0.2276105E-02  0.6427036E+03  0.7818609E-02  0.9820568E-01
       -1   -1    0    0    0  501  0.00000000000E+00  0.00000000000E+00  0.10785882420E+03  0.10785882431E+03  0.50400001928E-02 0. -1.
        1   -1    0    0  501    0  0.00000000000E+00  0.00000000000E+00 -0.95742714524E+03  0.95742714525E+03  0.50400001928E-02 0.  1.
    10030    2    1    2    0    0  0.00000000000E+00  0.00000000000E+00 -0.84956832104E+03  0.10652859696E+04  0.64270355906E+03 0.  0.
        1    1    3    3  502    0  0.15858167440E+03 -0.25907396209E+03 -0.25094725120E+03  0.39400759916E+03  0.50400001928E-02 0. -1.
       -1    1    3    3    0  502 -0.15858167440E+03  0.25907396209E+03 -0.59862106984E+03  0.67127837040E+03  0.50400001928E-02 0.  1.
</event>
<event>
 5   0  0.2309055E-02  0.6002069E+03  0.7818609E-02  0.9904977E-01
        1   -1    0    0  501    0  0.00000000000E+00  0.00000000000E+00  0.31475372925E+03  0.31475372929E+03  0.50400001928E-02 0.  1.
       -1   -1    0    0    0  501  0.00000000000E+00  0.00000000000E+00 -0.28613502363E+03  0.28613502367E+03  0.50400001928E-02 0. -1.
    10030    2    1    2    0    0  0.00000000000E+00  0.00000000000E+00  0.28618705624E+02  0.60088875297E+03  0.60020685029E+03 0.  0.
        4    1    3    3  502    0  0.12196877660E+03 -0.25083728040E+03 -0.96562705165E+02  0.29516384032E+03  0.12699999809E+01 0. -1.
       -4    1    3    3    0  502 -0.12196877660E+03  0.25083728040E+03  0.12518141079E+03  0.30572491265E+03  0.12699999809E+01 0.  1.
</event>
<event>
 5   0  0.2276105E-02  0.5987875E+03  0.7818609E-02  0.9907925E-01
       -1   -1    0    0    0  501  0.00000000000E+00  0.00000000000E+00  0.13286174275E+03  0.13286174285E+03  0.50400001928E-02 0. -1.
        1   -1    0    0  501    0  0.00000000000E+00  0.00000000000E+00 -0.67466091795E+03  0.67466091797E+03  0.50400001928E-02 0.  1.
    10030    2    1    2    0    0  0.00000000000E+00  0.00000000000E+00 -0.54179917520E+03  0.80752266082E+03  0.59878752616E+03 0.  0.
        1    1    3    3  502    0 -0.20957366899E+03 -0.40282477195E+02  0.12282601309E+02  0.21376310023E+03  0.50400001928E-02 0. -1.
       -1    1    3    3    0  502  0.20957366899E+03  0.40282477195E+02 -0.55408177651E+03  0.59375956058E+03  0.50400001928E-02 0.  1.
</event>
<event>
 5   0  0.2295179E-02  0.5928897E+03  0.7818609E-02  0.9920268E-01
       -1   -1    0    0    0  501  0.00000000000E+00  0.00000000000E+00  0.16031436216E+03  0.16031436224E+03  0.50400001928E-02 0.  1.
        1   -1    0    0  501    0  0.00000000000E+00  0.00000000000E+00 -0.54817014919E+03  0.54817014921E+03  0.50400001928E-02 0. -1.
    10030    2    1    2    0    0  0.00000000000E+00  0.00000000000E+00 -0.38785578703E+03  0.70848451145E+03  0.59288969584E+03 0.  0.
        3    1    3    3  502    0  0.23711315346E+03  0.43627277091E+02  0.12194823664E+02  0.24140155504E+03  0.10100000352E+00 0.  1.
       -3    1    3    3    0  502 -0.23711315346E+03 -0.43627277091E+02 -0.40005061070E+03  0.46708295641E+03  0.10100000352E+00 0. -1.
</event>
<event>
 5   0  0.1521750E-02  0.6009655E+03  0.7818609E-02  0.9903405E-01
        3   -1    0    0  501    0  0.00000000000E+00  0.00000000000E+00  0.32930782622E+03  0.32930784171E+03  0.10100000352E+00 0. -1.
       -3   -1    0    0    0  501  0.00000000000E+00  0.00000000000E+00 -0.27418073809E+03  0.27418075670E+03  0.10100000352E+00 0.  1.
    10030    2    1    2    0    0  0.00000000000E+00  0.00000000000E+00  0.55127088129E+02  0.60348859841E+03  0.60096546703E+03 0.  0.
        5    1    3    3  502    0  0.23946793963E+03  0.14994554406E+02  0.20914876340E+03  0.31833162897E+03  0.46999998093E+01 0. -1.
       -5    1    3    3    0  502 -0.23946793963E+03 -0.14994554406E+02 -0.15402167527E+03  0.28515696944E+03  0.46999998093E+01 0.  1.
</event>
<event>
 5   0  0.1521750E-02  0.5978939E+03  0.7818609E-02  0.9909785E-01
        3   -1    0    0  501    0  0.00000000000E+00  0.00000000000E+00  0.28295121659E+03  0.28295123461E+03  0.10100000352E+00 0. -1.
       -3   -1    0    0    0  501  0.00000000000E+00  0.00000000000E+00 -0.31584690397E+03  0.31584692012E+03  0.10100000352E+00 0.  1.
    10030    2    1    2    0    0  0.00000000000E+00  0.00000000000E+00 -0.32895687381E+02  0.59879815473E+03  0.59789389014E+03 0.  0.
        4    1    3    3  502    0  0.79252124988E+02  0.16701860138E+01  0.27223100802E+03  0.28354016200E+03  0.12699999809E+01 0. -1.
       -4    1    3    3    0  502 -0.79252124988E+02 -0.16701860138E+01 -0.30512669540E+03  0.31525799274E+03  0.12699999809E+01 0.  1.
</event>
<event>
 5   0  0.2295179E-02  0.5960964E+03  0.7818609E-02  0.9913538E-01
       -1   -1    0    0    0  501  0.00000000000E+00  0.00000000000E+00  0.39484153107E+03  0.39484153110E+03  0.50400001928E-02 0.  1.
        1   -1    0    0  501    0  0.00000000000E+00  0.00000000000E+00 -0.22498327964E+03  0.22498327970E+03  0.50400001928E-02 0. -1.
    10030    2    1    2    0    0  0.00000000000E+00  0.00000000000E+00  0.16985825143E+03  0.61982481079E+03  0.59609644396E+03 0.  0.
        3    1    3    3  502    0 -0.62026395030E+01  0.28244449114E+03 -0.13821647706E+02  0.28285051080E+03  0.10100000352E+00 0. -1.
       -3    1    3    3    0  502  0.62026395030E+01 -0.28244449114E+03  0.18367989913E+03  0.33697430000E+03  0.10100000352E+00 0.  1.
</event>
<event>
 5   0  0.3724066E-02  0.5947168E+03  0.7818609E-02  0.9916428E-01
       -2   -1    0    0    0  501  0.00000000000E+00  0.00000000000E+00  0.46047132923E+03  0.46047132924E+03  0.25500000920E-02 0. -1.
        2   -1    0    0  501    0  0.00000000000E+00  0.00000000000E+00 -0.19202501991E+03  0.19202501993E+03  0.25500000920E-02 0.  1.
    10030    2    1    2    0    0  0.00000000000E+00  0.00000000000E+00  0.26844630932E+03  0.65249634917E+03  0.59471679368E+03 0.  0.
        4    1    3    3  502    0  0.24684761676E+03 -0.97997207162E+02 -0.12497264263E+02  0.26588530050E+03  0.12699999809E+01 0.  1.
       -4    1    3    3    0  502 -0.24684761676E+03  0.97997207162E+02  0.28094357358E+03  0.38661104866E+03  0.12699999809E+01 0. -1.
</event>
<event>
 5   0  0.3934634E-02  0.5999280E+03  0.7818609E-02  0.9905555E-01
        2   -1    0    0  501    0  0.00000000000E+00  0.00000000000E+00  0.10698536693E+04  0.10698536693E+04  0.25500000920E-02 0.  1.
       -2   -1    0    0    0  501  0.00000000000E+00  0.00000000000E+00 -0.84103475170E+02  0.84103475209E+02  0.25500000920E-02 0. -1.
    10030    2    1    2    0    0  0.00000000000E+00  0.00000000000E+00  0.98575019411E+03  0.11539571445E+04  0.59992803413E+03 0.  0.
        1    1    3    3  502    0 -0.54116724928E+02 -0.26026716357E+03  0.76016995383E+03  0.80531110453E+03  0.50400001928E-02 0.  1.
       -1    1    3    3    0  502  0.54116724928E+02  0.26026716357E+03  0.22558024028E+03  0.34864603996E+03  0.50400001928E-02 0. -1.
</event>
<event>
 5   0  0.2225808E-02  0.6009454E+03  0.7818609E-02  0.9903447E-01
       -1   -1    0    0    0  501  0.00000000000E+00  0.00000000000E+00  0.12818700374E+03  0.12818700384E+03  0.50400001928E-02 0. -1.
        1   -1    0    0  501    0  0.00000000000E+00  0.00000000000E+00 -0.70431344946E+03  0.70431344948E+03  0.50400001928E-02 0.  1.
    10030    2    1    2    0    0  0.00000000000E+00  0.00000000000E+00 -0.57612644572E+03  0.83250045332E+03  0.60094535802E+03 0.  0.
        2    1    3    3  502    0 -0.15899388175E+03  0.40538487667E+02 -0.63677121526E+03  0.65757129196E+03  0.25500000920E-02 0.  1.
       -2    1    3    3    0  502  0.15899388175E+03 -0.40538487667E+02  0.60644769543E+02  0.17492916136E+03  0.25500000920E-02 0. -1.
</event>
<event>
 5   0  0.3737642E-02  0.5910305E+03  0.7818609E-02  0.9924192E-01
        2   -1    0    0  501    0  0.00000000000E+00  0.00000000000E+00  0.67935845511E+03  0.67935845511E+03  0.25500000920E-02 0. -1.
       -2   -1    0    0    0  501  0.00000000000E+00  0.00000000000E+00 -0.12854667787E+03  0.12854667789E+03  0.25500000920E-02 0.  1.
    10030    2    1    2    0    0  0.00000000000E+00  0.00000000000E+00  0.55081177724E+03  0.80790513300E+03  0.59103053219E+03 0.  0.
        5    1    3    3  502    0 -0.11648999462E+03 -0.11181708523E+03  0.61366342838E+03  0.63456904488E+03  0.46999998093E+01 0. -1.
       -5    1    3    3    0  502  0.11648999462E+03  0.11181708523E+03 -0.62851651137E+02  0.17333608812E+03  0.46999998093E+01 0.  1.
</event>
<event>
 5   0  0.1521750E-02  0.6012227E+03  0.7818609E-02  0.9902873E-01
        3   -1    0    0  501    0  0.00000000000E+00  0.00000000000E+00  0.34288010029E+03  0.34288011517E+03  0.10100000352E+00 0. -1.
       -3   -1    0    0    0  501  0.00000000000E+00  0.00000000000E+00 -0.26355324032E+03  0.26355325968E+03  0.10100000352E+00 0.  1.
    10030    2    1    2    0    0  0.00000000000E+00  0.00000000000E+00  0.79326859969E+02  0.60643337485E+03  0.60122266043E+03 0.  0.
        3    1    3    3  502    0  0.27883927487E+03  0.46050769296E+02 -0.63670279083E+02  0.28969972248E+03  0.10100000352E+00 0.  1.
       -3    1    3    3    0  502 -0.27883927487E+03 -0.46050769296E+02  0.14299713905E+03  0.31673365237E+03  0.10100000352E+00 0. -1.
</event>
<event>
 5   0  0.1521750E-02  0.5985241E+03  0.7818609E-02  0.9908473E-01
       -3   -1    0    0    0  501  0.00000000000E+00  0.00000000000E+00  0.42615432726E+03  0.42615433923E+03  0.10100000352E+00 0.  1.
        3   -1    0    0  501    0  0.00000000000E+00  0.00000000000E+00 -0.21015337181E+03  0.21015339608E+03  0.10100000352E+00 0. -1.
    10030    2    1    2    0    0  0.00000000000E+00  0.00000000000E+00  0.21600095545E+03  0.63630773531E+03  0.59852411920E+03 0.  0.
        3    1    3    3  502    0 -0.26810759286E+03 -0.13293300208E+03  0.10564576955E+03  0.31735453867E+03  0.10100000352E+00 0.  1.
       -3    1    3    3    0  502  0.26810759286E+03  0.13293300208E+03  0.11035518590E+03  0.31895319664E+03  0.10100000352E+00 0. -1.
</event>
<event>
 5   0  0.2225808E-02  0.6002002E+03  0.7818609E-02  0.9904991E-01
        1   -1    0    0  501    0  0.00000000000E+00  0.00000000000E+00  0.32492530336E+03  0.32492530340E+03  0.50400001928E-02 0.  1.
       -1   -1    0    0    0  501  0.00000000000E+00  0.00000000000E+00 -0.27717159274E+03  0.27717159278E+03  0.50400001928E-02 0. -1.
    10030    2    1    2    0    0  0.00000000000E+00  0.00000000000E+00  0.47753710622E+02  0.60209689618E+03  0.60020017953E+03 0.  0.
        2    1    3    3  502    0 -0.15586728378E+02 -0.97122582196E+02 -0.26054040153E+03  0.27849065139E+03  0.25500000920E-02 0. -1.
       -2    1    3    3    0  502  0.15586728378E+02  0.97122582196E+02  0.30829411215E+03  0.32360624479E+03  0.25500000920E-02 0.  1.
</event>
<event>
 5   0  0.3798925E-02  0.6029804E+03  0.7818609E-02  0.9899242E-01
       -2   -1    0    0    0  501  0.00000000000E+00  0.00000000000E+00  0.42389115532E+03  0.42389115533E+03  0.25500000920E-02 0.  1.
        2   -1    0    0  501    0  0.00000000000E+00  0.00000000000E+00 -0.21443319255E+03  0.21443319256E+03  0.25500000920E-02 0. -1.
    10030    2    1    2    0    0  0.00000000000E+00  0.00000000000E+00  0.20945796278E+03  0.63832434789E+03  0.60298037691E+03 0.  0.
        2    1    3    3  502    0  0.12287294268E+03  0.12951360001E+03  0.36191982173E+03  0.40355605559E+03  0.25500000920E-02 0.  1.
       -2    1    3    3    0  502 -0.12287294268E+03 -0.12951360001E+03 -0.15246185895E+03  0.23476829231E+03  0.25500000920E-02 0. -1.
</event>
<event>
 5   0  0.3832191E-02  0.5905673E+03  0.7818609E-02  0.9925171E-01
        2   -1    0    0  501    0  0.00000000000E+00  0.00000000000E+00  0.11290779521E+04  0.11290779521E+04  0.25500000920E-02 0. -1.
       -2   -1    0    0    0  501  0.00000000000E+00  0.00000000000E+00 -0.77224464259E+02  0.77224464301E+02  0.25500000920E-02 0.  1.
    10030    2    1    2    0    0  0.00000000000E+00  0.00000000000E+00  0.10518534878E+04  0.12063024164E+04  0.59056732040E+03 0.  0.
        3    1    3    3  502    0 -0.12323194113E+03 -0.17774045107E+03  0.93656196817E+03  0.96121075196E+03  0.10100000352E+00 0. -1.
       -3    1    3    3    0  502  0.12323194113E+03  0.17774045107E+03  0.11529151964E+03  0.24509166441E+03  0.10100000352E+00 0.  1.
</event>
<event>
 5   0  0.2382531E-02  0.6111385E+03  0.7818609E-02  0.9882563E-01
       -1   -1    0    0    0  501  0.00000000000E+00  0.00000000000E+00  0.20290567622E+03  0.20290567628E+03  0.50400001928E-02 0. -1.
        1   -1    0    0  501    0  0.00000000000E+00  0.00000000000E+00 -0.46017715701E+03  0.46017715704E+03  0.50400001928E-02 0.  1.
    10030    2    1    2    0    0  0.00000000000E+00  0.00000000000E+00 -0.25727148079E+03  0.66308283332E+03  0.61113846959E+03 0.  0.
        5    1    3    3  502    0 -0.23611985655E+03  0.10050471669E+03  0.51279648480E+02  0.26173550979E+03  0.46999998093E+01 0. -1.
       -5    1    3    3    0  502  0.23611985655E+03 -0.10050471669E+03 -0.30855112927E+03  0.40134732353E+03  0.46999998093E+01 0.  1.
</event>
<event>
 5   0  0.3934634E-02  0.5975949E+03  0.7818609E-02  0.9910408E-01
        2   -1    0    0  501    0  0.00000000000E+00  0.00000000000E+00  0.51151786533E+03  0.51151786534E+03  0.25500000920E-02 0. -1.
       -2   -1    0    0    0  501  0.00000000000E+00  0.00000000000E+00 -0.17453921381E+03  0.17453921383E+03  0.25500000920E-02 0.  1.
    10030    2    1    2    0    0  0.00000000000E+00  0.00000000000E+00  0.33697865152E+03  0.68605707917E+03  0.59759493329E+03 0.  0.
        1    1    3    3  502    0 -0.17436922445E+03 -0.68374870853E+02  0.43576146783E+03  0.47430771264E+03  0.50400001928E-02 0. -1.
       -1    1    3    3    0  502  0.17436922445E+03  0.68374870853E+02 -0.98782816312E+02  0.21174936653E+03  0.50400001928E-02 0.  1.
</event>
<event>
 5   0  0.3724066E-02  0.6031020E+03  0.7818609E-02  0.9898991E-01
       -2   -1    0    0    0  501  0.00000000000E+00  0.00000000000E+00  0.22759740624E+03  0.22759740625E+03  0.25500000920E-02 0.  1.
        2   -1    0    0  501    0  0.00000000000E+00  0.00000000000E+00 -0.39953447755E+03  0.39953447755E+03  0.25500000920E-02 0. -1.
    10030    2    1    2    0    0  0.00000000000E+00  0.00000000000E+00 -0.17193707131E+03  0.62713188381E+03  0.60310201724E+03 0.  0.
        4    1    3    3  502    0  0.64375549755E+02  0.25052425980E+03  0.75206518772E+02  0.26937752230E+03  0.12699999809E+01 0.  1.
       -4    1    3    3    0  502 -0.64375549755E+02 -0.25052425980E+03 -0.24714359008E+03  0.35775436150E+03  0.12699999809E+01 0. -1.
</event>
<event>
 5   0  0.2382531E-02  0.6097847E+03  0.7818609E-02  0.9885311E-01
       -1   -1    0    0    0  501  0.00000000000E+00  0.00000000000E+00  0.12381762502E+03  0.12381762512E+03  0.50400001928E-02 0. -1.
        1   -1    0    0  501    0  0.00000000000E+00  0.00000000000E+00 -0.75077643617E+03  0.75077643619E+03  0.50400001928E-02 0.  1.
    10030    2    1    2    0    0  0.00000000000E+00  0.00000000000E+00 -0.62695881115E+03  0.87459406131E+03  0.60978473348E+03 0.  0.
        5    1    3    3  502    0  0.13544479312E+03 -0.92712323702E+02 -0.68193919068E+03  0.70142997992E+03  0.46999998093E+01 0.  1.
       -5    1    3    3    0  502 -0.13544479312E+03  0.92712323702E+02  0.54980379527E+02  0.17316408138E+03  0.46999998093E+01 0. -1.
</event>
<event>
 5   0  0.2225808E-02  0.6014907E+03  0.7818609E-02  0.9902318E-01
       -1   -1    0    0    0  501  0.00000000000E+00  0.00000000000E+00  0.92019673070E+03  0.92019673072E+03  0.50400001928E-02 0. -1.
        1   -1    0    0  501    0  0.00000000000E+00  0.00000000000E+00 -0.98291782757E+02  0.98291782886E+02  0.50400001928E-02 0.  1.
    10030    2    1    2    0    0  0.00000000000E+00  0.00000000000E+00  0.82190494795E+03  0.10184885136E+04  0.60149073882E+03 0.  0.
        2    1    3    3  502    0  0.18135761100E+03 -0.16355960754E+03  0.11375784142E+03  0.26941264777E+03  0.25500000920E-02 0. -1.
       -2    1    3    3    0  502 -0.18135761100E+03  0.16355960754E+03  0.70814710652E+03  0.74907586583E+03  0.25500000920E-02 0.  1.
</event>
<event>
 5   0  0.2382531E-02  0.6447218E+03  0.7818609E-02  0.9816734E-01
       -1   -1    0    0    0  501  0.00000000000E+00  0.00000000000E+00  0.17749783017E+04  0.17749783017E+04  0.50400001928E-02 0.  1.
        1   -1    0    0  501    0  0.00000000000E+00  0.00000000000E+00 -0.58545252773E+02  0.58545252990E+02  0.50400001928E-02 0. -1.
    10030    2    1    2    0    0  0.00000000000E+00  0.00000000000E+00  0.17164330489E+04  0.18335235547E+04  0.64472181147E+03 0.  0.
        5    1    3    3  502    0 -0.21876461764E+02  0.88755340289E+02  0.17372452193E+04  0.17396548888E+04  0.46999998093E+01 0.  1.
       -5    1    3    3    0  502  0.21876461764E+02 -0.88755340289E+02 -0.20812170382E+02  0.93868665929E+02  0.46999998093E+01 0. -1.
</event>
<event>
 5   0  0.3832191E-02  0.6011374E+03  0.7818609E-02  0.9903049E-01
       -2   -1    0    0    0  501  0.00000000000E+00  0.00000000000E+00  0.56078238407E+03  0.56078238408E+03  0.25500000920E-02 0. -1.
        2   -1    0    0  501    0  0.00000000000E+00  0.00000000000E+00 -0.16109911399E+03  0.16109911401E+03  0.25500000920E-02 0.  1.
    10030    2    1    2    0    0  0.00000000000E+00  0.00000000000E+00  0.39968327009E+03  0.72188149808E+03  0.60113740600E+03 0.  0.
        3    1    3    3  502    0 -0.28914166244E+03  0.59993631090E+02  0.26712618732E+03  0.39819410704E+03  0.10100000352E+00 0. -1.
       -3    1    3    3    0  502  0.28914166244E+03 -0.59993631090E+02  0.13255708276E+03  0.32368739104E+03  0.10100000352E+00 0.  1.
</event>
<event>
 5   0  0.3798925E-02  0.5960159E+03  0.7818609E-02  0.9913706E-01
        2   -1    0    0  501    0  0.00000000000E+00  0.00000000000E+00  0.74137388669E+02  0.74137388713E+02  0.25500000920E-02 0.  1.
       -2   -1    0    0    0  501  0.00000000000E+00  0.00000000000E+00 -0.11978941279E+04  0.11978941279E+04  0.25500000920E-02 0. -1.
    10030    2    1    2    0    0  0.00000000000E+00  0.00000000000E+00 -0.11237567392E+04  0.12720315166E+04  0.59601591446E+03 0.  0.
        2    1    3    3  502    0  0.25390531418E+03 -0.49765155743E+02 -0.87745689298E+03  0.91480876599E+03  0.25500000920E-02 0.  1.
       -2    1    3    3    0  502 -0.25390531418E+03  0.49765155743E+02 -0.24629984625E+03  0.35722275062E+03  0.25500000920E-02 0. -1.
</event>
<event>
 5   0  0.3737642E-02  0.5979872E+03  0.7818609E-02  0.9909591E-01
        2   -1    0    0  501    0  0.00000000000E+00  0.00000000000E+00  0.23978826998E+03  0.23978826999E+03  0.25500000920E-02 0. -1.
       -2   -1    0    0    0  501  0.00000000000E+00  0.00000000000E+00 -0.37281717826E+03  0.37281717827E+03  0.25500000920E-02 0.  1.
    10030    2    1    2    0    0  0.00000000000E+00  0.00000000000E+00 -0.13302890828E+03  0.61260544826E+03  0.59798724468E+03 0.  0.
        5    1    3    3  502    0 -0.22298805956E+03  0.18047063279E+03 -0.15272490389E+03  0.32502355341E+03  0.46999998093E+01 0.  1.
       -5    1    3    3    0  502  0.22298805956E+03 -0.18047063279E+03  0.19695995604E+02  0.28758189485E+03  0.46999998093E+01 0. -1.
</event>
<event>
 5   0  0.2309055E-02  0.5641779E+03  0.7818609E-02  0.9982645E-01
        1   -1    0    0  501    0  0.00000000000E+00  0.00000000000E+00  0.71172479817E+03  0.71172479819E+03  0.50400001928E-02 0. -1.
       -1   -1    0    0    0  501  0.00000000000E+00  0.00000000000E+00 -0.11180470070E+03  0.11180470082E+03  0.50400001928E-02 0.  1.
    10030    2    1    2    0    0  0.00000000000E+00  0.00000000000E+00  0.59992009747E+03  0.82352949901E+03  0.56417790846E+03 0.  0.
        4    1    3    3  502    0 -0.19531685665E+03  0.47211050965E+02  0.10972947252E+02  0.20124506527E+03  0.12699999809E+01 0.  1.
       -4    1    3    3    0  502  0.19531685665E+03 -0.47211050965E+02  0.58894715022E+03  0.62228443374E+03  0.12699999809E+01 0. -1.
</event>
<event>
 5   0  0.2276105E-02  0.5948906E+03  0.7818609E-02  0.9916063E-01
        1   -1    0    0  501    0  0.00000000000E+00  0.00000000000E+00  0.95786615864E+03  0.95786615865E+03  0.50400001928E-02 0. -1.
       -1   -1    0    0    0  501  0.00000000000E+00  0.00000000000E+00 -0.92365431039E+02  0.92365431177E+02  0.50400001928E-02 0.  1.
    10030    2    1    2    0    0  0.00000000000E+00  0.00000000000E+00  0.86550072760E+03  0.10502315898E+04  0.59489064777E+03 0.  0.
        1    1    3    3  502    0 -0.19927783979E+03  0.21719744503E+03  0.50308706154E+03  0.58308059397E+03  0.50400001928E-02 0.  1.
       -1    1    3    3    0  502  0.19927783979E+03 -0.21719744503E+03  0.36241366606E+03  0.46715099586E+03  0.50400001928E-02 0. -1.
</event>
<event>
 5   0  0.3798925E-02  0.6052415E+03  0.7818609E-02  0.9894591E-01
       -2   -1    0    0    0  501  0.00000000000E+00  0.00000000000E+00  0.18095397816E+03  0.18095397818E+03  0.25500000920E-02 0.  1.
        2   -1    0    0  501    0  0.00000000000E+00  0.00000000000E+00 -0.50609170231E+03  0.50609170231E+03  0.25500000920E-02 0. -1.
    10030    2    1    2    0    0  0.00000000000E+00  0.00000000000E+00 -0.32513772415E+03  0.68704568049E+03  0.60524146208E+03 0.  0.
        2    1    3    3  502    0  0.24958882875E+03  0.38214483200E+02 -0.35192076059E+03  0.43313179507E+03  0.25500000920E-02 0. -1.
       -2    1    3    3    0  502 -0.24958882875E+03 -0.38214483200E+02  0.26783036443E+02  0.25391388542E+03  0.25500000920E-02 0.  1.
</event>
<event>
 5   0  0.2382531E-02  0.6029130E+03  0.7818609E-02  0.9899381E-01
       -1   -1    0    0    0  501  0.00000000000E+00  0.00000000000E+00  0.34042656192E+03  0.34042656196E+03  0.50400001928E-02 0. -1.
        1   -1    0    0  501    0  0.00000000000E+00  0.00000000000E+00 -0.26694748865E+03  0.26694748870E+03  0.50400001928E-02 0.  1.
    10030    2    1    2    0    0  0.00000000000E+00  0.00000000000E+00  0.73479073275E+02  0.60737405066E+03  0.60291298145E+03 0.  0.
        5    1    3    3  502    0  0.10649337824E+03  0.25083814278E+03 -0.93028621992E+02  0.28798789556E+03  0.46999998093E+01 0.  1.
       -5    1    3    3    0  502 -0.10649337824E+03 -0.25083814278E+03  0.16650769527E+03  0.31938615509E+03  0.46999998093E+01 0. -1.
</event>
<event>
 5   0  0.2309055E-02  0.5960894E+03  0.7818609E-02  0.9913553E-01
       -1   -1    0    0    0  501  0.00000000000E+00  0.00000000000E+00  0.30059204508E+03  0.30059204512E+03  0.50400001928E-02 0.  1.
        1   -1    0    0  501    0  0.00000000000E+00  0.00000000000E+00 -0.29551893356E+03  0.29551893360E+03  0.50400001928E-02 0. -1.
    10030    2    1    2    0    0  0.00000000000E+00  0.00000000000E+00  0.50731115245E+01  0.59611097873E+03  0.59608939136E+03 0.  0.
        4    1    3    3  502    0  0.23371930798E+03  0.33840983403E+02  0.18436475807E+03  0.29960291053E+03  0.12699999809E+01 0.  1.
       -4    1    3    3    0  502 -0.23371930798E+03 -0.33840983403E+02 -0.17929164655E+03  0.29650806819E+03  0.12699999809E+01 0. -1.
</event>
<event>
 5   0  0.3724066E-02  0.5996003E+03  0.7818609E-02  0.9906236E-01
        2   -1    0    0  501    0  0.00000000000E+00  0.00000000000E+00  0.15607661410E+04  0.15607661410E+04  0.25500000920E-02 0.  1.
       -2   -1    0    0    0  501  0.00000000000E+00  0.00000000000E+00 -0.57587176463E+02  0.57587176520E+02  0.25500000920E-02 0. -1.
    10030    2    1    2    0    0  0.00000000000E+00  0.00000000000E+00  0.15031789646E+04  0.16183533176E+04  0.59960025093E+03 0.  0.
        4    1    3    3  502    0 -0.87699571592E+02 -0.26689248823E+03  0.10340978712E+04  0.10715795982E+04  0.12699999809E+01 0.  1.
       -4    1    3    3    0  502  0.87699571592E+02  0.26689248823E+03  0.46908109337E+03  0.54677371936E+03  0.12699999809E+01 0. -1.
</event>
<event>
 5   0  0.2382531E-02  0.5980094E+03  0.7818609E-02  0.9909544E-01
       -1   -1    0    0    0  501  0.00000000000E+00  0.00000000000E+00  0.12885053257E+03  0.12885053267E+03  0.50400001928E-02 0.  1.
        1   -1    0    0  501    0  0.00000000000E+00  0.00000000000E+00 -0.69385681927E+03  0.69385681929E+03  0.50400001928E-02 0. -1.
    10030    2    1    2    0    0  0.00000000000E+00  0.00000000000E+00 -0.56500628670E+03  0.82270735196E+03  0.59800943384E+03 0.  0.
        5    1    3    3  502    0 -0.31561329917E+02  0.23197893564E+03 -0.53830031757E+03  0.58702612039E+03  0.46999998093E+01 0. -1.
       -5    1    3    3    0  502  0.31561329917E+02 -0.23197893564E+03 -0.26705969124E+02  0.23568123156E+03  0.46999998093E+01 0.  1.
</event>
<event>
 5   0  0.3737642E-02  0.6011753E+03  0.7818609E-02  0.9902971E-01
        2   -1    0    0  501    0  0.00000000000E+00  0.00000000000E+00  0.73073847236E+03  0.73073847237E+03  0.25500000920E-02 0.  1.
       -2   -1    0    0    0  501  0.00000000000E+00  0.00000000000E+00 -0.12364606458E+03  0.12364606460E+03  0.25500000920E-02 0. -1.
    10030    2    1    2    0    0  0.00000000000E+00  0.00000000000E+00  0.60709240778E+03  0.85438453697E+03  0.60117530341E+03 0.  0.
        5    1    3    3  502    0  0.60438157434E+02  0.75340708106E+02  0.70802869401E+03  0.71460178751E+03  0.46999998093E+01 0.  1.
       -5    1    3    3    0  502 -0.60438157434E+02 -0.75340708106E+02 -0.10093628622E+03  0.13978274946E+03  0.46999998093E+01 0. -1.
</event>
<event>
 5   0  0.3934634E-02  0.5989613E+03  0.7818609E-02  0.9907563E-01
       -2   -1    0    0    0  501  0.00000000000E+00  0.00000000000E+00  0.54865242664E+02  0.54865242724E+02  0.25500000920E-02 0.  1.
        2   -1    0    0  501    0  0.00000000000E+00  0.00000000000E+00 -0.16347079657E+04  0.16347079657E+04  0.25500000920E-02 0. -1.
    10030    2    1    2    0    0  0.00000000000E+00  0.00000000000E+00 -0.15798427230E+04  0.16895732084E+04  0.59896126510E+03 0.  0.
        1    1    3    3  502    0  0.24030171933E+03 -0.14374985068E+03 -0.10895113585E+04  0.11249195244E+04  0.50400001928E-02 0. -1.
       -1    1    3    3    0  502 -0.24030171933E+03  0.14374985068E+03 -0.49033136446E+03  0.56465368403E+03  0.50400001928E-02 0.  1.
</event>
<event>
 5   0  0.2276105E-02  0.6068088E+03  0.7818609E-02  0.9891380E-01
        1   -1    0    0  501    0  0.00000000000E+00  0.00000000000E+00  0.87323814119E+03  0.87323814120E+03  0.50400001928E-02 0. -1.
       -1   -1    0    0    0  501  0.00000000000E+00  0.00000000000E+00 -0.10541709668E+03  0.10541709680E+03  0.50400001928E-02 0.  1.
    10030    2    1    2    0    0  0.00000000000E+00  0.00000000000E+00  0.76782104451E+03  0.97865523800E+03  0.60680879894E+03 0.  0.
        1    1    3    3  502    0 -0.12225967866E+03 -0.17264234694E+03  0.33146576052E+02  0.21412964417E+03  0.50400001928E-02 0.  1.
       -1    1    3    3    0  502  0.12225967866E+03  0.17264234694E+03  0.73467446846E+03  0.76452559383E+03  0.50400001928E-02 0. -1.
</event>
<event>
 5   0  0.1521750E-02  0.5975958E+03  0.7818609E-02  0.9910407E-01
       -3   -1    0    0    0  501  0.00000000000E+00  0.00000000000E+00  0.44804506430E+03  0.44804507568E+03  0.10100000352E+00 0. -1.
        3   -1    0    0  501    0  0.00000000000E+00  0.00000000000E+00 -0.19926605176E+03  0.19926607735E+03  0.10100000352E+00 0.  1.
    10030    2    1    2    0    0  0.00000000000E+00  0.00000000000E+00  0.24877901254E+03  0.64731115304E+03  0.59759579296E+03 0.  0.
        4    1    3    3  502    0  0.13249029767E+03  0.20129347848E+03  0.31573727565E+03  0.39719564901E+03  0.12699999809E+01 0. -1.
       -4    1    3    3    0  502 -0.13249029767E+03 -0.20129347848E+03 -0.66958263104E+02  0.25011550403E+03  0.12699999809E+01 0.  1.
</event>
<event>
 5   0  0.2225808E-02  0.5982046E+03  0.7818609E-02  0.9909138E-01
       -1   -1    0    0    0  501  0.00000000000E+00  0.00000000000E+00  0.12628901233E+03  0.12628901243E+03  0.50400001928E-02 0. -1.
        1   -1    0    0  501    0  0.00000000000E+00  0.00000000000E+00 -0.70839236994E+03  0.70839236995E+03  0.50400001928E-02 0.  1.
    10030    2    1    2    0    0  0.00000000000E+00  0.00000000000E+00 -0.58210335761E+03  0.83468138238E+03  0.59820455628E+03 0.  0.
        2    1    3    3  502    0 -0.80749518854E+02  0.15889502191E+03  0.44096266357E+02  0.18360989488E+03  0.25500000920E-02 0. -1.
       -2    1    3    3    0  502  0.80749518854E+02 -0.15889502191E+03 -0.62619962397E+03  0.65107148751E+03  0.25500000920E-02 0.  1.
</event>
<event>
 5   0  0.2309055E-02  0.5973282E+03  0.7818609E-02  0.9910965E-01
        1   -1    0    0  501    0  0.00000000000E+00  0.00000000000E+00  0.47900886382E+03  0.47900886385E+03  0.50400001928E-02 0.  1.
       -1   -1    0    0    0  501  0.00000000000E+00  0.00000000000E+00 -0.18621834570E+03  0.18621834577E+03  0.50400001928E-02 0. -1.
    10030    2    1    2    0    0  0.00000000000E+00  0.00000000000E+00  0.29279051813E+03  0.66522720962E+03  0.59732817857E+03 0.  0.
        4    1    3    3  502    0 -0.18458224539E+03  0.22173888799E+03  0.23237100698E+03  0.37045463629E+03  0.12699999809E+01 0. -1.
       -4    1    3    3    0  502  0.18458224539E+03 -0.22173888799E+03  0.60419511143E+02  0.29477257333E+03  0.12699999809E+01 0.  1.
</event>
<event>
 5   0  0.2309055E-02  0.5978588E+03  0.7818609E-02  0.9909858E-01
       -1   -1    0    0    0  501  0.00000000000E+00  0.00000000000E+00  0.52279165664E+03  0.52279165667E+03  0.50400001928E-02 0. -1.
        1   -1    0    0  501    0  0.00000000000E+00  0.00000000000E+00 -0.17092617927E+03  0.17092617934E+03  0.50400001928E-02 0.  1.
    10030    2    1    2    0    0  0.00000000000E+00  0.00000000000E+00  0.35186547737E+03  0.69371783601E+03  0.59785878084E+03 0.  0.
        4    1    3    3  502    0  0.20853985600E+03 -0.23822956117E+01 -0.72559988414E+02  0.22081918325E+03  0.12699999809E+01 0.  1.
       -4    1    3    3    0  502 -0.20853985600E+03  0.23822956117E+01  0.42442546579E+03  0.47289865276E+03  0.12699999809E+01 0. -1.
</event>
<event>
 5   0  0.2276105E-02  0.5985883E+03  0.7818609E-02  0.9908339E-01
        1   -1    0    0  501    0  0.00000000000E+00  0.00000000000E+00  0.17313053959E+03  0.17313053966E+03  0.50400001928E-02 0.  1.
       -1   -1    0    0    0  501  0.00000000000E+00  0.00000000000E+00 -0.51739556716E+03  0.51739556718E+03  0.50400001928E-02 0. -1.
    10030    2    1    2    0    0  0.00000000000E+00  0.00000000000E+00 -0.34426502757E+03  0.69052610685E+03  0.59858825166E+03 0.  0.
        1    1    3    3  502    0 -0.21162150227E+03 -0.19433992970E+03 -0.26882317114E+03  0.39346863391E+03  0.50400001928E-02 0. -1.
       -1    1    3    3    0  502  0.21162150227E+03  0.19433992970E+03 -0.75441856426E+02  0.29705747294E+03  0.50400001928E-02 0.  1.
</event>
<event>
 5   0  0.3737642E-02  0.5984916E+03  0.7818609E-02  0.9908540E-01
        2   -1    0    0  501    0  0.00000000000E+00  0.00000000000E+00  0.92548433554E+03  0.92548433554E+03  0.25500000920E-02 0.  1.
       -2   -1    0    0    0  501  0.00000000000E+00  0.00000000000E+00 -0.96758051614E+02  0.96758051648E+02  0.25500000920E-02 0. -1.
    10030    2    1    2    0    0  0.00000000000E+00  0.00000000000E+00  0.82872628392E+03  0.10222423872E+04  0.59849164113E+03 0.  0.
        5    1    3    3  502    0  0.35408681449E+02 -0.16404312008E+02  0.92105598359E+03  0.92189429496E+03  0.46999998093E+01 0.  1.
       -5    1    3    3    0  502 -0.35408681449E+02  0.16404312008E+02 -0.92329699669E+02  0.10034809223E+03  0.46999998093E+01 0. -1.
</event>
<event>
 5   0  0.3798925E-02  0.5973694E+03  0.7818609E-02  0.9910879E-01
       -2   -1    0    0    0  501  0.00000000000E+00  0.00000000000E+00  0.22049857158E+03  0.22049857159E+03  0.25500000920E-02 0. -1.
        2   -1    0    0  501    0  0.00000000000E+00  0.00000000000E+00 -0.40459465898E+03  0.40459465899E+03  0.25500000920E-02 0.  1.
    10030    2    1    2    0    0  0.00000000000E+00  0.00000000000E+00 -0.18409608740E+03  0.62509323058E+03  0.59736938114E+03 0.  0.
        2    1    3    3  502    0 -0.24227680260E+03  0.66362951257E+02 -0.26113458817E+03  0.36234426106E+03  0.25500000920E-02 0.  1.
       -2    1    3    3    0  502  0.24227680260E+03 -0.66362951257E+02  0.77038500765E+02  0.26274896952E+03  0.25500000920E-02 0. -1.
</event>
<event>
 5   0  0.2225808E-02  0.5375062E+03  0.7818609E-02  0.1004428E+00
        1   -1    0    0  501    0  0.00000000000E+00  0.00000000000E+00  0.73974157421E+03  0.73974157423E+03  0.50400001928E-02 0.  1.
       -1   -1    0    0    0  501  0.00000000000E+00  0.00000000000E+00 -0.97639812339E+02  0.97639812469E+02  0.50400001928E-02 0. -1.
    10030    2    1    2    0    0  0.00000000000E+00  0.00000000000E+00  0.64210176188E+03  0.83738138670E+03  0.53750619921E+03 0.  0.
        2    1    3    3  502    0  0.26524371416E+03 -0.36747872236E+02  0.35669906198E+03  0.44602562128E+03  0.25500000920E-02 0.  1.
       -2    1    3    3    0  502 -0.26524371416E+03  0.36747872236E+02  0.28540269990E+03  0.39135576542E+03  0.25500000920E-02 0. -1.
</event>
<event>
 5   0  0.2309055E-02  0.6033880E+03  0.7818609E-02  0.9898402E-01
        1   -1    0    0  501    0  0.00000000000E+00  0.00000000000E+00  0.35352396984E+03  0.35352396987E+03  0.50400001928E-02 0.  1.
       -1   -1    0    0    0  501  0.00000000000E+00  0.00000000000E+00 -0.25746282071E+03  0.25746282076E+03  0.50400001928E-02 0. -1.
    10030    2    1    2    0    0  0.00000000000E+00  0.00000000000E+00  0.96061149123E+02  0.61098679063E+03  0.60338802935E+03 0.  0.
        4    1    3    3  502    0 -0.18173228666E+03  0.85716689582E+02 -0.17984501484E+03  0.26966612162E+03  0.12699999809E+01 0. -1.
       -4    1    3    3    0  502  0.18173228666E+03 -0.85716689582E+02  0.27590616396E+03  0.34132066902E+03  0.12699999809E+01 0.  1.
</event>
<event>
 5   0  0.2276105E-02  0.6031265E+03  0.7818609E-02  0.9898941E-01
        1   -1    0    0  501    0  0.00000000000E+00  0.00000000000E+00  0.29226185434E+03  0.29226185438E+03  0.50400001928E-02 0. -1.
       -1   -1    0    0    0  501  0.00000000000E+00  0.00000000000E+00 -0.31116062736E+03  0.31116062741E+03  0.50400001928E-02 0.  1.
    10030    2    1    2    0    0  0.00000000000E+00  0.00000000000E+00 -0.18898773024E+02  0.60342248179E+03  0.60312646096E+03 0.  0.
        1    1    3    3  502    0  0.19758000003E+03 -0.17627787732E+03 -0.15384151355E+03  0.30623350203E+03  0.50400001928E-02 0.  1.
       -1    1    3    3    0  502 -0.19758000003E+03  0.17627787732E+03  0.13494274053E+03  0.29718897976E+03  0.50400001928E-02 0. -1.
</event>
<event>
 5   0  0.2276105E-02  0.6004672E+03  0.7818609E-02  0.9904437E-01
       -1   -1    0    0    0  501  0.00000000000E+00  0.00000000000E+00  0.42064101125E+03  0.42064101128E+03  0.50400001928E-02 0.  1.
        1   -1    0    0  501    0  0.00000000000E+00  0.00000000000E+00 -0.21429249729E+03  0.21429249735E+03  0.50400001928E-02 0. -1.
    10030    2    1    2    0    0  0.00000000000E+00  0.00000000000E+00  0.20634851396E+03  0.63493350863E+03  0.60046719409E+03 0.  0.
        1    1    3    3  502    0 -0.26784593925E+03  0.10046934126E+03  0.68134702935E+01  0.28615023870E+03  0.50400001928E-02 0.  1.
       -1    1    3    3    0  502  0.26784593925E+03 -0.10046934126E+03  0.19953504366E+03  0.34878326993E+03  0.50400001928E-02 0. -1.
</event>
<event>
 5   0  0.1521750E-02  0.6003270E+03  0.7818609E-02  0.9904728E-01
       -3   -1    0    0    0  501  0.00000000000E+00  0.00000000000E+00  0.11227924350E+03  0.11227928892E+03  0.10100000352E+00 0. -1.
        3   -1    0    0  501    0  0.00000000000E+00  0.00000000000E+00 -0.80244659178E+03  0.80244659813E+03  0.10100000352E+00 0.  1.
    10030    2    1    2    0    0  0.00000000000E+00  0.00000000000E+00 -0.69016734828E+03  0.91472588706E+03  0.60032697742E+03 0.  0.
        5    1    3    3  502    0 -0.89315085318E+01  0.28495547983E+03 -0.20217409595E+03  0.34953662527E+03  0.46999998093E+01 0.  1.
       -5    1    3    3    0  502  0.89315085318E+01 -0.28495547983E+03 -0.48799325233E+03  0.56518926179E+03  0.46999998093E+01 0. -1.
</event>
<event>
 5   0  0.2225808E-02  0.5597756E+03  0.7818609E-02  0.9992563E-01
       -1   -1    0    0    0  501  0.00000000000E+00  0.00000000000E+00  0.80417741919E+02  0.80417742077E+02  0.50400001928E-02 0. -1.
        1   -1    0    0  501    0  0.00000000000E+00  0.00000000000E+00 -0.97412794968E+03  0.97412794969E+03  0.50400001928E-02 0.  1.
    10030    2    1    2    0    0  0.00000000000E+00  0.00000000000E+00 -0.89371020776E+03  0.10545456918E+04  0.55977556268E+03 0.  0.
        2    1    3    3  502    0 -0.62048967739E+02  0.72328933032E+02 -0.94262366309E+03  0.94742858263E+03  0.25500000920E-02 0.  1.
       -2    1    3    3    0  502  0.62048967739E+02 -0.72328933032E+02  0.48913455335E+02  0.10711710914E+03  0.25500000920E-02 0. -1.
</event>
<event>
 5   0  0.2309055E-02  0.6022305E+03  0.7818609E-02  0.9900789E-01
       -1   -1    0    0    0  501  0.00000000000E+00  0.00000000000E+00  0.15881540489E+03  0.15881540497E+03  0.50400001928E-02 0. -1.
        1   -1    0    0  501    0  0.00000000000E+00  0.00000000000E+00 -0.57091690899E+03  0.57091690901E+03  0.50400001928E-02 0.  1.
    10030    2    1    2    0    0  0.00000000000E+00  0.00000000000E+00 -0.41210150410E+03  0.72973231398E+03  0.60223052097E+03 0.  0.
        4    1    3    3  502    0  0.23378000671E+03 -0.18200573738E+03 -0.14091488131E+03  0.32808199684E+03  0.12699999809E+01 0.  1.
       -4    1    3    3    0  502 -0.23378000671E+03  0.18200573738E+03 -0.27118662279E+03  0.40165031714E+03  0.12699999809E+01 0. -1.
</event>
<event>
 5   0  0.2295179E-02  0.6004349E+03  0.7818609E-02  0.9904504E-01
       -1   -1    0    0    0  501  0.00000000000E+00  0.00000000000E+00  0.16884210790E+03  0.16884210798E+03  0.50400001928E-02 0. -1.
        1   -1    0    0  501    0  0.00000000000E+00  0.00000000000E+00 -0.53381546845E+03  0.53381546848E+03  0.50400001928E-02 0.  1.
    10030    2    1    2    0    0  0.00000000000E+00  0.00000000000E+00 -0.36497336055E+03  0.70265757646E+03  0.60043493889E+03 0.  0.
        3    1    3    3  502    0  0.14372811230E+03 -0.20153720560E+03  0.16302207715E+02  0.24807415763E+03  0.10100000352E+00 0. -1.
       -3    1    3    3    0  502 -0.14372811230E+03  0.20153720560E+03 -0.38127556827E+03  0.45458341882E+03  0.10100000352E+00 0.  1.
</event>
<event>
 5   0  0.3798925E-02  0.6007976E+03  0.7818609E-02  0.9903753E-01
       -2   -1    0    0    0  501  0.00000000000E+00  0.00000000000E+00  0.15707845883E+03  0.15707845885E+03  0.25500000920E-02 0. -1.
        2   -1    0    0  501    0  0.00000000000E+00  0.00000000000E+00 -0.57448645883E+03  0.57448645883E+03  0.25500000920E-02 0.  1.
    10030    2    1    2    0    0  0.00000000000E+00  0.00000000000E+00 -0.41740800000E+03  0.73156491768E+03  0.60079762842E+03 0.  0.
        2    1    3    3  502    0  0.34918178005E+02  0.52862222483E+02 -0.56625925146E+03  0.56979227232E+03  0.25500000920E-02 0.  1.
       -2    1    3    3    0  502 -0.34918178005E+02 -0.52862222483E+02  0.14885125146E+03  0.16177264536E+03  0.25500000920E-02 0. -1.
</event>
<event>
 5   0  0.2382531E-02  0.6165769E+03  0.7818609E-02  0.9871599E-01
        1   -1    0    0  501    0  0.00000000000E+00  0.00000000000E+00  0.10064291531E+03  0.10064291544E+03  0.50400001928E-02 0.  1.
       -1   -1    0    0    0  501  0.00000000000E+00  0.00000000000E+00 -0.94434644748E+03  0.94434644749E+03  0.50400001928E-02 0. -1.
    10030    2    1    2    0    0  0.00000000000E+00  0.00000000000E+00 -0.84370353217E+03  0.10449893629E+04  0.61657693636E+03 0.  0.
        5    1    3    3  502    0  0.22854494749E+03  0.20876933972E+02 -0.77063587243E+03  0.80409600003E+03  0.46999998093E+01 0. -1.
       -5    1    3    3    0  502 -0.22854494749E+03 -0.20876933972E+02 -0.73067659737E+02  0.24089336290E+03  0.46999998093E+01 0.  1.
</event>
<event>
 5   0  0.3934634E-02  0.5991114E+03  0.7818609E-02  0.9907251E-01
        2   -1    0    0  501    0  0.00000000000E+00  0.00000000000E+00  0.37256660583E+03  0.37256660584E+03  0.25500000920E-02 0.  1.
       -2   -1    0    0    0  501  0.00000000000E+00  0.00000000000E+00 -0.24085253464E+03  0.24085253465E+03  0.25500000920E-02 0. -1.
    10030    2    1    2    0    0  0.00000000000E+00  0.00000000000E+00  0.13171407119E+03  0.61341914049E+03  0.59911137977E+03 0.  0.
        1    1    3    3  502    0  0.29877553094E+03  0.15671366486E+02  0.50628996488E+02  0.30343978798E+03  0.50400001928E-02 0. -1.
       -1    1    3    3    0  502 -0.29877553094E+03 -0.15671366486E+02  0.81085074707E+02  0.30997935251E+03  0.50400001928E-02 0.  1.
</event>
<event>
 5   0  0.2295179E-02  0.5977532E+03  0.7818609E-02  0.9910079E-01
       -1   -1    0    0    0  501  0.00000000000E+00  0.00000000000E+00  0.21051647008E+03  0.21051647014E+03  0.50400001928E-02 0.  1.
        1   -1    0    0  501    0  0.00000000000E+00  0.00000000000E+00 -0.42432408144E+03  0.42432408147E+03  0.50400001928E-02 0. -1.
    10030    2    1    2    0    0  0.00000000000E+00  0.00000000000E+00 -0.21380761136E+03  0.63484055161E+03  0.59775315248E+03 0.  0.
        3    1    3    3  502    0 -0.21216588065E+03 -0.16490457814E+03 -0.24586258800E+03  0.36422013012E+03  0.10100000352E+00 0.  1.
       -3    1    3    3    0  502  0.21216588065E+03  0.16490457814E+03  0.32054976639E+02  0.27062042150E+03  0.10100000352E+00 0. -1.
</event>
<event>
 5   0  0.3934634E-02  0.6015005E+03  0.7818609E-02  0.9902298E-01
       -2   -1    0    0    0  501  0.00000000000E+00  0.00000000000E+00  0.39055218298E+03  0.39055218298E+03  0.25500000920E-02 0.  1.
        2   -1    0    0  501    0  0.00000000000E+00  0.00000000000E+00 -0.23159697997E+03  0.23159697998E+03  0.25500000920E-02 0. -1.
    10030    2    1    2    0    0  0.00000000000E+00  0.00000000000E+00  0.15895520301E+03  0.62214916297E+03  0.60150047749E+03 0.  0.
        1    1    3    3  502    0  0.16469962955E+03  0.17076797342E+03 -0.11169990050E+03  0.26222993063E+03  0.50400001928E-02 0. -1.
       -1    1    3    3    0  502 -0.16469962955E+03 -0.17076797342E+03  0.27065510351E+03  0.35991923233E+03  0.50400001928E-02 0.  1.
</event>
<event>
 5   0  0.2276105E-02  0.5989241E+03  0.7818609E-02  0.9907641E-01
        1   -1    0    0  501    0  0.00000000000E+00  0.00000000000E+00  0.58337283187E+03  0.58337283190E+03  0.50400001928E-02 0. -1.
       -1   -1    0    0    0  501  0.00000000000E+00  0.00000000000E+00 -0.15372245841E+03  0.15372245849E+03  0.50400001928E-02 0.  1.
    10030    2    1    2    0    0  0.00000000000E+00  0.00000000000E+00  0.42965037346E+03  0.73709529039E+03  0.59892405503E+03 0.  0.
        1    1    3    3  502    0  0.16753075514E+03 -0.16943782284E+03  0.43805980899E+03  0.49867035806E+03  0.50400001928E-02 0. -1.
       -1    1    3    3    0  502 -0.16753075514E+03  0.16943782284E+03 -0.84094355242E+01  0.23842493233E+03  0.50400001928E-02 0.  1.
</event>
<event>
 5   0  0.3737642E-02  0.6089402E+03  0.7818609E-02  0.9887030E-01
       -2   -1    0    0    0  501  0.00000000000E+00  0.00000000000E+00  0.11256051899E+03  0.11256051902E+03  0.25500000920E-02 0. -1.
        2   -1    0    0  501    0  0.00000000000E+00  0.00000000000E+00 -0.82357511014E+03  0.82357511014E+03  0.25500000920E-02 0.  1.
    10030    2    1    2    0    0  0.00000000000E+00  0.00000000000E+00 -0.71101459114E+03  0.93613562916E+03  0.60894020015E+03 0.  0.
        5    1    3    3  502    0  0.29564347802E+03  0.62699956410E+02 -0.29915659461E+03  0.42526827854E+03  0.46999998093E+01 0. -1.
       -5    1    3    3    0  502 -0.29564347802E+03 -0.62699956410E+02 -0.41185799653E+03  0.51086735062E+03  0.46999998093E+01 0.  1.
</event>
<event>
 5   0  0.2225808E-02  0.5976647E+03  0.7818609E-02  0.9910263E-01
        1   -1    0    0  501    0  0.00000000000E+00  0.00000000000E+00  0.20010412234E+04  0.20010412234E+04  0.50400001928E-02 0. -1.
       -1   -1    0    0    0  501  0.00000000000E+00  0.00000000000E+00 -0.44627158108E+02  0.44627158392E+02  0.50400001928E-02 0.  1.
    10030    2    1    2    0    0  0.00000000000E+00  0.00000000000E+00  0.19564140653E+04  0.20456683818E+04  0.59766473329E+03 0.  0.
        2    1    3    3  502    0 -0.29029833486E+03  0.65307842038E+02  0.88368988720E+03  0.93244091190E+03  0.25500000920E-02 0.  1.
       -2    1    3    3    0  502  0.29029833486E+03 -0.65307842038E+02  0.10727241781E+04  0.11132274699E+04  0.25500000920E-02 0. -1.
</event>
<event>
 5   0  0.3832191E-02  0.6008696E+03  0.7818609E-02  0.9903604E-01
        2   -1    0    0  501    0  0.00000000000E+00  0.00000000000E+00  0.26495855547E+03  0.26495855549E+03  0.25500000920E-02 0.  1.
       -2   -1    0    0    0  501  0.00000000000E+00  0.00000000000E+00 -0.34066103003E+03  0.34066103004E+03  0.25500000920E-02 0. -1.
    10030    2    1    2    0    0  0.00000000000E+00  0.00000000000E+00 -0.75702474560E+02  0.60561958553E+03  0.60086955133E+03 0.  0.
        3    1    3    3  502    0 -0.20364207994E+03  0.53204115850E+02  0.17822698506E+03  0.27580000556E+03  0.10100000352E+00 0.  1.
       -3    1    3    3    0  502  0.20364207994E+03 -0.53204115850E+02 -0.25392945962E+03  0.32981957997E+03  0.10100000352E+00 0. -1.
</event>
<event>
 5   0  0.3798925E-02  0.6006627E+03  0.7818609E-02  0.9904032E-01
       -2   -1    0    0    0  501  0.00000000000E+00  0.00000000000E+00  0.11469259023E+03  0.11469259026E+03  0.25500000920E-02 0.  1.
        2   -1    0    0  501    0  0.00000000000E+00  0.00000000000E+00 -0.78644071446E+03  0.78644071447E+03  0.25500000920E-02 0. -1.
    10030    2    1    2    0    0  0.00000000000E+00  0.00000000000E+00 -0.67174812423E+03  0.90113330473E+03  0.60066270942E+03 0.  0.
        2    1    3    3  502    0  0.13113584083E+03  0.18733184700E+03 -0.43775064317E+02  0.23282200479E+03  0.25500000920E-02 0.  1.
       -2    1    3    3    0  502 -0.13113584083E+03 -0.18733184700E+03 -0.62797305991E+03  0.66831129994E+03  0.25500000920E-02 0. -1.
</event>
<event>
 5   0  0.1521750E-02  0.5991008E+03  0.7818609E-02  0.9907273E-01
        4   -1    0    0  501    0  0.00000000000E+00  0.00000000000E+00  0.81154831385E+03  0.81154930757E+03  0.12699999809E+01 0. -1.
       -4   -1    0    0    0  501  0.00000000000E+00  0.00000000000E+00 -0.11056226429E+03  0.11056955813E+03  0.12699999809E+01 0.  1.
    10030    2    1    2    0    0  0.00000000000E+00  0.00000000000E+00  0.70098604956E+03  0.92211886570E+03  0.59910079352E+03 0.  0.
        1    1    3    3  502    0 -0.36763439331E+02  0.11170055323E+03  0.77453931481E+03  0.78341541615E+03  0.50400001928E-02 0. -1.
       -1    1    3    3    0  502  0.36763439331E+02 -0.11170055323E+03 -0.73553265244E+02  0.13870344955E+03  0.50400001928E-02 0.  1.
</event>
<event>
 5   0  0.3737642E-02  0.5997260E+03  0.7818609E-02  0.9905975E-01
        2   -1    0    0  501    0  0.00000000000E+00  0.00000000000E+00  0.22679357363E+03  0.22679357364E+03  0.25500000920E-02 0. -1.
       -2   -1    0    0    0  501  0.00000000000E+00  0.00000000000E+00 -0.39647428100E+03  0.39647428100E+03  0.25500000920E-02 0.  1.
    10030    2    1    2    0    0  0.00000000000E+00  0.00000000000E+00 -0.16968070737E+03  0.62326785464E+03  0.59972600092E+03 0.  0.
        5    1    3    3  502    0 -0.14118019670E+03  0.18144129897E+03 -0.28486087370E+03  0.36608824110E+03  0.46999998093E+01 0.  1.
       -5    1    3    3    0  502  0.14118019670E+03 -0.18144129897E+03  0.11518016633E+03  0.25717961354E+03  0.46999998093E+01 0. -1.
</event>
<event>
 5   0  0.3737642E-02  0.6102990E+03  0.7818609E-02  0.9884266E-01
        2   -1    0    0  501    0  0.00000000000E+00  0.00000000000E+00  0.76529042762E+03  0.76529042762E+03  0.25500000920E-02 0. -1.
       -2   -1    0    0    0  501  0.00000000000E+00  0.00000000000E+00 -0.12167435520E+03  0.12167435523E+03  0.25500000920E-02 0.  1.
    10030    2    1    2    0    0  0.00000000000E+00  0.00000000000E+00  0.64361607242E+03  0.88696478285E+03  0.61029900650E+03 0.  0.
        5    1    3    3  502    0  0.25997292448E+03  0.15933228114E+03  0.30579290890E+03  0.43186119345E+03  0.46999998093E+01 0. -1.
       -5    1    3    3    0  502 -0.25997292448E+03 -0.15933228114E+03  0.33782316352E+03  0.45510358940E+03  0.46999998093E+01 0.  1.
</event>
<event>
 5   0  0.3832191E-02  0.6016078E+03  0.7818609E-02  0.9902076E-01
       -2   -1    0    0    0  501  0.00000000000E+00  0.00000000000E+00  0.62042768822E+03  0.62042768823E+03  0.25500000920E-02 0. -1.
        2   -1    0    0  501    0  0.00000000000E+00  0.00000000000E+00 -0.14583967731E+03  0.14583967733E+03  0.25500000920E-02 0.  1.
    10030    2    1    2    0    0  0.00000000000E+00  0.00000000000E+00  0.47458801092E+03  0.76626736556E+03  0.60160775877E+03 0.  0.
        3    1    3    3  502    0 -0.12580841336E+03  0.88447165973E+02 -0.91982029288E+02  0.17919643399E+03  0.10100000352E+00 0.  1.
       -3    1    3    3    0  502  0.12580841336E+03 -0.88447165973E+02  0.56657004020E+03  0.58707093157E+03  0.10100000352E+00 0. -1.
</event>
<event>
 5   0  0.3934634E-02  0.6031189E+03  0.7818609E-02  0.9898956E-01
       -2   -1    0    0    0  501  0.00000000000E+00  0.00000000000E+00  0.88253549692E+02  0.88253549728E+02  0.25500000920E-02 0.  1.
        2   -1    0    0  501    0  0.00000000000E+00  0.00000000000E+00 -0.10304186858E+04  0.10304186858E+04  0.25500000920E-02 0. -1.
    10030    2    1    2    0    0  0.00000000000E+00  0.00000000000E+00 -0.94216513613E+03  0.11186722356E+04  0.60311891602E+03 0.  0.
        1    1    3    3  502    0  0.23364474527E+03  0.19037171998E+03 -0.45190988174E+03  0.54318854922E+03  0.50400001928E-02 0.  1.
       -1    1    3    3    0  502 -0.23364474527E+03 -0.19037171998E+03 -0.49025525439E+03  0.57548368633E+03  0.50400001928E-02 0. -1.
</event>
<event>
 5   0  0.2382531E-02  0.6220453E+03  0.7818609E-02  0.9860696E-01
        1   -1    0    0  501    0  0.00000000000E+00  0.00000000000E+00  0.16775910886E+03  0.16775910894E+03  0.50400001928E-02 0.  1.
       -1   -1    0    0    0  501  0.00000000000E+00  0.00000000000E+00 -0.57663085648E+03  0.57663085650E+03  0.50400001928E-02 0. -1.
    10030    2    1    2    0    0  0.00000000000E+00  0.00000000000E+00 -0.40887174762E+03  0.74438996544E+03  0.62204526736E+03 0.  0.
        5    1    3    3  502    0 -0.20320552716E+03  0.22686707423E+03 -0.27966357881E+03  0.41351537208E+03  0.46999998093E+01 0. -1.
       -5    1    3    3    0  502  0.20320552716E+03 -0.22686707423E+03 -0.12920816881E+03  0.33087459335E+03  0.46999998093E+01 0.  1.
</event>
<event>
 5   0  0.2276105E-02  0.6027458E+03  0.7818609E-02  0.9899726E-01
        1   -1    0    0  501    0  0.00000000000E+00  0.00000000000E+00  0.35167006487E+03  0.35167006491E+03  0.50400001928E-02 0. -1.
       -1   -1    0    0    0  501  0.00000000000E+00  0.00000000000E+00 -0.25826942108E+03  0.25826942113E+03  0.50400001928E-02 0.  1.
    10030    2    1    2    0    0  0.00000000000E+00  0.00000000000E+00  0.93400643794E+02  0.60993948603E+03  0.60274579746E+03 0.  0.
        1    1    3    3  502    0  0.43893456290E+02  0.25226121855E+03 -0.11414087912E+03  0.28033996897E+03  0.50400001928E-02 0.  1.
       -1    1    3    3    0  502 -0.43893456290E+02 -0.25226121855E+03  0.20754152292E+03  0.32959951706E+03  0.50400001928E-02 0. -1.
</event>
<event>
 5   0  0.1521750E-02  0.6123077E+03  0.7818609E-02  0.9880195E-01
       -3   -1    0    0    0  501  0.00000000000E+00  0.00000000000E+00  0.33273141870E+03  0.33273143403E+03  0.10100000352E+00 0.  1.
        3   -1    0    0  501    0  0.00000000000E+00  0.00000000000E+00 -0.28169919795E+03  0.28169921606E+03  0.10100000352E+00 0. -1.
    10030    2    1    2    0    0  0.00000000000E+00  0.00000000000E+00  0.51032220751E+02  0.61443065009E+03  0.61230771366E+03 0.  0.
        2    1    3    3  502    0 -0.16823048463E+03  0.21684088661E+03  0.16166525384E+03  0.31852334352E+03  0.25500000920E-02 0.  1.
       -2    1    3    3    0  502  0.16823048463E+03 -0.21684088661E+03 -0.11063303309E+03  0.29590730657E+03  0.25500000920E-02 0. -1.
</event>
<event>
 5   0  0.3798925E-02  0.6008172E+03  0.7818609E-02  0.9903712E-01
       -2   -1    0    0    0  501  0.00000000000E+00  0.00000000000E+00  0.63229851153E+03  0.63229851154E+03  0.25500000920E-02 0. -1.
        2   -1    0    0  501    0  0.00000000000E+00  0.00000000000E+00 -0.14272581434E+03  0.14272581437E+03  0.25500000920E-02 0.  1.
    10030    2    1    2    0    0  0.00000000000E+00  0.00000000000E+00  0.48957269719E+03  0.77502432590E+03  0.60081717678E+03 0.  0.
        2    1    3    3  502    0  0.12905973969E+03  0.75409194763E+02  0.58092265094E+03  0.59984505453E+03  0.25500000920E-02 0. -1.
       -2    1    3    3    0  502 -0.12905973969E+03 -0.75409194763E+02 -0.91349953747E+02  0.17517927138E+03  0.25500000920E-02 0.  1.
</event>
<event>
 5   0  0.2225808E-02  0.6182515E+03  0.7818609E-02  0.9868247E-01
        1   -1    0    0  501    0  0.00000000000E+00  0.00000000000E+00  0.97986583966E+02  0.97986584095E+02  0.50400001928E-02 0. -1.
       -1   -1    0    0    0  501  0.00000000000E+00  0.00000000000E+00 -0.97522268512E+03  0.97522268514E+03  0.50400001928E-02 0.  1.
    10030    2    1    2    0    0  0.00000000000E+00  0.00000000000E+00 -0.87723610116E+03  0.10732092692E+04  0.61825153327E+03 0.  0.
        2    1    3    3  502    0 -0.27267655201E+02 -0.31855523112E+02  0.93026848304E+02  0.10204064820E+03  0.25500000920E-02 0. -1.
       -2    1    3    3    0  502  0.27267655201E+02  0.31855523112E+02 -0.97026294946E+03  0.97116862103E+03  0.25500000920E-02 0.  1.
</event>
<event>
 5   0  0.3832191E-02  0.5981109E+03  0.7818609E-02  0.9909333E-01
       -2   -1    0    0    0  501  0.00000000000E+00  0.00000000000E+00  0.26725529357E+03  0.26725529359E+03  0.25500000920E-02 0. -1.
        2   -1    0    0  501    0  0.00000000000E+00  0.00000000000E+00 -0.33463942938E+03  0.33463942939E+03  0.25500000920E-02 0.  1.
    10030    2    1    2    0    0  0.00000000000E+00  0.00000000000E+00 -0.67384135806E+02  0.60189472297E+03  0.59811088921E+03 0.  0.
        3    1    3    3  502    0 -0.22311842193E+03 -0.21234068927E+02  0.16555401730E+03  0.27864109305E+03  0.10100000352E+00 0. -1.
       -3    1    3    3    0  502  0.22311842193E+03  0.21234068927E+02 -0.23293815310E+03  0.32325362993E+03  0.10100000352E+00 0.  1.
</event>
<event>
 5   0  0.3737642E-02  0.5955506E+03  0.7818609E-02  0.9914680E-01
        2   -1    0    0  501    0  0.00000000000E+00  0.00000000000E+00  0.13240683327E+04  0.13240683327E+04  0.25500000920E-02 0. -1.
       -2   -1    0    0    0  501  0.00000000000E+00  0.00000000000E+00 -0.66967938254E+02  0.66967938303E+02  0.25500000920E-02 0.  1.
    10030    2    1    2    0    0  0.00000000000E+00  0.00000000000E+00  0.12571003945E+04  0.13910362710E+04  0.59555059025E+03 0.  0.
        5    1    3    3  502    0  0.99569081922E+02 -0.11539463868E+03  0.12259551198E+04  0.12354019469E+04  0.46999998093E+01 0. -1.
       -5    1    3    3    0  502 -0.99569081922E+02  0.11539463868E+03  0.31145274692E+02  0.15563432412E+03  0.46999998093E+01 0.  1.
</event>
<event>
 5   0  0.1521750E-02  0.6439438E+03  0.7818609E-02  0.9818210E-01
        3   -1    0    0  501    0  0.00000000000E+00  0.00000000000E+00  0.18024332036E+03  0.18024334865E+03  0.10100000352E+00 0. -1.
       -3   -1    0    0    0  501  0.00000000000E+00  0.00000000000E+00 -0.57514418047E+03  0.57514418934E+03  0.10100000352E+00 0.  1.
    10030    2    1    2    0    0  0.00000000000E+00  0.00000000000E+00 -0.39490086012E+03  0.75538753799E+03  0.64394381994E+03 0.  0.
        2    1    3    3  502    0 -0.11630312206E+03  0.19286436100E+03 -0.46736443803E+03  0.51879918648E+03  0.25500000920E-02 0.  1.
       -2    1    3    3    0  502  0.11630312206E+03 -0.19286436100E+03  0.72463577918E+02  0.23658835152E+03  0.25500000920E-02 0. -1.
</event>
<event>
 5   0  0.2295179E-02  0.5603450E+03  0.7818609E-02  0.9991274E-01
        1   -1    0    0  501    0  0.00000000000E+00  0.00000000000E+00  0.20959102254E+04  0.20959102254E+04  0.50400001928E-02 0.  1.
       -1   -1    0    0    0  501  0.00000000000E+00  0.00000000000E+00 -0.37452282784E+02  0.37452283123E+02  0.50400001928E-02 0. -1.
    10030    2    1    2    0    0  0.00000000000E+00  0.00000000000E+00  0.20584579427E+04  0.21333625086E+04  0.56034497525E+03 0.  0.
        3    1    3    3  502    0 -0.12838771384E+03  0.16667051088E+03  0.32479719089E+03  0.38698280282E+03  0.10100000352E+00 0. -1.
       -3    1    3    3    0  502  0.12838771384E+03 -0.16667051088E+03  0.17336607518E+04  0.17463797058E+04  0.10100000352E+00 0.  1.
</event>
<event>
 5   0  0.2382531E-02  0.5993953E+03  0.7818609E-02  0.9906661E-01
        1   -1    0    0  501    0  0.00000000000E+00  0.00000000000E+00  0.21933054321E+03  0.21933054326E+03  0.50400001928E-02 0.  1.
       -1   -1    0    0    0  501  0.00000000000E+00  0.00000000000E+00 -0.40951284677E+03  0.40951284680E+03  0.50400001928E-02 0. -1.
    10030    2    1    2    0    0  0.00000000000E+00  0.00000000000E+00 -0.19018230356E+03  0.62884339006E+03  0.59939527912E+03 0.  0.
        5    1    3    3  502    0 -0.29268039406E+03  0.31926794939E+02 -0.15364961955E+03  0.33213164392E+03  0.46999998093E+01 0.  1.
       -5    1    3    3    0  502  0.29268039406E+03 -0.31926794939E+02 -0.36532684004E+02  0.29671174615E+03  0.46999998093E+01 0. -1.
</event>
<event>
 5   0  0.3934634E-02  0.5996089E+03  0.7818609E-02  0.9906218E-01
        2   -1    0    0  501    0  0.00000000000E+00  0.00000000000E+00  0.80810798641E+03  0.80810798641E+03  0.25500000920E-02 0. -1.
       -2   -1    0    0    0  501  0.00000000000E+00  0.00000000000E+00 -0.11122612650E+03  0.11122612653E+03  0.25500000920E-02 0.  1.
    10030    2    1    2    0    0  0.00000000000E+00  0.00000000000E+00  0.69688185991E+03  0.91933411294E+03  0.59960894301E+03 0.  0.
        1    1    3    3  502    0 -0.66165392700E+02  0.12105114932E+02  0.79638957146E+03  0.79922508879E+03  0.50400001928E-02 0. -1.
       -1    1    3    3    0  502  0.66165392700E+02 -0.12105114932E+02 -0.99507711547E+02  0.12010902415E+03  0.50400001928E-02 0.  1.
</event>
<event>
 5   0  0.3724066E-02  0.6007158E+03  0.7818609E-02  0.9903922E-01
       -2   -1    0    0    0  501  0.00000000000E+00  0.00000000000E+00  0.10326312370E+03  0.10326312374E+03  0.25500000920E-02 0.  1.
        2   -1    0    0  501    0  0.00000000000E+00  0.00000000000E+00 -0.87364061887E+03  0.87364061887E+03  0.25500000920E-02 0. -1.
    10030    2    1    2    0    0  0.00000000000E+00  0.00000000000E+00 -0.77037749516E+03  0.97690374260E+03  0.60071577078E+03 0.  0.
        4    1    3    3  502    0 -0.66837848928E+02  0.21191098625E+02 -0.86014031699E+03  0.86299440237E+03  0.12699999809E+01 0. -1.
       -4    1    3    3    0  502  0.66837848928E+02 -0.21191098625E+02  0.89762821829E+02  0.11390934024E+03  0.12699999809E+01 0.  1.
</event>
<event>
 5   0  0.1521750E-02  0.5964794E+03  0.7818609E-02  0.9912737E-01
       -4   -1    0    0    0  501  0.00000000000E+00  0.00000000000E+00  0.52693984505E+03  0.52694137549E+03  0.12699999809E+01 0.  1.
        4   -1    0    0  501    0  0.00000000000E+00  0.00000000000E+00 -0.16879484781E+03  0.16879962544E+03  0.12699999809E+01 0. -1.
    10030    2    1    2    0    0  0.00000000000E+00  0.00000000000E+00  0.35814499724E+03  0.69574100093E+03  0.59647942238E+03 0.  0.
        4    1    3    3  502    0  0.18927191510E+03 -0.17352948867E+03  0.21428024817E+01  0.25679280711E+03  0.12699999809E+01 0. -1.
       -4    1    3    3    0  502 -0.18927191510E+03  0.17352948867E+03  0.35600219475E+03  0.43894819381E+03  0.12699999809E+01 0.  1.
</event>
<event>
 5   0  0.2225808E-02  0.5947620E+03  0.7818609E-02  0.9916333E-01
       -1   -1    0    0    0  501  0.00000000000E+00  0.00000000000E+00  0.14322552832E+03  0.14322552840E+03  0.50400001928E-02 0. -1.
        1   -1    0    0  501    0  0.00000000000E+00  0.00000000000E+00 -0.61745588270E+03  0.61745588272E+03  0.50400001928E-02 0.  1.
    10030    2    1    2    0    0  0.00000000000E+00  0.00000000000E+00 -0.47423035439E+03  0.76068141113E+03  0.59476195256E+03 0.  0.
        2    1    3    3  502    0 -0.70467524445E+02  0.21139495946E+03  0.14753646152E+02  0.22331854148E+03  0.25500000920E-02 0. -1.
       -2    1    3    3    0  502  0.70467524445E+02 -0.21139495946E+03 -0.48898400054E+03  0.53736286965E+03  0.25500000920E-02 0.  1.
</event>
<event>
 5   0  0.3832191E-02  0.5985945E+03  0.7818609E-02  0.9908326E-01
       -2   -1    0    0    0  501  0.00000000000E+00  0.00000000000E+00  0.43724264681E+03  0.43724264682E+03  0.25500000920E-02 0.  1.
        2   -1    0    0  501    0  0.00000000000E+00  0.00000000000E+00 -0.20487218430E+03  0.20487218431E+03  0.25500000920E-02 0. -1.
    10030    2    1    2    0    0  0.00000000000E+00  0.00000000000E+00  0.23237046251E+03  0.64211483113E+03  0.59859454099E+03 0.  0.
        3    1    3    3  502    0  0.27251119945E+03 -0.64774827386E+02  0.22930702471E+03  0.36199427326E+03  0.10100000352E+00 0.  1.
       -3    1    3    3    0  502 -0.27251119945E+03  0.64774827386E+02  0.30634378023E+01  0.28012055787E+03  0.10100000352E+00 0. -1.
</event>
<event>
 5   0  0.2309055E-02  0.5978740E+03  0.7818609E-02  0.9909827E-01
        1   -1    0    0  501    0  0.00000000000E+00  0.00000000000E+00  0.30692466340E+03  0.30692466345E+03  0.50400001928E-02 0. -1.
       -1   -1    0    0    0  501  0.00000000000E+00  0.00000000000E+00 -0.29115720595E+03  0.29115720600E+03  0.50400001928E-02 0.  1.
    10030    2    1    2    0    0  0.00000000000E+00  0.00000000000E+00  0.15767457449E+02  0.59808186944E+03  0.59787399161E+03 0.  0.
        4    1    3    3  502    0  0.18389020012E+03 -0.20440202306E+03  0.12525278845E+03  0.30213517942E+03  0.12699999809E+01 0. -1.
       -4    1    3    3    0  502 -0.18389020012E+03  0.20440202306E+03 -0.10948533100E+03  0.29594669002E+03  0.12699999809E+01 0.  1.
</event>
<event>
 5   0  0.3737642E-02  0.5982915E+03  0.7818609E-02  0.9908957E-01
        2   -1    0    0  501    0  0.00000000000E+00  0.00000000000E+00  0.71969703672E+03  0.71969703672E+03  0.25500000920E-02 0. -1.
       -2   -1    0    0    0  501  0.00000000000E+00  0.00000000000E+00 -0.12434147452E+03  0.12434147455E+03  0.25500000920E-02 0.  1.
    10030    2    1    2    0    0  0.00000000000E+00  0.00000000000E+00  0.59535556220E+03  0.84403851127E+03  0.59829153685E+03 0.  0.
        5    1    3    3  502    0  0.38691423512E+02  0.15399626728E+03 -0.59924471085E+02  0.16977899995E+03  0.46999998093E+01 0.  1.
       -5    1    3    3    0  502 -0.38691423512E+02 -0.15399626728E+03  0.65528003328E+03  0.67425951132E+03  0.46999998093E+01 0. -1.
</event>
<event>
 5   0  0.2225808E-02  0.6006348E+03  0.7818609E-02  0.9904090E-01
       -1   -1    0    0    0  501  0.00000000000E+00  0.00000000000E+00  0.16358233736E+03  0.16358233744E+03  0.50400001928E-02 0. -1.
        1   -1    0    0  501    0  0.00000000000E+00  0.00000000000E+00 -0.55134635881E+03  0.55134635883E+03  0.50400001928E-02 0.  1.
    10030    2    1    2    0    0  0.00000000000E+00  0.00000000000E+00 -0.38776402145E+03  0.71492869627E+03  0.60063475126E+03 0.  0.
        2    1    3    3  502    0  0.15788689620E+03  0.74397180558E+02 -0.48477869062E+03  0.51524129430E+03  0.25500000920E-02 0.  1.
       -2    1    3    3    0  502 -0.15788689620E+03 -0.74397180558E+02  0.97014669169E+02  0.19968740197E+03  0.25500000920E-02 0. -1.
</event>
<event>
 5   0  0.3934634E-02  0.6045176E+03  0.7818609E-02  0.9896078E-01
       -2   -1    0    0    0  501  0.00000000000E+00  0.00000000000E+00  0.83578032745E+02  0.83578032784E+02  0.25500000920E-02 0. -1.
        2   -1    0    0  501    0  0.00000000000E+00  0.00000000000E+00 -0.10931146164E+04  0.10931146164E+04  0.25500000920E-02 0.  1.
    10030    2    1    2    0    0  0.00000000000E+00  0.00000000000E+00 -0.10095365837E+04  0.11766926492E+04  0.60451755716E+03 0.  0.
        1    1    3    3  502    0  0.74046474240E+02 -0.99318474114E+02 -0.10414280118E+04  0.10487703960E+04  0.50400001928E-02 0.  1.
       -1    1    3    3    0  502 -0.74046474240E+02  0.99318474114E+02  0.31891428175E+02  0.12792225320E+03  0.50400001928E-02 0. -1.
</event>
<event>
 5   0  0.3798925E-02  0.6021983E+03  0.7818609E-02  0.9900856E-01
        2   -1    0    0  501    0  0.00000000000E+00  0.00000000000E+00  0.29634532095E+03  0.29634532097E+03  0.25500000920E-02 0. -1.
       -2   -1    0    0    0  501  0.00000000000E+00  0.00000000000E+00 -0.30592921924E+03  0.30592921925E+03  0.25500000920E-02 0.  1.
    10030    2    1    2    0    0  0.00000000000E+00  0.00000000000E+00 -0.95838982860E+01  0.60227454022E+03  0.60219828187E+03 0.  0.
        2    1    3    3  502    0  0.18027997988E+03 -0.18090691399E+03  0.15470398059E+03  0.29859923693E+03  0.25500000920E-02 0. -1.
       -2    1    3    3    0  502 -0.18027997988E+03  0.18090691399E+03 -0.16428787887E+03  0.30367530329E+03  0.25500000920E-02 0.  1.
</event>
<event>
 5   0  0.2382531E-02  0.5996443E+03  0.7818609E-02  0.9906144E-01
       -1   -1    0    0    0  501  0.00000000000E+00  0.00000000000E+00  0.88951912330E+02  0.88951912473E+02  0.50400001928E-02 0. -1.
        1   -1    0    0  501    0  0.00000000000E+00  0.00000000000E+00 -0.10105832945E+04  0.10105832945E+04  0.50400001928E-02 0.  1.
    10030    2    1    2    0    0  0.00000000000E+00  0.00000000000E+00 -0.92163138217E+03  0.10995352070E+04  0.59964428356E+03 0.  0.
        5    1    3    3  502    0  0.10397803308E+03 -0.21841674025E+03 -0.13613131911E+03  0.27761687597E+03  0.46999998093E+01 0. -1.
       -5    1    3    3    0  502 -0.10397803308E+03  0.21841674025E+03 -0.78550006307E+03  0.82191833102E+03  0.46999998093E+01 0.  1.
</event>
<event>
 5   0  0.2309055E-02  0.5898563E+03  0.7818609E-02  0.9926677E-01
       -1   -1    0    0    0  501  0.00000000000E+00  0.00000000000E+00  0.78539677124E+02  0.78539677285E+02  0.50400001928E-02 0.  1.
        1   -1    0    0  501    0  0.00000000000E+00  0.00000000000E+00 -0.11074989674E+04  0.11074989674E+04  0.50400001928E-02 0. -1.
    10030    2    1    2    0    0  0.00000000000E+00  0.00000000000E+00 -0.10289592903E+04  0.11860386447E+04  0.58985629238E+03 0.  0.
        4    1    3    3  502    0 -0.16269120907E+03 -0.13449833006E+03 -0.92862436175E+03  0.95231457430E+03  0.12699999809E+01 0. -1.
       -4    1    3    3    0  502  0.16269120907E+03  0.13449833006E+03 -0.10033492852E+03  0.23372407038E+03  0.12699999809E+01 0.  1.
</event>
<event>
 5   0  0.1521750E-02  0.6020246E+03  0.7818609E-02  0.9901215E-01
       -3   -1    0    0    0  501  0.00000000000E+00  0.00000000000E+00  0.31225362155E+03  0.31225363789E+03  0.10100000352E+00 0.  1.
        3   -1    0    0  501    0  0.00000000000E+00  0.00000000000E+00 -0.29017563341E+03  0.29017565099E+03  0.10100000352E+00 0. -1.
    10030    2    1    2    0    0  0.00000000000E+00  0.00000000000E+00  0.22077988140E+02  0.60242928887E+03  0.60202459296E+03 0.  0.
        2    1    3    3  502    0  0.31632436706E+02 -0.17965294608E+03  0.25064224376E+03  0.30999568779E+03  0.25500000920E-02 0.  1.
       -2    1    3    3    0  502 -0.31632436706E+02  0.17965294608E+03 -0.22856425562E+03  0.29243360108E+03  0.25500000920E-02 0. -1.
</event>
<event>
 5   0  0.3724066E-02  0.5951179E+03  0.7818609E-02  0.9915587E-01
        2   -1    0    0  501    0  0.00000000000E+00  0.00000000000E+00  0.17211565193E+04  0.17211565194E+04  0.25500000920E-02 0. -1.
       -2   -1    0    0    0  501  0.00000000000E+00  0.00000000000E+00 -0.51442919219E+02  0.51442919282E+02  0.25500000920E-02 0.  1.
    10030    2    1    2    0    0  0.00000000000E+00  0.00000000000E+00  0.16697136001E+04  0.17725994386E+04  0.59511785672E+03 0.  0.
        4    1    3    3  502    0 -0.26223946532E+03  0.83476658787E+02  0.11718672510E+04  0.12037492914E+04  0.12699999809E+01 0. -1.
       -4    1    3    3    0  502  0.26223946532E+03 -0.83476658787E+02  0.49784634911E+03  0.56885014719E+03  0.12699999809E+01 0.  1.
</event>
<event>
 5   0  0.3737642E-02  0.6045423E+03  0.7818609E-02  0.9896027E-01
        2   -1    0    0  501    0  0.00000000000E+00  0.00000000000E+00  0.23802938707E+03  0.23802938708E+03  0.25500000920E-02 0.  1.
       -2   -1    0    0    0  501  0.00000000000E+00  0.00000000000E+00 -0.38385113906E+03  0.38385113906E+03  0.25500000920E-02 0. -1.
    10030    2    1    2    0    0  0.00000000000E+00  0.00000000000E+00 -0.14582175199E+03  0.62188052614E+03  0.60454231071E+03 0.  0.
        5    1    3    3  502    0 -0.22033028532E+03  0.19575179292E+03 -0.40464431834E+01  0.29479257582E+03  0.46999998093E+01 0.  1.
       -5    1    3    3    0  502  0.22033028532E+03 -0.19575179292E+03 -0.14177530881E+03  0.32708795032E+03  0.46999998093E+01 0. -1.
</event>
<event>
 5   0  0.2309055E-02  0.5998456E+03  0.7818609E-02  0.9905727E-01
        1   -1    0    0  501    0  0.00000000000E+00  0.00000000000E+00  0.43736994364E+03  0.43736994367E+03  0.50400001928E-02 0. -1.
       -1   -1    0    0    0  501  0.00000000000E+00  0.00000000000E+00 -0.20566954173E+03  0.20566954179E+03  0.50400001928E-02 0.  1.
    10030    2    1    2    0    0  0.00000000000E+00  0.00000000000E+00  0.23170040191E+03  0.64303948546E+03  0.59984556647E+03 0.  0.
        4    1    3    3  502    0 -0.14851683271E+03 -0.13237545362E+03  0.35644756064E+03  0.40821193846E+03  0.12699999809E+01 0. -1.
       -4    1    3    3    0  502  0.14851683271E+03  0.13237545362E+03 -0.12474715873E+03  0.23482754700E+03  0.12699999809E+01 0.  1.
</event>
<event>
 5   0  0.3724066E-02  0.6064329E+03  0.7818609E-02  0.9892149E-01
        2   -1    0    0  501    0  0.00000000000E+00  0.00000000000E+00  0.39599327370E+03  0.39599327371E+03  0.25500000920E-02 0.  1.
       -2   -1    0    0    0  501  0.00000000000E+00  0.00000000000E+00 -0.23217619752E+03  0.23217619754E+03  0.25500000920E-02 0. -1.
    10030    2    1    2    0    0  0.00000000000E+00  0.00000000000E+00  0.16381707617E+03  0.62816947125E+03  0.60643289007E+03 0.  0.
        4    1    3    3  502    0  0.28777773278E+02 -0.28048622978E+03  0.19743137860E+03  0.34421134131E+03  0.12699999809E+01 0.  1.
       -4    1    3    3    0  502 -0.28777773278E+02  0.28048622978E+03 -0.33614302422E+02  0.28395812994E+03  0.12699999809E+01 0. -1.
</event>
<event>
 5   0  0.2382531E-02  0.6024988E+03  0.7818609E-02  0.9900235E-01
       -1   -1    0    0    0  501  0.00000000000E+00  0.00000000000E+00  0.65260875462E+03  0.65260875464E+03  0.50400001928E-02 0. -1.
        1   -1    0    0  501    0  0.00000000000E+00  0.00000000000E+00 -0.13905912910E+03  0.13905912919E+03  0.50400001928E-02 0.  1.
    10030    2    1    2    0    0  0.00000000000E+00  0.00000000000E+00  0.51354962552E+03  0.79166788383E+03  0.60249881362E+03 0.  0.
        5    1    3    3  502    0 -0.22021355001E+03 -0.20333630646E+03  0.29596240412E+03  0.42125466856E+03  0.46999998093E+01 0. -1.
       -5    1    3    3    0  502  0.22021355001E+03  0.20333630646E+03  0.21758722140E+03  0.37041321527E+03  0.46999998093E+01 0.  1.
</event>
<event>
 5   0  0.2295179E-02  0.6038527E+03  0.7818609E-02  0.9897445E-01
        1   -1    0    0  501    0  0.00000000000E+00  0.00000000000E+00  0.13252339600E+04  0.13252339600E+04  0.50400001928E-02 0. -1.
       -1   -1    0    0    0  501  0.00000000000E+00  0.00000000000E+00 -0.68787480901E+02  0.68787481085E+02  0.50400001928E-02 0.  1.
    10030    2    1    2    0    0  0.00000000000E+00  0.00000000000E+00  0.12564464791E+04  0.13940214411E+04  0.60385265039E+03 0.  0.
        3    1    3    3  502    0 -0.11866592716E+03 -0.98585202332E+02  0.29072895822E+02  0.15699008841E+03  0.10100000352E+00 0.  1.
       -3    1    3    3    0  502  0.11866592716E+03  0.98585202332E+02  0.12273735833E+04  0.12370313527E+04  0.10100000352E+00 0. -1.
</event>
<event>
 5   0  0.2225808E-02  0.5807790E+03  0.7818609E-02  0.9946106E-01
        1   -1    0    0  501    0  0.00000000000E+00  0.00000000000E+00  0.18654190159E+04  0.18654190159E+04  0.50400001928E-02 0. -1.
       -1   -1    0    0    0  501  0.00000000000E+00  0.00000000000E+00 -0.45204887203E+02  0.45204887484E+02  0.50400001928E-02 0.  1.
    10030    2    1    2    0    0  0.00000000000E+00  0.00000000000E+00  0.18202141287E+04  0.19106239034E+04  0.58077898197E+03 0.  0.
        2    1    3    3  502    0  0.25274296679E+02 -0.17107085551E+03  0.14265425618E+03  0.22417462945E+03  0.25500000920E-02 0.  1.
       -2    1    3    3    0  502 -0.25274296679E+02  0.17107085551E+03  0.16775598725E+04  0.16864492739E+04  0.25500000920E-02 0. -1.
</event>
<event>
 5   0  0.2225808E-02  0.6051133E+03  0.7818609E-02  0.9894854E-01
        1   -1    0    0  501    0  0.00000000000E+00  0.00000000000E+00  0.32511679594E+03  0.32511679597E+03  0.50400001928E-02 0. -1.
       -1   -1    0    0    0  501  0.00000000000E+00  0.00000000000E+00 -0.28156192892E+03  0.28156192896E+03  0.50400001928E-02 0.  1.
    10030    2    1    2    0    0  0.00000000000E+00  0.00000000000E+00  0.43554867019E+02  0.60667872494E+03  0.60511325291E+03 0.  0.
        2    1    3    3  502    0 -0.12309098746E+03  0.26292766794E+03 -0.63637821648E+02  0.29720720400E+03  0.25500000920E-02 0.  1.
       -2    1    3    3    0  502  0.12309098746E+03 -0.26292766794E+03  0.10719268867E+03  0.30947152093E+03  0.25500000920E-02 0. -1.
</event>
<event>
 5   0  0.2276105E-02  0.5967414E+03  0.7818609E-02  0.9912190E-01
       -1   -1    0    0    0  501  0.00000000000E+00  0.00000000000E+00  0.44579315953E+02  0.44579316238E+02  0.50400001928E-02 0. -1.
        1   -1    0    0  501    0  0.00000000000E+00  0.00000000000E+00 -0.19970042135E+04  0.19970042135E+04  0.50400001928E-02 0.  1.
    10030    2    1    2    0    0  0.00000000000E+00  0.00000000000E+00 -0.19524248976E+04  0.20415835298E+04  0.59674142505E+03 0.  0.
        1    1    3    3  502    0 -0.14675443579E+03  0.18500714735E+03 -0.16001567612E+04  0.16174876103E+04  0.50400001928E-02 0.  1.
       -1    1    3    3    0  502  0.14675443579E+03 -0.18500714735E+03 -0.35226813639E+03  0.42409591950E+03  0.50400001928E-02 0. -1.
</event>
<event>
 5   0  0.2382531E-02  0.5613047E+03  0.7818609E-02  0.9989107E-01
       -1   -1    0    0    0  501  0.00000000000E+00  0.00000000000E+00  0.30245966681E+02  0.30245967101E+02  0.50400001928E-02 0. -1.
        1   -1    0    0  501    0  0.00000000000E+00  0.00000000000E+00 -0.26041733633E+04  0.26041733633E+04  0.50400001928E-02 0.  1.
    10030    2    1    2    0    0  0.00000000000E+00  0.00000000000E+00 -0.25739273966E+04  0.26344193304E+04  0.56130469920E+03 0.  0.
        5    1    3    3  502    0 -0.79466388111E+02  0.24079691051E+03 -0.72286654980E+03  0.76606540045E+03  0.46999998093E+01 0. -1.
       -5    1    3    3    0  502  0.79466388111E+02 -0.24079691051E+03 -0.18510608468E+04  0.18683539300E+04  0.46999998093E+01 0.  1.
</event>
<event>
 5   0  0.2225808E-02  0.5996421E+03  0.7818609E-02  0.9906149E-01
        1   -1    0    0  501    0  0.00000000000E+00  0.00000000000E+00  0.78201132327E+03  0.78201132328E+03  0.50400001928E-02 0. -1.
       -1   -1    0    0    0  501  0.00000000000E+00  0.00000000000E+00 -0.11495060059E+03  0.11495060070E+03  0.50400001928E-02 0.  1.
    10030    2    1    2    0    0  0.00000000000E+00  0.00000000000E+00  0.66706072268E+03  0.89696192398E+03  0.59964213105E+03 0.  0.
        2    1    3    3  502    0 -0.50387149324E+02  0.27025943208E+03  0.15456993610E+03  0.31539006103E+03  0.25500000920E-02 0.  1.
       -2    1    3    3    0  502  0.50387149324E+02 -0.27025943208E+03  0.51249078658E+03  0.58157186295E+03  0.25500000920E-02 0. -1.
</event>
<event>
 5   0  0.3724066E-02  0.6002176E+03  0.7818609E-02  0.9904955E-01
       -2   -1    0    0    0  501  0.00000000000E+00  0.00000000000E+00  0.76078878733E+02  0.76078878775E+02  0.25500000920E-02 0.  1.
        2   -1    0    0  501    0  0.00000000000E+00  0.00000000000E+00 -0.11838409820E+04  0.11838409820E+04  0.25500000920E-02 0. -1.
    10030    2    1    2    0    0  0.00000000000E+00  0.00000000000E+00 -0.11077621032E+04  0.12599198607E+04  0.60021760898E+03 0.  0.
        4    1    3    3  502    0  0.10200541319E+03  0.21586180531E+03 -0.17220013465E+03  0.29437378039E+03  0.12699999809E+01 0.  1.
       -4    1    3    3    0  502 -0.10200541319E+03 -0.21586180531E+03 -0.93556196857E+03  0.96554608034E+03  0.12699999809E+01 0. -1.
</event>
<event>
 5   0  0.3724066E-02  0.6021305E+03  0.7818609E-02  0.9900996E-01
       -2   -1    0    0    0  501  0.00000000000E+00  0.00000000000E+00  0.76106506175E+02  0.76106506217E+02  0.25500000920E-02 0.  1.
        2   -1    0    0  501    0  0.00000000000E+00  0.00000000000E+00 -0.11909661272E+04  0.11909661272E+04  0.25500000920E-02 0. -1.
    10030    2    1    2    0    0  0.00000000000E+00  0.00000000000E+00 -0.11148596210E+04  0.12670726334E+04  0.60213045412E+03 0.  0.
        4    1    3    3  502    0  0.23194714885E+03  0.46571312944E+02 -0.16560704895E+03  0.28878309267E+03  0.12699999809E+01 0.  1.
       -4    1    3    3    0  502 -0.23194714885E+03 -0.46571312944E+02 -0.94925257209E+03  0.97828954076E+03  0.12699999809E+01 0. -1.
</event>
<event>
 5   0  0.3934634E-02  0.6048692E+03  0.7818609E-02  0.9895355E-01
       -2   -1    0    0    0  501  0.00000000000E+00  0.00000000000E+00  0.27403032418E+03  0.27403032419E+03  0.25500000920E-02 0.  1.
        2   -1    0    0  501    0  0.00000000000E+00  0.00000000000E+00 -0.33378312004E+03  0.33378312005E+03  0.25500000920E-02 0. -1.
    10030    2    1    2    0    0  0.00000000000E+00  0.00000000000E+00 -0.59752795860E+02  0.60781344424E+03  0.60486923081E+03 0.  0.
        1    1    3    3  502    0 -0.54471521347E+02 -0.23784742318E+03  0.14967786008E+03  0.28625514000E+03  0.50400001928E-02 0.  1.
       -1    1    3    3    0  502  0.54471521347E+02  0.23784742318E+03 -0.20943065594E+03  0.32155830424E+03  0.50400001928E-02 0. -1.
</event>
<event>
 5   0  0.2309055E-02  0.5992235E+03  0.7818609E-02  0.9907018E-01
        1   -1    0    0  501    0  0.00000000000E+00  0.00000000000E+00  0.31876454154E+03  0.31876454158E+03  0.50400001928E-02 0.  1.
       -1   -1    0    0    0  501  0.00000000000E+00  0.00000000000E+00 -0.28160977190E+03  0.28160977195E+03  0.50400001928E-02 0. -1.
    10030    2    1    2    0    0  0.00000000000E+00  0.00000000000E+00  0.37154769638E+02  0.60037431353E+03  0.59922353045E+03 0.  0.
        4    1    3    3  502    0 -0.22784545759E+03  0.98565101805E+02  0.18664029139E+03  0.31058789917E+03  0.12699999809E+01 0.  1.
       -4    1    3    3    0  502  0.22784545759E+03 -0.98565101805E+02 -0.14948552175E+03  0.28978641437E+03  0.12699999809E+01 0. -1.
</event>
<event>
 5   0  0.2309055E-02  0.6000558E+03  0.7818609E-02  0.9905290E-01
       -1   -1    0    0    0  501  0.00000000000E+00  0.00000000000E+00  0.96831869662E+02  0.96831869793E+02  0.50400001928E-02 0. -1.
        1   -1    0    0  501    0  0.00000000000E+00  0.00000000000E+00 -0.92961885868E+03  0.92961885870E+03  0.50400001928E-02 0.  1.
    10030    2    1    2    0    0  0.00000000000E+00  0.00000000000E+00 -0.83278698902E+03  0.10264507285E+04  0.60005577152E+03 0.  0.
        4    1    3    3  502    0 -0.64823753507E+02 -0.12218217911E+03  0.39037074305E+02  0.14372233640E+03  0.12699999809E+01 0. -1.
       -4    1    3    3    0  502  0.64823753507E+02  0.12218217911E+03 -0.87182406333E+03  0.88272839209E+03  0.12699999809E+01 0.  1.
</event>
<event>
 5   0  0.3737642E-02  0.6016886E+03  0.7818609E-02  0.9901909E-01
        2   -1    0    0  501    0  0.00000000000E+00  0.00000000000E+00  0.10092102650E+04  0.10092102650E+04  0.25500000920E-02 0. -1.
       -2   -1    0    0    0  501  0.00000000000E+00  0.00000000000E+00 -0.89681290508E+02  0.89681290544E+02  0.25500000920E-02 0.  1.
    10030    2    1    2    0    0  0.00000000000E+00  0.00000000000E+00  0.91952897446E+03  0.10988915555E+04  0.60168855391E+03 0.  0.
        5    1    3    3  502    0 -0.93042894155E+02 -0.20864274577E+03  0.10235824130E+03  0.25037586760E+03  0.46999998093E+01 0.  1.
       -5    1    3    3    0  502  0.93042894155E+02  0.20864274577E+03  0.81717073315E+03  0.84851568791E+03  0.46999998093E+01 0. -1.
</event>
<event>
 5   0  0.2382531E-02  0.5981056E+03  0.7818609E-02  0.9909344E-01
       -1   -1    0    0    0  501  0.00000000000E+00  0.00000000000E+00  0.40258063909E+03  0.40258063913E+03  0.50400001928E-02 0. -1.
        1   -1    0    0  501    0  0.00000000000E+00  0.00000000000E+00 -0.22214822846E+03  0.22214822851E+03  0.50400001928E-02 0.  1.
    10030    2    1    2    0    0  0.00000000000E+00  0.00000000000E+00  0.18043241064E+03  0.62472886764E+03  0.59810559540E+03 0.  0.
        5    1    3    3  502    0  0.23619956218E+03  0.91471693593E+02 -0.75769910638E+02  0.26442479699E+03  0.46999998093E+01 0.  1.
       -5    1    3    3    0  502 -0.23619956218E+03 -0.91471693593E+02  0.25620232128E+03  0.36030407065E+03  0.46999998093E+01 0. -1.
</event>
<event>
 5   0  0.2382531E-02  0.6054126E+03  0.7818609E-02  0.9894240E-01
        1   -1    0    0  501    0  0.00000000000E+00  0.00000000000E+00  0.25286195863E+03  0.25286195868E+03  0.50400001928E-02 0.  1.
       -1   -1    0    0    0  501  0.00000000000E+00  0.00000000000E+00 -0.36237596982E+03  0.36237596985E+03  0.50400001928E-02 0. -1.
    10030    2    1    2    0    0  0.00000000000E+00  0.00000000000E+00 -0.10951401119E+03  0.61523792853E+03  0.60541257837E+03 0.  0.
        5    1    3    3  502    0  0.86501834279E+02 -0.15180014289E+03  0.19640410694E+03  0.26291160860E+03  0.46999998093E+01 0.  1.
       -5    1    3    3    0  502 -0.86501834279E+02  0.15180014289E+03 -0.30591811813E+03  0.35232631993E+03  0.46999998093E+01 0. -1.
</event>
<event>
 5   0  0.3798925E-02  0.5912389E+03  0.7818609E-02  0.9923751E-01
        2   -1    0    0  501    0  0.00000000000E+00  0.00000000000E+00  0.39748030018E+03  0.39748030019E+03  0.25500000920E-02 0. -1.
       -2   -1    0    0    0  501  0.00000000000E+00  0.00000000000E+00 -0.21986214858E+03  0.21986214860E+03  0.25500000920E-02 0.  1.
    10030    2    1    2    0    0  0.00000000000E+00  0.00000000000E+00  0.17761815159E+03  0.61734244879E+03  0.59123894602E+03 0.  0.
        2    1    3    3  502    0 -0.24542103989E+03 -0.42008877382E+02 -0.77583574150E+02  0.26079770625E+03  0.25500000920E-02 0.  1.
       -2    1    3    3    0  502  0.24542103989E+03  0.42008877382E+02  0.25520172574E+03  0.35654474254E+03  0.25500000920E-02 0. -1.
</event>
<event>
 5   0  0.2295179E-02  0.5926651E+03  0.7818609E-02  0.9920741E-01
        1   -1    0    0  501    0  0.00000000000E+00  0.00000000000E+00  0.34469192994E+03  0.34469192998E+03  0.50400001928E-02 0.  1.
       -1   -1    0    0    0  501  0.00000000000E+00  0.00000000000E+00 -0.25475789295E+03  0.25475789300E+03  0.50400001928E-02 0. -1.
    10030    2    1    2    0    0  0.00000000000E+00  0.00000000000E+00  0.89934036997E+02  0.59944982298E+03  0.59266513248E+03 0.  0.
        3    1    3    3  502    0 -0.27935273663E+03  0.86391255123E+02  0.93596299297E+02  0.30702064730E+03  0.10100000352E+00 0.  1.
       -3    1    3    3    0  502  0.27935273663E+03 -0.86391255123E+02 -0.36622623000E+01  0.29242917568E+03  0.10100000352E+00 0. -1.
</event>
<event>
 5   0  0.3832191E-02  0.6003066E+03  0.7818609E-02  0.9904770E-01
       -2   -1    0    0    0  501  0.00000000000E+00  0.00000000000E+00  0.67815000753E+02  0.67815000801E+02  0.25500000920E-02 0.  1.
        2   -1    0    0  501    0  0.00000000000E+00  0.00000000000E+00 -0.13284968131E+04  0.13284968131E+04  0.25500000920E-02 0. -1.
    10030    2    1    2    0    0  0.00000000000E+00  0.00000000000E+00 -0.12606818123E+04  0.13963118139E+04  0.60030662969E+03 0.  0.
        3    1    3    3  502    0  0.86423543031E+02 -0.16309168610E+03 -0.11808907218E+04  0.11952283606E+04  0.10100000352E+00 0. -1.
       -3    1    3    3    0  502 -0.86423543031E+02  0.16309168610E+03 -0.79791090514E+02  0.20108345330E+03  0.10100000352E+00 0.  1.
</event>
<event>
 5   0  0.1521750E-02  0.5964225E+03  0.7818609E-02  0.9912856E-01
        3   -1    0    0  501    0  0.00000000000E+00  0.00000000000E+00  0.46783721066E+03  0.46783722156E+03  0.10100000352E+00 0.  1.
       -3   -1    0    0    0  501  0.00000000000E+00  0.00000000000E+00 -0.19008738150E+03  0.19008740834E+03  0.10100000352E+00 0. -1.
    10030    2    1    2    0    0  0.00000000000E+00  0.00000000000E+00  0.27774982915E+03  0.65792462990E+03  0.59642254403E+03 0.  0.
        2    1    3    3  502    0 -0.65045959749E+02 -0.24706698136E+03  0.30854330622E+03  0.40058961791E+03  0.25500000920E-02 0.  1.
       -2    1    3    3    0  502  0.65045959749E+02  0.24706698136E+03 -0.30793477063E+02  0.25733501199E+03  0.25500000920E-02 0. -1.
</event>
<event>
 5   0  0.3724066E-02  0.6005617E+03  0.7818609E-02  0.9904241E-01
        2   -1    0    0  501    0  0.00000000000E+00  0.00000000000E+00  0.10177023874E+04  0.10177023874E+04  0.25500000920E-02 0. -1.
       -2   -1    0    0    0  501  0.00000000000E+00  0.00000000000E+00 -0.88600160003E+02  0.88600160040E+02  0.25500000920E-02 0.  1.
    10030    2    1    2    0    0  0.00000000000E+00  0.00000000000E+00  0.92910222738E+03  0.11063025474E+04  0.60056171833E+03 0.  0.
        4    1    3    3  502    0 -0.65092118922E+02  0.26559784333E+03  0.23604159492E+03  0.36124291794E+03  0.12699999809E+01 0.  1.
       -4    1    3    3    0  502  0.65092118922E+02 -0.26559784333E+03  0.69306063246E+03  0.74505962948E+03  0.12699999809E+01 0. -1.
</event>
<event>
 5   0  0.3724066E-02  0.6003327E+03  0.7818609E-02  0.9904716E-01
       -2   -1    0    0    0  501  0.00000000000E+00  0.00000000000E+00  0.17334864167E+03  0.17334864169E+03  0.25500000920E-02 0. -1.
        2   -1    0    0  501    0  0.00000000000E+00  0.00000000000E+00 -0.51976082908E+03  0.51976082909E+03  0.25500000920E-02 0.  1.
    10030    2    1    2    0    0  0.00000000000E+00  0.00000000000E+00 -0.34641218742E+03  0.69310947078E+03  0.60033268684E+03 0.  0.
        4    1    3    3  502    0 -0.13960656314E+03  0.85840102202E+02 -0.46354468221E+03  0.49166431731E+03  0.12699999809E+01 0.  1.
       -4    1    3    3    0  502  0.13960656314E+03 -0.85840102202E+02  0.11713249479E+03  0.20144515346E+03  0.12699999809E+01 0. -1.
</event>
<event>
 5   0  0.2225808E-02  0.6005275E+03  0.7818609E-02  0.9904312E-01
       -1   -1    0    0    0  501  0.00000000000E+00  0.00000000000E+00  0.79856392608E+02  0.79856392767E+02  0.50400001928E-02 0.  1.
        1   -1    0    0  501    0  0.00000000000E+00  0.00000000000E+00 -0.11290057742E+04  0.11290057742E+04  0.50400001928E-02 0. -1.
    10030    2    1    2    0    0  0.00000000000E+00  0.00000000000E+00 -0.10491493816E+04  0.12088621670E+04  0.60052752965E+03 0.  0.
        2    1    3    3  502    0 -0.12999774164E+03  0.87400547970E+02 -0.10402331846E+04  0.10519616661E+04  0.25500000920E-02 0. -1.
       -2    1    3    3    0  502  0.12999774164E+03 -0.87400547970E+02 -0.89161970553E+01  0.15690050093E+03  0.25500000920E-02 0.  1.
</event>
<event>
 5   0  0.3934634E-02  0.5987036E+03  0.7818609E-02  0.9908099E-01
       -2   -1    0    0    0  501  0.00000000000E+00  0.00000000000E+00  0.21503930987E+03  0.21503930989E+03  0.25500000920E-02 0.  1.
        2   -1    0    0  501    0  0.00000000000E+00  0.00000000000E+00 -0.41672142649E+03  0.41672142650E+03  0.25500000920E-02 0. -1.
    10030    2    1    2    0    0  0.00000000000E+00  0.00000000000E+00 -0.20168211662E+03  0.63176073638E+03  0.59870355926E+03 0.  0.
        1    1    3    3  502    0 -0.15220318466E+03 -0.25507079223E+03 -0.61576730464E+02  0.30334569756E+03  0.50400001928E-02 0.  1.
       -1    1    3    3    0  502  0.15220318466E+03  0.25507079223E+03 -0.14010538615E+03  0.32841503882E+03  0.50400001928E-02 0. -1.
</event>
<event>
 5   0  0.2276105E-02  0.6189907E+03  0.7818609E-02  0.9866771E-01
       -1   -1    0    0    0  501  0.00000000000E+00  0.00000000000E+00  0.87638406655E+02  0.87638406799E+02  0.50400001928E-02 0. -1.
        1   -1    0    0  501    0  0.00000000000E+00  0.00000000000E+00 -0.10929840013E+04  0.10929840013E+04  0.50400001928E-02 0.  1.
    10030    2    1    2    0    0  0.00000000000E+00  0.00000000000E+00 -0.10053455946E+04  0.11806224081E+04  0.61899071549E+03 0.  0.
        1    1    3    3  502    0  0.20353067535E+03  0.15645037558E+03 -0.83240412111E+03  0.87109016566E+03  0.50400001928E-02 0.  1.
       -1    1    3    3    0  502 -0.20353067535E+03 -0.15645037558E+03 -0.17294147353E+03  0.30953224245E+03  0.50400001928E-02 0. -1.
</event>
<event>
 5   0  0.2382531E-02  0.6115421E+03  0.7818609E-02  0.9881745E-01
       -1   -1    0    0    0  501  0.00000000000E+00  0.00000000000E+00  0.29662557831E+03  0.29662557835E+03  0.50400001928E-02 0. -1.
        1   -1    0    0  501    0  0.00000000000E+00  0.00000000000E+00 -0.31519854293E+03  0.31519854297E+03  0.50400001928E-02 0.  1.
    10030    2    1    2    0    0  0.00000000000E+00  0.00000000000E+00 -0.18572964626E+02  0.61182412132E+03  0.61154214934E+03 0.  0.
        5    1    3    3  502    0  0.13734522261E+03 -0.11554579948E+02  0.26374343793E+03  0.29762377180E+03  0.46999998093E+01 0. -1.
       -5    1    3    3    0  502 -0.13734522261E+03  0.11554579948E+02 -0.28231640255E+03  0.31420034952E+03  0.46999998093E+01 0.  1.
</event>
<event>
 5   0  0.3934634E-02  0.6019537E+03  0.7818609E-02  0.9901361E-01
       -2   -1    0    0    0  501  0.00000000000E+00  0.00000000000E+00  0.24155806859E+03  0.24155806860E+03  0.25500000920E-02 0. -1.
        2   -1    0    0  501    0  0.00000000000E+00  0.00000000000E+00 -0.37501153798E+03  0.37501153799E+03  0.25500000920E-02 0.  1.
    10030    2    1    2    0    0  0.00000000000E+00  0.00000000000E+00 -0.13345346940E+03  0.61656960659E+03  0.60195369530E+03 0.  0.
        1    1    3    3  502    0  0.92020246438E+02  0.24490046516E+03 -0.21914542681E+03  0.34127508216E+03  0.50400001928E-02 0.  1.
       -1    1    3    3    0  502 -0.92020246438E+02 -0.24490046516E+03  0.85691957414E+02  0.27529452443E+03  0.50400001928E-02 0. -1.
</event>
<event>
 5   0  0.2382531E-02  0.6050659E+03  0.7818609E-02  0.9894951E-01
       -1   -1    0    0    0  501  0.00000000000E+00  0.00000000000E+00  0.91931398013E+02  0.91931398151E+02  0.50400001928E-02 0.  1.
        1   -1    0    0  501    0  0.00000000000E+00  0.00000000000E+00 -0.99559214441E+03  0.99559214443E+03  0.50400001928E-02 0. -1.
    10030    2    1    2    0    0  0.00000000000E+00  0.00000000000E+00 -0.90366074640E+03  0.10875235426E+04  0.60506587334E+03 0.  0.
        5    1    3    3  502    0  0.88282726010E+02  0.20727507047E+03 -0.89015242168E+02  0.24228619005E+03  0.46999998093E+01 0.  1.
       -5    1    3    3    0  502 -0.88282726010E+02 -0.20727507047E+03 -0.81464550423E+03  0.84523735253E+03  0.46999998093E+01 0. -1.
</event>
<event>
 5   0  0.2295179E-02  0.5997723E+03  0.7818609E-02  0.9905879E-01
        1   -1    0    0  501    0  0.00000000000E+00  0.00000000000E+00  0.58140572241E+03  0.58140572243E+03  0.50400001928E-02 0.  1.
       -1   -1    0    0    0  501  0.00000000000E+00  0.00000000000E+00 -0.15467974818E+03  0.15467974827E+03  0.50400001928E-02 0. -1.
    10030    2    1    2    0    0  0.00000000000E+00  0.00000000000E+00  0.42672597422E+03  0.73608547069E+03  0.59977225935E+03 0.  0.
        3    1    3    3  502    0  0.25714371525E+02 -0.23810629356E+03  0.43487113869E+03  0.49645619485E+03  0.10100000352E+00 0.  1.
       -3    1    3    3    0  502 -0.25714371525E+02  0.23810629356E+03 -0.81451644657E+01  0.23962927585E+03  0.10100000352E+00 0. -1.
</event>
<event>
 5   0  0.2309055E-02  0.6236408E+03  0.7818609E-02  0.9857538E-01
       -1   -1    0    0    0  501  0.00000000000E+00  0.00000000000E+00  0.34105951153E+03  0.34105951157E+03  0.50400001928E-02 0.  1.
        1   -1    0    0  501    0  0.00000000000E+00  0.00000000000E+00 -0.28508792337E+03  0.28508792341E+03  0.50400001928E-02 0. -1.
    10030    2    1    2    0    0  0.00000000000E+00  0.00000000000E+00  0.55971588167E+02  0.62614743498E+03  0.62364075529E+03 0.  0.
        4    1    3    3  502    0 -0.11201891816E+02  0.61623041562E+02 -0.27870467886E+03  0.28565852438E+03  0.12699999809E+01 0. -1.
       -4    1    3    3    0  502  0.11201891816E+02 -0.61623041562E+02  0.33467626703E+03  0.34048891060E+03  0.12699999809E+01 0.  1.
</event>
<event>
 5   0  0.3737642E-02  0.6001969E+03  0.7818609E-02  0.9904998E-01
       -2   -1    0    0    0  501  0.00000000000E+00  0.00000000000E+00  0.78000134435E+02  0.78000134477E+02  0.25500000920E-02 0. -1.
        2   -1    0    0  501    0  0.00000000000E+00  0.00000000000E+00 -0.11546015616E+04  0.11546015616E+04  0.25500000920E-02 0.  1.
    10030    2    1    2    0    0  0.00000000000E+00  0.00000000000E+00 -0.10766014272E+04  0.12326016961E+04  0.60019689120E+03 0.  0.
        5    1    3    3  502    0 -0.44067057873E+02 -0.17694745154E+03 -0.10276789077E+04  0.10437424652E+04  0.46999998093E+01 0.  1.
       -5    1    3    3    0  502  0.44067057873E+02  0.17694745154E+03 -0.48922519434E+02  0.18885923091E+03  0.46999998093E+01 0. -1.
</event>
<event>
 5   0  0.3934634E-02  0.5870626E+03  0.7818609E-02  0.9932617E-01
       -2   -1    0    0    0  501  0.00000000000E+00  0.00000000000E+00  0.50749708086E+02  0.50749708150E+02  0.25500000920E-02 0. -1.
        2   -1    0    0  501    0  0.00000000000E+00  0.00000000000E+00 -0.16977559552E+04  0.16977559552E+04  0.25500000920E-02 0.  1.
    10030    2    1    2    0    0  0.00000000000E+00  0.00000000000E+00 -0.16470062471E+04  0.17485056633E+04  0.58706258332E+03 0.  0.
        1    1    3    3  502    0  0.21206660277E+03  0.13704524361E+03 -0.37766801021E+03  0.45429810562E+03  0.50400001928E-02 0. -1.
       -1    1    3    3    0  502 -0.21206660277E+03 -0.13704524361E+03 -0.12693382369E+04  0.12942075577E+04  0.50400001928E-02 0.  1.
</event>
<event>
 5   0  0.2225808E-02  0.5983849E+03  0.7818609E-02  0.9908762E-01
       -1   -1    0    0    0  501  0.00000000000E+00  0.00000000000E+00  0.50832954680E+03  0.50832954683E+03  0.50400001928E-02 0. -1.
        1   -1    0    0  501    0  0.00000000000E+00  0.00000000000E+00 -0.17609861859E+03  0.17609861866E+03  0.50400001928E-02 0.  1.
    10030    2    1    2    0    0  0.00000000000E+00  0.00000000000E+00  0.33223092821E+03  0.68442816549E+03  0.59838492967E+03 0.  0.
        2    1    3    3  502    0  0.29652553006E+03 -0.27223909830E+02  0.19941534192E+03  0.35837830549E+03  0.25500000920E-02 0. -1.
       -2    1    3    3    0  502 -0.29652553006E+03  0.27223909830E+02  0.13281558629E+03  0.32604986000E+03  0.25500000920E-02 0.  1.
</event>
<event>
 5   0  0.2382531E-02  0.5991612E+03  0.7818609E-02  0.9907148E-01
       -1   -1    0    0    0  501  0.00000000000E+00  0.00000000000E+00  0.43613362883E+03  0.43613362886E+03  0.50400001928E-02 0. -1.
        1   -1    0    0  501    0  0.00000000000E+00  0.00000000000E+00 -0.20578221561E+03  0.20578221567E+03  0.50400001928E-02 0.  1.
    10030    2    1    2    0    0  0.00000000000E+00  0.00000000000E+00  0.23035141323E+03  0.64191584453E+03  0.59916122862E+03 0.  0.
        5    1    3    3  502    0  0.91263337995E+02 -0.28215930819E+03  0.16042178915E+03  0.33719447281E+03  0.46999998093E+01 0. -1.
       -5    1    3    3    0  502 -0.91263337995E+02  0.28215930819E+03  0.69929624074E+02  0.30472137172E+03  0.46999998093E+01 0.  1.
</event>
<event>
 5   0  0.3832191E-02  0.6024985E+03  0.7818609E-02  0.9900236E-01
        2   -1    0    0  501    0  0.00000000000E+00  0.00000000000E+00  0.96206312355E+03  0.96206312355E+03  0.25500000920E-02 0. -1.
       -2   -1    0    0    0  501  0.00000000000E+00  0.00000000000E+00 -0.94329697705E+02  0.94329697739E+02  0.25500000920E-02 0.  1.
    10030    2    1    2    0    0  0.00000000000E+00  0.00000000000E+00  0.86773342585E+03  0.10563928213E+04  0.60249854319E+03 0.  0.
        3    1    3    3  502    0 -0.29801551001E+03 -0.24216051183E+02  0.36940976044E+03  0.47525071557E+03  0.10100000352E+00 0. -1.
       -3    1    3    3    0  502  0.29801551001E+03  0.24216051183E+02  0.49832366541E+03  0.58114210573E+03  0.10100000352E+00 0.  1.
</event>
<event>
 5   0  0.3934634E-02  0.5985267E+03  0.7818609E-02  0.9908467E-01
        2   -1    0    0  501    0  0.00000000000E+00  0.00000000000E+00  0.77855882197E+03  0.77855882198E+03  0.25500000920E-02 0.  1.
       -2   -1    0    0    0  501  0.00000000000E+00  0.00000000000E+00 -0.11503119278E+03  0.11503119281E+03  0.25500000920E-02 0. -1.
    10030    2    1    2    0    0  0.00000000000E+00  0.00000000000E+00  0.66352762919E+03  0.89359001479E+03  0.59852669099E+03 0.  0.
        1    1    3    3  502    0 -0.25237738465E+03  0.14908840701E+03  0.24172751630E+03  0.37993932351E+03  0.50400001928E-02 0.  1.
       -1    1    3    3    0  502  0.25237738465E+03 -0.14908840701E+03  0.42180011290E+03  0.51365069128E+03  0.50400001928E-02 0. -1.
</event>
<event>
 5   0  0.1521750E-02  0.5998004E+03  0.7818609E-02  0.9905820E-01
       -3   -1    0    0    0  501  0.00000000000E+00  0.00000000000E+00  0.62493112903E+03  0.62493113719E+03  0.10100000352E+00 0. -1.
        3   -1    0    0  501    0  0.00000000000E+00  0.00000000000E+00 -0.14392005561E+03  0.14392009105E+03  0.10100000352E+00 0.  1.
    10030    2    1    2    0    0  0.00000000000E+00  0.00000000000E+00  0.48101107342E+03  0.76885122824E+03  0.59980043215E+03 0.  0.
        4    1    3    3  502    0 -0.52254761121E+02 -0.11953656195E+03 -0.10563767720E+03  0.16787043053E+03  0.12699999809E+01 0.  1.
       -4    1    3    3    0  502  0.52254761121E+02  0.11953656195E+03  0.58664875063E+03  0.60098079771E+03  0.12699999809E+01 0. -1.
</event>
<event>
 5   0  0.2382531E-02  0.6106725E+03  0.7818609E-02  0.9883508E-01
       -1   -1    0    0    0  501  0.00000000000E+00  0.00000000000E+00  0.62532868517E+03  0.62532868519E+03  0.50400001928E-02 0. -1.
        1   -1    0    0  501    0  0.00000000000E+00  0.00000000000E+00 -0.14908995067E+03  0.14908995075E+03  0.50400001928E-02 0.  1.
    10030    2    1    2    0    0  0.00000000000E+00  0.00000000000E+00  0.47623873451E+03  0.77441863594E+03  0.61067249116E+03 0.  0.
        5    1    3    3  502    0  0.86625435121E+02 -0.11878149985E+03 -0.10120039638E+03  0.17854025020E+03  0.46999998093E+01 0.  1.
       -5    1    3    3    0  502 -0.86625435121E+02  0.11878149985E+03  0.57743913089E+03  0.59587838574E+03  0.46999998093E+01 0. -1.
</event>
<event>
 5   0  0.2225808E-02  0.6036907E+03  0.7818609E-02  0.9897778E-01
       -1   -1    0    0    0  501  0.00000000000E+00  0.00000000000E+00  0.24477386063E+03  0.24477386069E+03  0.50400001928E-02 0.  1.
        1   -1    0    0  501    0  0.00000000000E+00  0.00000000000E+00 -0.37222365052E+03  0.37222365055E+03  0.50400001928E-02 0. -1.
    10030    2    1    2    0    0  0.00000000000E+00  0.00000000000E+00 -0.12744978988E+03  0.61699751124E+03  0.60369071546E+03 0.  0.
        2    1    3    3  502    0  0.70104532780E+02 -0.80418540788E+02  0.22486200879E+03  0.24888694265E+03  0.25500000920E-02 0.  1.
       -2    1    3    3    0  502 -0.70104532780E+02  0.80418540788E+02 -0.35231179867E+03  0.36811056859E+03  0.25500000920E-02 0. -1.
</event>
<event>
 5   0  0.2382531E-02  0.6026333E+03  0.7818609E-02  0.9899958E-01
       -1   -1    0    0    0  501  0.00000000000E+00  0.00000000000E+00  0.71852602971E+03  0.71852602973E+03  0.50400001928E-02 0.  1.
        1   -1    0    0  501    0  0.00000000000E+00  0.00000000000E+00 -0.12635830851E+03  0.12635830861E+03  0.50400001928E-02 0. -1.
    10030    2    1    2    0    0  0.00000000000E+00  0.00000000000E+00  0.59216772121E+03  0.84488433834E+03  0.60263333391E+03 0.  0.
        5    1    3    3  502    0  0.12775843357E+03 -0.25501281451E+03  0.16004129378E+03  0.32709181987E+03  0.46999998093E+01 0. -1.
       -5    1    3    3    0  502 -0.12775843357E+03  0.25501281451E+03  0.43212642742E+03  0.51779251847E+03  0.46999998093E+01 0.  1.
</event>
<event>
 5   0  0.2225808E-02  0.5980774E+03  0.7818609E-02  0.9909403E-01
       -1   -1    0    0    0  501  0.00000000000E+00  0.00000000000E+00  0.12915485440E+03  0.12915485450E+03  0.50400001928E-02 0. -1.
        1   -1    0    0  501    0  0.00000000000E+00  0.00000000000E+00 -0.69237915700E+03  0.69237915702E+03  0.50400001928E-02 0.  1.
    10030    2    1    2    0    0  0.00000000000E+00  0.00000000000E+00 -0.56322430260E+03  0.82153401152E+03  0.59807735039E+03 0.  0.
        2    1    3    3  502    0  0.19270599654E+03 -0.39143635187E+02 -0.59107832632E+03  0.62292970159E+03  0.25500000920E-02 0.  1.
       -2    1    3    3    0  502 -0.19270599654E+03  0.39143635187E+02  0.27854023719E+02  0.19860430993E+03  0.25500000920E-02 0. -1.
</event>
<event>
 5   0  0.2382531E-02  0.5971272E+03  0.7818609E-02  0.9911384E-01
        1   -1    0    0  501    0  0.00000000000E+00  0.00000000000E+00  0.68863251887E+03  0.68863251889E+03  0.50400001928E-02 0.  1.
       -1   -1    0    0    0  501  0.00000000000E+00  0.00000000000E+00 -0.12944526058E+03  0.12944526068E+03  0.50400001928E-02 0. -1.
    10030    2    1    2    0    0  0.00000000000E+00  0.00000000000E+00  0.55918725829E+03  0.81807777957E+03  0.59712717540E+03 0.  0.
        5    1    3    3  502    0  0.23266940165E+02 -0.11459794918E+03 -0.96711691793E+02  0.15181989919E+03  0.46999998093E+01 0. -1.
       -5    1    3    3    0  502 -0.23266940165E+02  0.11459794918E+03  0.65589895008E+03  0.66625788039E+03  0.46999998093E+01 0.  1.
</event>
<event>
 5   0  0.1521750E-02  0.6025420E+03  0.7818609E-02  0.9900146E-01
       -4   -1    0    0    0  501  0.00000000000E+00  0.00000000000E+00  0.40468002492E+03  0.40468201773E+03  0.12699999809E+01 0. -1.
        4   -1    0    0  501    0  0.00000000000E+00  0.00000000000E+00 -0.22428201147E+03  0.22428560714E+03  0.12699999809E+01 0.  1.
    10030    2    1    2    0    0  0.00000000000E+00  0.00000000000E+00  0.18039801345E+03  0.62896762486E+03  0.60254197353E+03 0.  0.
        1    1    3    3  502    0  0.22193395683E+02 -0.29188366718E+03  0.16456665675E+03  0.33581364850E+03  0.50400001928E-02 0. -1.
       -1    1    3    3    0  502 -0.22193395683E+02  0.29188366718E+03  0.15831356707E+02  0.29315397637E+03  0.50400001928E-02 0.  1.
</event>
<event>
 5   0  0.3832191E-02  0.6036087E+03  0.7818609E-02  0.9897947E-01
        2   -1    0    0  501    0  0.00000000000E+00  0.00000000000E+00  0.63474892266E+03  0.63474892266E+03  0.25500000920E-02 0.  1.
       -2   -1    0    0    0  501  0.00000000000E+00  0.00000000000E+00 -0.14349906753E+03  0.14349906755E+03  0.25500000920E-02 0. -1.
    10030    2    1    2    0    0  0.00000000000E+00  0.00000000000E+00  0.49124985513E+03  0.77824799022E+03  0.60360874258E+03 0.  0.
        3    1    3    3  502    0 -0.13028465124E+03  0.11899651312E+03 -0.70066583502E+02  0.18985151253E+03  0.10100000352E+00 0. -1.
       -3    1    3    3    0  502  0.13028465124E+03 -0.11899651312E+03  0.56131643863E+03  0.58839647769E+03  0.10100000352E+00 0.  1.
</event>
<event>
 5   0  0.3798925E-02  0.5982551E+03  0.7818609E-02  0.9909033E-01
        2   -1    0    0  501    0  0.00000000000E+00  0.00000000000E+00  0.65954719066E+03  0.65954719067E+03  0.25500000920E-02 0.  1.
       -2   -1    0    0    0  501  0.00000000000E+00  0.00000000000E+00 -0.13566474084E+03  0.13566474087E+03  0.25500000920E-02 0. -1.
    10030    2    1    2    0    0  0.00000000000E+00  0.00000000000E+00  0.52388244982E+03  0.79521193153E+03  0.59825512520E+03 0.  0.
        2    1    3    3  502    0  0.99864184016E+02 -0.25828509744E+03  0.41228551381E+03  0.49665218384E+03  0.25500000920E-02 0.  1.
       -2    1    3    3    0  502 -0.99864184016E+02  0.25828509744E+03  0.11159693600E+03  0.29855974769E+03  0.25500000920E-02 0. -1.
</event>
<event>
 5   0  0.3934634E-02  0.6007384E+03  0.7818609E-02  0.9903875E-01
        2   -1    0    0  501    0  0.00000000000E+00  0.00000000000E+00  0.15366457985E+04  0.15366457985E+04  0.25500000920E-02 0.  1.
       -2   -1    0    0    0  501  0.00000000000E+00  0.00000000000E+00 -0.58713363014E+02  0.58713363069E+02  0.25500000920E-02 0. -1.
    10030    2    1    2    0    0  0.00000000000E+00  0.00000000000E+00  0.14779324354E+04  0.15953591615E+04  0.60073835447E+03 0.  0.
        1    1    3    3  502    0 -0.17399385690E+03 -0.15542011984E+03  0.12413878363E+04  0.12631203569E+04  0.50400001928E-02 0.  1.
       -1    1    3    3    0  502  0.17399385690E+03  0.15542011984E+03  0.23654459914E+03  0.33223880462E+03  0.50400001928E-02 0. -1.
</event>
<event>
 5   0  0.2225808E-02  0.5933284E+03  0.7818609E-02  0.9919345E-01
       -1   -1    0    0    0  501  0.00000000000E+00  0.00000000000E+00  0.10306751343E+03  0.10306751355E+03  0.50400001928E-02 0.  1.
        1   -1    0    0  501    0  0.00000000000E+00  0.00000000000E+00 -0.85390293561E+03  0.85390293563E+03  0.50400001928E-02 0. -1.
    10030    2    1    2    0    0  0.00000000000E+00  0.00000000000E+00 -0.75083542218E+03  0.95697044918E+03  0.59332841614E+03 0.  0.
        2    1    3    3  502    0  0.74673846105E+02 -0.54422667659E+01  0.87578175134E+02  0.11522039024E+03  0.25500000920E-02 0.  1.
       -2    1    3    3    0  502 -0.74673846105E+02  0.54422667659E+01 -0.83841359732E+03  0.84175005894E+03  0.25500000920E-02 0. -1.
</event>
<event>
 5   0  0.3724066E-02  0.6538159E+03  0.7818609E-02  0.9799645E-01
        2   -1    0    0  501    0  0.00000000000E+00  0.00000000000E+00  0.70133938203E+03  0.70133938203E+03  0.25500000920E-02 0. -1.
       -2   -1    0    0    0  501  0.00000000000E+00  0.00000000000E+00 -0.15237817702E+03  0.15237817704E+03  0.25500000920E-02 0.  1.
    10030    2    1    2    0    0  0.00000000000E+00  0.00000000000E+00  0.54896120501E+03  0.85371755907E+03  0.65381592675E+03 0.  0.
        4    1    3    3  502    0 -0.47016655678E+02  0.20106166886E+01 -0.14792893886E+03  0.15523914565E+03  0.12699999809E+01 0.  1.
       -4    1    3    3    0  502  0.47016655678E+02 -0.20106166886E+01  0.69689014387E+03  0.69847841342E+03  0.12699999809E+01 0. -1.
</event>
<event>
 5   0  0.2309055E-02  0.5970291E+03  0.7818609E-02  0.9911589E-01
       -1   -1    0    0    0  501  0.00000000000E+00  0.00000000000E+00  0.12886838218E+03  0.12886838228E+03  0.50400001928E-02 0.  1.
        1   -1    0    0  501    0  0.00000000000E+00  0.00000000000E+00 -0.69148790012E+03  0.69148790014E+03  0.50400001928E-02 0. -1.
    10030    2    1    2    0    0  0.00000000000E+00  0.00000000000E+00 -0.56261951794E+03  0.82035628242E+03  0.59702906808E+03 0.  0.
        4    1    3    3  502    0 -0.63339401729E+02 -0.27474315942E+03 -0.14658396589E+03  0.31778004250E+03  0.12699999809E+01 0.  1.
       -4    1    3    3    0  502  0.63339401729E+02  0.27474315942E+03 -0.41603555205E+03  0.50257623992E+03  0.12699999809E+01 0. -1.
</event>
<event>
 5   0  0.2225808E-02  0.6460627E+03  0.7818609E-02  0.9814195E-01
       -1   -1    0    0    0  501  0.00000000000E+00  0.00000000000E+00  0.46062851688E+02  0.46062851964E+02  0.50400001928E-02 0.  1.
        1   -1    0    0  501    0  0.00000000000E+00  0.00000000000E+00 -0.22653670720E+04  0.22653670720E+04  0.50400001928E-02 0. -1.
    10030    2    1    2    0    0  0.00000000000E+00  0.00000000000E+00 -0.22193042203E+04  0.23114299240E+04  0.64606274551E+03 0.  0.
        2    1    3    3  502    0  0.16451164319E+03 -0.51258386592E+02 -0.20872123393E+04  0.20943129786E+04  0.25500000920E-02 0. -1.
       -2    1    3    3    0  502 -0.16451164319E+03  0.51258386592E+02 -0.13209188105E+03  0.21711694542E+03  0.25500000920E-02 0.  1.
</event>
<event>
 5   0  0.3832191E-02  0.6064235E+03  0.7818609E-02  0.9892168E-01
        2   -1    0    0  501    0  0.00000000000E+00  0.00000000000E+00  0.23713523550E+03  0.23713523551E+03  0.25500000920E-02 0.  1.
       -2   -1    0    0    0  501  0.00000000000E+00  0.00000000000E+00 -0.38770018599E+03  0.38770018600E+03  0.25500000920E-02 0. -1.
    10030    2    1    2    0    0  0.00000000000E+00  0.00000000000E+00 -0.15056495049E+03  0.62483542151E+03  0.60642353158E+03 0.  0.
        3    1    3    3  502    0 -0.23027508390E+03 -0.19189154459E+03 -0.28196134895E+02  0.30107143899E+03  0.10100000352E+00 0.  1.
       -3    1    3    3    0  502  0.23027508390E+03  0.19189154459E+03 -0.12236881559E+03  0.32376398252E+03  0.10100000352E+00 0. -1.
</event>
<event>
 5   0  0.2295179E-02  0.5980342E+03  0.7818609E-02  0.9909493E-01
        1   -1    0    0  501    0  0.00000000000E+00  0.00000000000E+00  0.63706719887E+03  0.63706719889E+03  0.50400001928E-02 0.  1.
       -1   -1    0    0    0  501  0.00000000000E+00  0.00000000000E+00 -0.14034817035E+03  0.14034817044E+03  0.50400001928E-02 0. -1.
    10030    2    1    2    0    0  0.00000000000E+00  0.00000000000E+00  0.49671902852E+03  0.77741536933E+03  0.59803416557E+03 0.  0.
        3    1    3    3  502    0 -0.76685126608E+02  0.40806813786E+02 -0.12358428500E+03  0.15105922810E+03  0.10100000352E+00 0. -1.
       -3    1    3    3    0  502  0.76685126608E+02 -0.40806813786E+02  0.62030331352E+03  0.62635614123E+03  0.10100000352E+00 0.  1.
</event>
<event>
 5   0  0.3832191E-02  0.6004967E+03  0.7818609E-02  0.9904376E-01
       -2   -1    0    0    0  501  0.00000000000E+00  0.00000000000E+00  0.77770848607E+02  0.77770848648E+02  0.25500000920E-02 0. -1.
        2   -1    0    0  501    0  0.00000000000E+00  0.00000000000E+00 -0.11591629454E+04  0.11591629454E+04  0.25500000920E-02 0.  1.
    10030    2    1    2    0    0  0.00000000000E+00  0.00000000000E+00 -0.10813920968E+04  0.12369337941E+04  0.60049674759E+03 0.  0.
        3    1    3    3  502    0  0.24209353866E+03  0.17383380391E+03 -0.46581252151E+03  0.55299980853E+03  0.10100000352E+00 0. -1.
       -3    1    3    3    0  502 -0.24209353866E+03 -0.17383380391E+03 -0.61557957532E+03  0.68393398555E+03  0.10100000352E+00 0.  1.
</event>
<event>
 5   0  0.1521750E-02  0.6029337E+03  0.7818609E-02  0.9899338E-01
        3   -1    0    0  501    0  0.00000000000E+00  0.00000000000E+00  0.94411333558E+03  0.94411334098E+03  0.10100000352E+00 0.  1.
       -3   -1    0    0    0  501  0.00000000000E+00  0.00000000000E+00 -0.96261977733E+02  0.96262030719E+02  0.10100000352E+00 0. -1.
    10030    2    1    2    0    0  0.00000000000E+00  0.00000000000E+00  0.84785135785E+03  0.10403753717E+04  0.60293365227E+03 0.  0.
        4    1    3    3  502    0 -0.20093001958E+03 -0.22392350470E+03  0.39091334052E+03  0.49328436163E+03  0.12699999809E+01 0. -1.
       -4    1    3    3    0  502  0.20093001958E+03  0.22392350470E+03  0.45693801732E+03  0.54709101007E+03  0.12699999809E+01 0.  1.
</event>
<event>
 5   0  0.2309055E-02  0.6012467E+03  0.7818609E-02  0.9902823E-01
       -1   -1    0    0    0  501  0.00000000000E+00  0.00000000000E+00  0.14980390146E+03  0.14980390154E+03  0.50400001928E-02 0.  1.
        1   -1    0    0  501    0  0.00000000000E+00  0.00000000000E+00 -0.60328458510E+03  0.60328458512E+03  0.50400001928E-02 0. -1.
    10030    2    1    2    0    0  0.00000000000E+00  0.00000000000E+00 -0.45348068365E+03  0.75308848667E+03  0.60124665347E+03 0.  0.
        4    1    3    3  502    0  0.62938525513E+02 -0.13846404060E+03  0.98051176564E+02  0.18096738562E+03  0.12699999809E+01 0.  1.
       -4    1    3    3    0  502 -0.62938525513E+02  0.13846404060E+03 -0.55153186021E+03  0.57212110104E+03  0.12699999809E+01 0. -1.
</event>
<event>
 5   0  0.2382531E-02  0.6037508E+03  0.7818609E-02  0.9897655E-01
        1   -1    0    0  501    0  0.00000000000E+00  0.00000000000E+00  0.34489616540E+03  0.34489616544E+03  0.50400001928E-02 0. -1.
       -1   -1    0    0    0  501  0.00000000000E+00  0.00000000000E+00 -0.26422088993E+03  0.26422088998E+03  0.50400001928E-02 0.  1.
    10030    2    1    2    0    0  0.00000000000E+00  0.00000000000E+00  0.80675275470E+02  0.60911705542E+03  0.60375084856E+03 0.  0.
        5    1    3    3  502    0 -0.17188992393E+03  0.23559621700E+03  0.11884286708E+03  0.31495625167E+03  0.46999998093E+01 0. -1.
       -5    1    3    3    0  502  0.17188992393E+03 -0.23559621700E+03 -0.38167591611E+02  0.29416080375E+03  0.46999998093E+01 0.  1.
</event>
<event>
 5   0  0.3737642E-02  0.5965358E+03  0.7818609E-02  0.9912619E-01
        2   -1    0    0  501    0  0.00000000000E+00  0.00000000000E+00  0.21673011083E+03  0.21673011084E+03  0.25500000920E-02 0. -1.
       -2   -1    0    0    0  501  0.00000000000E+00  0.00000000000E+00 -0.41048170840E+03  0.41048170840E+03  0.25500000920E-02 0.  1.
    10030    2    1    2    0    0  0.00000000000E+00  0.00000000000E+00 -0.19375159757E+03  0.62721181925E+03  0.59653582009E+03 0.  0.
        5    1    3    3  502    0  0.62680940085E+02 -0.36478825284E+01  0.20966321917E+03  0.21891313978E+03  0.46999998093E+01 0. -1.
       -5    1    3    3    0  502 -0.62680940085E+02  0.36478825284E+01 -0.40341481674E+03  0.40829867947E+03  0.46999998093E+01 0.  1.
</event>
<event>
 5   0  0.2276105E-02  0.6024173E+03  0.7818609E-02  0.9900404E-01
       -1   -1    0    0    0  501  0.00000000000E+00  0.00000000000E+00  0.19558061276E+03  0.19558061282E+03  0.50400001928E-02 0. -1.
        1   -1    0    0  501    0  0.00000000000E+00  0.00000000000E+00 -0.46388363097E+03  0.46388363100E+03  0.50400001928E-02 0.  1.
    10030    2    1    2    0    0  0.00000000000E+00  0.00000000000E+00 -0.26830301821E+03  0.65946424382E+03  0.60241728004E+03 0.  0.
        1    1    3    3  502    0 -0.21693293328E+03  0.19141578269E+03 -0.22591521431E+03  0.36706618406E+03  0.50400001928E-02 0. -1.
       -1    1    3    3    0  502  0.21693293328E+03 -0.19141578269E+03 -0.42387803908E+02  0.29239805976E+03  0.50400001928E-02 0.  1.
</event>
<event>
 5   0  0.3737642E-02  0.6122137E+03  0.7818609E-02  0.9880386E-01
        2   -1    0    0  501    0  0.00000000000E+00  0.00000000000E+00  0.22914385139E+03  0.22914385140E+03  0.25500000920E-02 0. -1.
       -2   -1    0    0    0  501  0.00000000000E+00  0.00000000000E+00 -0.40891955108E+03  0.40891955109E+03  0.25500000920E-02 0.  1.
    10030    2    1    2    0    0  0.00000000000E+00  0.00000000000E+00 -0.17977569969E+03  0.63806340249E+03  0.61221369095E+03 0.  0.
        5    1    3    3  502    0  0.23486465189E+03  0.19624926743E+03 -0.87769500545E+02  0.31843485189E+03  0.46999998093E+01 0. -1.
       -5    1    3    3    0  502 -0.23486465189E+03 -0.19624926743E+03 -0.92006199148E+02  0.31962855059E+03  0.46999998093E+01 0.  1.
</event>
<event>
 5   0  0.2225808E-02  0.5826067E+03  0.7818609E-02  0.9942163E-01
        1   -1    0    0  501    0  0.00000000000E+00  0.00000000000E+00  0.43855610670E+03  0.43855610673E+03  0.50400001928E-02 0. -1.
       -1   -1    0    0    0  501  0.00000000000E+00  0.00000000000E+00 -0.19349323521E+03  0.19349323527E+03  0.50400001928E-02 0.  1.
    10030    2    1    2    0    0  0.00000000000E+00  0.00000000000E+00  0.24506287150E+03  0.63204934200E+03  0.58260669387E+03 0.  0.
        2    1    3    3  502    0 -0.21937607072E+03  0.12255435118E+03  0.28238691767E+03  0.37800502731E+03  0.25500000920E-02 0. -1.
       -2    1    3    3    0  502  0.21937607072E+03 -0.12255435118E+03 -0.37324046180E+02  0.25404431469E+03  0.25500000920E-02 0.  1.
</event>
<event>
 5   0  0.2276105E-02  0.5998878E+03  0.7818609E-02  0.9905639E-01
        1   -1    0    0  501    0  0.00000000000E+00  0.00000000000E+00  0.10501421836E+04  0.10501421836E+04  0.50400001928E-02 0.  1.
       -1   -1    0    0    0  501  0.00000000000E+00  0.00000000000E+00 -0.85670626599E+02  0.85670626748E+02  0.50400001928E-02 0. -1.
    10030    2    1    2    0    0  0.00000000000E+00  0.00000000000E+00  0.96447155699E+03  0.11358128103E+04  0.59988778610E+03 0.  0.
        1    1    3    3  502    0  0.21200149553E+03 -0.11461865874E+03  0.14415150622E+03  0.28082330353E+03  0.50400001928E-02 0. -1.
       -1    1    3    3    0  502 -0.21200149553E+03  0.11461865874E+03  0.82032005077E+03  0.85498950681E+03  0.50400001928E-02 0.  1.
</event>
<event>
 5   0  0.1521750E-02  0.6006943E+03  0.7818609E-02  0.9903967E-01
        3   -1    0    0  501    0  0.00000000000E+00  0.00000000000E+00  0.49346694083E+03  0.49346695117E+03  0.10100000352E+00 0. -1.
       -3   -1    0    0    0  501  0.00000000000E+00  0.00000000000E+00 -0.18280537700E+03  0.18280540491E+03  0.10100000352E+00 0.  1.
    10030    2    1    2    0    0  0.00000000000E+00  0.00000000000E+00  0.31066156383E+03  0.67627235607E+03  0.60069434187E+03 0.  0.
        4    1    3    3  502    0  0.47851138645E+02 -0.28527350178E+03  0.64312695528E+02  0.29632488589E+03  0.12699999809E+01 0.  1.
       -4    1    3    3    0  502 -0.47851138645E+02  0.28527350178E+03  0.24634886830E+03  0.37994747019E+03  0.12699999809E+01 0. -1.
</event>
<event>
 5   0  0.2295179E-02  0.6025331E+03  0.7818609E-02  0.9900164E-01
        1   -1    0    0  501    0  0.00000000000E+00  0.00000000000E+00  0.77899667019E+03  0.77899667021E+03  0.50400001928E-02 0.  1.
       -1   -1    0    0    0  501  0.00000000000E+00  0.00000000000E+00 -0.11651082769E+03  0.11651082779E+03  0.50400001928E-02 0. -1.
    10030    2    1    2    0    0  0.00000000000E+00  0.00000000000E+00  0.66248584251E+03  0.89550749800E+03  0.60253314221E+03 0.  0.
        3    1    3    3  502    0 -0.28810513206E+03 -0.51384107867E+02  0.22493127471E+03  0.36910565182E+03  0.10100000352E+00 0. -1.
       -3    1    3    3    0  502  0.28810513206E+03  0.51384107867E+02  0.43755456780E+03  0.52640184618E+03  0.10100000352E+00 0.  1.
</event>
<event>
 5   0  0.3798925E-02  0.5977465E+03  0.7818609E-02  0.9910092E-01
        2   -1    0    0  501    0  0.00000000000E+00  0.00000000000E+00  0.19534547667E+04  0.19534547667E+04  0.25500000920E-02 0. -1.
       -2   -1    0    0    0  501  0.00000000000E+00  0.00000000000E+00 -0.45726797514E+02  0.45726797585E+02  0.25500000920E-02 0.  1.
    10030    2    1    2    0    0  0.00000000000E+00  0.00000000000E+00  0.19077279692E+04  0.19991815643E+04  0.59774653707E+03 0.  0.
        2    1    3    3  502    0 -0.56026514069E+02 -0.29345452847E+03  0.92574205414E+03  0.97275530395E+03  0.25500000920E-02 0. -1.
       -2    1    3    3    0  502  0.56026514069E+02  0.29345452847E+03  0.98198591508E+03  0.10264262604E+04  0.25500000920E-02 0.  1.
</event>
<event>
 5   0  0.3934634E-02  0.5983580E+03  0.7818609E-02  0.9908819E-01
        2   -1    0    0  501    0  0.00000000000E+00  0.00000000000E+00  0.17033198969E+03  0.17033198971E+03  0.25500000920E-02 0.  1.
       -2   -1    0    0    0  501  0.00000000000E+00  0.00000000000E+00 -0.52549177446E+03  0.52549177446E+03  0.25500000920E-02 0. -1.
    10030    2    1    2    0    0  0.00000000000E+00  0.00000000000E+00 -0.35515978476E+03  0.69582376418E+03  0.59835795146E+03 0.  0.
        1    1    3    3  502    0 -0.76733573870E+02  0.12104480521E+03 -0.48297533502E+03  0.50379069115E+03  0.50400001928E-02 0. -1.
       -1    1    3    3    0  502  0.76733573870E+02 -0.12104480521E+03  0.12781555025E+03  0.19203307303E+03  0.50400001928E-02 0.  1.
</event>
<event>
 5   0  0.2309055E-02  0.5991403E+03  0.7818609E-02  0.9907191E-01
       -1   -1    0    0    0  501  0.00000000000E+00  0.00000000000E+00  0.21292632185E+03  0.21292632191E+03  0.50400001928E-02 0. -1.
        1   -1    0    0  501    0  0.00000000000E+00  0.00000000000E+00 -0.42147102849E+03  0.42147102852E+03  0.50400001928E-02 0.  1.
    10030    2    1    2    0    0  0.00000000000E+00  0.00000000000E+00 -0.20854470664E+03  0.63439735042E+03  0.59914030373E+03 0.  0.
        4    1    3    3  502    0 -0.24858454394E+03  0.10337536330E+03  0.34835688312E+02  0.27146984972E+03  0.12699999809E+01 0. -1.
       -4    1    3    3    0  502  0.24858454394E+03 -0.10337536330E+03 -0.24338039495E+03  0.36292750071E+03  0.12699999809E+01 0.  1.
</event>
<event>
 5   0  0.2295179E-02  0.6138449E+03  0.7818609E-02  0.9877091E-01
        1   -1    0    0  501    0  0.00000000000E+00  0.00000000000E+00  0.63593377642E+03  0.63593377644E+03  0.50400001928E-02 0. -1.
       -1   -1    0    0    0  501  0.00000000000E+00  0.00000000000E+00 -0.14813083342E+03  0.14813083350E+03  0.50400001928E-02 0.  1.
    10030    2    1    2    0    0  0.00000000000E+00  0.00000000000E+00  0.48780294300E+03  0.78406460994E+03  0.61384493267E+03 0.  0.
        3    1    3    3  502    0 -0.24306044201E+03  0.12271750887E+03  0.42482527519E+03  0.50459339086E+03  0.10100000352E+00 0. -1.
       -3    1    3    3    0  502  0.24306044201E+03 -0.12271750887E+03  0.62977667803E+02  0.27947121908E+03  0.10100000352E+00 0.  1.
</event>
<event>
 5   0  0.2276105E-02  0.5977330E+03  0.7818609E-02  0.9910121E-01
        1   -1    0    0  501    0  0.00000000000E+00  0.00000000000E+00  0.11791845346E+04  0.11791845346E+04  0.50400001928E-02 0. -1.
       -1   -1    0    0    0  501  0.00000000000E+00  0.00000000000E+00 -0.75748265875E+02  0.75748266042E+02  0.50400001928E-02 0.  1.
    10030    2    1    2    0    0  0.00000000000E+00  0.00000000000E+00  0.11034362687E+04  0.12549328006E+04  0.59773299642E+03 0.  0.
        1    1    3    3  502    0 -0.69715058196E+02 -0.10658961992E+03  0.11193553758E+04  0.11265780017E+04  0.50400001928E-02 0. -1.
       -1    1    3    3    0  502  0.69715058196E+02  0.10658961992E+03 -0.15919107147E+02  0.12835479894E+03  0.50400001928E-02 0.  1.
</event>
<event>
 5   0  0.2225808E-02  0.5851233E+03  0.7818609E-02  0.9936760E-01
       -1   -1    0    0    0  501  0.00000000000E+00  0.00000000000E+00  0.16405867111E+03  0.16405867119E+03  0.50400001928E-02 0. -1.
        1   -1    0    0  501    0  0.00000000000E+00  0.00000000000E+00 -0.52171767063E+03  0.52171767065E+03  0.50400001928E-02 0.  1.
    10030    2    1    2    0    0  0.00000000000E+00  0.00000000000E+00 -0.35765899952E+03  0.68577634184E+03  0.58512326145E+03 0.  0.
        2    1    3    3  502    0  0.20686917405E+03  0.18173637892E+03 -0.29467196018E+03  0.40330451364E+03  0.25500000920E-02 0.  1.
       -2    1    3    3    0  502 -0.20686917405E+03 -0.18173637892E+03 -0.62987039332E+02  0.28247182820E+03  0.25500000920E-02 0. -1.
</event>
<event>
 5   0  0.3934634E-02  0.5988418E+03  0.7818609E-02  0.9907812E-01
        2   -1    0    0  501    0  0.00000000000E+00  0.00000000000E+00  0.13711270114E+04  0.13711270114E+04  0.25500000920E-02 0. -1.
       -2   -1    0    0    0  501  0.00000000000E+00  0.00000000000E+00 -0.65386272925E+02  0.65386272975E+02  0.25500000920E-02 0.  1.
    10030    2    1    2    0    0  0.00000000000E+00  0.00000000000E+00  0.13057407385E+04  0.14365132844E+04  0.59884183227E+03 0.  0.
        1    1    3    3  502    0 -0.76095610146E+02 -0.28714021016E+03  0.56270402944E+03  0.63629856746E+03  0.50400001928E-02 0.  1.
       -1    1    3    3    0  502  0.76095610146E+02  0.28714021016E+03  0.74303670904E+03  0.80021471692E+03  0.50400001928E-02 0. -1.
</event>
<event>
 5   0  0.3832191E-02  0.6129411E+03  0.7818609E-02  0.9878915E-01
       -2   -1    0    0    0  501  0.00000000000E+00  0.00000000000E+00  0.45590185575E+02  0.45590185646E+02  0.25500000920E-02 0.  1.
        2   -1    0    0  501    0  0.00000000000E+00  0.00000000000E+00 -0.20601845384E+04  0.20601845384E+04  0.25500000920E-02 0. -1.
    10030    2    1    2    0    0  0.00000000000E+00  0.00000000000E+00 -0.20145943528E+04  0.21057747240E+04  0.61294109178E+03 0.  0.
        3    1    3    3  502    0 -0.16599424317E+03 -0.17732479837E+03 -0.16493454357E+04  0.16671348324E+04  0.10100000352E+00 0. -1.
       -3    1    3    3    0  502  0.16599424317E+03  0.17732479837E+03 -0.36524891705E+03  0.43863989159E+03  0.10100000352E+00 0.  1.
</event>
<event>
 5   0  0.2295179E-02  0.5961031E+03  0.7818609E-02  0.9913524E-01
       -1   -1    0    0    0  501  0.00000000000E+00  0.00000000000E+00  0.28416851373E+03  0.28416851377E+03  0.50400001928E-02 0.  1.
        1   -1    0    0  501    0  0.00000000000E+00  0.00000000000E+00 -0.31261287872E+03  0.31261287876E+03  0.50400001928E-02 0. -1.
    10030    2    1    2    0    0  0.00000000000E+00  0.00000000000E+00 -0.28444364991E+02  0.59678139253E+03  0.59610313585E+03 0.  0.
        3    1    3    3  502    0  0.21191155730E+03  0.10282363153E+03  0.16862055815E+03  0.28967587084E+03  0.10100000352E+00 0.  1.
       -3    1    3    3    0  502 -0.21191155730E+03 -0.10282363153E+03 -0.19706492314E+03  0.30710552169E+03  0.10100000352E+00 0. -1.
</event>
<event>
 5   0  0.3724066E-02  0.5978640E+03  0.7818609E-02  0.9909848E-01
        2   -1    0    0  501    0  0.00000000000E+00  0.00000000000E+00  0.40304172687E+03  0.40304172688E+03  0.25500000920E-02 0.  1.
       -2   -1    0    0    0  501  0.00000000000E+00  0.00000000000E+00 -0.22171482711E+03  0.22171482712E+03  0.25500000920E-02 0. -1.
    10030    2    1    2    0    0  0.00000000000E+00  0.00000000000E+00  0.18132689976E+03  0.62475655401E+03  0.59786395375E+03 0.  0.
        4    1    3    3  502    0 -0.24380417853E+03 -0.15243486319E+03  0.52439987224E+01  0.28758646944E+03  0.12699999809E+01 0. -1.
       -4    1    3    3    0  502  0.24380417853E+03  0.15243486319E+03  0.17608290104E+03  0.33717008456E+03  0.12699999809E+01 0.  1.
</event>
<event>
 5   0  0.2295179E-02  0.5961313E+03  0.7818609E-02  0.9913465E-01
        1   -1    0    0  501    0  0.00000000000E+00  0.00000000000E+00  0.23810999932E+03  0.23810999937E+03  0.50400001928E-02 0. -1.
       -1   -1    0    0    0  501  0.00000000000E+00  0.00000000000E+00 -0.37311797340E+03  0.37311797343E+03  0.50400001928E-02 0.  1.
    10030    2    1    2    0    0  0.00000000000E+00  0.00000000000E+00 -0.13500797407E+03  0.61122797280E+03  0.59613126212E+03 0.  0.
        3    1    3    3  502    0 -0.90338246435E+02  0.85021381483E+01  0.22360479909E+03  0.24131390656E+03  0.10100000352E+00 0. -1.
       -3    1    3    3    0  502  0.90338246435E+02 -0.85021381483E+01 -0.35861277317E+03  0.36991406624E+03  0.10100000352E+00 0.  1.
</event>
<event>
 5   0  0.2295179E-02  0.6016901E+03  0.7818609E-02  0.9901906E-01
        1   -1    0    0  501    0  0.00000000000E+00  0.00000000000E+00  0.13042634767E+04  0.13042634767E+04  0.50400001928E-02 0. -1.
       -1   -1    0    0    0  501  0.00000000000E+00  0.00000000000E+00 -0.69393759405E+02  0.69393759588E+02  0.50400001928E-02 0.  1.
    10030    2    1    2    0    0  0.00000000000E+00  0.00000000000E+00  0.12348697173E+04  0.13736572363E+04  0.60169010640E+03 0.  0.
        3    1    3    3  502    0  0.23833360615E+03  0.22441704888E+02  0.10334243737E+04  0.10607886144E+04  0.10100000352E+00 0. -1.
       -3    1    3    3    0  502 -0.23833360615E+03 -0.22441704888E+02  0.20144534354E+03  0.31286862191E+03  0.10100000352E+00 0.  1.
</event>
<event>
 5   0  0.3737642E-02  0.6515139E+03  0.7818609E-02  0.9803943E-01
       -2   -1    0    0    0  501  0.00000000000E+00  0.00000000000E+00  0.19285554162E+04  0.19285554162E+04  0.25500000920E-02 0.  1.
        2   -1    0    0  501    0  0.00000000000E+00  0.00000000000E+00 -0.55024388364E+02  0.55024388423E+02  0.25500000920E-02 0. -1.
    10030    2    1    2    0    0  0.00000000000E+00  0.00000000000E+00  0.18735310278E+04  0.19835798046E+04  0.65151387480E+03 0.  0.
        5    1    3    3  502    0 -0.36243471589E+02 -0.18928285925E+03  0.13728950943E+03  0.23666873354E+03  0.46999998093E+01 0. -1.
       -5    1    3    3    0  502  0.36243471589E+02  0.18928285925E+03  0.17362415184E+04  0.17469110711E+04  0.46999998093E+01 0.  1.
</event>
<event>
 5   0  0.2309055E-02  0.5995277E+03  0.7818609E-02  0.9906386E-01
       -1   -1    0    0    0  501  0.00000000000E+00  0.00000000000E+00  0.57056306682E+02  0.57056306905E+02  0.50400001928E-02 0.  1.
        1   -1    0    0  501    0  0.00000000000E+00  0.00000000000E+00 -0.15749066012E+04  0.15749066012E+04  0.50400001928E-02 0. -1.
    10030    2    1    2    0    0  0.00000000000E+00  0.00000000000E+00 -0.15178502945E+04  0.16319629081E+04  0.59952766148E+03 0.  0.
        4    1    3    3  502    0 -0.12424308081E+03 -0.11665485988E+03 -0.87657291861E+02  0.19165101925E+03  0.12699999809E+01 0.  1.
       -4    1    3    3    0  502  0.12424308081E+03  0.11665485988E+03 -0.14301930026E+04  0.14403118888E+04  0.12699999809E+01 0. -1.
</event>
<event>
 5   0  0.2295179E-02  0.5907690E+03  0.7818609E-02  0.9924745E-01
        1   -1    0    0  501    0  0.00000000000E+00  0.00000000000E+00  0.74934775260E+03  0.74934775261E+03  0.50400001928E-02 0. -1.
       -1   -1    0    0    0  501  0.00000000000E+00  0.00000000000E+00 -0.11643725793E+03  0.11643725804E+03  0.50400001928E-02 0.  1.
    10030    2    1    2    0    0  0.00000000000E+00  0.00000000000E+00  0.63291049466E+03  0.86578501066E+03  0.59076898228E+03 0.  0.
        3    1    3    3  502    0 -0.19267055396E+03 -0.11816070516E+03  0.37743559258E+02  0.22914729122E+03  0.10100000352E+00 0.  1.
       -3    1    3    3    0  502  0.19267055396E+03  0.11816070516E+03  0.59516693541E+03  0.63663771944E+03  0.10100000352E+00 0. -1.
</event>
<event>
 5   0  0.3798925E-02  0.5972792E+03  0.7818609E-02  0.9911067E-01
       -2   -1    0    0    0  501  0.00000000000E+00  0.00000000000E+00  0.12700736458E+03  0.12700736461E+03  0.25500000920E-02 0.  1.
        2   -1    0    0  501    0  0.00000000000E+00  0.00000000000E+00 -0.70220810614E+03  0.70220810614E+03  0.25500000920E-02 0. -1.
    10030    2    1    2    0    0  0.00000000000E+00  0.00000000000E+00 -0.57520074155E+03  0.82921547075E+03  0.59727916743E+03 0.  0.
        2    1    3    3  502    0 -0.15912143052E+03 -0.98349268648E+02 -0.61079430328E+03  0.63879722074E+03  0.25500000920E-02 0. -1.
       -2    1    3    3    0  502  0.15912143052E+03  0.98349268648E+02  0.35593561726E+02  0.19041825001E+03  0.25500000920E-02 0.  1.
</event>
<event>
 5   0  0.2309055E-02  0.6016294E+03  0.7818609E-02  0.9902031E-01
        1   -1    0    0  501    0  0.00000000000E+00  0.00000000000E+00  0.46252680437E+03  0.46252680440E+03  0.50400001928E-02 0.  1.
       -1   -1    0    0    0  501  0.00000000000E+00  0.00000000000E+00 -0.19564162132E+03  0.19564162139E+03  0.50400001928E-02 0. -1.
    10030    2    1    2    0    0  0.00000000000E+00  0.00000000000E+00  0.26688518305E+03  0.65816842579E+03  0.60162943393E+03 0.  0.
        4    1    3    3  502    0 -0.13155923951E+02 -0.24599792808E+03 -0.55406458426E+02  0.25250652960E+03  0.12699999809E+01 0. -1.
       -4    1    3    3    0  502  0.13155923951E+02  0.24599792808E+03  0.32229164147E+03  0.40566189619E+03  0.12699999809E+01 0.  1.
</event>
<event>
 5   0  0.3934634E-02  0.6003270E+03  0.7818609E-02  0.9904728E-01
        2   -1    0    0  501    0  0.00000000000E+00  0.00000000000E+00  0.86491961715E+03  0.86491961716E+03  0.25500000920E-02 0. -1.
       -2   -1    0    0    0  501  0.00000000000E+00  0.00000000000E+00 -0.10416938164E+03  0.10416938167E+03  0.25500000920E-02 0.  1.
    10030    2    1    2    0    0  0.00000000000E+00  0.00000000000E+00  0.76075023552E+03  0.96908899883E+03  0.60032704987E+03 0.  0.
        1    1    3    3  502    0 -0.36625064377E+02 -0.32755415270E+00  0.86129881274E+03  0.86207722826E+03  0.50400001928E-02 0. -1.
       -1    1    3    3    0  502  0.36625064377E+02  0.32755415270E+00 -0.10054857722E+03  0.10701177056E+03  0.50400001928E-02 0.  1.
</event>
<event>
 5   0  0.1521750E-02  0.5956925E+03  0.7818609E-02  0.9914383E-01
       -4   -1    0    0    0  501  0.00000000000E+00  0.00000000000E+00  0.51970945665E+03  0.51971100838E+03  0.12699999809E+01 0.  1.
        4   -1    0    0  501    0  0.00000000000E+00  0.00000000000E+00 -0.17069196190E+03  0.17069668643E+03  0.12699999809E+01 0. -1.
    10030    2    1    2    0    0  0.00000000000E+00  0.00000000000E+00  0.34901749475E+03  0.69040769481E+03  0.59569251582E+03 0.  0.
        3    1    3    3  502    0 -0.15204187354E+03 -0.96201956629E+02 -0.10059412214E+03  0.20613281005E+03  0.10100000352E+00 0. -1.
       -3    1    3    3    0  502  0.15204187354E+03  0.96201956629E+02  0.44961161689E+03  0.48427488476E+03  0.10100000352E+00 0.  1.
</event>
<event>
 5   0  0.2309055E-02  0.6008265E+03  0.7818609E-02  0.9903693E-01
        1   -1    0    0  501    0  0.00000000000E+00  0.00000000000E+00  0.22502688835E+04  0.22502688835E+04  0.50400001928E-02 0. -1.
       -1   -1    0    0    0  501  0.00000000000E+00  0.00000000000E+00 -0.40105481513E+02  0.40105481829E+02  0.50400001928E-02 0.  1.
    10030    2    1    2    0    0  0.00000000000E+00  0.00000000000E+00  0.22101634019E+04  0.22903743653E+04  0.60082648901E+03 0.  0.
        4    1    3    3  502    0 -0.10210211118E+03 -0.26920339125E+03  0.14319226413E+04  0.14605818603E+04  0.12699999809E+01 0. -1.
       -4    1    3    3    0  502  0.10210211118E+03  0.26920339125E+03  0.77824076065E+03  0.82979250503E+03  0.12699999809E+01 0.  1.
</event>
<event>
 5   0  0.3832191E-02  0.5956088E+03  0.7818609E-02  0.9914558E-01
        2   -1    0    0  501    0  0.00000000000E+00  0.00000000000E+00  0.88363163076E+03  0.88363163076E+03  0.25500000920E-02 0.  1.
       -2   -1    0    0    0  501  0.00000000000E+00  0.00000000000E+00 -0.10036700581E+03  0.10036700584E+03  0.25500000920E-02 0. -1.
    10030    2    1    2    0    0  0.00000000000E+00  0.00000000000E+00  0.78326462495E+03  0.98399863661E+03  0.59560880126E+03 0.  0.
        3    1    3    3  502    0  0.29327685890E+01 -0.68231851647E+02  0.87051944124E+03  0.87319430511E+03  0.10100000352E+00 0.  1.
       -3    1    3    3    0  502 -0.29327685890E+01  0.68231851647E+02 -0.87254816287E+02  0.11080433149E+03  0.10100000352E+00 0. -1.
</event>
<event>
 5   0  0.2295179E-02  0.5690792E+03  0.7818609E-02  0.9971718E-01
       -1   -1    0    0    0  501  0.00000000000E+00  0.00000000000E+00  0.10732767703E+03  0.10732767715E+03  0.50400001928E-02 0. -1.
        1   -1    0    0  501    0  0.00000000000E+00  0.00000000000E+00 -0.75435133234E+03  0.75435133236E+03  0.50400001928E-02 0.  1.
    10030    2    1    2    0    0  0.00000000000E+00  0.00000000000E+00 -0.64702365531E+03  0.86167900951E+03  0.56907917279E+03 0.  0.
        3    1    3    3  502    0  0.16917675984E+03 -0.13809478339E+03 -0.59970383467E+03  0.63822852082E+03  0.10100000352E+00 0.  1.
       -3    1    3    3    0  502 -0.16917675984E+03  0.13809478339E+03 -0.47319820639E+02  0.22345048869E+03  0.10100000352E+00 0. -1.
</event>
<event>
 5   0  0.3798925E-02  0.6000260E+03  0.7818609E-02  0.9905352E-01
       -2   -1    0    0    0  501  0.00000000000E+00  0.00000000000E+00  0.60946392358E+02  0.60946392411E+02  0.25500000920E-02 0.  1.
        2   -1    0    0  501    0  0.00000000000E+00  0.00000000000E+00 -0.14768354741E+04  0.14768354741E+04  0.25500000920E-02 0. -1.
    10030    2    1    2    0    0  0.00000000000E+00  0.00000000000E+00 -0.14158890818E+04  0.15377818665E+04  0.60002598043E+03 0.  0.
        2    1    3    3  502    0  0.72415362797E+02 -0.96658970491E+02 -0.14117787962E+04  0.14169355352E+04  0.25500000920E-02 0. -1.
       -2    1    3    3    0  502 -0.72415362797E+02  0.96658970491E+02 -0.41102855137E+01  0.12084633134E+03  0.25500000920E-02 0.  1.
</event>
<event>
 5   0  0.3832191E-02  0.5958185E+03  0.7818609E-02  0.9914119E-01
        2   -1    0    0  501    0  0.00000000000E+00  0.00000000000E+00  0.13255242652E+04  0.13255242652E+04  0.25500000920E-02 0. -1.
       -2   -1    0    0    0  501  0.00000000000E+00  0.00000000000E+00 -0.66954591336E+02  0.66954591385E+02  0.25500000920E-02 0.  1.
    10030    2    1    2    0    0  0.00000000000E+00  0.00000000000E+00  0.12585696739E+04  0.13924788566E+04  0.59581854794E+03 0.  0.
        3    1    3    3  502    0  0.14458359798E+03  0.25288409864E+03  0.48342484275E+03  0.56440621270E+03  0.10100000352E+00 0.  1.
       -3    1    3    3    0  502 -0.14458359798E+03 -0.25288409864E+03  0.77514483111E+03  0.82807264388E+03  0.10100000352E+00 0. -1.
</event>
<event>
 5   0  0.3798925E-02  0.6023678E+03  0.7818609E-02  0.9900506E-01
        2   -1    0    0  501    0  0.00000000000E+00  0.00000000000E+00  0.45755308351E+03  0.45755308351E+03  0.25500000920E-02 0.  1.
       -2   -1    0    0    0  501  0.00000000000E+00  0.00000000000E+00 -0.19825401476E+03  0.19825401478E+03  0.25500000920E-02 0. -1.
    10030    2    1    2    0    0  0.00000000000E+00  0.00000000000E+00  0.25929906875E+03  0.65580709829E+03  0.60236778061E+03 0.  0.
        2    1    3    3  502    0 -0.33528373683E+02 -0.33626462648E+02 -0.19415289385E+03  0.19987555385E+03  0.25500000920E-02 0. -1.
       -2    1    3    3    0  502  0.33528373683E+02  0.33626462648E+02  0.45345196259E+03  0.45593154444E+03  0.25500000920E-02 0.  1.
</event>
<event>
 5   0  0.3798925E-02  0.6033270E+03  0.7818609E-02  0.9898527E-01
       -2   -1    0    0    0  501  0.00000000000E+00  0.00000000000E+00  0.55850175614E+02  0.55850175672E+02  0.25500000920E-02 0.  1.
        2   -1    0    0  501    0  0.00000000000E+00  0.00000000000E+00 -0.16293749794E+04  0.16293749794E+04  0.25500000920E-02 0. -1.
    10030    2    1    2    0    0  0.00000000000E+00  0.00000000000E+00 -0.15735248038E+04  0.16852251551E+04  0.60332703832E+03 0.  0.
        2    1    3    3  502    0  0.28299673091E+03 -0.87614181177E+02 -0.94569353598E+03  0.99100941390E+03  0.25500000920E-02 0. -1.
       -2    1    3    3    0  502 -0.28299673091E+03  0.87614181177E+02 -0.62783126783E+03  0.69421574119E+03  0.25500000920E-02 0.  1.
</event>
<event>
 5   0  0.2382531E-02  0.6023584E+03  0.7818609E-02  0.9900525E-01
       -1   -1    0    0    0  501  0.00000000000E+00  0.00000000000E+00  0.20693750077E+03  0.20693750083E+03  0.50400001928E-02 0. -1.
        1   -1    0    0  501    0  0.00000000000E+00  0.00000000000E+00 -0.43833966075E+03  0.43833966078E+03  0.50400001928E-02 0.  1.
    10030    2    1    2    0    0  0.00000000000E+00  0.00000000000E+00 -0.23140215998E+03  0.64527716161E+03  0.60235841129E+03 0.  0.
        5    1    3    3  502    0  0.20434999928E+02  0.29860429731E+03 -0.15130641922E+03  0.33540697382E+03  0.46999998093E+01 0.  1.
       -5    1    3    3    0  502 -0.20434999928E+02 -0.29860429731E+03 -0.80095740766E+02  0.30987018779E+03  0.46999998093E+01 0. -1.
</event>
<event>
 5   0  0.2309055E-02  0.6013203E+03  0.7818609E-02  0.9902671E-01
       -1   -1    0    0    0  501  0.00000000000E+00  0.00000000000E+00  0.45093331314E+03  0.45093331317E+03  0.50400001928E-02 0. -1.
        1   -1    0    0  501    0  0.00000000000E+00  0.00000000000E+00 -0.20046538741E+03  0.20046538747E+03  0.50400001928E-02 0.  1.
    10030    2    1    2    0    0  0.00000000000E+00  0.00000000000E+00  0.25046792573E+03  0.65139870064E+03  0.60132028519E+03 0.  0.
        4    1    3    3  502    0 -0.18678349332E+03  0.33401243194E+02 -0.12740790384E+03  0.22855656474E+03  0.12699999809E+01 0.  1.
       -4    1    3    3    0  502  0.18678349332E+03 -0.33401243194E+02  0.37787582957E+03  0.42284213591E+03  0.12699999809E+01 0. -1.
</event>
<event>
 5   0  0.3798925E-02  0.5993043E+03  0.7818609E-02  0.9906850E-01
       -2   -1    0    0    0  501  0.00000000000E+00  0.00000000000E+00  0.68466415003E+02  0.68466415050E+02  0.25500000920E-02 0. -1.
        2   -1    0    0  501    0  0.00000000000E+00  0.00000000000E+00 -0.13114664900E+04  0.13114664900E+04  0.25500000920E-02 0.  1.
    10030    2    1    2    0    0  0.00000000000E+00  0.00000000000E+00 -0.12430000750E+04  0.13799329051E+04  0.59930429333E+03 0.  0.
        2    1    3    3  502    0 -0.66635899657E+02  0.18428975910E+03 -0.99533188808E+02  0.21979516399E+03  0.25500000920E-02 0. -1.
       -2    1    3    3    0  502  0.66635899657E+02 -0.18428975910E+03 -0.11434668862E+04  0.11601377411E+04  0.25500000920E-02 0.  1.
</event>
<event>
 5   0  0.3798925E-02  0.6055234E+03  0.7818609E-02  0.9894013E-01
       -2   -1    0    0    0  501  0.00000000000E+00  0.00000000000E+00  0.54987496284E+02  0.54987496343E+02  0.25500000920E-02 0.  1.
        2   -1    0    0  501    0  0.00000000000E+00  0.00000000000E+00 -0.16670087922E+04  0.16670087922E+04  0.25500000920E-02 0. -1.
    10030    2    1    2    0    0  0.00000000000E+00  0.00000000000E+00 -0.16120212959E+04  0.17219962885E+04  0.60552337632E+03 0.  0.
        2    1    3    3  502    0 -0.63914501924E+02  0.29556398045E+03 -0.76368557783E+03  0.82137615736E+03  0.25500000920E-02 0. -1.
       -2    1    3    3    0  502  0.63914501924E+02 -0.29556398045E+03 -0.84833571805E+03  0.90062013115E+03  0.25500000920E-02 0.  1.
</event>
<event>
 5   0  0.2382531E-02  0.5940360E+03  0.7818609E-02  0.9917857E-01
       -1   -1    0    0    0  501  0.00000000000E+00  0.00000000000E+00  0.12085915108E+03  0.12085915118E+03  0.50400001928E-02 0. -1.
        1   -1    0    0  501    0  0.00000000000E+00  0.00000000000E+00 -0.72993795334E+03  0.72993795335E+03  0.50400001928E-02 0.  1.
    10030    2    1    2    0    0  0.00000000000E+00  0.00000000000E+00 -0.60907880226E+03  0.85079710454E+03  0.59403596333E+03 0.  0.
        5    1    3    3  502    0  0.26318864055E+03 -0.11776961864E+03 -0.40641575900E+03  0.49833101725E+03  0.46999998093E+01 0.  1.
       -5    1    3    3    0  502 -0.26318864055E+03  0.11776961864E+03 -0.20266304326E+03  0.35246608729E+03  0.46999998093E+01 0. -1.
</event>
<event>
 5   0  0.3832191E-02  0.6350519E+03  0.7818609E-02  0.9835240E-01
       -2   -1    0    0    0  501  0.00000000000E+00  0.00000000000E+00  0.28108687788E+03  0.28108687789E+03  0.25500000920E-02 0.  1.
        2   -1    0    0  501    0  0.00000000000E+00  0.00000000000E+00 -0.35868888391E+03  0.35868888392E+03  0.25500000920E-02 0. -1.
    10030    2    1    2    0    0  0.00000000000E+00  0.00000000000E+00 -0.77602006035E+02  0.63977576181E+03  0.63505193021E+03 0.  0.
        3    1    3    3  502    0 -0.43038764112E+02 -0.30102391950E+03 -0.13088657438E+03  0.33105745858E+03  0.10100000352E+00 0. -1.
       -3    1    3    3    0  502  0.43038764112E+02  0.30102391950E+03  0.53284568342E+02  0.30871830323E+03  0.10100000352E+00 0.  1.
</event>
<event>
 5   0  0.1521750E-02  0.5991178E+03  0.7818609E-02  0.9907238E-01
        4   -1    0    0  501    0  0.00000000000E+00  0.00000000000E+00  0.12487123050E+03  0.12487768859E+03  0.12699999809E+01 0.  1.
       -4   -1    0    0    0  501  0.00000000000E+00  0.00000000000E+00 -0.71859889911E+03  0.71860002136E+03  0.12699999809E+01 0. -1.
    10030    2    1    2    0    0  0.00000000000E+00  0.00000000000E+00 -0.59372766861E+03  0.84347770994E+03  0.59911777031E+03 0.  0.
        1    1    3    3  502    0 -0.16588888739E+03 -0.14193418036E+03 -0.80930204450E+01  0.21847180944E+03  0.50400001928E-02 0.  1.
       -1    1    3    3    0  502  0.16588888739E+03  0.14193418036E+03 -0.58563464816E+03  0.62500590050E+03  0.50400001928E-02 0. -1.
</event>
<event>
 5   0  0.2309055E-02  0.5557176E+03  0.7818609E-02  0.1000179E+00
        1   -1    0    0  501    0  0.00000000000E+00  0.00000000000E+00  0.67508923096E+03  0.67508923098E+03  0.50400001928E-02 0. -1.
       -1   -1    0    0    0  501  0.00000000000E+00  0.00000000000E+00 -0.11436343730E+03  0.11436343741E+03  0.50400001928E-02 0.  1.
    10030    2    1    2    0    0  0.00000000000E+00  0.00000000000E+00  0.56072579366E+03  0.78945266839E+03  0.55571764409E+03 0.  0.
        4    1    3    3  502    0  0.10027281350E+03 -0.13519576345E+03 -0.33687404633E+02  0.17166533055E+03  0.12699999809E+01 0.  1.
       -4    1    3    3    0  502 -0.10027281350E+03  0.13519576345E+03  0.59441319829E+03  0.61778733783E+03  0.12699999809E+01 0. -1.
</event>
<event>
 5   0  0.3798925E-02  0.5957809E+03  0.7818609E-02  0.9914198E-01
       -2   -1    0    0    0  501  0.00000000000E+00  0.00000000000E+00  0.51236747310E+03  0.51236747311E+03  0.25500000920E-02 0. -1.
        2   -1    0    0  501    0  0.00000000000E+00  0.00000000000E+00 -0.17319348072E+03  0.17319348073E+03  0.25500000920E-02 0.  1.
    10030    2    1    2    0    0  0.00000000000E+00  0.00000000000E+00  0.33917399238E+03  0.68556095384E+03  0.59578085260E+03 0.  0.
        2    1    3    3  502    0  0.56376679915E+02  0.10345299429E+03 -0.14524453324E+03  0.18702092532E+03  0.25500000920E-02 0.  1.
       -2    1    3    3    0  502 -0.56376679915E+02 -0.10345299429E+03  0.48441852562E+03  0.49854002852E+03  0.25500000920E-02 0. -1.
</event>
<event>
 5   0  0.3737642E-02  0.6002744E+03  0.7818609E-02  0.9904837E-01
        2   -1    0    0  501    0  0.00000000000E+00  0.00000000000E+00  0.86496200529E+03  0.86496200529E+03  0.25500000920E-02 0.  1.
       -2   -1    0    0    0  501  0.00000000000E+00  0.00000000000E+00 -0.10414600538E+03  0.10414600541E+03  0.25500000920E-02 0. -1.
    10030    2    1    2    0    0  0.00000000000E+00  0.00000000000E+00  0.76081599990E+03  0.96910801070E+03  0.60027439617E+03 0.  0.
        5    1    3    3  502    0 -0.17292138723E+03  0.16791480303E+03  0.66904137118E+03  0.71115092180E+03  0.46999998093E+01 0.  1.
       -5    1    3    3    0  502  0.17292138723E+03 -0.16791480303E+03  0.91774628726E+02  0.25795708890E+03  0.46999998093E+01 0. -1.
</event>
<event>
 5   0  0.1521750E-02  0.5969802E+03  0.7818609E-02  0.9911691E-01
       -4   -1    0    0    0  501  0.00000000000E+00  0.00000000000E+00  0.15226182038E+04  0.15226187334E+04  0.12699999809E+01 0. -1.
        4   -1    0    0  501    0  0.00000000000E+00  0.00000000000E+00 -0.58507792122E+02  0.58521574133E+02  0.12699999809E+01 0.  1.
    10030    2    1    2    0    0  0.00000000000E+00  0.00000000000E+00  0.14641104116E+04  0.15811403075E+04  0.59698021296E+03 0.  0.
        4    1    3    3  502    0 -0.50951955255E+02 -0.14163182035E+03  0.49367311677E+02  0.15841217959E+03  0.12699999809E+01 0.  1.
       -4    1    3    3    0  502  0.50951955255E+02  0.14163182035E+03  0.14147431000E+04  0.14227281280E+04  0.12699999809E+01 0. -1.
</event>
<event>
 5   0  0.2382531E-02  0.5930343E+03  0.7818609E-02  0.9919964E-01
       -1   -1    0    0    0  501  0.00000000000E+00  0.00000000000E+00  0.30437330019E+03  0.30437330024E+03  0.50400001928E-02 0.  1.
        1   -1    0    0  501    0  0.00000000000E+00  0.00000000000E+00 -0.28886379843E+03  0.28886379848E+03  0.50400001928E-02 0. -1.
    10030    2    1    2    0    0  0.00000000000E+00  0.00000000000E+00  0.15509501762E+02  0.59323709871E+03  0.59303432501E+03 0.  0.
        5    1    3    3  502    0  0.13939211997E+03 -0.31986395076E+02 -0.25203973853E+03  0.28982652118E+03  0.46999998093E+01 0. -1.
       -5    1    3    3    0  502 -0.13939211997E+03  0.31986395076E+02  0.26754924029E+03  0.30341057754E+03  0.46999998093E+01 0.  1.
</event>
<event>
 5   0  0.3724066E-02  0.6026688E+03  0.7818609E-02  0.9899885E-01
       -2   -1    0    0    0  501  0.00000000000E+00  0.00000000000E+00  0.33079534966E+03  0.33079534967E+03  0.25500000920E-02 0.  1.
        2   -1    0    0  501    0  0.00000000000E+00  0.00000000000E+00 -0.27449725749E+03  0.27449725751E+03  0.25500000920E-02 0. -1.
    10030    2    1    2    0    0  0.00000000000E+00  0.00000000000E+00  0.56298092168E+02  0.60529260718E+03  0.60266878559E+03 0.  0.
        4    1    3    3  502    0 -0.80472553345E+02 -0.23751398732E+02 -0.26252562521E+03  0.27561073560E+03  0.12699999809E+01 0. -1.
       -4    1    3    3    0  502  0.80472553345E+02  0.23751398732E+02  0.31882371738E+03  0.32968187158E+03  0.12699999809E+01 0.  1.
</event>
<event>
 5   0  0.2295179E-02  0.6075721E+03  0.7818609E-02  0.9889820E-01
        1   -1    0    0  501    0  0.00000000000E+00  0.00000000000E+00  0.24180641556E+03  0.24180641561E+03  0.50400001928E-02 0. -1.
       -1   -1    0    0    0  501  0.00000000000E+00  0.00000000000E+00 -0.38165225345E+03  0.38165225348E+03  0.50400001928E-02 0.  1.
    10030    2    1    2    0    0  0.00000000000E+00  0.00000000000E+00 -0.13984583789E+03  0.62345866909E+03  0.60757209752E+03 0.  0.
        3    1    3    3  502    0  0.19620305207E+02 -0.56495762931E+02 -0.37555169435E+03  0.38028385836E+03  0.10100000352E+00 0.  1.
       -3    1    3    3    0  502 -0.19620305207E+02  0.56495762931E+02  0.23570585645E+03  0.24317481073E+03  0.10100000352E+00 0. -1.
</event>
<event>
 5   0  0.2225808E-02  0.6017349E+03  0.7818609E-02  0.9901813E-01
       -1   -1    0    0    0  501  0.00000000000E+00  0.00000000000E+00  0.19279307118E+03  0.19279307125E+03  0.50400001928E-02 0.  1.
        1   -1    0    0  501    0  0.00000000000E+00  0.00000000000E+00 -0.46952534121E+03  0.46952534123E+03  0.50400001928E-02 0. -1.
    10030    2    1    2    0    0  0.00000000000E+00  0.00000000000E+00 -0.27673227002E+03  0.66231841248E+03  0.60173493354E+03 0.  0.
        2    1    3    3  502    0  0.28689611060E+03 -0.52935101121E+02 -0.57410073411E+02  0.29733385234E+03  0.25500000920E-02 0.  1.
       -2    1    3    3    0  502 -0.28689611060E+03  0.52935101121E+02 -0.21932219661E+03  0.36498456014E+03  0.25500000920E-02 0. -1.
</event>
<event>
 5   0  0.3798925E-02  0.6015146E+03  0.7818609E-02  0.9902269E-01
       -2   -1    0    0    0  501  0.00000000000E+00  0.00000000000E+00  0.21062842378E+03  0.21062842380E+03  0.25500000920E-02 0. -1.
        2   -1    0    0  501    0  0.00000000000E+00  0.00000000000E+00 -0.42945275045E+03  0.42945275046E+03  0.25500000920E-02 0.  1.
    10030    2    1    2    0    0  0.00000000000E+00  0.00000000000E+00 -0.21882432666E+03  0.64008117425E+03  0.60151460805E+03 0.  0.
        2    1    3    3  502    0  0.71217105212E+02  0.18647220975E+02 -0.41971707877E+03  0.42612441979E+03  0.25500000920E-02 0.  1.
       -2    1    3    3    0  502 -0.71217105212E+02 -0.18647220975E+02  0.20089275211E+03  0.21395675446E+03  0.25500000920E-02 0. -1.
</event>
<event>
 5   0  0.3737642E-02  0.6076540E+03  0.7818609E-02  0.9889652E-01
        2   -1    0    0  501    0  0.00000000000E+00  0.00000000000E+00  0.15963380421E+04  0.15963380421E+04  0.25500000920E-02 0. -1.
       -2   -1    0    0    0  501  0.00000000000E+00  0.00000000000E+00 -0.57826626113E+02  0.57826626169E+02  0.25500000920E-02 0.  1.
    10030    2    1    2    0    0  0.00000000000E+00  0.00000000000E+00  0.15385114160E+04  0.16541646683E+04  0.60765399088E+03 0.  0.
        5    1    3    3  502    0 -0.44290051603E+02  0.24211995758E+03  0.12539710303E+04  0.12779081020E+04  0.46999998093E+01 0. -1.
       -5    1    3    3    0  502  0.44290051603E+02 -0.24211995758E+03  0.28454038574E+03  0.37625656625E+03  0.46999998093E+01 0.  1.
</event>
<event>
 5   0  0.2309055E-02  0.6132531E+03  0.7818609E-02  0.9878285E-01
        1   -1    0    0  501    0  0.00000000000E+00  0.00000000000E+00  0.88909886867E+03  0.88909886868E+03  0.50400001928E-02 0.  1.
       -1   -1    0    0    0  501  0.00000000000E+00  0.00000000000E+00 -0.10574733162E+03  0.10574733174E+03  0.50400001928E-02 0. -1.
    10030    2    1    2    0    0  0.00000000000E+00  0.00000000000E+00  0.78335153705E+03  0.99484620042E+03  0.61325307328E+03 0.  0.
        4    1    3    3  502    0 -0.23569782667E+03 -0.12138857231E+03  0.14177871344E+03  0.30065173784E+03  0.12699999809E+01 0.  1.
       -4    1    3    3    0  502  0.23569782667E+03  0.12138857231E+03  0.64157282361E+03  0.69419446258E+03  0.12699999809E+01 0. -1.
</event>
<event>
 5   0  0.3737642E-02  0.6278143E+03  0.7818609E-02  0.9849323E-01
        2   -1    0    0  501    0  0.00000000000E+00  0.00000000000E+00  0.34752360321E+03  0.34752360322E+03  0.25500000920E-02 0. -1.
       -2   -1    0    0    0  501  0.00000000000E+00  0.00000000000E+00 -0.28354246619E+03  0.28354246620E+03  0.25500000920E-02 0.  1.
    10030    2    1    2    0    0  0.00000000000E+00  0.00000000000E+00  0.63981137019E+02  0.63106606943E+03  0.62781430223E+03 0.  0.
        5    1    3    3  502    0 -0.99603761712E+02  0.24406480393E+03 -0.13926521121E+03  0.29817013083E+03  0.46999998093E+01 0.  1.
       -5    1    3    3    0  502  0.99603761712E+02 -0.24406480393E+03  0.20324634823E+03  0.33289593860E+03  0.46999998093E+01 0. -1.
</event>
<event>
 5   0  0.1521750E-02  0.6009531E+03  0.7818609E-02  0.9903431E-01
       -3   -1    0    0    0  501  0.00000000000E+00  0.00000000000E+00  0.16727598630E+03  0.16727601679E+03  0.10100000352E+00 0. -1.
        3   -1    0    0  501    0  0.00000000000E+00  0.00000000000E+00 -0.53974366450E+03  0.53974367395E+03  0.10100000352E+00 0.  1.
    10030    2    1    2    0    0  0.00000000000E+00  0.00000000000E+00 -0.37246767820E+03  0.70701969074E+03  0.60095313610E+03 0.  0.
        1    1    3    3  502    0 -0.31161327927E+02 -0.24259684324E+03 -0.39157190984E+03  0.46168475967E+03  0.50400001928E-02 0.  1.
       -1    1    3    3    0  502  0.31161327927E+02  0.24259684324E+03  0.19104231638E+02  0.24533493107E+03  0.50400001928E-02 0. -1.
</event>
<event>
 5   0  0.2276105E-02  0.6088720E+03  0.7818609E-02  0.9887169E-01
       -1   -1    0    0    0  501  0.00000000000E+00  0.00000000000E+00  0.71483737486E+03  0.71483737488E+03  0.50400001928E-02 0.  1.
        1   -1    0    0  501    0  0.00000000000E+00  0.00000000000E+00 -0.12965365818E+03  0.12965365828E+03  0.50400001928E-02 0. -1.
    10030    2    1    2    0    0  0.00000000000E+00  0.00000000000E+00  0.58518371668E+03  0.84449103315E+03  0.60887200856E+03 0.  0.
        1    1    3    3  502    0 -0.28509687628E+03 -0.19660413882E+01  0.44066212589E+03  0.52484969601E+03  0.50400001928E-02 0.  1.
       -1    1    3    3    0  502  0.28509687628E+03  0.19660413882E+01  0.14452159079E+03  0.31964133714E+03  0.50400001928E-02 0. -1.
</event>
<event>
 5   0  0.3798925E-02  0.6049041E+03  0.7818609E-02  0.9895284E-01
        2   -1    0    0  501    0  0.00000000000E+00  0.00000000000E+00  0.82204057757E+03  0.82204057757E+03  0.25500000920E-02 0. -1.
       -2   -1    0    0    0  501  0.00000000000E+00  0.00000000000E+00 -0.11128068693E+03  0.11128068695E+03  0.25500000920E-02 0.  1.
    10030    2    1    2    0    0  0.00000000000E+00  0.00000000000E+00  0.71075989064E+03  0.93332126452E+03  0.60490409213E+03 0.  0.
        2    1    3    3  502    0 -0.58568077040E+02 -0.34851273620E+02 -0.99278815402E+02  0.12042057181E+03  0.25500000920E-02 0.  1.
       -2    1    3    3    0  502  0.58568077040E+02  0.34851273620E+02  0.81003870604E+03  0.81290069271E+03  0.25500000920E-02 0. -1.
</event>
<event>
 5   0  0.3832191E-02  0.5514574E+03  0.7818609E-02  0.1001157E+00
       -2   -1    0    0    0  501  0.00000000000E+00  0.00000000000E+00  0.74380846657E+02  0.74380846701E+02  0.25500000920E-02 0. -1.
        2   -1    0    0  501    0  0.00000000000E+00  0.00000000000E+00 -0.10221222975E+04  0.10221222975E+04  0.25500000920E-02 0.  1.
    10030    2    1    2    0    0  0.00000000000E+00  0.00000000000E+00 -0.94774145084E+03  0.10965031442E+04  0.55145742139E+03 0.  0.
        3    1    3    3  502    0 -0.56256855414E+02  0.21421107719E+03 -0.14729840994E+03  0.26598505812E+03  0.10100000352E+00 0. -1.
       -3    1    3    3    0  502  0.56256855414E+02 -0.21421107719E+03 -0.80044304090E+03  0.83051808608E+03  0.10100000352E+00 0.  1.
</event>
<event>
 5   0  0.3934634E-02  0.5927742E+03  0.7818609E-02  0.9920512E-01
        2   -1    0    0  501    0  0.00000000000E+00  0.00000000000E+00  0.50776627478E+03  0.50776627478E+03  0.25500000920E-02 0.  1.
       -2   -1    0    0    0  501  0.00000000000E+00  0.00000000000E+00 -0.17300342855E+03  0.17300342857E+03  0.25500000920E-02 0. -1.
    10030    2    1    2    0    0  0.00000000000E+00  0.00000000000E+00  0.33476284622E+03  0.68076970335E+03  0.59277417774E+03 0.  0.
        1    1    3    3  502    0 -0.11430454053E+03 -0.34849963680E+02 -0.14411088421E+03  0.18721109723E+03  0.50400001928E-02 0. -1.
       -1    1    3    3    0  502  0.11430454053E+03  0.34849963680E+02  0.47887373043E+03  0.49355860612E+03  0.50400001928E-02 0.  1.
</event>
<event>
 5   0  0.2309055E-02  0.5972530E+03  0.7818609E-02  0.9911122E-01
       -1   -1    0    0    0  501  0.00000000000E+00  0.00000000000E+00  0.12410300327E+04  0.12410300327E+04  0.50400001928E-02 0.  1.
        1   -1    0    0  501    0  0.00000000000E+00  0.00000000000E+00 -0.71857871990E+02  0.71857872167E+02  0.50400001928E-02 0. -1.
    10030    2    1    2    0    0  0.00000000000E+00  0.00000000000E+00  0.11691721607E+04  0.13128879049E+04  0.59725296935E+03 0.  0.
        4    1    3    3  502    0  0.26206556630E+03  0.31684934416E+02  0.89150124261E+03  0.92976253666E+03  0.12699999809E+01 0. -1.
       -4    1    3    3    0  502 -0.26206556630E+03 -0.31684934416E+02  0.27767091810E+03  0.38312536822E+03  0.12699999809E+01 0.  1.
</event>
<event>
 5   0  0.3832191E-02  0.5993104E+03  0.7818609E-02  0.9906838E-01
        2   -1    0    0  501    0  0.00000000000E+00  0.00000000000E+00  0.27996694377E+04  0.27996694377E+04  0.25500000920E-02 0. -1.
       -2   -1    0    0    0  501  0.00000000000E+00  0.00000000000E+00 -0.32072800414E+02  0.32072800516E+02  0.25500000920E-02 0.  1.
    10030    2    1    2    0    0  0.00000000000E+00  0.00000000000E+00  0.27675966373E+04  0.28317422382E+04  0.59931040120E+03 0.  0.
        3    1    3    3  502    0  0.45618909752E+02 -0.23332034656E+03  0.52190633062E+03  0.57350300538E+03  0.10100000352E+00 0.  1.
       -3    1    3    3    0  502 -0.45618909752E+02  0.23332034656E+03  0.22456903066E+04  0.22582392328E+04  0.10100000352E+00 0. -1.
</event>
<event>
 5   0  0.2309055E-02  0.6017986E+03  0.7818609E-02  0.9901682E-01
       -1   -1    0    0    0  501  0.00000000000E+00  0.00000000000E+00  0.74079807026E+02  0.74079807198E+02  0.50400001928E-02 0.  1.
        1   -1    0    0  501    0  0.00000000000E+00  0.00000000000E+00 -0.12222006453E+04  0.12222006453E+04  0.50400001928E-02 0. -1.
    10030    2    1    2    0    0  0.00000000000E+00  0.00000000000E+00 -0.11481208383E+04  0.12962804525E+04  0.60179859777E+03 0.  0.
        4    1    3    3  502    0  0.26332206989E+03 -0.37053511983E+02 -0.27075540590E+03  0.37950174962E+03  0.12699999809E+01 0.  1.
       -4    1    3    3    0  502 -0.26332206989E+03  0.37053511983E+02 -0.87736543238E+03  0.91677870289E+03  0.12699999809E+01 0. -1.
</event>
<event>
 5   0  0.3737642E-02  0.6056938E+03  0.7818609E-02  0.9893663E-01
       -2   -1    0    0    0  501  0.00000000000E+00  0.00000000000E+00  0.19542606799E+03  0.19542606800E+03  0.25500000920E-02 0. -1.
        2   -1    0    0  501    0  0.00000000000E+00  0.00000000000E+00 -0.46931433161E+03  0.46931433162E+03  0.25500000920E-02 0.  1.
    10030    2    1    2    0    0  0.00000000000E+00  0.00000000000E+00 -0.27388826363E+03  0.66474039962E+03  0.60569383185E+03 0.  0.
        5    1    3    3  502    0 -0.10165277450E+03 -0.26056118725E+03 -0.95754957595E+01  0.27989140570E+03  0.46999998093E+01 0. -1.
       -5    1    3    3    0  502  0.10165277450E+03  0.26056118725E+03 -0.26431276787E+03  0.38484899392E+03  0.46999998093E+01 0.  1.
</event>
<event>
 5   0  0.2309055E-02  0.5997626E+03  0.7818609E-02  0.9905899E-01
        1   -1    0    0  501    0  0.00000000000E+00  0.00000000000E+00  0.50063124863E+03  0.50063124866E+03  0.50400001928E-02 0.  1.
       -1   -1    0    0    0  501  0.00000000000E+00  0.00000000000E+00 -0.17963078707E+03  0.17963078714E+03  0.50400001928E-02 0. -1.
    10030    2    1    2    0    0  0.00000000000E+00  0.00000000000E+00  0.32100046156E+03  0.68026203580E+03  0.59976257055E+03 0.  0.
        4    1    3    3  502    0  0.82212129643E+02  0.13485540801E+03  0.44963119545E+03  0.47656546261E+03  0.12699999809E+01 0.  1.
       -4    1    3    3    0  502 -0.82212129643E+02 -0.13485540801E+03 -0.12863073389E+03  0.20369657319E+03  0.12699999809E+01 0. -1.
</event>
<event>
 5   0  0.2295179E-02  0.6015565E+03  0.7818609E-02  0.9902182E-01
       -1   -1    0    0    0  501  0.00000000000E+00  0.00000000000E+00  0.71290904820E+02  0.71290904998E+02  0.50400001928E-02 0. -1.
        1   -1    0    0  501    0  0.00000000000E+00  0.00000000000E+00 -0.12689913519E+04  0.12689913520E+04  0.50400001928E-02 0.  1.
    10030    2    1    2    0    0  0.00000000000E+00  0.00000000000E+00 -0.11977004471E+04  0.13402822569E+04  0.60155645393E+03 0.  0.
        3    1    3    3  502    0  0.21877203876E+03 -0.72057918720E+02 -0.16789033510E+03  0.28502758360E+03  0.10100000352E+00 0. -1.
       -3    1    3    3    0  502 -0.21877203876E+03  0.72057918720E+02 -0.10298101120E+04  0.10552546733E+04  0.10100000352E+00 0.  1.
</event>
<event>
 5   0  0.3934634E-02  0.5932942E+03  0.7818609E-02  0.9919417E-01
        2   -1    0    0  501    0  0.00000000000E+00  0.00000000000E+00  0.51017886097E+03  0.51017886098E+03  0.25500000920E-02 0. -1.
       -2   -1    0    0    0  501  0.00000000000E+00  0.00000000000E+00 -0.17248752486E+03  0.17248752488E+03  0.25500000920E-02 0.  1.
    10030    2    1    2    0    0  0.00000000000E+00  0.00000000000E+00  0.33769133611E+03  0.68266638585E+03  0.59329415629E+03 0.  0.
        1    1    3    3  502    0  0.11567930340E+03  0.66161241610E+01 -0.14537316395E+03  0.18590005690E+03  0.50400001928E-02 0.  1.
       -1    1    3    3    0  502 -0.11567930340E+03 -0.66161241610E+01  0.48306450006E+03  0.49676632895E+03  0.50400001928E-02 0. -1.
</event>
<event>
 5   0  0.3724066E-02  0.5995023E+03  0.7818609E-02  0.9906439E-01
        2   -1    0    0  501    0  0.00000000000E+00  0.00000000000E+00  0.43086164850E+03  0.43086164851E+03  0.25500000920E-02 0.  1.
       -2   -1    0    0    0  501  0.00000000000E+00  0.00000000000E+00 -0.20853733177E+03  0.20853733179E+03  0.25500000920E-02 0. -1.
    10030    2    1    2    0    0  0.00000000000E+00  0.00000000000E+00  0.22232431673E+03  0.63939898030E+03  0.59950225538E+03 0.  0.
        4    1    3    3  502    0  0.14614757650E+02 -0.70147916508E+02  0.42159007772E+03  0.42763784662E+03  0.12699999809E+01 0.  1.
       -4    1    3    3    0  502 -0.14614757650E+02  0.70147916508E+02 -0.19926576099E+03  0.21176113368E+03  0.12699999809E+01 0. -1.
</event>
<event>
 5   0  0.3832191E-02  0.5980806E+03  0.7818609E-02  0.9909396E-01
        2   -1    0    0  501    0  0.00000000000E+00  0.00000000000E+00  0.35341506577E+03  0.35341506578E+03  0.25500000920E-02 0.  1.
       -2   -1    0    0    0  501  0.00000000000E+00  0.00000000000E+00 -0.25303140919E+03  0.25303140920E+03  0.25500000920E-02 0. -1.
    10030    2    1    2    0    0  0.00000000000E+00  0.00000000000E+00  0.10038365658E+03  0.60644647498E+03  0.59808063713E+03 0.  0.
        3    1    3    3  502    0 -0.45107858293E+02  0.29546562309E+03  0.40548350281E+02  0.30162697529E+03  0.10100000352E+00 0. -1.
       -3    1    3    3    0  502  0.45107858293E+02 -0.29546562309E+03  0.59835306299E+02  0.30481949969E+03  0.10100000352E+00 0.  1.
</event>
<event>
 5   0  0.2225808E-02  0.6026522E+03  0.7818609E-02  0.9899919E-01
        1   -1    0    0  501    0  0.00000000000E+00  0.00000000000E+00  0.88505520455E+03  0.88505520456E+03  0.50400001928E-02 0. -1.
       -1   -1    0    0    0  501  0.00000000000E+00  0.00000000000E+00 -0.10258955370E+03  0.10258955382E+03  0.50400001928E-02 0.  1.
    10030    2    1    2    0    0  0.00000000000E+00  0.00000000000E+00  0.78246565085E+03  0.98764475838E+03  0.60265219986E+03 0.  0.
        2    1    3    3  502    0  0.14848613382E+03 -0.12676886144E+03  0.76737544115E+03  0.79182292455E+03  0.25500000920E-02 0. -1.
       -2    1    3    3    0  502 -0.14848613382E+03  0.12676886144E+03  0.15090209706E+02  0.19582183383E+03  0.25500000920E-02 0.  1.
</event>
<event>
 5   0  0.2225808E-02  0.5988974E+03  0.7818609E-02  0.9907696E-01
        1   -1    0    0  501    0  0.00000000000E+00  0.00000000000E+00  0.57989012257E+03  0.57989012259E+03  0.50400001928E-02 0.  1.
       -1   -1    0    0    0  501  0.00000000000E+00  0.00000000000E+00 -0.15463194559E+03  0.15463194567E+03  0.50400001928E-02 0. -1.
    10030    2    1    2    0    0  0.00000000000E+00  0.00000000000E+00  0.42525817698E+03  0.73452206826E+03  0.59889744671E+03 0.  0.
        2    1    3    3  502    0  0.28420613862E+03 -0.60893092125E+02  0.12428636439E+03  0.31611421714E+03  0.25500000920E-02 0.  1.
       -2    1    3    3    0  502 -0.28420613862E+03  0.60893092125E+02  0.30097181258E+03  0.41840785112E+03  0.25500000920E-02 0. -1.
</event>
<event>
 5   0  0.3737642E-02  0.5994623E+03  0.7818609E-02  0.9906522E-01
       -2   -1    0    0    0  501  0.00000000000E+00  0.00000000000E+00  0.16965310740E+03  0.16965310742E+03  0.25500000920E-02 0. -1.
        2   -1    0    0  501    0  0.00000000000E+00  0.00000000000E+00 -0.52954386527E+03  0.52954386528E+03  0.25500000920E-02 0.  1.
    10030    2    1    2    0    0  0.00000000000E+00  0.00000000000E+00 -0.35989075787E+03  0.69919697270E+03  0.59946229992E+03 0.  0.
        5    1    3    3  502    0  0.13672932315E+03  0.16947135754E+03  0.60229100200E+02  0.22597584682E+03  0.46999998093E+01 0. -1.
       -5    1    3    3    0  502 -0.13672932315E+03 -0.16947135754E+03 -0.42011985807E+03  0.47322112588E+03  0.46999998093E+01 0.  1.
</event>
<event>
 5   0  0.2276105E-02  0.6002714E+03  0.7818609E-02  0.9904843E-01
       -1   -1    0    0    0  501  0.00000000000E+00  0.00000000000E+00  0.13323912872E+03  0.13323912881E+03  0.50400001928E-02 0.  1.
        1   -1    0    0  501    0  0.00000000000E+00  0.00000000000E+00 -0.67608848239E+03  0.67608848241E+03  0.50400001928E-02 0. -1.
    10030    2    1    2    0    0  0.00000000000E+00  0.00000000000E+00 -0.54284935368E+03  0.80932761122E+03  0.60027140653E+03 0.  0.
        1    1    3    3  502    0  0.47668103970E+02 -0.17941143711E+03  0.46551831991E+02  0.19138386815E+03  0.50400001928E-02 0.  1.
       -1    1    3    3    0  502 -0.47668103970E+02  0.17941143711E+03 -0.58940118567E+03  0.61794374307E+03  0.50400001928E-02 0. -1.
</event>
<event>
 5   0  0.3832191E-02  0.5821875E+03  0.7818609E-02  0.9943066E-01
       -2   -1    0    0    0  501  0.00000000000E+00  0.00000000000E+00  0.21256822524E+03  0.21256822525E+03  0.25500000920E-02 0.  1.
        2   -1    0    0  501    0  0.00000000000E+00  0.00000000000E+00 -0.39862767832E+03  0.39862767833E+03  0.25500000920E-02 0. -1.
    10030    2    1    2    0    0  0.00000000000E+00  0.00000000000E+00 -0.18605945309E+03  0.61119590359E+03  0.58218752347E+03 0.  0.
        3    1    3    3  502    0  0.27945444052E+03 -0.68754149408E+02 -0.47104759248E+02  0.29161753365E+03  0.10100000352E+00 0. -1.
       -3    1    3    3    0  502 -0.27945444052E+03  0.68754149408E+02 -0.13895469384E+03  0.31957836993E+03  0.10100000352E+00 0.  1.
</event>
<event>
 5   0  0.1521750E-02  0.5999414E+03  0.7818609E-02  0.9905528E-01
        4   -1    0    0  501    0  0.00000000000E+00  0.00000000000E+00  0.59006630991E+03  0.59006767662E+03  0.12699999809E+01 0. -1.
       -4   -1    0    0    0  501  0.00000000000E+00  0.00000000000E+00 -0.15249124600E+03  0.15249653441E+03  0.12699999809E+01 0.  1.
    10030    2    1    2    0    0  0.00000000000E+00  0.00000000000E+00  0.43757506391E+03  0.74256421102E+03  0.59994138958E+03 0.  0.
        3    1    3    3  502    0 -0.19310078796E+03 -0.22319268835E+03  0.28520541353E+03  0.41042055084E+03  0.10100000352E+00 0. -1.
       -3    1    3    3    0  502  0.19310078796E+03  0.22319268835E+03  0.15236965038E+03  0.33214366018E+03  0.10100000352E+00 0.  1.
</event>
<event>
 5   0  0.2309055E-02  0.6012466E+03  0.7818609E-02  0.9902823E-01
       -1   -1    0    0    0  501  0.00000000000E+00  0.00000000000E+00  0.10355772425E+04  0.10355772425E+04  0.50400001928E-02 0.  1.
        1   -1    0    0  501    0  0.00000000000E+00  0.00000000000E+00 -0.87269553659E+02  0.87269553805E+02  0.50400001928E-02 0. -1.
    10030    2    1    2    0    0  0.00000000000E+00  0.00000000000E+00  0.94830768882E+03  0.11228467963E+04  0.60124658442E+03 0.  0.
        4    1    3    3  502    0 -0.16679527346E+03  0.93317907049E+02  0.90750100830E+03  0.92740961176E+03  0.12699999809E+01 0.  1.
       -4    1    3    3    0  502  0.16679527346E+03 -0.93317907049E+02  0.40806680521E+02  0.19543718453E+03  0.12699999809E+01 0. -1.
</event>
<event>
 5   0  0.2382531E-02  0.5946105E+03  0.7818609E-02  0.9916651E-01
        1   -1    0    0  501    0  0.00000000000E+00  0.00000000000E+00  0.30951060347E+03  0.30951060351E+03  0.50400001928E-02 0. -1.
       -1   -1    0    0    0  501  0.00000000000E+00  0.00000000000E+00 -0.28558119485E+03  0.28558119489E+03  0.50400001928E-02 0.  1.
    10030    2    1    2    0    0  0.00000000000E+00  0.00000000000E+00  0.23929408623E+02  0.59509179841E+03  0.59461048758E+03 0.  0.
        5    1    3    3  502    0 -0.23560728129E+03 -0.28038019351E+02  0.19119455177E+03  0.30475296250E+03  0.46999998093E+01 0. -1.
       -5    1    3    3    0  502  0.23560728129E+03  0.28038019351E+02 -0.16726514315E+03  0.29033883591E+03  0.46999998093E+01 0.  1.
</event>
<event>
 5   0  0.3724066E-02  0.5801724E+03  0.7818609E-02  0.9947418E-01
        2   -1    0    0  501    0  0.00000000000E+00  0.00000000000E+00  0.42648494010E+03  0.42648494011E+03  0.25500000920E-02 0.  1.
       -2   -1    0    0    0  501  0.00000000000E+00  0.00000000000E+00 -0.19731058934E+03  0.19731058935E+03  0.25500000920E-02 0. -1.
    10030    2    1    2    0    0  0.00000000000E+00  0.00000000000E+00  0.22917435076E+03  0.62379552946E+03  0.58017237053E+03 0.  0.
        4    1    3    3  502    0  0.38373922899E+02  0.25485959105E+03  0.25772243838E+03  0.36448379560E+03  0.12699999809E+01 0.  1.
       -4    1    3    3    0  502 -0.38373922899E+02 -0.25485959105E+03 -0.28548087621E+02  0.25931173386E+03  0.12699999809E+01 0. -1.
</event>
<event>
 5   0  0.2382531E-02  0.6236622E+03  0.7818609E-02  0.9857495E-01
        1   -1    0    0  501    0  0.00000000000E+00  0.00000000000E+00  0.93481139347E+03  0.93481139349E+03  0.50400001928E-02 0. -1.
       -1   -1    0    0    0  501  0.00000000000E+00  0.00000000000E+00 -0.10401950800E+03  0.10401950812E+03  0.50400001928E-02 0.  1.
    10030    2    1    2    0    0  0.00000000000E+00  0.00000000000E+00  0.83079188548E+03  0.10388309016E+04  0.62366215626E+03 0.  0.
        5    1    3    3  502    0 -0.10924543309E+03 -0.53955402269E+02  0.89345556106E+03  0.90173758915E+03  0.46999998093E+01 0. -1.
       -5    1    3    3    0  502  0.10924543309E+03  0.53955402269E+02 -0.62663675587E+02  0.13709331246E+03  0.46999998093E+01 0.  1.
</event>
<event>
 5   0  0.3798925E-02  0.6012588E+03  0.7818609E-02  0.9902798E-01
       -2   -1    0    0    0  501  0.00000000000E+00  0.00000000000E+00  0.10038090999E+03  0.10038091003E+03  0.25500000920E-02 0. -1.
        2   -1    0    0  501    0  0.00000000000E+00  0.00000000000E+00 -0.90035088574E+03  0.90035088575E+03  0.25500000920E-02 0.  1.
    10030    2    1    2    0    0  0.00000000000E+00  0.00000000000E+00 -0.79996997575E+03  0.10007317958E+04  0.60125881696E+03 0.  0.
        2    1    3    3  502    0 -0.22808942557E+02 -0.16312440584E+03  0.18596868718E+02  0.16575784498E+03  0.25500000920E-02 0. -1.
       -2    1    3    3    0  502  0.22808942557E+02  0.16312440584E+03 -0.81856684447E+03  0.83497395079E+03  0.25500000920E-02 0.  1.
</event>
<event>
 5   0  0.2225808E-02  0.6030456E+03  0.7818609E-02  0.9899107E-01
        1   -1    0    0  501    0  0.00000000000E+00  0.00000000000E+00  0.63617970248E+03  0.63617970250E+03  0.50400001928E-02 0. -1.
       -1   -1    0    0    0  501  0.00000000000E+00  0.00000000000E+00 -0.14290932543E+03  0.14290932552E+03  0.50400001928E-02 0.  1.
    10030    2    1    2    0    0  0.00000000000E+00  0.00000000000E+00  0.49327037705E+03  0.77908902801E+03  0.60304564396E+03 0.  0.
        2    1    3    3  502    0  0.22090219144E+03 -0.20126636555E+03  0.29847473362E+03  0.42236606717E+03  0.25500000920E-02 0. -1.
       -2    1    3    3    0  502 -0.22090219144E+03  0.20126636555E+03  0.19479564343E+03  0.35672296084E+03  0.25500000920E-02 0.  1.
</event>
<event>
 5   0  0.2309055E-02  0.6044003E+03  0.7818609E-02  0.9896319E-01
       -1   -1    0    0    0  501  0.00000000000E+00  0.00000000000E+00  0.23964494810E+03  0.23964494816E+03  0.50400001928E-02 0.  1.
        1   -1    0    0  501    0  0.00000000000E+00  0.00000000000E+00 -0.38108434846E+03  0.38108434849E+03  0.50400001928E-02 0. -1.
    10030    2    1    2    0    0  0.00000000000E+00  0.00000000000E+00 -0.14143940036E+03  0.62072929665E+03  0.60440032739E+03 0.  0.
        4    1    3    3  502    0 -0.21533825999E+03  0.68623831156E+02  0.13530798569E+03  0.26341917225E+03  0.12699999809E+01 0.  1.
       -4    1    3    3    0  502  0.21533825999E+03 -0.68623831156E+02 -0.27674738605E+03  0.35731012440E+03  0.12699999809E+01 0. -1.
</event>
<event>
 5   0  0.3798925E-02  0.5978297E+03  0.7818609E-02  0.9909919E-01
        2   -1    0    0  501    0  0.00000000000E+00  0.00000000000E+00  0.72064896363E+03  0.72064896364E+03  0.25500000920E-02 0.  1.
       -2   -1    0    0    0  501  0.00000000000E+00  0.00000000000E+00 -0.12398557205E+03  0.12398557208E+03  0.25500000920E-02 0. -1.
    10030    2    1    2    0    0  0.00000000000E+00  0.00000000000E+00  0.59666339158E+03  0.84463453571E+03  0.59782965472E+03 0.  0.
        2    1    3    3  502    0 -0.49559378177E+02  0.11778093541E+03 -0.83451697355E+02  0.15261935169E+03  0.25500000920E-02 0. -1.
       -2    1    3    3    0  502  0.49559378177E+02 -0.11778093541E+03  0.68011508894E+03  0.69201518402E+03  0.25500000920E-02 0.  1.
</event>
<event>
 5   0  0.3724066E-02  0.6057927E+03  0.7818609E-02  0.9893460E-01
        2   -1    0    0  501    0  0.00000000000E+00  0.00000000000E+00  0.72466681759E+03  0.72466681759E+03  0.25500000920E-02 0. -1.
       -2   -1    0    0    0  501  0.00000000000E+00  0.00000000000E+00 -0.12660465225E+03  0.12660465227E+03  0.25500000920E-02 0.  1.
    10030    2    1    2    0    0  0.00000000000E+00  0.00000000000E+00  0.59806216534E+03  0.85127146986E+03  0.60579267228E+03 0.  0.
        4    1    3    3  502    0 -0.69440396746E+02  0.28641518662E+03  0.39728544651E+03  0.49466449916E+03  0.12699999809E+01 0. -1.
       -4    1    3    3    0  502  0.69440396746E+02 -0.28641518662E+03  0.20077671883E+03  0.35660697070E+03  0.12699999809E+01 0.  1.
</event>
<event>
 5   0  0.1521750E-02  0.5992666E+03  0.7818609E-02  0.9906929E-01
        3   -1    0    0  501    0  0.00000000000E+00  0.00000000000E+00  0.36128919617E+03  0.36128921028E+03  0.10100000352E+00 0.  1.
       -3   -1    0    0    0  501  0.00000000000E+00  0.00000000000E+00 -0.24849926427E+03  0.24849928480E+03  0.10100000352E+00 0. -1.
    10030    2    1    2    0    0  0.00000000000E+00  0.00000000000E+00  0.11278993189E+03  0.60978849508E+03  0.59926658509E+03 0.  0.
        5    1    3    3  502    0 -0.20399434736E+03 -0.14349158541E+03  0.22530496589E+03  0.33613679728E+03  0.46999998093E+01 0.  1.
       -5    1    3    3    0  502  0.20399434736E+03  0.14349158541E+03 -0.11251503400E+03  0.27365169780E+03  0.46999998093E+01 0. -1.
</event>
<event>
 5   0  0.2225808E-02  0.6006275E+03  0.7818609E-02  0.9904105E-01
       -1   -1    0    0    0  501  0.00000000000E+00  0.00000000000E+00  0.23540325478E+03  0.23540325483E+03  0.50400001928E-02 0.  1.
        1   -1    0    0  501    0  0.00000000000E+00  0.00000000000E+00 -0.38312279616E+03  0.38312279619E+03  0.50400001928E-02 0. -1.
    10030    2    1    2    0    0  0.00000000000E+00  0.00000000000E+00 -0.14771954138E+03  0.61852605102E+03  0.60062751592E+03 0.  0.
        2    1    3    3  502    0  0.13331508571E+03 -0.95884721057E+02  0.18507202341E+03  0.24742361582E+03  0.25500000920E-02 0. -1.
       -2    1    3    3    0  502 -0.13331508571E+03  0.95884721057E+02 -0.33279156479E+03  0.37110243520E+03  0.25500000920E-02 0.  1.
</event>
<event>
 5   0  0.2276105E-02  0.5644191E+03  0.7818609E-02  0.9982105E-01
        1   -1    0    0  501    0  0.00000000000E+00  0.00000000000E+00  0.31080500270E+03  0.31080500274E+03  0.50400001928E-02 0. -1.
       -1   -1    0    0    0  501  0.00000000000E+00  0.00000000000E+00 -0.25624500454E+03  0.25624500459E+03  0.50400001928E-02 0.  1.
    10030    2    1    2    0    0  0.00000000000E+00  0.00000000000E+00  0.54559998159E+02  0.56705000733E+03  0.56441909732E+03 0.  0.
        1    1    3    3  502    0  0.19398331365E+03  0.12035898627E+03 -0.13940422935E+03  0.26748710387E+03  0.50400001928E-02 0.  1.
       -1    1    3    3    0  502 -0.19398331365E+03 -0.12035898627E+03  0.19396422751E+03  0.29956290346E+03  0.50400001928E-02 0. -1.
</event>
<event>
 5   0  0.2309055E-02  0.5962355E+03  0.7818609E-02  0.9913247E-01
        1   -1    0    0  501    0  0.00000000000E+00  0.00000000000E+00  0.24232170231E+03  0.24232170237E+03  0.50400001928E-02 0. -1.
       -1   -1    0    0    0  501  0.00000000000E+00  0.00000000000E+00 -0.36676121539E+03  0.36676121542E+03  0.50400001928E-02 0.  1.
    10030    2    1    2    0    0  0.00000000000E+00  0.00000000000E+00 -0.12443951307E+03  0.60908291779E+03  0.59623553091E+03 0.  0.
        4    1    3    3  502    0 -0.45849868339E+02 -0.27754549828E+03  0.38592414025E+02  0.28394489141E+03  0.12699999809E+01 0. -1.
       -4    1    3    3    0  502  0.45849868339E+02  0.27754549828E+03 -0.16303192710E+03  0.32513802637E+03  0.12699999809E+01 0.  1.
</event>
<event>
 5   0  0.3724066E-02  0.5992893E+03  0.7818609E-02  0.9906882E-01
        2   -1    0    0  501    0  0.00000000000E+00  0.00000000000E+00  0.50561268935E+03  0.50561268936E+03  0.25500000920E-02 0. -1.
       -2   -1    0    0    0  501  0.00000000000E+00  0.00000000000E+00 -0.17758044853E+03  0.17758044855E+03  0.25500000920E-02 0.  1.
    10030    2    1    2    0    0  0.00000000000E+00  0.00000000000E+00  0.32803224082E+03  0.68319313791E+03  0.59928933970E+03 0.  0.
        4    1    3    3  502    0 -0.22165003249E+03 -0.20118101320E+03  0.17942848425E+03  0.34899674903E+03  0.12699999809E+01 0. -1.
       -4    1    3    3    0  502  0.22165003249E+03  0.20118101320E+03  0.14860375657E+03  0.33419638888E+03  0.12699999809E+01 0.  1.
</event>
<event>
 5   0  0.2295179E-02  0.5974468E+03  0.7818609E-02  0.9910717E-01
        1   -1    0    0  501    0  0.00000000000E+00  0.00000000000E+00  0.27452095341E+03  0.27452095346E+03  0.50400001928E-02 0. -1.
       -1   -1    0    0    0  501  0.00000000000E+00  0.00000000000E+00 -0.32505956414E+03  0.32505956418E+03  0.50400001928E-02 0.  1.
    10030    2    1    2    0    0  0.00000000000E+00  0.00000000000E+00 -0.50538610726E+02  0.59958051764E+03  0.59744677249E+03 0.  0.
        3    1    3    3  502    0 -0.16332006680E+03  0.67049219309E+02 -0.26710005755E+03  0.32017416038E+03  0.10100000352E+00 0.  1.
       -3    1    3    3    0  502  0.16332006680E+03 -0.67049219309E+02  0.21656144682E+03  0.27940635726E+03  0.10100000352E+00 0. -1.
</event>
<event>
 5   0  0.2276105E-02  0.5926374E+03  0.7818609E-02  0.9920800E-01
       -1   -1    0    0    0  501  0.00000000000E+00  0.00000000000E+00  0.27605915163E+03  0.27605915168E+03  0.50400001928E-02 0. -1.
        1   -1    0    0  501    0  0.00000000000E+00  0.00000000000E+00 -0.31806506563E+03  0.31806506567E+03  0.50400001928E-02 0.  1.
    10030    2    1    2    0    0  0.00000000000E+00  0.00000000000E+00 -0.42005913997E+02  0.59412421735E+03  0.59263740080E+03 0.  0.
        1    1    3    3  502    0 -0.10046631652E+03 -0.14296023020E+03 -0.26092253175E+03  0.31402496043E+03  0.50400001928E-02 0.  1.
       -1    1    3    3    0  502  0.10046631652E+03  0.14296023020E+03  0.21891661775E+03  0.28009925692E+03  0.50400001928E-02 0. -1.
</event>
<event>
 5   0  0.2276105E-02  0.6002137E+03  0.7818609E-02  0.9904963E-01
       -1   -1    0    0    0  501  0.00000000000E+00  0.00000000000E+00  0.18802429645E+03  0.18802429651E+03  0.50400001928E-02 0. -1.
        1   -1    0    0  501    0  0.00000000000E+00  0.00000000000E+00 -0.47900251370E+03  0.47900251372E+03  0.50400001928E-02 0.  1.
    10030    2    1    2    0    0  0.00000000000E+00  0.00000000000E+00 -0.29097821725E+03  0.66702681024E+03  0.60021366417E+03 0.  0.
        1    1    3    3  502    0 -0.17570453435E+03 -0.24086081871E+03 -0.10734501959E+03  0.31687374558E+03  0.50400001928E-02 0.  1.
       -1    1    3    3    0  502  0.17570453435E+03  0.24086081871E+03 -0.18363319766E+03  0.35015306466E+03  0.50400001928E-02 0. -1.
</event>
<event>
 5   0  0.3724066E-02  0.6028746E+03  0.7818609E-02  0.9899460E-01
       -2   -1    0    0    0  501  0.00000000000E+00  0.00000000000E+00  0.44208415737E+02  0.44208415811E+02  0.25500000920E-02 0. -1.
        2   -1    0    0  501    0  0.00000000000E+00  0.00000000000E+00 -0.20553652864E+04  0.20553652864E+04  0.25500000920E-02 0.  1.
    10030    2    1    2    0    0  0.00000000000E+00  0.00000000000E+00 -0.20111568707E+04  0.20995737022E+04  0.60287459111E+03 0.  0.
        4    1    3    3  502    0  0.19240932697E+03  0.12607517447E+03 -0.32717164389E+03  0.39994899199E+03  0.12699999809E+01 0. -1.
       -4    1    3    3    0  502 -0.19240932697E+03 -0.12607517447E+03 -0.16839852268E+04  0.16996247102E+04  0.12699999809E+01 0.  1.
</event>
<event>
 5   0  0.3832191E-02  0.6000448E+03  0.7818609E-02  0.9905313E-01
        2   -1    0    0  501    0  0.00000000000E+00  0.00000000000E+00  0.24252574890E+04  0.24252574890E+04  0.25500000920E-02 0.  1.
       -2   -1    0    0    0  501  0.00000000000E+00  0.00000000000E+00 -0.37114997561E+02  0.37114997648E+02  0.25500000920E-02 0. -1.
    10030    2    1    2    0    0  0.00000000000E+00  0.00000000000E+00  0.23881424915E+04  0.24623724867E+04  0.60004475133E+03 0.  0.
        3    1    3    3  502    0  0.14058944460E+03  0.26503927531E+03  0.11879758305E+04  0.12252745788E+04  0.10100000352E+00 0. -1.
       -3    1    3    3    0  502 -0.14058944460E+03 -0.26503927531E+03  0.12001666609E+04  0.12370979078E+04  0.10100000352E+00 0.  1.
</event>
<event>
 5   0  0.1521750E-02  0.6024055E+03  0.7818609E-02  0.9900428E-01
        3   -1    0    0  501    0  0.00000000000E+00  0.00000000000E+00  0.78928383256E+03  0.78928383902E+03  0.10100000352E+00 0.  1.
       -3   -1    0    0    0  501  0.00000000000E+00  0.00000000000E+00 -0.11494354882E+03  0.11494359319E+03  0.10100000352E+00 0. -1.
    10030    2    1    2    0    0  0.00000000000E+00  0.00000000000E+00  0.67434028374E+03  0.90422743222E+03  0.60240553690E+03 0.  0.
        1    1    3    3  502    0  0.26421437972E+03  0.11659298598E+03  0.46559308790E+03  0.54788692844E+03  0.50400001928E-02 0.  1.
       -1    1    3    3    0  502 -0.26421437972E+03 -0.11659298598E+03  0.20874719584E+03  0.35634050377E+03  0.50400001928E-02 0. -1.
</event>
<event>
 5   0  0.3737642E-02  0.6013236E+03  0.7818609E-02  0.9902664E-01
        2   -1    0    0  501    0  0.00000000000E+00  0.00000000000E+00  0.51331699368E+03  0.51331699369E+03  0.25500000920E-02 0.  1.
       -2   -1    0    0    0  501  0.00000000000E+00  0.00000000000E+00 -0.17610469285E+03  0.17610469287E+03  0.25500000920E-02 0. -1.
    10030    2    1    2    0    0  0.00000000000E+00  0.00000000000E+00  0.33721230084E+03  0.68942168656E+03  0.60132364502E+03 0.  0.
        5    1    3    3  502    0 -0.56867510630E+02 -0.29350053378E+03  0.13236919768E+03  0.32698650062E+03  0.46999998093E+01 0. -1.
       -5    1    3    3    0  502  0.56867510630E+02  0.29350053378E+03  0.20484310316E+03  0.36243518594E+03  0.46999998093E+01 0.  1.
</event>
<event>
 5   0  0.3832191E-02  0.6027941E+03  0.7818609E-02  0.9899626E-01
        2   -1    0    0  501    0  0.00000000000E+00  0.00000000000E+00  0.13016538889E+04  0.13016538889E+04  0.25500000920E-02 0.  1.
       -2   -1    0    0    0  501  0.00000000000E+00  0.00000000000E+00 -0.69788269166E+02  0.69788269212E+02  0.25500000920E-02 0. -1.
    10030    2    1    2    0    0  0.00000000000E+00  0.00000000000E+00  0.12318656198E+04  0.13714421582E+04  0.60279406764E+03 0.  0.
        3    1    3    3  502    0 -0.28179798785E+03 -0.97819471449E+02  0.71409159599E+03  0.77388989696E+03  0.10100000352E+00 0.  1.
       -3    1    3    3    0  502  0.28179798785E+03  0.97819471449E+02  0.51777402378E+03  0.59755226119E+03  0.10100000352E+00 0. -1.
</event>
<event>
 5   0  0.2295179E-02  0.5968390E+03  0.7818609E-02  0.9911986E-01
        1   -1    0    0  501    0  0.00000000000E+00  0.00000000000E+00  0.17376999744E+03  0.17376999751E+03  0.50400001928E-02 0. -1.
       -1   -1    0    0    0  501  0.00000000000E+00  0.00000000000E+00 -0.51248314253E+03  0.51248314255E+03  0.50400001928E-02 0.  1.
    10030    2    1    2    0    0  0.00000000000E+00  0.00000000000E+00 -0.33871314509E+03  0.68625314006E+03  0.59683898799E+03 0.  0.
        3    1    3    3  502    0  0.51975274409E+02  0.12058294333E+03 -0.47748176582E+03  0.49520755473E+03  0.10100000352E+00 0.  1.
       -3    1    3    3    0  502 -0.51975274409E+02 -0.12058294333E+03  0.13876862073E+03  0.19104558533E+03  0.10100000352E+00 0. -1.
</event>
<event>
 5   0  0.3737642E-02  0.6017984E+03  0.7818609E-02  0.9901682E-01
       -2   -1    0    0    0  501  0.00000000000E+00  0.00000000000E+00  0.41823715043E+02  0.41823715121E+02  0.25500000920E-02 0.  1.
        2   -1    0    0  501    0  0.00000000000E+00  0.00000000000E+00 -0.21648083646E+04  0.21648083646E+04  0.25500000920E-02 0. -1.
    10030    2    1    2    0    0  0.00000000000E+00  0.00000000000E+00 -0.21229846495E+04  0.22066320797E+04  0.60179839897E+03 0.  0.
        5    1    3    3  502    0 -0.28838610938E+03 -0.26925756610E+02 -0.76300399813E+03  0.81614259515E+03  0.46999998093E+01 0.  1.
       -5    1    3    3    0  502  0.28838610938E+03  0.26925756610E+02 -0.13599806514E+04  0.13904894846E+04  0.46999998093E+01 0. -1.
</event>
<event>
 5   0  0.3798925E-02  0.6040785E+03  0.7818609E-02  0.9896980E-01
        2   -1    0    0  501    0  0.00000000000E+00  0.00000000000E+00  0.41072821138E+03  0.41072821138E+03  0.25500000920E-02 0.  1.
       -2   -1    0    0    0  501  0.00000000000E+00  0.00000000000E+00 -0.22211209536E+03  0.22211209537E+03  0.25500000920E-02 0. -1.
    10030    2    1    2    0    0  0.00000000000E+00  0.00000000000E+00  0.18861611602E+03  0.63284030675E+03  0.60407848383E+03 0.  0.
        2    1    3    3  502    0  0.71464374851E+02  0.29069024160E+03  0.52145970336E+02  0.30385387222E+03  0.25500000920E-02 0. -1.
       -2    1    3    3    0  502 -0.71464374851E+02 -0.29069024160E+03  0.13647014568E+03  0.32898643453E+03  0.25500000920E-02 0.  1.
</event>
<event>
 5   0  0.3737642E-02  0.6036370E+03  0.7818609E-02  0.9897889E-01
        2   -1    0    0  501    0  0.00000000000E+00  0.00000000000E+00  0.12699487385E+04  0.12699487385E+04  0.25500000920E-02 0. -1.
       -2   -1    0    0    0  501  0.00000000000E+00  0.00000000000E+00 -0.71730771796E+02  0.71730771841E+02  0.25500000920E-02 0.  1.
    10030    2    1    2    0    0  0.00000000000E+00  0.00000000000E+00  0.11982179667E+04  0.13416795103E+04  0.60363698755E+03 0.  0.
        5    1    3    3  502    0 -0.36811213199E+02 -0.27431619254E+03  0.33176198804E+03  0.43207932792E+03  0.46999998093E+01 0.  1.
       -5    1    3    3    0  502  0.36811213199E+02  0.27431619254E+03  0.86645597863E+03  0.90960018240E+03  0.46999998093E+01 0. -1.
</event>
<event>
 5   0  0.2276105E-02  0.5958842E+03  0.7818609E-02  0.9913982E-01
       -1   -1    0    0    0  501  0.00000000000E+00  0.00000000000E+00  0.33940566781E+03  0.33940566785E+03  0.50400001928E-02 0.  1.
        1   -1    0    0  501    0  0.00000000000E+00  0.00000000000E+00 -0.26154394771E+03  0.26154394775E+03  0.50400001928E-02 0. -1.
    10030    2    1    2    0    0  0.00000000000E+00  0.00000000000E+00  0.77861720107E+02  0.60094961560E+03  0.59588421110E+03 0.  0.
        1    1    3    3  502    0 -0.35861693487E+01  0.26820911434E+03  0.16972724636E+03  0.31742137263E+03  0.50400001928E-02 0.  1.
       -1    1    3    3    0  502  0.35861693487E+01 -0.26820911434E+03 -0.91865526248E+02  0.28352824297E+03  0.50400001928E-02 0. -1.
</event>
<event>
 5   0  0.1521750E-02  0.5944829E+03  0.7818609E-02  0.9916919E-01
        3   -1    0    0  501    0  0.00000000000E+00  0.00000000000E+00  0.87882694622E+02  0.87882752659E+02  0.10100000352E+00 0.  1.
       -3   -1    0    0    0  501  0.00000000000E+00  0.00000000000E+00 -0.10053453350E+04  0.10053453401E+04  0.10100000352E+00 0. -1.
    10030    2    1    2    0    0  0.00000000000E+00  0.00000000000E+00 -0.91746264038E+03  0.10932280927E+04  0.59448294025E+03 0.  0.
        3    1    3    3  502    0  0.72532780541E+02  0.25956907750E+03 -0.22819799869E+03  0.35314507933E+03  0.10100000352E+00 0.  1.
       -3    1    3    3    0  502 -0.72532780541E+02 -0.25956907750E+03 -0.68926464169E+03  0.74008301341E+03  0.10100000352E+00 0. -1.
</event>
<event>
 5   0  0.3798925E-02  0.5902595E+03  0.7818609E-02  0.9925823E-01
        2   -1    0    0  501    0  0.00000000000E+00  0.00000000000E+00  0.26110237879E+04  0.26110237879E+04  0.25500000920E-02 0.  1.
       -2   -1    0    0    0  501  0.00000000000E+00  0.00000000000E+00 -0.33359169041E+02  0.33359169138E+02  0.25500000920E-02 0. -1.
    10030    2    1    2    0    0  0.00000000000E+00  0.00000000000E+00  0.25776646188E+04  0.26443829570E+04  0.59025954982E+03 0.  0.
        2    1    3    3  502    0  0.73218072655E+02  0.28589475452E+03  0.12789282840E+04  0.13125373337E+04  0.25500000920E-02 0.  1.
       -2    1    3    3    0  502 -0.73218072655E+02 -0.28589475452E+03  0.12987363349E+04  0.13318456233E+04  0.25500000920E-02 0. -1.
</event>
<event>
 5   0  0.2382531E-02  0.6072482E+03  0.7818609E-02  0.9890481E-01
       -1   -1    0    0    0  501  0.00000000000E+00  0.00000000000E+00  0.13407800666E+03  0.13407800675E+03  0.50400001928E-02 0. -1.
        1   -1    0    0  501    0  0.00000000000E+00  0.00000000000E+00 -0.68756684946E+03  0.68756684948E+03  0.50400001928E-02 0.  1.
    10030    2    1    2    0    0  0.00000000000E+00  0.00000000000E+00 -0.55348884280E+03  0.82164485624E+03  0.60724819528E+03 0.  0.
        5    1    3    3  502    0 -0.23316016520E+03 -0.19416184543E+03 -0.26301114786E+03  0.40157121256E+03  0.46999998093E+01 0. -1.
       -5    1    3    3    0  502  0.23316016520E+03  0.19416184543E+03 -0.29047769494E+03  0.42007364368E+03  0.46999998093E+01 0.  1.
</event>
<event>
 5   0  0.2295179E-02  0.5980242E+03  0.7818609E-02  0.9909514E-01
       -1   -1    0    0    0  501  0.00000000000E+00  0.00000000000E+00  0.54140365595E+02  0.54140365829E+02  0.50400001928E-02 0. -1.
        1   -1    0    0  501    0  0.00000000000E+00  0.00000000000E+00 -0.16514156608E+04  0.16514156608E+04  0.50400001928E-02 0.  1.
    10030    2    1    2    0    0  0.00000000000E+00  0.00000000000E+00 -0.15972752952E+04  0.17055560266E+04  0.59802423974E+03 0.  0.
        3    1    3    3  502    0  0.15805587207E+03 -0.23246067309E+03 -0.50795037579E+03  0.58054562069E+03  0.10100000352E+00 0. -1.
       -3    1    3    3    0  502 -0.15805587207E+03  0.23246067309E+03 -0.10893249194E+04  0.11250104059E+04  0.10100000352E+00 0.  1.
</event>
<event>
 5   0  0.3724066E-02  0.6066114E+03  0.7818609E-02  0.9891784E-01
       -2   -1    0    0    0  501  0.00000000000E+00  0.00000000000E+00  0.14571772303E+03  0.14571772305E+03  0.25500000920E-02 0. -1.
        2   -1    0    0  501    0  0.00000000000E+00  0.00000000000E+00 -0.63131894778E+03  0.63131894778E+03  0.25500000920E-02 0.  1.
    10030    2    1    2    0    0  0.00000000000E+00  0.00000000000E+00 -0.48560122475E+03  0.77703667083E+03  0.60661143934E+03 0.  0.
        4    1    3    3  502    0  0.15567258900E+03  0.65639388388E+02 -0.56546247046E+03  0.59016260698E+03  0.12699999809E+01 0.  1.
       -4    1    3    3    0  502 -0.15567258900E+03 -0.65639388388E+02  0.79861245712E+02  0.18687406385E+03  0.12699999809E+01 0. -1.
</event>
<event>
 5   0  0.2295179E-02  0.5988737E+03  0.7818609E-02  0.9907746E-01
        1   -1    0    0  501    0  0.00000000000E+00  0.00000000000E+00  0.36992105756E+03  0.36992105760E+03  0.50400001928E-02 0. -1.
       -1   -1    0    0    0  501  0.00000000000E+00  0.00000000000E+00 -0.24238257137E+03  0.24238257143E+03  0.50400001928E-02 0.  1.
    10030    2    1    2    0    0  0.00000000000E+00  0.00000000000E+00  0.12753848619E+03  0.61230362902E+03  0.59887366669E+03 0.  0.
        3    1    3    3  502    0  0.13353763316E+03 -0.26775918254E+03  0.51884118513E+02  0.30367622769E+03  0.10100000352E+00 0. -1.
       -3    1    3    3    0  502 -0.13353763316E+03  0.26775918254E+03  0.75654367675E+02  0.30862740134E+03  0.10100000352E+00 0.  1.
</event>
<event>
 5   0  0.2309055E-02  0.6002831E+03  0.7818609E-02  0.9904819E-01
        1   -1    0    0  501    0  0.00000000000E+00  0.00000000000E+00  0.13287032552E+04  0.13287032552E+04  0.50400001928E-02 0. -1.
       -1   -1    0    0    0  501  0.00000000000E+00  0.00000000000E+00 -0.67799147037E+02  0.67799147225E+02  0.50400001928E-02 0.  1.
    10030    2    1    2    0    0  0.00000000000E+00  0.00000000000E+00  0.12609041082E+04  0.13965024025E+04  0.60028309157E+03 0.  0.
        4    1    3    3  502    0  0.27347023182E+03  0.98289487773E+02  0.80511147197E+03  0.85595145090E+03  0.12699999809E+01 0.  1.
       -4    1    3    3    0  502 -0.27347023182E+03 -0.98289487773E+02  0.45579263621E+03  0.54055095155E+03  0.12699999809E+01 0. -1.
</event>
<event>
 5   0  0.2295179E-02  0.6024286E+03  0.7818609E-02  0.9900380E-01
       -1   -1    0    0    0  501  0.00000000000E+00  0.00000000000E+00  0.14891305700E+04  0.14891305700E+04  0.50400001928E-02 0.  1.
        1   -1    0    0  501    0  0.00000000000E+00  0.00000000000E+00 -0.60928215085E+02  0.60928215294E+02  0.50400001928E-02 0. -1.
    10030    2    1    2    0    0  0.00000000000E+00  0.00000000000E+00  0.14282023549E+04  0.15500587853E+04  0.60242864416E+03 0.  0.
        3    1    3    3  502    0  0.68955668494E+02 -0.27035748577E+03  0.42206661167E+03  0.50595285276E+03  0.10100000352E+00 0.  1.
       -3    1    3    3    0  502 -0.68955668494E+02  0.27035748577E+03  0.10061357433E+04  0.10441059326E+04  0.10100000352E+00 0. -1.
</event>
<event>
 5   0  0.3737642E-02  0.5969668E+03  0.7818609E-02  0.9911719E-01
        2   -1    0    0  501    0  0.00000000000E+00  0.00000000000E+00  0.28970687989E+03  0.28970687990E+03  0.25500000920E-02 0. -1.
       -2   -1    0    0    0  501  0.00000000000E+00  0.00000000000E+00 -0.30752577631E+03  0.30752577632E+03  0.25500000920E-02 0.  1.
    10030    2    1    2    0    0  0.00000000000E+00  0.00000000000E+00 -0.17818896421E+02  0.59723265623E+03  0.59696677679E+03 0.  0.
        5    1    3    3  502    0 -0.28883294716E+03 -0.10255306914E+02 -0.83377810306E+02  0.30083814907E+03  0.46999998093E+01 0.  1.
       -5    1    3    3    0  502  0.28883294716E+03  0.10255306914E+02  0.65558913885E+02  0.29639450716E+03  0.46999998093E+01 0. -1.
</event>
<event>
 5   0  0.2309055E-02  0.5985648E+03  0.7818609E-02  0.9908388E-01
        1   -1    0    0  501    0  0.00000000000E+00  0.00000000000E+00  0.31434913763E+03  0.31434913767E+03  0.50400001928E-02 0. -1.
       -1   -1    0    0    0  501  0.00000000000E+00  0.00000000000E+00 -0.28493783057E+03  0.28493783062E+03  0.50400001928E-02 0.  1.
    10030    2    1    2    0    0  0.00000000000E+00  0.00000000000E+00  0.29411307059E+02  0.59928696829E+03  0.59856482137E+03 0.  0.
        4    1    3    3  502    0  0.25830804344E+02 -0.29788120749E+03  0.27679072557E+02  0.30028018281E+03  0.12699999809E+01 0.  1.
       -4    1    3    3    0  502 -0.25830804344E+02  0.29788120749E+03  0.17322345024E+01  0.29900678548E+03  0.12699999809E+01 0. -1.
</event>
<event>
 5   0  0.2382531E-02  0.5980437E+03  0.7818609E-02  0.9909473E-01
       -1   -1    0    0    0  501  0.00000000000E+00  0.00000000000E+00  0.31548515290E+03  0.31548515294E+03  0.50400001928E-02 0.  1.
        1   -1    0    0  501    0  0.00000000000E+00  0.00000000000E+00 -0.28341767316E+03  0.28341767321E+03  0.50400001928E-02 0. -1.
    10030    2    1    2    0    0  0.00000000000E+00  0.00000000000E+00  0.32067479737E+02  0.59890282614E+03  0.59804370401E+03 0.  0.
        5    1    3    3  502    0  0.22618031573E+03  0.91848967338E+02  0.18890330032E+03  0.30870749083E+03  0.46999998093E+01 0.  1.
       -5    1    3    3    0  502 -0.22618031573E+03 -0.91848967338E+02 -0.15683582058E+03  0.29019533532E+03  0.46999998093E+01 0. -1.
</event>
<event>
 5   0  0.3737642E-02  0.6075888E+03  0.7818609E-02  0.9889786E-01
        2   -1    0    0  501    0  0.00000000000E+00  0.00000000000E+00  0.40202701275E+03  0.40202701276E+03  0.25500000920E-02 0. -1.
       -2   -1    0    0    0  501  0.00000000000E+00  0.00000000000E+00 -0.22956430464E+03  0.22956430466E+03  0.25500000920E-02 0.  1.
    10030    2    1    2    0    0  0.00000000000E+00  0.00000000000E+00  0.17246270811E+03  0.63159131742E+03  0.60758884663E+03 0.  0.
        5    1    3    3  502    0 -0.10674532099E+01 -0.26886769955E+03 -0.60695835106E+02  0.27567563134E+03  0.46999998093E+01 0.  1.
       -5    1    3    3    0  502  0.10674532099E+01  0.26886769955E+03  0.23315854321E+03  0.35591568607E+03  0.46999998093E+01 0. -1.
</event>
<event>
 5   0  0.2382531E-02  0.5981354E+03  0.7818609E-02  0.9909282E-01
        1   -1    0    0  501    0  0.00000000000E+00  0.00000000000E+00  0.16364695178E+03  0.16364695186E+03  0.50400001928E-02 0.  1.
       -1   -1    0    0    0  501  0.00000000000E+00  0.00000000000E+00 -0.54655150910E+03  0.54655150913E+03  0.50400001928E-02 0. -1.
    10030    2    1    2    0    0  0.00000000000E+00  0.00000000000E+00 -0.38290455732E+03  0.71019846098E+03  0.59813539769E+03 0.  0.
        5    1    3    3  502    0 -0.17510619053E+01 -0.73166598260E+02  0.15280459140E+03  0.16949262660E+03  0.46999998093E+01 0.  1.
       -5    1    3    3    0  502  0.17510619053E+01  0.73166598260E+02 -0.53570914872E+03  0.54070583439E+03  0.46999998093E+01 0. -1.
</event>
<event>
 5   0  0.3724066E-02  0.6016163E+03  0.7818609E-02  0.9902058E-01
       -2   -1    0    0    0  501  0.00000000000E+00  0.00000000000E+00  0.54600909344E+02  0.54600909403E+02  0.25500000920E-02 0.  1.
        2   -1    0    0  501    0  0.00000000000E+00  0.00000000000E+00 -0.16572169017E+04  0.16572169017E+04  0.25500000920E-02 0. -1.
    10030    2    1    2    0    0  0.00000000000E+00  0.00000000000E+00 -0.16026159924E+04  0.17118178111E+04  0.60161632247E+03 0.  0.
        4    1    3    3  502    0 -0.24556107768E+03  0.58036373862E+02 -0.33536727836E+03  0.41969189634E+03  0.12699999809E+01 0.  1.
       -4    1    3    3    0  502  0.24556107768E+03 -0.58036373862E+02 -0.12672487140E+04  0.12921259148E+04  0.12699999809E+01 0. -1.
</event>
<event>
 5   0  0.2225808E-02  0.6058421E+03  0.7818609E-02  0.9893359E-01
       -1   -1    0    0    0  501  0.00000000000E+00  0.00000000000E+00  0.21561577760E+03  0.21561577766E+03  0.50400001928E-02 0. -1.
        1   -1    0    0  501    0  0.00000000000E+00  0.00000000000E+00 -0.42557717431E+03  0.42557717434E+03  0.50400001928E-02 0.  1.
    10030    2    1    2    0    0  0.00000000000E+00  0.00000000000E+00 -0.20996139670E+03  0.64119295200E+03  0.60584206984E+03 0.  0.
        2    1    3    3  502    0  0.18990624251E+03 -0.21584206883E+03 -0.39707758063E+01  0.28752034135E+03  0.25500000920E-02 0. -1.
       -2    1    3    3    0  502 -0.18990624251E+03  0.21584206883E+03 -0.20599062090E+03  0.35367261065E+03  0.25500000920E-02 0.  1.
</event>
<event>
 5   0  0.2225808E-02  0.5532999E+03  0.7818609E-02  0.1000733E+00
        1   -1    0    0  501    0  0.00000000000E+00  0.00000000000E+00  0.16412633280E+04  0.16412633280E+04  0.50400001928E-02 0. -1.
       -1   -1    0    0    0  501  0.00000000000E+00  0.00000000000E+00 -0.46631881573E+02  0.46631881845E+02  0.50400001928E-02 0.  1.
    10030    2    1    2    0    0  0.00000000000E+00  0.00000000000E+00  0.15946314465E+04  0.16878952099E+04  0.55329990920E+03 0.  0.
        2    1    3    3  502    0 -0.18432809898E+03 -0.20126010832E+03  0.93552892814E+03  0.97452391180E+03  0.25500000920E-02 0. -1.
       -2    1    3    3    0  502  0.18432809898E+03  0.20126010832E+03  0.65910251832E+03  0.71337129808E+03  0.25500000920E-02 0.  1.
</event>
<event>
 5   0  0.2276105E-02  0.6431679E+03  0.7818609E-02  0.9819684E-01
       -1   -1    0    0    0  501  0.00000000000E+00  0.00000000000E+00  0.21163059858E+03  0.21163059864E+03  0.50400001928E-02 0. -1.
        1   -1    0    0  501    0  0.00000000000E+00  0.00000000000E+00 -0.48866385777E+03  0.48866385779E+03  0.50400001928E-02 0.  1.
    10030    2    1    2    0    0  0.00000000000E+00  0.00000000000E+00 -0.27703325919E+03  0.70029445643E+03  0.64316786224E+03 0.  0.
        1    1    3    3  502    0 -0.27374371749E+02 -0.11861827492E+03  0.18557276198E+03  0.22193895870E+03  0.50400001928E-02 0. -1.
       -1    1    3    3    0  502  0.27374371749E+02  0.11861827492E+03 -0.46260602117E+03  0.47835549774E+03  0.50400001928E-02 0.  1.
</event>
<event>
 5   0  0.3832191E-02  0.5974845E+03  0.7818609E-02  0.9910639E-01
       -2   -1    0    0    0  501  0.00000000000E+00  0.00000000000E+00  0.34251051996E+02  0.34251052090E+02  0.25500000920E-02 0. -1.
        2   -1    0    0  501    0  0.00000000000E+00  0.00000000000E+00 -0.26056693651E+04  0.26056693651E+04  0.25500000920E-02 0.  1.
    10030    2    1    2    0    0  0.00000000000E+00  0.00000000000E+00 -0.25714183131E+04  0.26399204172E+04  0.59748445012E+03 0.  0.
        3    1    3    3  502    0  0.10279032692E+03  0.19536369341E+03 -0.21750479433E+04  0.21862219444E+04  0.10100000352E+00 0. -1.
       -3    1    3    3    0  502 -0.10279032692E+03 -0.19536369341E+03 -0.39637036975E+03  0.45369847281E+03  0.10100000352E+00 0.  1.
</event>
<event>
 5   0  0.2225808E-02  0.6096901E+03  0.7818609E-02  0.9885504E-01
        1   -1    0    0  501    0  0.00000000000E+00  0.00000000000E+00  0.25352981857E+03  0.25352981862E+03  0.50400001928E-02 0.  1.
       -1   -1    0    0    0  501  0.00000000000E+00  0.00000000000E+00 -0.36654660496E+03  0.36654660499E+03  0.50400001928E-02 0. -1.
    10030    2    1    2    0    0  0.00000000000E+00  0.00000000000E+00 -0.11301678638E+03  0.62007642361E+03  0.60969006644E+03 0.  0.
        2    1    3    3  502    0 -0.80396523187E+02 -0.18137108062E+03  0.17888956795E+03  0.26713395021E+03  0.25500000920E-02 0.  1.
       -2    1    3    3    0  502  0.80396523187E+02  0.18137108062E+03 -0.29190635434E+03  0.35294247341E+03  0.25500000920E-02 0. -1.
</event>
<event>
 5   0  0.1521750E-02  0.6018229E+03  0.7818609E-02  0.9901631E-01
        3   -1    0    0  501    0  0.00000000000E+00  0.00000000000E+00  0.30497437282E+03  0.30497438954E+03  0.10100000352E+00 0. -1.
       -3   -1    0    0    0  501  0.00000000000E+00  0.00000000000E+00 -0.29690258302E+03  0.29690260020E+03  0.10100000352E+00 0.  1.
    10030    2    1    2    0    0  0.00000000000E+00  0.00000000000E+00  0.80717898004E+01  0.60187698974E+03  0.60182286180E+03 0.  0.
        4    1    3    3  502    0 -0.15702241788E+03 -0.71097396527E+02 -0.24263420942E+03  0.29763039493E+03  0.12699999809E+01 0.  1.
       -4    1    3    3    0  502  0.15702241788E+03  0.71097396527E+02  0.25070599922E+03  0.30424659481E+03  0.12699999809E+01 0. -1.
</event>
<event>
 5   0  0.2225808E-02  0.5985185E+03  0.7818609E-02  0.9908485E-01
        1   -1    0    0  501    0  0.00000000000E+00  0.00000000000E+00  0.93618991706E+03  0.93618991708E+03  0.50400001928E-02 0. -1.
       -1   -1    0    0    0  501  0.00000000000E+00  0.00000000000E+00 -0.95660169954E+02  0.95660170087E+02  0.50400001928E-02 0.  1.
    10030    2    1    2    0    0  0.00000000000E+00  0.00000000000E+00  0.84052974711E+03  0.10318500872E+04  0.59851845970E+03 0.  0.
        2    1    3    3  502    0 -0.14342946734E+03 -0.41529109434E+02 -0.26846352812E+02  0.15171488292E+03  0.25500000920E-02 0.  1.
       -2    1    3    3    0  502  0.14342946734E+03  0.41529109434E+02  0.86737609992E+03  0.88013520425E+03  0.25500000920E-02 0. -1.
</event>
<event>
 5   0  0.3737642E-02  0.6004462E+03  0.7818609E-02  0.9904481E-01
       -2   -1    0    0    0  501  0.00000000000E+00  0.00000000000E+00  0.15701891812E+03  0.15701891814E+03  0.25500000920E-02 0. -1.
        2   -1    0    0  501    0  0.00000000000E+00  0.00000000000E+00 -0.57403209493E+03  0.57403209494E+03  0.25500000920E-02 0.  1.
    10030    2    1    2    0    0  0.00000000000E+00  0.00000000000E+00 -0.41701317681E+03  0.73105101308E+03  0.60044616253E+03 0.  0.
        5    1    3    3  502    0 -0.16711137619E+03  0.16613690744E+03  0.17911960359E+02  0.23636965200E+03  0.46999998093E+01 0. -1.
       -5    1    3    3    0  502  0.16711137619E+03 -0.16613690744E+03 -0.43492513717E+03  0.49468136108E+03  0.46999998093E+01 0.  1.
</event>
<event>
 5   0  0.3724066E-02  0.6001015E+03  0.7818609E-02  0.9905195E-01
        2   -1    0    0  501    0  0.00000000000E+00  0.00000000000E+00  0.21755211364E+03  0.21755211365E+03  0.25500000920E-02 0. -1.
       -2   -1    0    0    0  501  0.00000000000E+00  0.00000000000E+00 -0.41383396827E+03  0.41383396828E+03  0.25500000920E-02 0.  1.
    10030    2    1    2    0    0  0.00000000000E+00  0.00000000000E+00 -0.19628185464E+03  0.63138608193E+03  0.60010150641E+03 0.  0.
        4    1    3    3  502    0 -0.72550604408E+02 -0.25974507805E+03  0.40236433371E+02  0.27267504330E+03  0.12699999809E+01 0. -1.
       -4    1    3    3    0  502  0.72550604408E+02  0.25974507805E+03 -0.23651828801E+03  0.35871103863E+03  0.12699999809E+01 0.  1.
</event>
<event>
 5   0  0.2225808E-02  0.6036875E+03  0.7818609E-02  0.9897785E-01
        1   -1    0    0  501    0  0.00000000000E+00  0.00000000000E+00  0.62886546486E+03  0.62886546488E+03  0.50400001928E-02 0. -1.
       -1   -1    0    0    0  501  0.00000000000E+00  0.00000000000E+00 -0.14487939939E+03  0.14487939948E+03  0.50400001928E-02 0.  1.
    10030    2    1    2    0    0  0.00000000000E+00  0.00000000000E+00  0.48398606546E+03  0.77374486436E+03  0.60368750489E+03 0.  0.
        2    1    3    3  502    0 -0.15337375951E+03 -0.51086768227E+02 -0.84717415895E+02  0.18251139295E+03  0.25500000920E-02 0.  1.
       -2    1    3    3    0  502  0.15337375951E+03  0.51086768227E+02  0.56870348136E+03  0.59123347141E+03  0.25500000920E-02 0. -1.
</event>
<event>
 5   0  0.2276105E-02  0.5966637E+03  0.7818609E-02  0.9912352E-01
        1   -1    0    0  501    0  0.00000000000E+00  0.00000000000E+00  0.15805427066E+04  0.15805427066E+04  0.50400001928E-02 0. -1.
       -1   -1    0    0    0  501  0.00000000000E+00  0.00000000000E+00 -0.56310961780E+02  0.56310962006E+02  0.50400001928E-02 0.  1.
    10030    2    1    2    0    0  0.00000000000E+00  0.00000000000E+00  0.15242317448E+04  0.16368536686E+04  0.59666365780E+03 0.  0.
        1    1    3    3  502    0 -0.96114720562E+02  0.15870882665E+03  0.12123319881E+03  0.22163939110E+03  0.50400001928E-02 0.  1.
       -1    1    3    3    0  502  0.96114720562E+02 -0.15870882665E+03  0.14029985460E+04  0.14152142775E+04  0.50400001928E-02 0. -1.
</event>
<event>
 5   0  0.2295179E-02  0.6018462E+03  0.7818609E-02  0.9901583E-01
       -1   -1    0    0    0  501  0.00000000000E+00  0.00000000000E+00  0.13179225087E+03  0.13179225097E+03  0.50400001928E-02 0.  1.
        1   -1    0    0  501    0  0.00000000000E+00  0.00000000000E+00 -0.68710196588E+03  0.68710196590E+03  0.50400001928E-02 0. -1.
    10030    2    1    2    0    0  0.00000000000E+00  0.00000000000E+00 -0.55530971501E+03  0.81889421687E+03  0.60184620863E+03 0.  0.
        3    1    3    3  502    0  0.15387198779E+03 -0.18538858417E+03 -0.52298185354E+03  0.57580860110E+03  0.10100000352E+00 0. -1.
       -3    1    3    3    0  502 -0.15387198779E+03  0.18538858417E+03 -0.32327861473E+02  0.24308561577E+03  0.10100000352E+00 0.  1.
</event>
<event>
 5   0  0.3798925E-02  0.5981089E+03  0.7818609E-02  0.9909337E-01
       -2   -1    0    0    0  501  0.00000000000E+00  0.00000000000E+00  0.14483784212E+03  0.14483784214E+03  0.25500000920E-02 0. -1.
        2   -1    0    0  501    0  0.00000000000E+00  0.00000000000E+00 -0.61747383572E+03  0.61747383572E+03  0.25500000920E-02 0.  1.
    10030    2    1    2    0    0  0.00000000000E+00  0.00000000000E+00 -0.47263599360E+03  0.76231167786E+03  0.59810894640E+03 0.  0.
        2    1    3    3  502    0 -0.20898926300E+03  0.51089980909E+02  0.28426518322E+02  0.21701328335E+03  0.25500000920E-02 0. -1.
       -2    1    3    3    0  502  0.20898926300E+03 -0.51089980909E+02 -0.50106251192E+03  0.54529839451E+03  0.25500000920E-02 0.  1.
</event>
<event>
 5   0  0.2276105E-02  0.5925506E+03  0.7818609E-02  0.9920983E-01
       -1   -1    0    0    0  501  0.00000000000E+00  0.00000000000E+00  0.61484105525E+02  0.61484105731E+02  0.50400001928E-02 0.  1.
        1   -1    0    0  501    0  0.00000000000E+00  0.00000000000E+00 -0.14276707586E+04  0.14276707586E+04  0.50400001928E-02 0. -1.
    10030    2    1    2    0    0  0.00000000000E+00  0.00000000000E+00 -0.13661866530E+04  0.14891548643E+04  0.59255062141E+03 0.  0.
        1    1    3    3  502    0 -0.42946897663E+02  0.24722697297E+03 -0.10789682211E+04  0.11077626254E+04  0.50400001928E-02 0. -1.
       -1    1    3    3    0  502  0.42946897663E+02 -0.24722697297E+03 -0.28721843195E+03  0.38139223885E+03  0.50400001928E-02 0.  1.
</event>
<event>
 5   0  0.3737642E-02  0.5976355E+03  0.7818609E-02  0.9910324E-01
        2   -1    0    0  501    0  0.00000000000E+00  0.00000000000E+00  0.18424504304E+03  0.18424504306E+03  0.25500000920E-02 0. -1.
       -2   -1    0    0    0  501  0.00000000000E+00  0.00000000000E+00 -0.48463737539E+03  0.48463737540E+03  0.25500000920E-02 0.  1.
    10030    2    1    2    0    0  0.00000000000E+00  0.00000000000E+00 -0.30039233235E+03  0.66888241846E+03  0.59763545443E+03 0.  0.
        5    1    3    3  502    0  0.19889846571E+02 -0.11413737226E+03 -0.45843164507E+03  0.47286849011E+03  0.46999998093E+01 0.  1.
       -5    1    3    3    0  502 -0.19889846571E+02  0.11413737226E+03  0.15803931272E+03  0.19601392835E+03  0.46999998093E+01 0. -1.
</event>
<event>
 5   0  0.2276105E-02  0.5988969E+03  0.7818609E-02  0.9907697E-01
       -1   -1    0    0    0  501  0.00000000000E+00  0.00000000000E+00  0.10512487864E+04  0.10512487864E+04  0.50400001928E-02 0.  1.
        1   -1    0    0  501    0  0.00000000000E+00  0.00000000000E+00 -0.85297945701E+02  0.85297945850E+02  0.50400001928E-02 0. -1.
    10030    2    1    2    0    0  0.00000000000E+00  0.00000000000E+00  0.96595084073E+03  0.11365467323E+04  0.59889685922E+03 0.  0.
        1    1    3    3  502    0 -0.26697165039E+03  0.84867510064E+02  0.28220088824E+03  0.39763513140E+03  0.50400001928E-02 0. -1.
       -1    1    3    3    0  502  0.26697165039E+03 -0.84867510064E+02  0.68374995250E+03  0.73891160090E+03  0.50400001928E-02 0.  1.
</event>
<event>
 5   0  0.3798925E-02  0.6008088E+03  0.7818609E-02  0.9903729E-01
        2   -1    0    0  501    0  0.00000000000E+00  0.00000000000E+00  0.48440026538E+03  0.48440026539E+03  0.25500000920E-02 0. -1.
       -2   -1    0    0    0  501  0.00000000000E+00  0.00000000000E+00 -0.18629801245E+03  0.18629801247E+03  0.25500000920E-02 0.  1.
    10030    2    1    2    0    0  0.00000000000E+00  0.00000000000E+00  0.29810225293E+03  0.67069827785E+03  0.60080881045E+03 0.  0.
        2    1    3    3  502    0 -0.34681170477E+01 -0.15483945308E+03 -0.13829274610E+03  0.20763469772E+03  0.25500000920E-02 0.  1.
       -2    1    3    3    0  502  0.34681170477E+01  0.15483945308E+03  0.43639499903E+03  0.46306358014E+03  0.25500000920E-02 0. -1.
</event>
<event>
 5   0  0.2382531E-02  0.6020395E+03  0.7818609E-02  0.9901184E-01
        1   -1    0    0  501    0  0.00000000000E+00  0.00000000000E+00  0.18072318586E+03  0.18072318593E+03  0.50400001928E-02 0.  1.
       -1   -1    0    0    0  501  0.00000000000E+00  0.00000000000E+00 -0.50139044937E+03  0.50139044939E+03  0.50400001928E-02 0. -1.
    10030    2    1    2    0    0  0.00000000000E+00  0.00000000000E+00 -0.32066726351E+03  0.68211363532E+03  0.60203946516E+03 0.  0.
        5    1    3    3  502    0  0.16247005737E+03 -0.16023100089E+03 -0.38270382776E+03  0.44559488661E+03  0.46999998093E+01 0. -1.
       -5    1    3    3    0  502 -0.16247005737E+03  0.16023100089E+03  0.62036564255E+02  0.23651874871E+03  0.46999998093E+01 0.  1.
</event>
<event>
 5   0  0.3737642E-02  0.5854448E+03  0.7818609E-02  0.9936072E-01
       -2   -1    0    0    0  501  0.00000000000E+00  0.00000000000E+00  0.15512806999E+03  0.15512807001E+03  0.25500000920E-02 0. -1.
        2   -1    0    0  501    0  0.00000000000E+00  0.00000000000E+00 -0.55235918660E+03  0.55235918661E+03  0.25500000920E-02 0.  1.
    10030    2    1    2    0    0  0.00000000000E+00  0.00000000000E+00 -0.39723111661E+03  0.70748725662E+03  0.58544483794E+03 0.  0.
        5    1    3    3  502    0 -0.49828825717E+02 -0.25775907887E+03 -0.35497785061E+03  0.44153597705E+03  0.46999998093E+01 0.  1.
       -5    1    3    3    0  502  0.49828825717E+02  0.25775907887E+03 -0.42253266003E+02  0.26595127956E+03  0.46999998093E+01 0. -1.
</event>
<event>
 5   0  0.2276105E-02  0.6081070E+03  0.7818609E-02  0.9888728E-01
       -1   -1    0    0    0  501  0.00000000000E+00  0.00000000000E+00  0.32036830460E+03  0.32036830464E+03  0.50400001928E-02 0. -1.
        1   -1    0    0  501    0  0.00000000000E+00  0.00000000000E+00 -0.28856948444E+03  0.28856948448E+03  0.50400001928E-02 0.  1.
    10030    2    1    2    0    0  0.00000000000E+00  0.00000000000E+00  0.31798820164E+02  0.60893778912E+03  0.60810695281E+03 0.  0.
        1    1    3    3  502    0  0.33901593634E+02 -0.20726951342E+03  0.23606008817E+03  0.31596571728E+03  0.50400001928E-02 0. -1.
       -1    1    3    3    0  502 -0.33901593634E+02  0.20726951342E+03 -0.20426126801E+03  0.29297207184E+03  0.50400001928E-02 0.  1.
</event>
<event>
 5   0  0.2225808E-02  0.5973716E+03  0.7818609E-02  0.9910874E-01
        1   -1    0    0  501    0  0.00000000000E+00  0.00000000000E+00  0.52806234574E+03  0.52806234576E+03  0.50400001928E-02 0.  1.
       -1   -1    0    0    0  501  0.00000000000E+00  0.00000000000E+00 -0.16894443358E+03  0.16894443365E+03  0.50400001928E-02 0. -1.
    10030    2    1    2    0    0  0.00000000000E+00  0.00000000000E+00  0.35911791216E+03  0.69700677941E+03  0.59737155583E+03 0.  0.
        2    1    3    3  502    0  0.51181749285E+02 -0.20601003307E+03 -0.65615361389E+02  0.22218253946E+03  0.25500000920E-02 0. -1.
       -2    1    3    3    0  502 -0.51181749285E+02  0.20601003307E+03  0.42473327355E+03  0.47482423995E+03  0.25500000920E-02 0.  1.
</event>
<event>
 5   0  0.3832191E-02  0.5966321E+03  0.7818609E-02  0.9912418E-01
        2   -1    0    0  501    0  0.00000000000E+00  0.00000000000E+00  0.11710589261E+04  0.11710589261E+04  0.25500000920E-02 0. -1.
       -2   -1    0    0    0  501  0.00000000000E+00  0.00000000000E+00 -0.75993162274E+02  0.75993162316E+02  0.25500000920E-02 0.  1.
    10030    2    1    2    0    0  0.00000000000E+00  0.00000000000E+00  0.10950657638E+04  0.12470520884E+04  0.59663211791E+03 0.  0.
        3    1    3    3  502    0  0.22393066578E+03  0.10720971618E+03  0.89322156943E+03  0.92708340974E+03  0.10100000352E+00 0. -1.
       -3    1    3    3    0  502 -0.22393066578E+03 -0.10720971618E+03  0.20184419439E+03  0.31996867867E+03  0.10100000352E+00 0.  1.
</event>
<event>
 5   0  0.2295179E-02  0.6019469E+03  0.7818609E-02  0.9901375E-01
       -1   -1    0    0    0  501  0.00000000000E+00  0.00000000000E+00  0.10011831272E+03  0.10011831285E+03  0.50400001928E-02 0.  1.
        1   -1    0    0  501    0  0.00000000000E+00  0.00000000000E+00 -0.90477977770E+03  0.90477977771E+03  0.50400001928E-02 0. -1.
    10030    2    1    2    0    0  0.00000000000E+00  0.00000000000E+00 -0.80466146497E+03  0.10048980906E+04  0.60194692391E+03 0.  0.
        3    1    3    3  502    0 -0.16212824138E+01  0.29988948683E+03 -0.35981206404E+03  0.46840267345E+03  0.10100000352E+00 0.  1.
       -3    1    3    3    0  502  0.16212824138E+01 -0.29988948683E+03 -0.44484940093E+03  0.53649541711E+03  0.10100000352E+00 0. -1.
</event>
<event>
 5   0  0.3934634E-02  0.5953913E+03  0.7818609E-02  0.9915014E-01
       -2   -1    0    0    0  501  0.00000000000E+00  0.00000000000E+00  0.21036335192E+03  0.21036335193E+03  0.25500000920E-02 0.  1.
        2   -1    0    0  501    0  0.00000000000E+00  0.00000000000E+00 -0.42128390421E+03  0.42128390422E+03  0.25500000920E-02 0. -1.
    10030    2    1    2    0    0  0.00000000000E+00  0.00000000000E+00 -0.21092055230E+03  0.63164725615E+03  0.59539128044E+03 0.  0.
        1    1    3    3  502    0  0.22801922413E+02  0.16943087323E+03  0.15309329740E+03  0.22948705018E+03  0.50400001928E-02 0.  1.
       -1    1    3    3    0  502 -0.22801922413E+02 -0.16943087323E+03 -0.36401384969E+03  0.40216020597E+03  0.50400001928E-02 0. -1.
</event>
<event>
 5   0  0.2276105E-02  0.5954840E+03  0.7818609E-02  0.9914820E-01
       -1   -1    0    0    0  501  0.00000000000E+00  0.00000000000E+00  0.63124290511E+02  0.63124290712E+02  0.50400001928E-02 0. -1.
        1   -1    0    0  501    0  0.00000000000E+00  0.00000000000E+00 -0.14043770997E+04  0.14043770997E+04  0.50400001928E-02 0.  1.
    10030    2    1    2    0    0  0.00000000000E+00  0.00000000000E+00 -0.13412528092E+04  0.14675013904E+04  0.59548403230E+03 0.  0.
        1    1    3    3  502    0 -0.64340943741E+02  0.12957700613E+03 -0.13119363866E+04  0.13198890257E+04  0.50400001928E-02 0.  1.
       -1    1    3    3    0  502  0.64340943741E+02 -0.12957700613E+03 -0.29316422537E+02  0.14761236471E+03  0.50400001928E-02 0. -1.
</event>
<event>
 5   0  0.3798925E-02  0.6096626E+03  0.7818609E-02  0.9885560E-01
       -2   -1    0    0    0  501  0.00000000000E+00  0.00000000000E+00  0.17053772516E+03  0.17053772518E+03  0.25500000920E-02 0.  1.
        2   -1    0    0  501    0  0.00000000000E+00  0.00000000000E+00 -0.54487722309E+03  0.54487722309E+03  0.25500000920E-02 0. -1.
    10030    2    1    2    0    0  0.00000000000E+00  0.00000000000E+00 -0.37433949793E+03  0.71541494827E+03  0.60966260218E+03 0.  0.
        2    1    3    3  502    0  0.89768518377E+01  0.22286267447E+03  0.56655358576E+02  0.23012645481E+03  0.25500000920E-02 0.  1.
       -2    1    3    3    0  502 -0.89768518377E+01 -0.22286267447E+03 -0.43099485651E+03  0.48528849346E+03  0.25500000920E-02 0. -1.
</event>
<event>
 5   0  0.2295179E-02  0.5995870E+03  0.7818609E-02  0.9906263E-01
       -1   -1    0    0    0  501  0.00000000000E+00  0.00000000000E+00  0.12288724753E+03  0.12288724763E+03  0.50400001928E-02 0. -1.
        1   -1    0    0  501    0  0.00000000000E+00  0.00000000000E+00 -0.73137072641E+03  0.73137072642E+03  0.50400001928E-02 0.  1.
    10030    2    1    2    0    0  0.00000000000E+00  0.00000000000E+00 -0.60848347888E+03  0.85425797405E+03  0.59958697631E+03 0.  0.
        3    1    3    3  502    0  0.50492781553E+02  0.17820527127E+03 -0.64009923017E+03  0.66635851788E+03  0.10100000352E+00 0.  1.
       -3    1    3    3    0  502 -0.50492781553E+02 -0.17820527127E+03  0.31615751283E+02  0.18789945617E+03  0.10100000352E+00 0. -1.
</event>
<event>
 5   0  0.3724066E-02  0.6005466E+03  0.7818609E-02  0.9904273E-01
        2   -1    0    0  501    0  0.00000000000E+00  0.00000000000E+00  0.23858554896E+03  0.23858554897E+03  0.25500000920E-02 0.  1.
       -2   -1    0    0    0  501  0.00000000000E+00  0.00000000000E+00 -0.37791073842E+03  0.37791073843E+03  0.25500000920E-02 0. -1.
    10030    2    1    2    0    0  0.00000000000E+00  0.00000000000E+00 -0.13932518947E+03  0.61649628740E+03  0.60054655437E+03 0.  0.
        4    1    3    3  502    0  0.19037625387E+03  0.16120661266E+03  0.10190401387E+03  0.26947491710E+03  0.12699999809E+01 0.  1.
       -4    1    3    3    0  502 -0.19037625387E+03 -0.16120661266E+03 -0.24122920334E+03  0.34702137030E+03  0.12699999809E+01 0. -1.
</event>
<event>
 5   0  0.3934634E-02  0.6017778E+03  0.7818609E-02  0.9901725E-01
       -2   -1    0    0    0  501  0.00000000000E+00  0.00000000000E+00  0.21443649943E+03  0.21443649945E+03  0.25500000920E-02 0.  1.
        2   -1    0    0  501    0  0.00000000000E+00  0.00000000000E+00 -0.42219548849E+03  0.42219548849E+03  0.25500000920E-02 0. -1.
    10030    2    1    2    0    0  0.00000000000E+00  0.00000000000E+00 -0.20775898905E+03  0.63663198794E+03  0.60177777505E+03 0.  0.
        1    1    3    3  502    0 -0.13623010398E+03  0.25279876589E+03 -0.88535055523E+01  0.28730513719E+03  0.50400001928E-02 0.  1.
       -1    1    3    3    0  502  0.13623010398E+03 -0.25279876589E+03 -0.19890548350E+03  0.34932685076E+03  0.50400001928E-02 0. -1.
</event>
<event>
 5   0  0.2295179E-02  0.5942224E+03  0.7818609E-02  0.9917466E-01
        1   -1    0    0  501    0  0.00000000000E+00  0.00000000000E+00  0.84869388258E+03  0.84869388259E+03  0.50400001928E-02 0. -1.
       -1   -1    0    0    0  501  0.00000000000E+00  0.00000000000E+00 -0.10401284366E+03  0.10401284378E+03  0.50400001928E-02 0.  1.
    10030    2    1    2    0    0  0.00000000000E+00  0.00000000000E+00  0.74468103892E+03  0.95270672638E+03  0.59422239672E+03 0.  0.
        3    1    3    3  502    0  0.27945036618E+03  0.15673233245E+02  0.21251887316E+03  0.35142913802E+03  0.10100000352E+00 0.  1.
       -3    1    3    3    0  502 -0.27945036618E+03 -0.15673233245E+02  0.53216216575E+03  0.60127758836E+03  0.10100000352E+00 0. -1.
</event>
<event>
 5   0  0.2382531E-02  0.5910277E+03  0.7818609E-02  0.9924198E-01
       -1   -1    0    0    0  501  0.00000000000E+00  0.00000000000E+00  0.55004383313E+02  0.55004383544E+02  0.50400001928E-02 0.  1.
        1   -1    0    0  501    0  0.00000000000E+00  0.00000000000E+00 -0.15876629891E+04  0.15876629891E+04  0.50400001928E-02 0. -1.
    10030    2    1    2    0    0  0.00000000000E+00  0.00000000000E+00 -0.15326586058E+04  0.16426673727E+04  0.59102766034E+03 0.  0.
        5    1    3    3  502    0  0.16064827076E+03  0.21288217071E+03 -0.41279922953E+03  0.49147937841E+03  0.46999998093E+01 0.  1.
       -5    1    3    3    0  502 -0.16064827076E+03 -0.21288217071E+03 -0.11198593763E+04  0.11511879943E+04  0.46999998093E+01 0. -1.
</event>
<event>
 5   0  0.2295179E-02  0.5979553E+03  0.7818609E-02  0.9909657E-01
       -1   -1    0    0    0  501  0.00000000000E+00  0.00000000000E+00  0.14719686829E+03  0.14719686838E+03  0.50400001928E-02 0.  1.
        1   -1    0    0  501    0  0.00000000000E+00  0.00000000000E+00 -0.60726589787E+03  0.60726589789E+03  0.50400001928E-02 0. -1.
    10030    2    1    2    0    0  0.00000000000E+00  0.00000000000E+00 -0.46006902957E+03  0.75446276627E+03  0.59795531079E+03 0.  0.
        3    1    3    3  502    0 -0.27662121635E+03  0.69645267730E+02 -0.34301372218E+03  0.44612574961E+03  0.10100000352E+00 0. -1.
       -3    1    3    3    0  502  0.27662121635E+03 -0.69645267730E+02 -0.11705530739E+03  0.30833701666E+03  0.10100000352E+00 0.  1.
</event>
<event>
 5   0  0.2382531E-02  0.6001922E+03  0.7818609E-02  0.9905007E-01
       -1   -1    0    0    0  501  0.00000000000E+00  0.00000000000E+00  0.10675779654E+03  0.10675779665E+03  0.50400001928E-02 0.  1.
        1   -1    0    0  501    0  0.00000000000E+00  0.00000000000E+00 -0.84356983654E+03  0.84356983655E+03  0.50400001928E-02 0. -1.
    10030    2    1    2    0    0  0.00000000000E+00  0.00000000000E+00 -0.73681204000E+03  0.95032763321E+03  0.60019215935E+03 0.  0.
        5    1    3    3  502    0 -0.17277168166E+03  0.18709817845E+03 -0.61965774142E+03  0.66996536392E+03  0.46999998093E+01 0. -1.
       -5    1    3    3    0  502  0.17277168166E+03 -0.18709817845E+03 -0.11715429859E+03  0.28036226928E+03  0.46999998093E+01 0.  1.
</event>
<event>
 5   0  0.3798925E-02  0.6035206E+03  0.7818609E-02  0.9898129E-01
        2   -1    0    0  501    0  0.00000000000E+00  0.00000000000E+00  0.92468025466E+03  0.92468025466E+03  0.25500000920E-02 0.  1.
       -2   -1    0    0    0  501  0.00000000000E+00  0.00000000000E+00 -0.98476489566E+02  0.98476489599E+02  0.25500000920E-02 0. -1.
    10030    2    1    2    0    0  0.00000000000E+00  0.00000000000E+00  0.82620376509E+03  0.10231567443E+04  0.60352055630E+03 0.  0.
        2    1    3    3  502    0 -0.19835240456E+03  0.36598946844E+02  0.79360866466E+03  0.81883934440E+03  0.25500000920E-02 0.  1.
       -2    1    3    3    0  502  0.19835240456E+03 -0.36598946844E+02  0.32595100429E+02  0.20431739986E+03  0.25500000920E-02 0. -1.
</event>
<event>
 5   0  0.2276105E-02  0.6012686E+03  0.7818609E-02  0.9902778E-01
       -1   -1    0    0    0  501  0.00000000000E+00  0.00000000000E+00  0.78974946880E+02  0.78974947040E+02  0.50400001928E-02 0.  1.
        1   -1    0    0  501    0  0.00000000000E+00  0.00000000000E+00 -0.11444258906E+04  0.11444258906E+04  0.50400001928E-02 0. -1.
    10030    2    1    2    0    0  0.00000000000E+00  0.00000000000E+00 -0.10654509437E+04  0.12234008376E+04  0.60126857234E+03 0.  0.
        1    1    3    3  502    0 -0.13043712819E+03 -0.10556423964E+03 -0.25177774100E+02  0.16968079867E+03  0.50400001928E-02 0.  1.
       -1    1    3    3    0  502  0.13043712819E+03  0.10556423964E+03 -0.10402731696E+04  0.10537200390E+04  0.50400001928E-02 0. -1.
</event>
<event>
 5   0  0.3934634E-02  0.5979318E+03  0.7818609E-02  0.9909706E-01
       -2   -1    0    0    0  501  0.00000000000E+00  0.00000000000E+00  0.49500408629E+02  0.49500408695E+02  0.25500000920E-02 0. -1.
        2   -1    0    0  501    0  0.00000000000E+00  0.00000000000E+00 -0.18056536723E+04  0.18056536723E+04  0.25500000920E-02 0.  1.
    10030    2    1    2    0    0  0.00000000000E+00  0.00000000000E+00 -0.17561532637E+04  0.18551540810E+04  0.59793175090E+03 0.  0.
        1    1    3    3  502    0 -0.20021690248E+03 -0.94500361526E+02 -0.25474005918E+03  0.33750499869E+03  0.50400001928E-02 0. -1.
       -1    1    3    3    0  502  0.20021690248E+03  0.94500361526E+02 -0.15014132045E+04  0.15176490823E+04  0.50400001928E-02 0.  1.
</event>
<event>
 5   0  0.3724066E-02  0.6033467E+03  0.7818609E-02  0.9898487E-01
       -2   -1    0    0    0  501  0.00000000000E+00  0.00000000000E+00  0.77506140035E+02  0.77506140077E+02  0.25500000920E-02 0. -1.
        2   -1    0    0  501    0  0.00000000000E+00  0.00000000000E+00 -0.11741883592E+04  0.11741883592E+04  0.25500000920E-02 0.  1.
    10030    2    1    2    0    0  0.00000000000E+00  0.00000000000E+00 -0.10966822191E+04  0.12516944992E+04  0.60334669112E+03 0.  0.
        4    1    3    3  502    0  0.10119965011E+03 -0.24876477188E+03 -0.83339791234E+03  0.87560206378E+03  0.12699999809E+01 0.  1.
       -4    1    3    3    0  502 -0.10119965011E+03  0.24876477188E+03 -0.26328430679E+03  0.37609243546E+03  0.12699999809E+01 0. -1.
</event>
<event>
 5   0  0.2295179E-02  0.6086710E+03  0.7818609E-02  0.9887578E-01
       -1   -1    0    0    0  501  0.00000000000E+00  0.00000000000E+00  0.95204735683E+02  0.95204735817E+02  0.50400001928E-02 0. -1.
        1   -1    0    0  501    0  0.00000000000E+00  0.00000000000E+00 -0.97285180426E+03  0.97285180428E+03  0.50400001928E-02 0.  1.
    10030    2    1    2    0    0  0.00000000000E+00  0.00000000000E+00 -0.87764706858E+03  0.10680565401E+04  0.60867100789E+03 0.  0.
        3    1    3    3  502    0 -0.15574591115E+03  0.98023659147E+02 -0.86416017277E+03  0.88353734556E+03  0.10100000352E+00 0.  1.
       -3    1    3    3    0  502  0.15574591115E+03 -0.98023659147E+02 -0.13486895812E+02  0.18451919454E+03  0.10100000352E+00 0. -1.
</event>
<event>
 5   0  0.3832191E-02  0.6005011E+03  0.7818609E-02  0.9904367E-01
       -2   -1    0    0    0  501  0.00000000000E+00  0.00000000000E+00  0.11371035641E+03  0.11371035643E+03  0.25500000920E-02 0.  1.
        2   -1    0    0  501    0  0.00000000000E+00  0.00000000000E+00 -0.79280714275E+03  0.79280714275E+03  0.25500000920E-02 0. -1.
    10030    2    1    2    0    0  0.00000000000E+00  0.00000000000E+00 -0.67909678634E+03  0.90651749919E+03  0.60050106670E+03 0.  0.
        3    1    3    3  502    0 -0.72376008669E+02  0.20087889390E+03 -0.20883800860E+02  0.21453848137E+03  0.10100000352E+00 0.  1.
       -3    1    3    3    0  502  0.72376008669E+02 -0.20087889390E+03 -0.65821298548E+03  0.69197901782E+03  0.10100000352E+00 0. -1.
</event>
<event>
 5   0  0.3832191E-02  0.6011511E+03  0.7818609E-02  0.9903021E-01
       -2   -1    0    0    0  501  0.00000000000E+00  0.00000000000E+00  0.13881207340E+03  0.13881207343E+03  0.25500000920E-02 0.  1.
        2   -1    0    0  501    0  0.00000000000E+00  0.00000000000E+00 -0.65084878360E+03  0.65084878360E+03  0.25500000920E-02 0. -1.
    10030    2    1    2    0    0  0.00000000000E+00  0.00000000000E+00 -0.51203671019E+03  0.78966085703E+03  0.60115112620E+03 0.  0.
        3    1    3    3  502    0 -0.11558139596E+03  0.24220423513E+03 -0.78205305310E+02  0.27953180603E+03  0.10100000352E+00 0.  1.
       -3    1    3    3    0  502  0.11558139596E+03 -0.24220423513E+03 -0.43383140488E+03  0.51012905099E+03  0.10100000352E+00 0. -1.
</event>
<event>
 5   0  0.2225808E-02  0.6003259E+03  0.7818609E-02  0.9904730E-01
       -1   -1    0    0    0  501  0.00000000000E+00  0.00000000000E+00  0.59501007669E+02  0.59501007882E+02  0.50400001928E-02 0.  1.
        1   -1    0    0  501    0  0.00000000000E+00  0.00000000000E+00 -0.15142230458E+04  0.15142230458E+04  0.50400001928E-02 0. -1.
    10030    2    1    2    0    0  0.00000000000E+00  0.00000000000E+00 -0.14547220381E+04  0.15737240537E+04  0.60032590227E+03 0.  0.
        2    1    3    3  502    0 -0.23830587083E+03 -0.18249467808E+03 -0.72224977909E+03  0.78213728910E+03  0.25500000920E-02 0.  1.
       -2    1    3    3    0  502  0.23830587083E+03  0.18249467808E+03 -0.73247225901E+03  0.79158676456E+03  0.25500000920E-02 0. -1.
</event>
<event>
 5   0  0.2295179E-02  0.5965593E+03  0.7818609E-02  0.9912570E-01
        1   -1    0    0  501    0  0.00000000000E+00  0.00000000000E+00  0.22609400523E+03  0.22609400529E+03  0.50400001928E-02 0. -1.
       -1   -1    0    0    0  501  0.00000000000E+00  0.00000000000E+00 -0.39351224840E+03  0.39351224843E+03  0.50400001928E-02 0.  1.
    10030    2    1    2    0    0  0.00000000000E+00  0.00000000000E+00 -0.16741824317E+03  0.61960625372E+03  0.59655933612E+03 0.  0.
        3    1    3    3  502    0 -0.24065680059E+03  0.23631420195E+01 -0.26672519856E+03  0.35925425795E+03  0.10100000352E+00 0.  1.
       -3    1    3    3    0  502  0.24065680059E+03 -0.23631420195E+01  0.99306955389E+02  0.26035199577E+03  0.10100000352E+00 0. -1.
</event>
<event>
 5   0  0.2276105E-02  0.5954862E+03  0.7818609E-02  0.9914815E-01
        1   -1    0    0  501    0  0.00000000000E+00  0.00000000000E+00  0.22043905245E+03  0.22043905251E+03  0.50400001928E-02 0. -1.
       -1   -1    0    0    0  501  0.00000000000E+00  0.00000000000E+00 -0.40215632850E+03  0.40215632853E+03  0.50400001928E-02 0.  1.
    10030    2    1    2    0    0  0.00000000000E+00  0.00000000000E+00 -0.18171727605E+03  0.62259538104E+03  0.59548622157E+03 0.  0.
        1    1    3    3  502    0  0.10836894695E+03 -0.25751611659E+03 -0.19846428786E+03  0.34270461413E+03  0.50400001928E-02 0.  1.
       -1    1    3    3    0  502 -0.10836894695E+03  0.25751611659E+03  0.16747011810E+02  0.27989076690E+03  0.50400001928E-02 0. -1.
</event>
<event>
 5   0  0.3737642E-02  0.6023504E+03  0.7818609E-02  0.9900542E-01
       -2   -1    0    0    0  501  0.00000000000E+00  0.00000000000E+00  0.71020995085E+02  0.71020995131E+02  0.25500000920E-02 0.  1.
        2   -1    0    0  501    0  0.00000000000E+00  0.00000000000E+00 -0.12771787064E+04  0.12771787064E+04  0.25500000920E-02 0. -1.
    10030    2    1    2    0    0  0.00000000000E+00  0.00000000000E+00 -0.12061577113E+04  0.13481997015E+04  0.60235040520E+03 0.  0.
        5    1    3    3  502    0  0.70878027590E+02  0.27515397144E+03 -0.82635308465E+03  0.87385062413E+03  0.46999998093E+01 0. -1.
       -5    1    3    3    0  502 -0.70878027590E+02 -0.27515397144E+03 -0.37980462665E+03  0.47434907739E+03  0.46999998093E+01 0.  1.
</event>
<event>
 5   0  0.3832191E-02  0.6003752E+03  0.7818609E-02  0.9904628E-01
        2   -1    0    0  501    0  0.00000000000E+00  0.00000000000E+00  0.17628601805E+03  0.17628601807E+03  0.25500000920E-02 0. -1.
       -2   -1    0    0    0  501  0.00000000000E+00  0.00000000000E+00 -0.51117269913E+03  0.51117269914E+03  0.25500000920E-02 0.  1.
    10030    2    1    2    0    0  0.00000000000E+00  0.00000000000E+00 -0.33488668108E+03  0.68745871721E+03  0.60037521493E+03 0.  0.
        3    1    3    3  502    0 -0.22699317941E+03  0.99175860729E+02 -0.36159857178E+03  0.43830958484E+03  0.10100000352E+00 0.  1.
       -3    1    3    3    0  502  0.22699317941E+03 -0.99175860729E+02  0.26711890701E+02  0.24914913236E+03  0.10100000352E+00 0. -1.
</event>
<event>
 5   0  0.3724066E-02  0.6019015E+03  0.7818609E-02  0.9901469E-01
       -2   -1    0    0    0  501  0.00000000000E+00  0.00000000000E+00  0.11938697677E+03  0.11938697680E+03  0.25500000920E-02 0.  1.
        2   -1    0    0  501    0  0.00000000000E+00  0.00000000000E+00 -0.75863676092E+03  0.75863676092E+03  0.25500000920E-02 0. -1.
    10030    2    1    2    0    0  0.00000000000E+00  0.00000000000E+00 -0.63924978415E+03  0.87802373772E+03  0.60190148486E+03 0.  0.
        4    1    3    3  502    0 -0.28056917183E+03 -0.10688182683E+03 -0.28948303172E+03  0.41706692945E+03  0.12699999809E+01 0. -1.
       -4    1    3    3    0  502  0.28056917183E+03  0.10688182683E+03 -0.34976675242E+03  0.46095680827E+03  0.12699999809E+01 0.  1.
</event>
<event>
 5   0  0.3832191E-02  0.5928662E+03  0.7818609E-02  0.9920318E-01
       -2   -1    0    0    0  501  0.00000000000E+00  0.00000000000E+00  0.47940686039E+02  0.47940686107E+02  0.25500000920E-02 0. -1.
        2   -1    0    0  501    0  0.00000000000E+00  0.00000000000E+00 -0.18329435393E+04  0.18329435393E+04  0.25500000920E-02 0.  1.
    10030    2    1    2    0    0  0.00000000000E+00  0.00000000000E+00 -0.17850028532E+04  0.18808842254E+04  0.59286615963E+03 0.  0.
        3    1    3    3  502    0  0.62006845591E+02  0.23727821916E+03 -0.36423263896E+03  0.43910275298E+03  0.10100000352E+00 0. -1.
       -3    1    3    3    0  502 -0.62006845591E+02 -0.23727821916E+03 -0.14207702143E+04  0.14417814724E+04  0.10100000352E+00 0.  1.
</event>
<event>
 5   0  0.2382531E-02  0.5829700E+03  0.7818609E-02  0.9941382E-01
       -1   -1    0    0    0  501  0.00000000000E+00  0.00000000000E+00  0.67169581892E+02  0.67169582081E+02  0.50400001928E-02 0.  1.
        1   -1    0    0  501    0  0.00000000000E+00  0.00000000000E+00 -0.12649106079E+04  0.12649106079E+04  0.50400001928E-02 0. -1.
    10030    2    1    2    0    0  0.00000000000E+00  0.00000000000E+00 -0.11977410260E+04  0.13320801900E+04  0.58297003969E+03 0.  0.
        5    1    3    3  502    0 -0.34045069583E+02 -0.22382795972E+02 -0.12582843644E+04  0.12589526155E+04  0.46999998093E+01 0. -1.
       -5    1    3    3    0  502  0.34045069583E+02  0.22382795972E+02  0.60543338446E+02  0.73127574463E+02  0.46999998093E+01 0.  1.
</event>
<event>
 5   0  0.2309055E-02  0.6096093E+03  0.7818609E-02  0.9885668E-01
        1   -1    0    0  501    0  0.00000000000E+00  0.00000000000E+00  0.14708216570E+03  0.14708216578E+03  0.50400001928E-02 0. -1.
       -1   -1    0    0    0  501  0.00000000000E+00  0.00000000000E+00 -0.63165971379E+03  0.63165971381E+03  0.50400001928E-02 0.  1.
    10030    2    1    2    0    0  0.00000000000E+00  0.00000000000E+00 -0.48457754809E+03  0.77874187959E+03  0.60960931335E+03 0.  0.
        4    1    3    3  502    0 -0.26170595571E+03 -0.32925942305E+02 -0.47169299159E+02  0.26795649015E+03  0.12699999809E+01 0. -1.
       -4    1    3    3    0  502  0.26170595571E+03  0.32925942305E+02 -0.43740824893E+03  0.51078538944E+03  0.12699999809E+01 0.  1.
</event>
<event>
 5   0  0.2382531E-02  0.5993753E+03  0.7818609E-02  0.9906703E-01
       -1   -1    0    0    0  501  0.00000000000E+00  0.00000000000E+00  0.50880047873E+03  0.50880047875E+03  0.50400001928E-02 0.  1.
        1   -1    0    0  501    0  0.00000000000E+00  0.00000000000E+00 -0.17651847048E+03  0.17651847056E+03  0.50400001928E-02 0. -1.
    10030    2    1    2    0    0  0.00000000000E+00  0.00000000000E+00  0.33228200824E+03  0.68531894931E+03  0.59937528251E+03 0.  0.
        5    1    3    3  502    0  0.21014407932E+03  0.19538186488E+03  0.67411620048E+02  0.29478979581E+03  0.46999998093E+01 0. -1.
       -5    1    3    3    0  502 -0.21014407932E+03 -0.19538186488E+03  0.26487038820E+03  0.39052915350E+03  0.46999998093E+01 0.  1.
</event>
<event>
 5   0  0.2309055E-02  0.6006410E+03  0.7818609E-02  0.9904077E-01
       -1   -1    0    0    0  501  0.00000000000E+00  0.00000000000E+00  0.59661845818E+03  0.59661845820E+03  0.50400001928E-02 0.  1.
        1   -1    0    0  501    0  0.00000000000E+00  0.00000000000E+00 -0.15117266512E+03  0.15117266521E+03  0.50400001928E-02 0. -1.
    10030    2    1    2    0    0  0.00000000000E+00  0.00000000000E+00  0.44544579306E+03  0.74779112341E+03  0.60064099901E+03 0.  0.
        4    1    3    3  502    0 -0.26586617881E+02  0.90092877371E+01 -0.14953235183E+03  0.15214977049E+03  0.12699999809E+01 0. -1.
       -4    1    3    3    0  502  0.26586617881E+02 -0.90092877371E+01  0.59497814489E+03  0.59564135292E+03  0.12699999809E+01 0.  1.
</event>
<event>
 5   0  0.3832191E-02  0.5999699E+03  0.7818609E-02  0.9905468E-01
        2   -1    0    0  501    0  0.00000000000E+00  0.00000000000E+00  0.16205058496E+03  0.16205058498E+03  0.25500000920E-02 0.  1.
       -2   -1    0    0    0  501  0.00000000000E+00  0.00000000000E+00 -0.55532650640E+03  0.55532650641E+03  0.25500000920E-02 0. -1.
    10030    2    1    2    0    0  0.00000000000E+00  0.00000000000E+00 -0.39327592144E+03  0.71737709139E+03  0.59996994997E+03 0.  0.
        3    1    3    3  502    0 -0.15139919947E+02 -0.14857072793E+03 -0.50772035955E+03  0.52922816637E+03  0.10100000352E+00 0. -1.
       -3    1    3    3    0  502  0.15139919947E+02  0.14857072793E+03  0.11444443811E+03  0.18814892502E+03  0.10100000352E+00 0.  1.
</event>
<event>
 5   0  0.2295179E-02  0.6012084E+03  0.7818609E-02  0.9902902E-01
       -1   -1    0    0    0  501  0.00000000000E+00  0.00000000000E+00  0.10837221716E+03  0.10837221727E+03  0.50400001928E-02 0. -1.
        1   -1    0    0  501    0  0.00000000000E+00  0.00000000000E+00 -0.83381970743E+03  0.83381970744E+03  0.50400001928E-02 0.  1.
    10030    2    1    2    0    0  0.00000000000E+00  0.00000000000E+00 -0.72544749027E+03  0.94219192471E+03  0.60120841799E+03 0.  0.
        3    1    3    3  502    0  0.20787553836E+03 -0.92537441267E+00 -0.70301765825E+03  0.73310772318E+03  0.10100000352E+00 0.  1.
       -3    1    3    3    0  502 -0.20787553836E+03  0.92537441267E+00 -0.22429832019E+02  0.20908420154E+03  0.10100000352E+00 0. -1.
</event>
<event>
 5   0  0.1521750E-02  0.5973337E+03  0.7818609E-02  0.9910953E-01
       -4   -1    0    0    0  501  0.00000000000E+00  0.00000000000E+00  0.49863525646E+02  0.49879696168E+02  0.12699999809E+01 0.  1.
        4   -1    0    0  501    0  0.00000000000E+00  0.00000000000E+00 -0.17886141455E+04  0.17886145964E+04  0.12699999809E+01 0. -1.
    10030    2    1    2    0    0  0.00000000000E+00  0.00000000000E+00 -0.17387506199E+04  0.18384942926E+04  0.59733369710E+03 0.  0.
        2    1    3    3  502    0 -0.90071633702E+02 -0.17189494411E+03 -0.17062473641E+03  0.25840582751E+03  0.25500000920E-02 0.  1.
       -2    1    3    3    0  502  0.90071633702E+02  0.17189494411E+03 -0.15681258835E+04  0.15800884651E+04  0.25500000920E-02 0. -1.
</event>
<event>
 5   0  0.3832191E-02  0.5964406E+03  0.7818609E-02  0.9912818E-01
       -2   -1    0    0    0  501  0.00000000000E+00  0.00000000000E+00  0.17302332404E+03  0.17302332405E+03  0.25500000920E-02 0. -1.
        2   -1    0    0  501    0  0.00000000000E+00  0.00000000000E+00 -0.51400785227E+03  0.51400785228E+03  0.25500000920E-02 0.  1.
    10030    2    1    2    0    0  0.00000000000E+00  0.00000000000E+00 -0.34098452824E+03  0.68703117633E+03  0.59644059952E+03 0.  0.
        3    1    3    3  502    0 -0.24198487682E+03 -0.75626710255E+02  0.10391355963E+02  0.25374016314E+03  0.10100000352E+00 0. -1.
       -3    1    3    3    0  502  0.24198487682E+03  0.75626710255E+02 -0.35137588420E+03  0.43329101319E+03  0.10100000352E+00 0.  1.
</event>
<event>
 5   0  0.2295179E-02  0.5993192E+03  0.7818609E-02  0.9906819E-01
        1   -1    0    0  501    0  0.00000000000E+00  0.00000000000E+00  0.26959523391E+03  0.26959523396E+03  0.50400001928E-02 0.  1.
       -1   -1    0    0    0  501  0.00000000000E+00  0.00000000000E+00 -0.33307666116E+03  0.33307666120E+03  0.50400001928E-02 0. -1.
    10030    2    1    2    0    0  0.00000000000E+00  0.00000000000E+00 -0.63481427255E+02  0.60267189516E+03  0.59931921512E+03 0.  0.
        3    1    3    3  502    0  0.72174300370E+02  0.14789039726E+03 -0.28357162799E+03  0.32786213206E+03  0.10100000352E+00 0. -1.
       -3    1    3    3    0  502 -0.72174300370E+02 -0.14789039726E+03  0.22009020073E+03  0.27480976310E+03  0.10100000352E+00 0.  1.
</event>
<event>
 5   0  0.3724066E-02  0.6027940E+03  0.7818609E-02  0.9899626E-01
       -2   -1    0    0    0  501  0.00000000000E+00  0.00000000000E+00  0.25610994903E+03  0.25610994904E+03  0.25500000920E-02 0. -1.
        2   -1    0    0  501    0  0.00000000000E+00  0.00000000000E+00 -0.35469202830E+03  0.35469202831E+03  0.25500000920E-02 0.  1.
    10030    2    1    2    0    0  0.00000000000E+00  0.00000000000E+00 -0.98582079272E+02  0.61080197735E+03  0.60279401887E+03 0.  0.
        4    1    3    3  502    0 -0.80740204058E+02 -0.26751343355E+02  0.24369359520E+03  0.25811392091E+03  0.12699999809E+01 0. -1.
       -4    1    3    3    0  502  0.80740204058E+02  0.26751343355E+02 -0.34227567448E+03  0.35268805645E+03  0.12699999809E+01 0.  1.
</event>
<event>
 5   0  0.1521750E-02  0.5627127E+03  0.7818609E-02  0.9985935E-01
       -4   -1    0    0    0  501  0.00000000000E+00  0.00000000000E+00  0.30374327097E+03  0.30374592600E+03  0.12699999809E+01 0.  1.
        4   -1    0    0  501    0  0.00000000000E+00  0.00000000000E+00 -0.26061406543E+03  0.26061715984E+03  0.12699999809E+01 0. -1.
    10030    2    1    2    0    0  0.00000000000E+00  0.00000000000E+00  0.43129205537E+02  0.56436308583E+03  0.56271268360E+03 0.  0.
        2    1    3    3  502    0 -0.18401753714E+02 -0.23236412366E+03 -0.13647191848E+03  0.27010422996E+03  0.25500000920E-02 0. -1.
       -2    1    3    3    0  502  0.18401753714E+02  0.23236412366E+03  0.17960112402E+03  0.29425885587E+03  0.25500000920E-02 0.  1.
</event>
<event>
 5   0  0.2225808E-02  0.6177931E+03  0.7818609E-02  0.9869163E-01
       -1   -1    0    0    0  501  0.00000000000E+00  0.00000000000E+00  0.32673367160E+03  0.32673367163E+03  0.50400001928E-02 0.  1.
        1   -1    0    0  501    0  0.00000000000E+00  0.00000000000E+00 -0.29203322092E+03  0.29203322096E+03  0.50400001928E-02 0. -1.
    10030    2    1    2    0    0  0.00000000000E+00  0.00000000000E+00  0.34700450675E+02  0.61876689260E+03  0.61779312565E+03 0.  0.
        2    1    3    3  502    0 -0.90663384502E+02  0.46375388567E+02 -0.27473687302E+03  0.29300320025E+03  0.25500000920E-02 0. -1.
       -2    1    3    3    0  502  0.90663384502E+02 -0.46375388567E+02  0.30943732369E+03  0.32576369235E+03  0.25500000920E-02 0.  1.
</event>
<event>
 5   0  0.2309055E-02  0.5657100E+03  0.7818609E-02  0.9979217E-01
       -1   -1    0    0    0  501  0.00000000000E+00  0.00000000000E+00  0.43177017731E+03  0.43177017734E+03  0.50400001928E-02 0.  1.
        1   -1    0    0  501    0  0.00000000000E+00  0.00000000000E+00 -0.18529983899E+03  0.18529983906E+03  0.50400001928E-02 0. -1.
    10030    2    1    2    0    0  0.00000000000E+00  0.00000000000E+00  0.24647033832E+03  0.61707001641E+03  0.56570997647E+03 0.  0.
        4    1    3    3  502    0 -0.43926785217E+01 -0.12652528966E+03  0.39913653831E+03  0.41873563697E+03  0.12699999809E+01 0.  1.
       -4    1    3    3    0  502  0.43926785217E+01  0.12652528966E+03 -0.15266619999E+03  0.19833437944E+03  0.12699999809E+01 0. -1.
</event>
<event>
 5   0  0.2295179E-02  0.5980500E+03  0.7818609E-02  0.9909460E-01
       -1   -1    0    0    0  501  0.00000000000E+00  0.00000000000E+00  0.37664781096E+03  0.37664781099E+03  0.50400001928E-02 0.  1.
        1   -1    0    0  501    0  0.00000000000E+00  0.00000000000E+00 -0.23739934727E+03  0.23739934733E+03  0.50400001928E-02 0. -1.
    10030    2    1    2    0    0  0.00000000000E+00  0.00000000000E+00  0.13924846368E+03  0.61404715832E+03  0.59804997952E+03 0.  0.
        3    1    3    3  502    0  0.12640663216E+03  0.88918881371E+02 -0.19321291829E+03  0.24741957504E+03  0.10100000352E+00 0. -1.
       -3    1    3    3    0  502 -0.12640663216E+03 -0.88918881371E+02  0.33246138197E+03  0.36662758328E+03  0.10100000352E+00 0.  1.
</event>
<event>
 5   0  0.2382531E-02  0.5993553E+03  0.7818609E-02  0.9906744E-01
       -1   -1    0    0    0  501  0.00000000000E+00  0.00000000000E+00  0.13736623553E+03  0.13736623562E+03  0.50400001928E-02 0.  1.
        1   -1    0    0  501    0  0.00000000000E+00  0.00000000000E+00 -0.65377562793E+03  0.65377562795E+03  0.50400001928E-02 0. -1.
    10030    2    1    2    0    0  0.00000000000E+00  0.00000000000E+00 -0.51640939240E+03  0.79114186357E+03  0.59935531009E+03 0.  0.
        5    1    3    3  502    0 -0.28667102828E+03  0.33783445018E+02 -0.15208711739E+03  0.32630381685E+03  0.46999998093E+01 0.  1.
       -5    1    3    3    0  502  0.28667102828E+03 -0.33783445018E+02 -0.36432227501E+03  0.46483804672E+03  0.46999998093E+01 0. -1.
</event>
<event>
 5   0  0.3832191E-02  0.6014949E+03  0.7818609E-02  0.9902309E-01
        2   -1    0    0  501    0  0.00000000000E+00  0.00000000000E+00  0.86455808246E+03  0.86455808246E+03  0.25500000920E-02 0.  1.
       -2   -1    0    0    0  501  0.00000000000E+00  0.00000000000E+00 -0.10461880340E+03  0.10461880343E+03  0.25500000920E-02 0. -1.
    10030    2    1    2    0    0  0.00000000000E+00  0.00000000000E+00  0.75993927906E+03  0.96917688589E+03  0.60149491127E+03 0.  0.
        3    1    3    3  502    0  0.11532414122E+03  0.10118147215E+03  0.79676419593E+03  0.81140035862E+03  0.10100000352E+00 0.  1.
       -3    1    3    3    0  502 -0.11532414122E+03 -0.10118147215E+03 -0.36824916867E+02  0.15777652727E+03  0.10100000352E+00 0. -1.
</event>
<event>
 5   0  0.2276105E-02  0.6318980E+03  0.7818609E-02  0.9841352E-01
        1   -1    0    0  501    0  0.00000000000E+00  0.00000000000E+00  0.19511222630E+03  0.19511222637E+03  0.50400001928E-02 0.  1.
       -1   -1    0    0    0  501  0.00000000000E+00  0.00000000000E+00 -0.51162234854E+03  0.51162234856E+03  0.50400001928E-02 0. -1.
    10030    2    1    2    0    0  0.00000000000E+00  0.00000000000E+00 -0.31651012224E+03  0.70673457493E+03  0.63189801544E+03 0.  0.
        1    1    3    3  502    0  0.51758921262E+02 -0.15094351571E+03  0.14673206241E+03  0.21677921724E+03  0.50400001928E-02 0.  1.
       -1    1    3    3    0  502 -0.51758921262E+02  0.15094351571E+03 -0.46324218465E+03  0.48995535769E+03  0.50400001928E-02 0. -1.
</event>
<event>
 5   0  0.3934634E-02  0.5981991E+03  0.7818609E-02  0.9909149E-01
        2   -1    0    0  501    0  0.00000000000E+00  0.00000000000E+00  0.15245513931E+04  0.15245513931E+04  0.25500000920E-02 0. -1.
       -2   -1    0    0    0  501  0.00000000000E+00  0.00000000000E+00 -0.58679920951E+02  0.58679921006E+02  0.25500000920E-02 0.  1.
    10030    2    1    2    0    0  0.00000000000E+00  0.00000000000E+00  0.14658714721E+04  0.15832313141E+04  0.59819914837E+03 0.  0.
        1    1    3    3  502    0  0.29803994700E+02 -0.28434011054E+03  0.50034575737E+03  0.57626682492E+03  0.50400001928E-02 0.  1.
       -1    1    3    3    0  502 -0.29803994700E+02  0.28434011054E+03  0.96552571477E+03  0.10069644892E+04  0.50400001928E-02 0. -1.
</event>
<event>
 5   0  0.2295179E-02  0.6032139E+03  0.7818609E-02  0.9898761E-01
        1   -1    0    0  501    0  0.00000000000E+00  0.00000000000E+00  0.62578516526E+03  0.62578516528E+03  0.50400001928E-02 0. -1.
       -1   -1    0    0    0  501  0.00000000000E+00  0.00000000000E+00 -0.14536419698E+03  0.14536419707E+03  0.50400001928E-02 0.  1.
    10030    2    1    2    0    0  0.00000000000E+00  0.00000000000E+00  0.48042096828E+03  0.77114936235E+03  0.60321391918E+03 0.  0.
        3    1    3    3  502    0  0.20410584903E+03 -0.10274675930E+03 -0.11445154762E+02  0.22879487740E+03  0.10100000352E+00 0.  1.
       -3    1    3    3    0  502 -0.20410584903E+03  0.10274675930E+03  0.49186612304E+03  0.54235448496E+03  0.10100000352E+00 0. -1.
</event>
<event>
 5   0  0.2225808E-02  0.6113363E+03  0.7818609E-02  0.9882162E-01
       -1   -1    0    0    0  501  0.00000000000E+00  0.00000000000E+00  0.12323851874E+03  0.12323851884E+03  0.50400001928E-02 0.  1.
        1   -1    0    0  501    0  0.00000000000E+00  0.00000000000E+00 -0.75814793210E+03  0.75814793212E+03  0.50400001928E-02 0. -1.
    10030    2    1    2    0    0  0.00000000000E+00  0.00000000000E+00 -0.63490941337E+03  0.88138645096E+03  0.61133633358E+03 0.  0.
        2    1    3    3  502    0  0.68797682597E+02  0.89739589656E+02 -0.72688455256E+03  0.73562726148E+03  0.25500000920E-02 0. -1.
       -2    1    3    3    0  502 -0.68797682597E+02 -0.89739589656E+02  0.91975139187E+02  0.14575918948E+03  0.25500000920E-02 0.  1.
</event>
<event>
 5   0  0.2382531E-02  0.5985818E+03  0.7818609E-02  0.9908353E-01
        1   -1    0    0  501    0  0.00000000000E+00  0.00000000000E+00  0.15319394243E+04  0.15319394243E+04  0.50400001928E-02 0.  1.
       -1   -1    0    0    0  501  0.00000000000E+00  0.00000000000E+00 -0.58471669053E+02  0.58471669270E+02  0.50400001928E-02 0. -1.
    10030    2    1    2    0    0  0.00000000000E+00  0.00000000000E+00  0.14734677552E+04  0.15904110936E+04  0.59858184137E+03 0.  0.
        5    1    3    3  502    0  0.23536925805E+03  0.12451003235E+03  0.10995972088E+04  0.11313874436E+04  0.46999998093E+01 0. -1.
       -5    1    3    3    0  502 -0.23536925805E+03 -0.12451003235E+03  0.37387054640E+03  0.45902365000E+03  0.46999998093E+01 0.  1.
</event>
<event>
 5   0  0.3737642E-02  0.6010895E+03  0.7818609E-02  0.9903148E-01
       -2   -1    0    0    0  501  0.00000000000E+00  0.00000000000E+00  0.21416405112E+03  0.21416405113E+03  0.25500000920E-02 0.  1.
        2   -1    0    0  501    0  0.00000000000E+00  0.00000000000E+00 -0.42176609248E+03  0.42176609249E+03  0.25500000920E-02 0. -1.
    10030    2    1    2    0    0  0.00000000000E+00  0.00000000000E+00 -0.20760204137E+03  0.63593014362E+03  0.60108946088E+03 0.  0.
        5    1    3    3  502    0  0.13605113791E+03 -0.35033281134E+02  0.17724251049E+03  0.22621724169E+03  0.46999998093E+01 0.  1.
       -5    1    3    3    0  502 -0.13605113791E+03  0.35033281134E+02 -0.38484455186E+03  0.40971290193E+03  0.46999998093E+01 0. -1.
</event>
<event>
 5   0  0.3737642E-02  0.5986234E+03  0.7818609E-02  0.9908266E-01
       -2   -1    0    0    0  501  0.00000000000E+00  0.00000000000E+00  0.19447738865E+03  0.19447738867E+03  0.25500000920E-02 0. -1.
        2   -1    0    0  501    0  0.00000000000E+00  0.00000000000E+00 -0.46065756454E+03  0.46065756455E+03  0.25500000920E-02 0.  1.
    10030    2    1    2    0    0  0.00000000000E+00  0.00000000000E+00 -0.26618017589E+03  0.65513495321E+03  0.59862335478E+03 0.  0.
        5    1    3    3  502    0  0.24535127119E+03 -0.16411160923E+03 -0.18709997775E+03  0.34951159956E+03  0.46999998093E+01 0.  1.
       -5    1    3    3    0  502 -0.24535127119E+03  0.16411160923E+03 -0.79080198141E+02  0.30562335365E+03  0.46999998093E+01 0. -1.
</event>
<event>
 5   0  0.3737642E-02  0.5886324E+03  0.7818609E-02  0.9929275E-01
       -2   -1    0    0    0  501  0.00000000000E+00  0.00000000000E+00  0.31016876767E+03  0.31016876768E+03  0.25500000920E-02 0. -1.
        2   -1    0    0  501    0  0.00000000000E+00  0.00000000000E+00 -0.27927387295E+03  0.27927387296E+03  0.25500000920E-02 0.  1.
    10030    2    1    2    0    0  0.00000000000E+00  0.00000000000E+00  0.30894894719E+02  0.58944264064E+03  0.58863242527E+03 0.  0.
        5    1    3    3  502    0 -0.28738610168E+03  0.63230739231E+02  0.12119440783E+02  0.29454688704E+03  0.46999998093E+01 0. -1.
       -5    1    3    3    0  502  0.28738610168E+03 -0.63230739231E+02  0.18775453936E+02  0.29489575360E+03  0.46999998093E+01 0.  1.
</event>
<event>
 5   0  0.2309055E-02  0.6027932E+03  0.7818609E-02  0.9899628E-01
       -1   -1    0    0    0  501  0.00000000000E+00  0.00000000000E+00  0.87689117360E+02  0.87689117505E+02  0.50400001928E-02 0. -1.
        1   -1    0    0  501    0  0.00000000000E+00  0.00000000000E+00 -0.10359313752E+04  0.10359313752E+04  0.50400001928E-02 0.  1.
    10030    2    1    2    0    0  0.00000000000E+00  0.00000000000E+00 -0.94824225787E+03  0.11236204927E+04  0.60279319183E+03 0.  0.
        4    1    3    3  502    0  0.89850433793E+02  0.27183569698E+03 -0.64968152449E+03  0.70996862097E+03  0.12699999809E+01 0.  1.
       -4    1    3    3    0  502 -0.89850433793E+02 -0.27183569698E+03 -0.29856073339E+03  0.41365187178E+03  0.12699999809E+01 0. -1.
</event>
<event>
 5   0  0.3798925E-02  0.6022665E+03  0.7818609E-02  0.9900715E-01
       -2   -1    0    0    0  501  0.00000000000E+00  0.00000000000E+00  0.10285052571E+03  0.10285052575E+03  0.25500000920E-02 0. -1.
        2   -1    0    0  501    0  0.00000000000E+00  0.00000000000E+00 -0.88167979727E+03  0.88167979727E+03  0.25500000920E-02 0.  1.
    10030    2    1    2    0    0  0.00000000000E+00  0.00000000000E+00 -0.77882927156E+03  0.98453032302E+03  0.60226648812E+03 0.  0.
        2    1    3    3  502    0 -0.21271857881E+03 -0.11137089624E+03 -0.68650271129E+03  0.72728168058E+03  0.25500000920E-02 0.  1.
       -2    1    3    3    0  502  0.21271857881E+03  0.11137089624E+03 -0.92326560268E+02  0.25724864244E+03  0.25500000920E-02 0. -1.
</event>
<event>
 5   0  0.3832191E-02  0.6008825E+03  0.7818609E-02  0.9903577E-01
       -2   -1    0    0    0  501  0.00000000000E+00  0.00000000000E+00  0.21441408292E+03  0.21441408294E+03  0.25500000920E-02 0. -1.
        2   -1    0    0  501    0  0.00000000000E+00  0.00000000000E+00 -0.42098423100E+03  0.42098423101E+03  0.25500000920E-02 0.  1.
    10030    2    1    2    0    0  0.00000000000E+00  0.00000000000E+00 -0.20657014808E+03  0.63539831395E+03  0.60088251039E+03 0.  0.
        3    1    3    3  502    0 -0.10377232882E+03  0.14206041565E+03  0.15425158288E+03  0.23397311586E+03  0.10100000352E+00 0. -1.
       -3    1    3    3    0  502  0.10377232882E+03 -0.14206041565E+03 -0.36082173096E+03  0.40142519808E+03  0.10100000352E+00 0.  1.
</event>
<event>
 5   0  0.2276105E-02  0.6016379E+03  0.7818609E-02  0.9902014E-01
       -1   -1    0    0    0  501  0.00000000000E+00  0.00000000000E+00  0.22169913498E+03  0.22169913504E+03  0.50400001928E-02 0. -1.
        1   -1    0    0  501    0  0.00000000000E+00  0.00000000000E+00 -0.40817497248E+03  0.40817497251E+03  0.50400001928E-02 0.  1.
    10030    2    1    2    0    0  0.00000000000E+00  0.00000000000E+00 -0.18647583749E+03  0.62987410755E+03  0.60163789225E+03 0.  0.
        1    1    3    3  502    0 -0.21699440031E+03 -0.16257095188E+03  0.43169575182E+02  0.27455326697E+03  0.50400001928E-02 0. -1.
       -1    1    3    3    0  502  0.21699440031E+03  0.16257095188E+03 -0.22964541268E+03  0.35532084058E+03  0.50400001928E-02 0.  1.
</event>
<event>
 5   0  0.3832191E-02  0.6022421E+03  0.7818609E-02  0.9900765E-01
       -2   -1    0    0    0  501  0.00000000000E+00  0.00000000000E+00  0.35983501017E+02  0.35983501108E+02  0.25500000920E-02 0. -1.
        2   -1    0    0  501    0  0.00000000000E+00  0.00000000000E+00 -0.25198738467E+04  0.25198738467E+04  0.25500000920E-02 0.  1.
    10030    2    1    2    0    0  0.00000000000E+00  0.00000000000E+00 -0.24838903457E+04  0.25558573478E+04  0.60224208834E+03 0.  0.
        3    1    3    3  502    0 -0.17050493352E+03 -0.23681316338E+03 -0.92659525555E+03  0.97145827729E+03  0.10100000352E+00 0.  1.
       -3    1    3    3    0  502  0.17050493352E+03  0.23681316338E+03 -0.15572950901E+04  0.15843990705E+04  0.10100000352E+00 0. -1.
</event>
<event>
 5   0  0.2309055E-02  0.5999191E+03  0.7818609E-02  0.9905574E-01
        1   -1    0    0  501    0  0.00000000000E+00  0.00000000000E+00  0.18952841465E+04  0.18952841465E+04  0.50400001928E-02 0.  1.
       -1   -1    0    0    0  501  0.00000000000E+00  0.00000000000E+00 -0.47473481469E+02  0.47473481736E+02  0.50400001928E-02 0. -1.
    10030    2    1    2    0    0  0.00000000000E+00  0.00000000000E+00  0.18478106650E+04  0.19427576282E+04  0.59991911812E+03 0.  0.
        4    1    3    3  502    0  0.15149954216E+03  0.23640903540E+03  0.12655917783E+04  0.12963662698E+04  0.12699999809E+01 0.  1.
       -4    1    3    3    0  502 -0.15149954216E+03 -0.23640903540E+03  0.58221888670E+03  0.64639135841E+03  0.12699999809E+01 0. -1.
</event>
<event>
 5   0  0.3737642E-02  0.6022213E+03  0.7818609E-02  0.9900808E-01
        2   -1    0    0  501    0  0.00000000000E+00  0.00000000000E+00  0.17896157768E+04  0.17896157768E+04  0.25500000920E-02 0. -1.
       -2   -1    0    0    0  501  0.00000000000E+00  0.00000000000E+00 -0.50663182586E+02  0.50663182650E+02  0.25500000920E-02 0.  1.
    10030    2    1    2    0    0  0.00000000000E+00  0.00000000000E+00  0.17389525942E+04  0.18402789594E+04  0.60222132449E+03 0.  0.
        5    1    3    3  502    0  0.49222118993E+02 -0.29676904738E+03  0.83194362726E+03  0.88467337103E+03  0.46999998093E+01 0. -1.
       -5    1    3    3    0  502 -0.49222118993E+02  0.29676904738E+03  0.90700896691E+03  0.95560558838E+03  0.46999998093E+01 0.  1.
</event>
<event>
 5   0  0.2295179E-02  0.6057397E+03  0.7818609E-02  0.9893569E-01
        1   -1    0    0  501    0  0.00000000000E+00  0.00000000000E+00  0.13240654323E+04  0.13240654323E+04  0.50400001928E-02 0. -1.
       -1   -1    0    0    0  501  0.00000000000E+00  0.00000000000E+00 -0.69279167905E+02  0.69279168089E+02  0.50400001928E-02 0.  1.
    10030    2    1    2    0    0  0.00000000000E+00  0.00000000000E+00  0.12547862644E+04  0.13933446004E+04  0.60573971816E+03 0.  0.
        3    1    3    3  502    0 -0.28171198651E+03  0.10936630817E+03  0.58095861932E+03  0.65485537355E+03  0.10100000352E+00 0.  1.
       -3    1    3    3    0  502  0.28171198651E+03 -0.10936630817E+03  0.67382764510E+03  0.73848922687E+03  0.10100000352E+00 0. -1.
</event>
<event>
 5   0  0.3798925E-02  0.6013821E+03  0.7818609E-02  0.9902543E-01
        2   -1    0    0  501    0  0.00000000000E+00  0.00000000000E+00  0.12260295910E+04  0.12260295910E+04  0.25500000920E-02 0.  1.
       -2   -1    0    0    0  501  0.00000000000E+00  0.00000000000E+00 -0.73746263747E+02  0.73746263791E+02  0.25500000920E-02 0. -1.
    10030    2    1    2    0    0  0.00000000000E+00  0.00000000000E+00  0.11522833273E+04  0.12997758548E+04  0.60138208025E+03 0.  0.
        2    1    3    3  502    0 -0.22558519595E+03 -0.50978381979E+02  0.99147201903E+03  0.10180885230E+04  0.25500000920E-02 0.  1.
       -2    1    3    3    0  502  0.22558519595E+03  0.50978381979E+02  0.16081130824E+03  0.28168733185E+03  0.25500000920E-02 0. -1.
</event>
<event>
 5   0  0.2382531E-02  0.5867409E+03  0.7818609E-02  0.9933303E-01
        1   -1    0    0  501    0  0.00000000000E+00  0.00000000000E+00  0.78614812547E+02  0.78614812708E+02  0.50400001928E-02 0.  1.
       -1   -1    0    0    0  501  0.00000000000E+00  0.00000000000E+00 -0.10947836392E+04  0.10947836392E+04  0.50400001928E-02 0. -1.
    10030    2    1    2    0    0  0.00000000000E+00  0.00000000000E+00 -0.10161688266E+04  0.11733984519E+04  0.58674086503E+03 0.  0.
        5    1    3    3  502    0  0.18856896623E+03 -0.21909485105E+03 -0.60774301937E+03  0.67300406861E+03  0.46999998093E+01 0. -1.
       -5    1    3    3    0  502 -0.18856896623E+03  0.21909485105E+03 -0.40842580724E+03  0.50039438326E+03  0.46999998093E+01 0.  1.
</event>
<event>
 5   0  0.2225808E-02  0.6020341E+03  0.7818609E-02  0.9901195E-01
       -1   -1    0    0    0  501  0.00000000000E+00  0.00000000000E+00  0.71666753235E+03  0.71666753237E+03  0.50400001928E-02 0. -1.
        1   -1    0    0  501    0  0.00000000000E+00  0.00000000000E+00 -0.12643417380E+03  0.12643417390E+03  0.50400001928E-02 0.  1.
    10030    2    1    2    0    0  0.00000000000E+00  0.00000000000E+00  0.59023335855E+03  0.84310170627E+03  0.60203410997E+03 0.  0.
        2    1    3    3  502    0  0.78446896464E+02 -0.44064123370E+02  0.69739550800E+03  0.70317569434E+03  0.25500000920E-02 0. -1.
       -2    1    3    3    0  502 -0.78446896464E+02  0.44064123370E+02 -0.10716214945E+03  0.13992601193E+03  0.25500000920E-02 0.  1.
</event>
<event>
 5   0  0.2382531E-02  0.5980990E+03  0.7818609E-02  0.9909358E-01
       -1   -1    0    0    0  501  0.00000000000E+00  0.00000000000E+00  0.23425101209E+03  0.23425101214E+03  0.50400001928E-02 0. -1.
        1   -1    0    0  501    0  0.00000000000E+00  0.00000000000E+00 -0.38177248325E+03  0.38177248329E+03  0.50400001928E-02 0.  1.
    10030    2    1    2    0    0  0.00000000000E+00  0.00000000000E+00 -0.14752147117E+03  0.61602349543E+03  0.59809895708E+03 0.  0.
        5    1    3    3  502    0 -0.25193699383E+03  0.66030522362E+01 -0.23949507218E+03  0.34770077474E+03  0.46999998093E+01 0. -1.
       -5    1    3    3    0  502  0.25193699383E+03 -0.66030522362E+01  0.91973601011E+02  0.26832272069E+03  0.46999998093E+01 0.  1.
</event>
<event>
 5   0  0.3737642E-02  0.6005788E+03  0.7818609E-02  0.9904206E-01
        2   -1    0    0  501    0  0.00000000000E+00  0.00000000000E+00  0.32338753852E+03  0.32338753853E+03  0.25500000920E-02 0. -1.
       -2   -1    0    0    0  501  0.00000000000E+00  0.00000000000E+00 -0.27884109384E+03  0.27884109385E+03  0.25500000920E-02 0.  1.
    10030    2    1    2    0    0  0.00000000000E+00  0.00000000000E+00  0.44546444680E+02  0.60222863239E+03  0.60057883740E+03 0.  0.
        5    1    3    3  502    0 -0.11336275129E+03 -0.77994322669E+02  0.28987222141E+03  0.32090843319E+03  0.46999998093E+01 0. -1.
       -5    1    3    3    0  502  0.11336275129E+03  0.77994322669E+02 -0.24532577673E+03  0.28132019920E+03  0.46999998093E+01 0.  1.
</event>
<event>
 5   0  0.2382531E-02  0.6022127E+03  0.7818609E-02  0.9900826E-01
        1   -1    0    0  501    0  0.00000000000E+00  0.00000000000E+00  0.48398060448E+03  0.48398060450E+03  0.50400001928E-02 0. -1.
       -1   -1    0    0    0  501  0.00000000000E+00  0.00000000000E+00 -0.18733196715E+03  0.18733196722E+03  0.50400001928E-02 0.  1.
    10030    2    1    2    0    0  0.00000000000E+00  0.00000000000E+00  0.29664863733E+03  0.67131257172E+03  0.60221271568E+03 0.  0.
        5    1    3    3  502    0  0.57297781542E+02 -0.12168419065E+03  0.44858755372E+03  0.46834064673E+03  0.46999998093E+01 0. -1.
       -5    1    3    3    0  502 -0.57297781542E+02  0.12168419065E+03 -0.15193891639E+03  0.20297192499E+03  0.46999998093E+01 0.  1.
</event>
<event>
 5   0  0.3934634E-02  0.5953610E+03  0.7818609E-02  0.9915077E-01
        2   -1    0    0  501    0  0.00000000000E+00  0.00000000000E+00  0.11133493631E+04  0.11133493631E+04  0.25500000920E-02 0.  1.
       -2   -1    0    0    0  501  0.00000000000E+00  0.00000000000E+00 -0.79591981339E+02  0.79591981380E+02  0.25500000920E-02 0. -1.
    10030    2    1    2    0    0  0.00000000000E+00  0.00000000000E+00  0.10337573818E+04  0.11929413445E+04  0.59536100565E+03 0.  0.
        1    1    3    3  502    0 -0.78049720869E+02  0.20154008117E+03  0.92704874455E+03  0.95190836641E+03  0.50400001928E-02 0.  1.
       -1    1    3    3    0  502  0.78049720869E+02 -0.20154008117E+03  0.10670863725E+03  0.24103297811E+03  0.50400001928E-02 0. -1.
</event>
<event>
 5   0  0.3737642E-02  0.6185924E+03  0.7818609E-02  0.9867566E-01
        2   -1    0    0  501    0  0.00000000000E+00  0.00000000000E+00  0.68438662008E+03  0.68438662008E+03  0.25500000920E-02 0. -1.
       -2   -1    0    0    0  501  0.00000000000E+00  0.00000000000E+00 -0.13978082641E+03  0.13978082644E+03  0.25500000920E-02 0.  1.
    10030    2    1    2    0    0  0.00000000000E+00  0.00000000000E+00  0.54460579367E+03  0.82416744652E+03  0.61859236126E+03 0.  0.
        5    1    3    3  502    0 -0.44182326628E+02  0.52485404827E+02  0.67407244472E+03  0.67757106375E+03  0.46999998093E+01 0. -1.
       -5    1    3    3    0  502  0.44182326628E+02 -0.52485404827E+02 -0.12946665105E+03  0.14659638276E+03  0.46999998093E+01 0.  1.
</event>
<event>
 5   0  0.3737642E-02  0.5979819E+03  0.7818609E-02  0.9909602E-01
        2   -1    0    0  501    0  0.00000000000E+00  0.00000000000E+00  0.70747008564E+03  0.70747008564E+03  0.25500000920E-02 0. -1.
       -2   -1    0    0    0  501  0.00000000000E+00  0.00000000000E+00 -0.12635953635E+03  0.12635953638E+03  0.25500000920E-02 0.  1.
    10030    2    1    2    0    0  0.00000000000E+00  0.00000000000E+00  0.58111054929E+03  0.83382962202E+03  0.59798191282E+03 0.  0.
        5    1    3    3  502    0  0.15441009348E+03 -0.20757592527E+03  0.49945229464E+03  0.56249882341E+03  0.46999998093E+01 0. -1.
       -5    1    3    3    0  502 -0.15441009348E+03  0.20757592527E+03  0.81658254646E+02  0.27133079860E+03  0.46999998093E+01 0.  1.
</event>
<event>
 5   0  0.2295179E-02  0.5904586E+03  0.7818609E-02  0.9925402E-01
       -1   -1    0    0    0  501  0.00000000000E+00  0.00000000000E+00  0.35320215633E+02  0.35320215993E+02  0.50400001928E-02 0. -1.
        1   -1    0    0  501    0  0.00000000000E+00  0.00000000000E+00 -0.24677182267E+04  0.24677182267E+04  0.50400001928E-02 0.  1.
    10030    2    1    2    0    0  0.00000000000E+00  0.00000000000E+00 -0.24323980110E+04  0.25030384427E+04  0.59045860260E+03 0.  0.
        3    1    3    3  502    0 -0.20848048011E+03 -0.46737326162E+02 -0.20799012878E+04  0.20908462080E+04  0.10100000352E+00 0.  1.
       -3    1    3    3    0  502  0.20848048011E+03  0.46737326162E+02 -0.35249672328E+03  0.41219223472E+03  0.10100000352E+00 0. -1.
</event>
<event>
 5   0  0.2382531E-02  0.5954757E+03  0.7818609E-02  0.9914837E-01
        1   -1    0    0  501    0  0.00000000000E+00  0.00000000000E+00  0.33043381848E+03  0.33043381852E+03  0.50400001928E-02 0.  1.
       -1   -1    0    0    0  501  0.00000000000E+00  0.00000000000E+00 -0.26827708977E+03  0.26827708981E+03  0.50400001928E-02 0. -1.
    10030    2    1    2    0    0  0.00000000000E+00  0.00000000000E+00  0.62156728714E+02  0.59871090833E+03  0.59547568618E+03 0.  0.
        5    1    3    3  502    0  0.15627681304E+03  0.25239427216E+03  0.85867067693E+01  0.29702042429E+03  0.46999998093E+01 0. -1.
       -5    1    3    3    0  502 -0.15627681304E+03 -0.25239427216E+03  0.53570021944E+02  0.30169048404E+03  0.46999998093E+01 0.  1.
</event>
<event>
 5   0  0.3737642E-02  0.5959827E+03  0.7818609E-02  0.9913776E-01
        2   -1    0    0  501    0  0.00000000000E+00  0.00000000000E+00  0.11732487762E+04  0.11732487762E+04  0.25500000920E-02 0. -1.
       -2   -1    0    0    0  501  0.00000000000E+00  0.00000000000E+00 -0.75686298793E+02  0.75686298836E+02  0.25500000920E-02 0.  1.
    10030    2    1    2    0    0  0.00000000000E+00  0.00000000000E+00  0.10975624774E+04  0.12489350750E+04  0.59598274292E+03 0.  0.
        5    1    3    3  502    0 -0.89030561266E+02  0.16865007539E+03  0.69044684852E+02  0.20287569414E+03  0.46999998093E+01 0.  1.
       -5    1    3    3    0  502  0.89030561266E+02 -0.16865007539E+03  0.10285177926E+04  0.10460593809E+04  0.46999998093E+01 0. -1.
</event>
<event>
 5   0  0.2225808E-02  0.6023676E+03  0.7818609E-02  0.9900506E-01
        1   -1    0    0  501    0  0.00000000000E+00  0.00000000000E+00  0.90767766131E+03  0.90767766133E+03  0.50400001928E-02 0.  1.
       -1   -1    0    0    0  501  0.00000000000E+00  0.00000000000E+00 -0.99938195190E+02  0.99938195317E+02  0.50400001928E-02 0. -1.
    10030    2    1    2    0    0  0.00000000000E+00  0.00000000000E+00  0.80773946612E+03  0.10076158566E+04  0.60236755343E+03 0.  0.
        2    1    3    3  502    0 -0.96986492705E+02 -0.15579274221E+03  0.43851789650E+01  0.18356739387E+03  0.25500000920E-02 0. -1.
       -2    1    3    3    0  502  0.96986492705E+02  0.15579274221E+03  0.80335428716E+03  0.82404846277E+03  0.25500000920E-02 0.  1.
</event>
<event>
 5   0  0.3934634E-02  0.6065676E+03  0.7818609E-02  0.9891873E-01
        2   -1    0    0  501    0  0.00000000000E+00  0.00000000000E+00  0.79675704549E+03  0.79675704550E+03  0.25500000920E-02 0. -1.
       -2   -1    0    0    0  501  0.00000000000E+00  0.00000000000E+00 -0.11544428751E+03  0.11544428754E+03  0.25500000920E-02 0.  1.
    10030    2    1    2    0    0  0.00000000000E+00  0.00000000000E+00  0.68131275798E+03  0.91220133304E+03  0.60656755420E+03 0.  0.
        1    1    3    3  502    0 -0.13893893887E+03  0.18314436437E+03  0.43150811551E+02  0.23389715582E+03  0.50400001928E-02 0.  1.
       -1    1    3    3    0  502  0.13893893887E+03 -0.18314436437E+03  0.63816194643E+03  0.67830417722E+03  0.50400001928E-02 0. -1.
</event>
<event>
 5   0  0.2382531E-02  0.5929292E+03  0.7818609E-02  0.9920185E-01
        1   -1    0    0  501    0  0.00000000000E+00  0.00000000000E+00  0.23478789939E+03  0.23478789944E+03  0.50400001928E-02 0.  1.
       -1   -1    0    0    0  501  0.00000000000E+00  0.00000000000E+00 -0.37434322830E+03  0.37434322833E+03  0.50400001928E-02 0. -1.
    10030    2    1    2    0    0  0.00000000000E+00  0.00000000000E+00 -0.13955532891E+03  0.60913112778E+03  0.59292920404E+03 0.  0.
        5    1    3    3  502    0 -0.19318336513E+03  0.13385952627E+03  0.11579886266E+03  0.26204894949E+03  0.46999998093E+01 0.  1.
       -5    1    3    3    0  502  0.19318336513E+03 -0.13385952627E+03 -0.25535419157E+03  0.34708217829E+03  0.46999998093E+01 0. -1.
</event>
<event>
 5   0  0.2276105E-02  0.5979374E+03  0.7818609E-02  0.9909695E-01
       -1   -1    0    0    0  501  0.00000000000E+00  0.00000000000E+00  0.51639741712E+03  0.51639741715E+03  0.50400001928E-02 0.  1.
        1   -1    0    0  501    0  0.00000000000E+00  0.00000000000E+00 -0.17308816337E+03  0.17308816345E+03  0.50400001928E-02 0. -1.
    10030    2    1    2    0    0  0.00000000000E+00  0.00000000000E+00  0.34330925375E+03  0.68948558059E+03  0.59793738981E+03 0.  0.
        1    1    3    3  502    0  0.29491788347E+03  0.42655127449E+02  0.14373461617E+03  0.33084083453E+03  0.50400001928E-02 0. -1.
       -1    1    3    3    0  502 -0.29491788347E+03 -0.42655127449E+02  0.19957463758E+03  0.35864474606E+03  0.50400001928E-02 0.  1.
</event>
<event>
 5   0  0.2276105E-02  0.5959547E+03  0.7818609E-02  0.9913835E-01
        1   -1    0    0  501    0  0.00000000000E+00  0.00000000000E+00  0.28790465338E+03  0.28790465342E+03  0.50400001928E-02 0.  1.
       -1   -1    0    0    0  501  0.00000000000E+00  0.00000000000E+00 -0.30840244309E+03  0.30840244313E+03  0.50400001928E-02 0. -1.
    10030    2    1    2    0    0  0.00000000000E+00  0.00000000000E+00 -0.20497789711E+02  0.59630709655E+03  0.59595469124E+03 0.  0.
        1    1    3    3  502    0 -0.10397609354E+03 -0.15437328339E+03  0.22258670756E+03  0.29014992859E+03  0.50400001928E-02 0.  1.
       -1    1    3    3    0  502  0.10397609354E+03  0.15437328339E+03 -0.24308449727E+03  0.30615716796E+03  0.50400001928E-02 0. -1.
</event>
<event>
 5   0  0.2225808E-02  0.5958618E+03  0.7818609E-02  0.9914029E-01
        1   -1    0    0  501    0  0.00000000000E+00  0.00000000000E+00  0.24767287307E+03  0.24767287312E+03  0.50400001928E-02 0.  1.
       -1   -1    0    0    0  501  0.00000000000E+00  0.00000000000E+00 -0.35838732652E+03  0.35838732655E+03  0.50400001928E-02 0. -1.
    10030    2    1    2    0    0  0.00000000000E+00  0.00000000000E+00 -0.11071445345E+03  0.60606019967E+03  0.59586179222E+03 0.  0.
        2    1    3    3  502    0  0.20124642484E+03 -0.80978198749E+02  0.15235662972E+03  0.26508514634E+03  0.25500000920E-02 0.  1.
       -2    1    3    3    0  502 -0.20124642484E+03  0.80978198749E+02 -0.26307108318E+03  0.34097505333E+03  0.25500000920E-02 0. -1.
</event>
<event>
 5   0  0.3724066E-02  0.6003010E+03  0.7818609E-02  0.9904782E-01
        2   -1    0    0  501    0  0.00000000000E+00  0.00000000000E+00  0.81071558360E+03  0.81071558360E+03  0.25500000920E-02 0. -1.
       -2   -1    0    0    0  501  0.00000000000E+00  0.00000000000E+00 -0.11112444040E+03  0.11112444043E+03  0.25500000920E-02 0.  1.
    10030    2    1    2    0    0  0.00000000000E+00  0.00000000000E+00  0.69959114320E+03  0.92184002403E+03  0.60030097640E+03 0.  0.
        4    1    3    3  502    0 -0.13666848628E+03  0.21078218228E+03  0.60203788399E+03  0.65234854960E+03  0.12699999809E+01 0. -1.
       -4    1    3    3    0  502  0.13666848628E+03 -0.21078218228E+03  0.97553259209E+02  0.26949147443E+03  0.12699999809E+01 0.  1.
</event>
<event>
 5   0  0.3832191E-02  0.5968345E+03  0.7818609E-02  0.9911995E-01
       -2   -1    0    0    0  501  0.00000000000E+00  0.00000000000E+00  0.12492172178E+04  0.12492172178E+04  0.25500000920E-02 0. -1.
        2   -1    0    0  501    0  0.00000000000E+00  0.00000000000E+00 -0.71286914216E+02  0.71286914262E+02  0.25500000920E-02 0.  1.
    10030    2    1    2    0    0  0.00000000000E+00  0.00000000000E+00  0.11779303036E+04  0.13205041321E+04  0.59683445168E+03 0.  0.
        3    1    3    3  502    0 -0.16648054595E+03 -0.20276370756E+03  0.90360862985E+03  0.94092372668E+03  0.10100000352E+00 0. -1.
       -3    1    3    3    0  502  0.16648054595E+03  0.20276370756E+03  0.27432167377E+03  0.37958040543E+03  0.10100000352E+00 0.  1.
</event>
<event>
 5   0  0.2309055E-02  0.5940073E+03  0.7818609E-02  0.9917918E-01
        1   -1    0    0  501    0  0.00000000000E+00  0.00000000000E+00  0.72750776195E+02  0.72750776370E+02  0.50400001928E-02 0. -1.
       -1   -1    0    0    0  501  0.00000000000E+00  0.00000000000E+00 -0.12125116635E+04  0.12125116636E+04  0.50400001928E-02 0.  1.
    10030    2    1    2    0    0  0.00000000000E+00  0.00000000000E+00 -0.11397608873E+04  0.12852624399E+04  0.59400728880E+03 0.  0.
        4    1    3    3  502    0 -0.44846102865E+02 -0.11748839727E+03 -0.11520559032E+04  0.11588999583E+04  0.12699999809E+01 0.  1.
       -4    1    3    3    0  502  0.44846102865E+02  0.11748839727E+03  0.12295015858E+02  0.12636248158E+03  0.12699999809E+01 0. -1.
</event>
<event>
 5   0  0.3737642E-02  0.5995906E+03  0.7818609E-02  0.9906256E-01
        2   -1    0    0  501    0  0.00000000000E+00  0.00000000000E+00  0.93090266892E+03  0.93090266892E+03  0.25500000920E-02 0.  1.
       -2   -1    0    0    0  501  0.00000000000E+00  0.00000000000E+00 -0.96548447497E+02  0.96548447531E+02  0.25500000920E-02 0. -1.
    10030    2    1    2    0    0  0.00000000000E+00  0.00000000000E+00  0.83435422142E+03  0.10274511165E+04  0.59959055188E+03 0.  0.
        5    1    3    3  502    0  0.10445152862E+03  0.26839937448E+03  0.55958823968E+03  0.62937225395E+03  0.46999998093E+01 0.  1.
       -5    1    3    3    0  502 -0.10445152862E+03 -0.26839937448E+03  0.27476598175E+03  0.39807886251E+03  0.46999998093E+01 0. -1.
</event>
<event>
 5   0  0.3832191E-02  0.5622444E+03  0.7818609E-02  0.9986989E-01
       -2   -1    0    0    0  501  0.00000000000E+00  0.00000000000E+00  0.11004833259E+03  0.11004833262E+03  0.25500000920E-02 0.  1.
        2   -1    0    0  501    0  0.00000000000E+00  0.00000000000E+00 -0.71813621136E+03  0.71813621137E+03  0.25500000920E-02 0. -1.
    10030    2    1    2    0    0  0.00000000000E+00  0.00000000000E+00 -0.60808787877E+03  0.82818454399E+03  0.56224440468E+03 0.  0.
        3    1    3    3  502    0 -0.84128718415E+02  0.21108953848E+03 -0.60249529505E+02  0.23508817606E+03  0.10100000352E+00 0.  1.
       -3    1    3    3    0  502  0.84128718415E+02 -0.21108953848E+03 -0.54783834927E+03  0.59309636793E+03  0.10100000352E+00 0. -1.
</event>
<event>
 5   0  0.3724066E-02  0.6005741E+03  0.7818609E-02  0.9904216E-01
        2   -1    0    0  501    0  0.00000000000E+00  0.00000000000E+00  0.42470526458E+03  0.42470526459E+03  0.25500000920E-02 0. -1.
       -2   -1    0    0    0  501  0.00000000000E+00  0.00000000000E+00 -0.21231739914E+03  0.21231739916E+03  0.25500000920E-02 0.  1.
    10030    2    1    2    0    0  0.00000000000E+00  0.00000000000E+00  0.21238786544E+03  0.63702266375E+03  0.60057411594E+03 0.  0.
        4    1    3    3  502    0 -0.10976434970E+03 -0.24070883648E+03  0.25687811343E+03  0.36875050438E+03  0.12699999809E+01 0. -1.
       -4    1    3    3    0  502  0.10976434970E+03  0.24070883648E+03 -0.44490247983E+02  0.26827215937E+03  0.12699999809E+01 0.  1.
</event>
<event>
 5   0  0.3798925E-02  0.6020513E+03  0.7818609E-02  0.9901159E-01
       -2   -1    0    0    0  501  0.00000000000E+00  0.00000000000E+00  0.89689802125E+02  0.89689802162E+02  0.25500000920E-02 0. -1.
        2   -1    0    0  501    0  0.00000000000E+00  0.00000000000E+00 -0.10103317238E+04  0.10103317238E+04  0.25500000920E-02 0.  1.
    10030    2    1    2    0    0  0.00000000000E+00  0.00000000000E+00 -0.92064192164E+03  0.11000215259E+04  0.60205133471E+03 0.  0.
        2    1    3    3  502    0 -0.26109564876E+03  0.72685619592E+01 -0.18690697725E+03  0.32118217252E+03  0.25500000920E-02 0. -1.
       -2    1    3    3    0  502  0.26109564876E+03 -0.72685619592E+01 -0.73373494439E+03  0.77883935341E+03  0.25500000920E-02 0.  1.
</event>
<event>
 5   0  0.3798925E-02  0.5803920E+03  0.7818609E-02  0.9946943E-01
        2   -1    0    0  501    0  0.00000000000E+00  0.00000000000E+00  0.94168741013E+03  0.94168741013E+03  0.25500000920E-02 0.  1.
       -2   -1    0    0    0  501  0.00000000000E+00  0.00000000000E+00 -0.89428523413E+02  0.89428523449E+02  0.25500000920E-02 0. -1.
    10030    2    1    2    0    0  0.00000000000E+00  0.00000000000E+00  0.85225888672E+03  0.10311159336E+04  0.58039198694E+03 0.  0.
        2    1    3    3  502    0 -0.83943610359E+01  0.26388761565E+03  0.21215172942E+03  0.33869676009E+03  0.25500000920E-02 0. -1.
       -2    1    3    3    0  502  0.83943610359E+01 -0.26388761565E+03  0.64010715730E+03  0.69241917349E+03  0.25500000920E-02 0.  1.
</event>
<event>
 5   0  0.3798925E-02  0.6073360E+03  0.7818609E-02  0.9890302E-01
        2   -1    0    0  501    0  0.00000000000E+00  0.00000000000E+00  0.82849704155E+03  0.82849704155E+03  0.25500000920E-02 0.  1.
       -2   -1    0    0    0  501  0.00000000000E+00  0.00000000000E+00 -0.11130305731E+03  0.11130305734E+03  0.25500000920E-02 0. -1.
    10030    2    1    2    0    0  0.00000000000E+00  0.00000000000E+00  0.71719398423E+03  0.93980009889E+03  0.60733599833E+03 0.  0.
        2    1    3    3  502    0  0.15108714506E+03  0.21786673729E+03  0.58770315592E+03  0.64473889297E+03  0.25500000920E-02 0.  1.
       -2    1    3    3    0  502 -0.15108714506E+03 -0.21786673729E+03  0.12949082831E+03  0.29506120593E+03  0.25500000920E-02 0. -1.
</event>
<event>
 5   0  0.3832191E-02  0.5989212E+03  0.7818609E-02  0.9907647E-01
        2   -1    0    0  501    0  0.00000000000E+00  0.00000000000E+00  0.10188746951E+04  0.10188746951E+04  0.25500000920E-02 0. -1.
       -2   -1    0    0    0  501  0.00000000000E+00  0.00000000000E+00 -0.88015393444E+02  0.88015393480E+02  0.25500000920E-02 0.  1.
    10030    2    1    2    0    0  0.00000000000E+00  0.00000000000E+00  0.93085930170E+03  0.11068900886E+04  0.59892122081E+03 0.  0.
        3    1    3    3  502    0 -0.43281525077E+02  0.78518453169E+02  0.99348753592E+03  0.99752490301E+03  0.10100000352E+00 0. -1.
       -3    1    3    3    0  502  0.43281525077E+02 -0.78518453169E+02 -0.62628234223E+02  0.10936518561E+03  0.10100000352E+00 0.  1.
</event>
<event>
 5   0  0.3724066E-02  0.6028587E+03  0.7818609E-02  0.9899493E-01
        2   -1    0    0  501    0  0.00000000000E+00  0.00000000000E+00  0.60750571313E+03  0.60750571314E+03  0.25500000920E-02 0.  1.
       -2   -1    0    0    0  501  0.00000000000E+00  0.00000000000E+00 -0.14956182446E+03  0.14956182449E+03  0.25500000920E-02 0. -1.
    10030    2    1    2    0    0  0.00000000000E+00  0.00000000000E+00  0.45794388867E+03  0.75706753762E+03  0.60285873250E+03 0.  0.
        4    1    3    3  502    0 -0.11226194157E+03 -0.19198913595E+03  0.48447465954E+03  0.53308524692E+03  0.12699999809E+01 0.  1.
       -4    1    3    3    0  502  0.11226194157E+03  0.19198913595E+03 -0.26530770871E+02  0.22398229071E+03  0.12699999809E+01 0. -1.
</event>
<event>
 5   0  0.3934634E-02  0.6000771E+03  0.7818609E-02  0.9905246E-01
        2   -1    0    0  501    0  0.00000000000E+00  0.00000000000E+00  0.14480582093E+04  0.14480582093E+04  0.25500000920E-02 0. -1.
       -2   -1    0    0    0  501  0.00000000000E+00  0.00000000000E+00 -0.62168163135E+02  0.62168163187E+02  0.25500000920E-02 0.  1.
    10030    2    1    2    0    0  0.00000000000E+00  0.00000000000E+00  0.13858900462E+04  0.15102263725E+04  0.60007705848E+03 0.  0.
        1    1    3    3  502    0  0.26283967181E+03  0.11896337078E+03  0.48562248896E+03  0.56485943249E+03  0.50400001928E-02 0.  1.
       -1    1    3    3    0  502 -0.26283967181E+03 -0.11896337078E+03  0.90026755724E+03  0.94536694003E+03  0.50400001928E-02 0. -1.
</event>
<event>
 5   0  0.2309055E-02  0.5993895E+03  0.7818609E-02  0.9906674E-01
        1   -1    0    0  501    0  0.00000000000E+00  0.00000000000E+00  0.22797371738E+03  0.22797371744E+03  0.50400001928E-02 0.  1.
       -1   -1    0    0    0  501  0.00000000000E+00  0.00000000000E+00 -0.39397934222E+03  0.39397934225E+03  0.50400001928E-02 0. -1.
    10030    2    1    2    0    0  0.00000000000E+00  0.00000000000E+00 -0.16600562484E+03  0.62195305969E+03  0.59938947354E+03 0.  0.
        4    1    3    3  502    0 -0.85895414154E+02 -0.14114850152E+03 -0.34244376670E+03  0.38022397072E+03  0.12699999809E+01 0. -1.
       -4    1    3    3    0  502  0.85895414154E+02  0.14114850152E+03  0.17643814186E+03  0.24172908898E+03  0.12699999809E+01 0.  1.
</event>
<event>
 5   0  0.2295179E-02  0.5997785E+03  0.7818609E-02  0.9905866E-01
       -1   -1    0    0    0  501  0.00000000000E+00  0.00000000000E+00  0.14501586232E+03  0.14501586241E+03  0.50400001928E-02 0. -1.
        1   -1    0    0  501    0  0.00000000000E+00  0.00000000000E+00 -0.62016368689E+03  0.62016368691E+03  0.50400001928E-02 0.  1.
    10030    2    1    2    0    0  0.00000000000E+00  0.00000000000E+00 -0.47514782457E+03  0.76517954932E+03  0.59977853205E+03 0.  0.
        3    1    3    3  502    0  0.18730987976E+03 -0.23156038687E+02  0.59744502392E+02  0.19796618133E+03  0.10100000352E+00 0. -1.
       -3    1    3    3    0  502 -0.18730987976E+03  0.23156038687E+02 -0.53489232696E+03  0.56721336799E+03  0.10100000352E+00 0.  1.
</event>
<event>
 5   0  0.2309055E-02  0.5580411E+03  0.7818609E-02  0.9996497E-01
       -1   -1    0    0    0  501  0.00000000000E+00  0.00000000000E+00  0.49074389629E+03  0.49074389631E+03  0.50400001928E-02 0. -1.
        1   -1    0    0  501    0  0.00000000000E+00  0.00000000000E+00 -0.15864176802E+03  0.15864176810E+03  0.50400001928E-02 0.  1.
    10030    2    1    2    0    0  0.00000000000E+00  0.00000000000E+00  0.33210212827E+03  0.64938566441E+03  0.55804114323E+03 0.  0.
        4    1    3    3  502    0 -0.10419932312E+03  0.10832566772E+03 -0.10749953031E+03  0.18479640457E+03  0.12699999809E+01 0.  1.
       -4    1    3    3    0  502  0.10419932312E+03 -0.10832566772E+03  0.43960165858E+03  0.46458925983E+03  0.12699999809E+01 0. -1.
</event>
<event>
 5   0  0.3724066E-02  0.6036942E+03  0.7818609E-02  0.9897771E-01
        2   -1    0    0  501    0  0.00000000000E+00  0.00000000000E+00  0.95314476366E+03  0.95314476367E+03  0.25500000920E-02 0. -1.
       -2   -1    0    0    0  501  0.00000000000E+00  0.00000000000E+00 -0.95590595883E+02  0.95590595917E+02  0.25500000920E-02 0.  1.
    10030    2    1    2    0    0  0.00000000000E+00  0.00000000000E+00  0.85755416778E+03  0.10487353596E+04  0.60369421379E+03 0.  0.
        4    1    3    3  502    0  0.20911546710E+03  0.13905542747E+03  0.13785830118E+03  0.28648248567E+03  0.12699999809E+01 0.  1.
       -4    1    3    3    0  502 -0.20911546710E+03 -0.13905542747E+03  0.71969586659E+03  0.76225287391E+03  0.12699999809E+01 0. -1.
</event>
<event>
 5   0  0.3798925E-02  0.6004532E+03  0.7818609E-02  0.9904466E-01
       -2   -1    0    0    0  501  0.00000000000E+00  0.00000000000E+00  0.10559204933E+03  0.10559204936E+03  0.25500000920E-02 0. -1.
        2   -1    0    0  501    0  0.00000000000E+00  0.00000000000E+00 -0.85362492835E+03  0.85362492835E+03  0.25500000920E-02 0.  1.
    10030    2    1    2    0    0  0.00000000000E+00  0.00000000000E+00 -0.74803287902E+03  0.95921697771E+03  0.60045318073E+03 0.  0.
        2    1    3    3  502    0 -0.19703548264E+02 -0.11954139583E+03 -0.81283934517E+03  0.82181882200E+03  0.25500000920E-02 0.  1.
       -2    1    3    3    0  502  0.19703548264E+02  0.11954139583E+03  0.64806466157E+02  0.13739815571E+03  0.25500000920E-02 0. -1.
</event>
<event>
 5   0  0.3798925E-02  0.5955815E+03  0.7818609E-02  0.9914616E-01
       -2   -1    0    0    0  501  0.00000000000E+00  0.00000000000E+00  0.33512405302E+03  0.33512405303E+03  0.25500000920E-02 0. -1.
        2   -1    0    0  501    0  0.00000000000E+00  0.00000000000E+00 -0.26461641565E+03  0.26461641566E+03  0.25500000920E-02 0.  1.
    10030    2    1    2    0    0  0.00000000000E+00  0.00000000000E+00  0.70507637369E+02  0.59974046869E+03  0.59558148297E+03 0.  0.
        2    1    3    3  502    0 -0.64844951846E+02 -0.47356313217E+02  0.32401723113E+03  0.33381829527E+03  0.25500000920E-02 0. -1.
       -2    1    3    3    0  502  0.64844951846E+02  0.47356313217E+02 -0.25350959376E+03  0.26592217342E+03  0.25500000920E-02 0.  1.
</event>
<event>
 5   0  0.3934634E-02  0.5939274E+03  0.7818609E-02  0.9918085E-01
       -2   -1    0    0    0  501  0.00000000000E+00  0.00000000000E+00  0.28868854295E+02  0.28868854407E+02  0.25500000920E-02 0. -1.
        2   -1    0    0  501    0  0.00000000000E+00  0.00000000000E+00 -0.30547607163E+04  0.30547607163E+04  0.25500000920E-02 0.  1.
    10030    2    1    2    0    0  0.00000000000E+00  0.00000000000E+00 -0.30258918620E+04  0.30836295707E+04  0.59392741037E+03 0.  0.
        1    1    3    3  502    0 -0.14529412140E+03  0.22392226069E+03 -0.21886129767E+04  0.22048306788E+04  0.50400001928E-02 0.  1.
       -1    1    3    3    0  502  0.14529412140E+03 -0.22392226069E+03 -0.83727888531E+03  0.87879889187E+03  0.50400001928E-02 0. -1.
</event>
<event>
 5   0  0.3737642E-02  0.5986591E+03  0.7818609E-02  0.9908192E-01
       -2   -1    0    0    0  501  0.00000000000E+00  0.00000000000E+00  0.45276959209E+03  0.45276959209E+03  0.25500000920E-02 0.  1.
        2   -1    0    0  501    0  0.00000000000E+00  0.00000000000E+00 -0.19788911387E+03  0.19788911388E+03  0.25500000920E-02 0. -1.
    10030    2    1    2    0    0  0.00000000000E+00  0.00000000000E+00  0.25488047822E+03  0.65065870597E+03  0.59865907951E+03 0.  0.
        5    1    3    3  502    0 -0.50408155021E+02  0.23541619403E+03 -0.65808012097E+02  0.24962882638E+03  0.46999998093E+01 0. -1.
       -5    1    3    3    0  502  0.50408155021E+02 -0.23541619403E+03  0.32068849032E+03  0.40102987959E+03  0.46999998093E+01 0.  1.
</event>
<event>
 5   0  0.2225808E-02  0.6390517E+03  0.7818609E-02  0.9827543E-01
        1   -1    0    0  501    0  0.00000000000E+00  0.00000000000E+00  0.29605721484E+03  0.29605721489E+03  0.50400001928E-02 0.  1.
       -1   -1    0    0    0  501  0.00000000000E+00  0.00000000000E+00 -0.34485487989E+03  0.34485487992E+03  0.50400001928E-02 0. -1.
    10030    2    1    2    0    0  0.00000000000E+00  0.00000000000E+00 -0.48797665044E+02  0.64091209481E+03  0.63905172025E+03 0.  0.
        2    1    3    3  502    0  0.11770985880E+03 -0.21121140883E+03  0.18508937017E+03  0.30450606732E+03  0.25500000920E-02 0.  1.
       -2    1    3    3    0  502 -0.11770985880E+03  0.21121140883E+03 -0.23388703521E+03  0.33640602749E+03  0.25500000920E-02 0. -1.
</event>
<event>
 5   0  0.2295179E-02  0.5792958E+03  0.7818609E-02  0.9949317E-01
       -1   -1    0    0    0  501  0.00000000000E+00  0.00000000000E+00  0.12813903784E+03  0.12813903794E+03  0.50400001928E-02 0. -1.
        1   -1    0    0  501    0  0.00000000000E+00  0.00000000000E+00 -0.65472551146E+03  0.65472551147E+03  0.50400001928E-02 0.  1.
    10030    2    1    2    0    0  0.00000000000E+00  0.00000000000E+00 -0.52658647361E+03  0.78286454942E+03  0.57929576948E+03 0.  0.
        3    1    3    3  502    0 -0.22009055556E+03  0.18059571869E+03 -0.19125903405E+03  0.34297914595E+03  0.10100000352E+00 0. -1.
       -3    1    3    3    0  502  0.22009055556E+03 -0.18059571869E+03 -0.33532743957E+03  0.43988540346E+03  0.10100000352E+00 0.  1.
</event>
<event>
 5   0  0.2276105E-02  0.5992947E+03  0.7818609E-02  0.9906870E-01
       -1   -1    0    0    0  501  0.00000000000E+00  0.00000000000E+00  0.47425749044E+03  0.47425749047E+03  0.50400001928E-02 0. -1.
        1   -1    0    0  501    0  0.00000000000E+00  0.00000000000E+00 -0.18932444502E+03  0.18932444509E+03  0.50400001928E-02 0.  1.
    10030    2    1    2    0    0  0.00000000000E+00  0.00000000000E+00  0.28493304542E+03  0.66358193555E+03  0.59929470615E+03 0.  0.
        1    1    3    3  502    0 -0.21975328164E+03 -0.16266534765E+03  0.66867912826E+01  0.27348900036E+03  0.50400001928E-02 0.  1.
       -1    1    3    3    0  502  0.21975328164E+03  0.16266534765E+03  0.27824625414E+03  0.39009293519E+03  0.50400001928E-02 0. -1.
</event>
<event>
 5   0  0.2225808E-02  0.5975827E+03  0.7818609E-02  0.9910434E-01
        1   -1    0    0  501    0  0.00000000000E+00  0.00000000000E+00  0.88945438129E+03  0.88945438130E+03  0.50400001928E-02 0. -1.
       -1   -1    0    0    0  501  0.00000000000E+00  0.00000000000E+00 -0.10037195792E+03  0.10037195804E+03  0.50400001928E-02 0.  1.
    10030    2    1    2    0    0  0.00000000000E+00  0.00000000000E+00  0.78908242337E+03  0.98982633934E+03  0.59758272330E+03 0.  0.
        2    1    3    3  502    0 -0.21245233108E+03  0.19433229894E+03  0.26228705697E+03  0.38948111078E+03  0.25500000920E-02 0.  1.
       -2    1    3    3    0  502  0.21245233108E+03 -0.19433229894E+03  0.52679536640E+03  0.60034522856E+03  0.25500000920E-02 0. -1.
</event>
<event>
 5   0  0.3832191E-02  0.5992452E+03  0.7818609E-02  0.9906973E-01
        2   -1    0    0  501    0  0.00000000000E+00  0.00000000000E+00  0.69060447997E+03  0.69060447998E+03  0.25500000920E-02 0.  1.
       -2   -1    0    0    0  501  0.00000000000E+00  0.00000000000E+00 -0.12999291904E+03  0.12999291907E+03  0.25500000920E-02 0. -1.
    10030    2    1    2    0    0  0.00000000000E+00  0.00000000000E+00  0.56061156093E+03  0.82059739904E+03  0.59924516608E+03 0.  0.
        3    1    3    3  502    0  0.13397020725E+03 -0.16612775809E+03 -0.76796285380E+01  0.21355429130E+03  0.10100000352E+00 0. -1.
       -3    1    3    3    0  502 -0.13397020725E+03  0.16612775809E+03  0.56829118947E+03  0.60704310775E+03  0.10100000352E+00 0.  1.
</event>
<event>
 5   0  0.2225808E-02  0.6045647E+03  0.7818609E-02  0.9895981E-01
        1   -1    0    0  501    0  0.00000000000E+00  0.00000000000E+00  0.10831248234E+04  0.10831248234E+04  0.50400001928E-02 0.  1.
       -1   -1    0    0    0  501  0.00000000000E+00  0.00000000000E+00 -0.84362043429E+02  0.84362043580E+02  0.50400001928E-02 0. -1.
    10030    2    1    2    0    0  0.00000000000E+00  0.00000000000E+00  0.99876277998E+03  0.11674868670E+04  0.60456471444E+03 0.  0.
        2    1    3    3  502    0 -0.19281767078E+03 -0.17235458076E+03  0.80158693482E+03  0.84227452161E+03  0.25500000920E-02 0. -1.
       -2    1    3    3    0  502  0.19281767078E+03  0.17235458076E+03  0.19717584516E+03  0.32521234539E+03  0.25500000920E-02 0.  1.
</event>
<event>
 5   0  0.3737642E-02  0.5964571E+03  0.7818609E-02  0.9912784E-01
       -2   -1    0    0    0  501  0.00000000000E+00  0.00000000000E+00  0.39468300073E+03  0.39468300074E+03  0.25500000920E-02 0.  1.
        2   -1    0    0  501    0  0.00000000000E+00  0.00000000000E+00 -0.22534609399E+03  0.22534609400E+03  0.25500000920E-02 0. -1.
    10030    2    1    2    0    0  0.00000000000E+00  0.00000000000E+00  0.16933690674E+03  0.62002909474E+03  0.59645711526E+03 0.  0.
        5    1    3    3  502    0  0.20571045250E+03 -0.14254977663E+03  0.25318921154E+03  0.35603945838E+03  0.46999998093E+01 0.  1.
       -5    1    3    3    0  502 -0.20571045250E+03  0.14254977663E+03 -0.83852304801E+02  0.26398963636E+03  0.46999998093E+01 0. -1.
</event>
<event>
 5   0  0.3934634E-02  0.5965393E+03  0.7818609E-02  0.9912612E-01
        2   -1    0    0  501    0  0.00000000000E+00  0.00000000000E+00  0.40856113747E+03  0.40856113748E+03  0.25500000920E-02 0. -1.
       -2   -1    0    0    0  501  0.00000000000E+00  0.00000000000E+00 -0.21775144186E+03  0.21775144188E+03  0.25500000920E-02 0.  1.
    10030    2    1    2    0    0  0.00000000000E+00  0.00000000000E+00  0.19080969560E+03  0.62631257936E+03  0.59653927542E+03 0.  0.
        1    1    3    3  502    0 -0.39712365330E+02 -0.17487224224E+03 -0.15483390253E+03  0.23691962870E+03  0.50400001928E-02 0.  1.
       -1    1    3    3    0  502  0.39712365330E+02  0.17487224224E+03  0.34564359813E+03  0.38939295066E+03  0.50400001928E-02 0. -1.
</event>
<event>
 5   0  0.2382531E-02  0.5998552E+03  0.7818609E-02  0.9905707E-01
        1   -1    0    0  501    0  0.00000000000E+00  0.00000000000E+00  0.10937128614E+03  0.10937128625E+03  0.50400001928E-02 0.  1.
       -1   -1    0    0    0  501  0.00000000000E+00  0.00000000000E+00 -0.82248793650E+03  0.82248793651E+03  0.50400001928E-02 0. -1.
    10030    2    1    2    0    0  0.00000000000E+00  0.00000000000E+00 -0.71311665036E+03  0.93185922277E+03  0.59985519422E+03 0.  0.
        5    1    3    3  502    0 -0.12709316161E+03 -0.13343379793E+03  0.10985863296E+02  0.18466193259E+03  0.46999998093E+01 0.  1.
       -5    1    3    3    0  502  0.12709316161E+03  0.13343379793E+03 -0.72410251366E+03  0.74719729017E+03  0.46999998093E+01 0. -1.
</event>
<event>
 5   0  0.2295179E-02  0.5964876E+03  0.7818609E-02  0.9912720E-01
        1   -1    0    0  501    0  0.00000000000E+00  0.00000000000E+00  0.13197549673E+03  0.13197549683E+03  0.50400001928E-02 0.  1.
       -1   -1    0    0    0  501  0.00000000000E+00  0.00000000000E+00 -0.67398403477E+03  0.67398403479E+03  0.50400001928E-02 0. -1.
    10030    2    1    2    0    0  0.00000000000E+00  0.00000000000E+00 -0.54200853804E+03  0.80595953162E+03  0.59648764556E+03 0.  0.
        3    1    3    3  502    0  0.20521032799E+03 -0.73573641048E+02  0.40023106225E+01  0.21803758406E+03  0.10100000352E+00 0.  1.
       -3    1    3    3    0  502 -0.20521032799E+03  0.73573641048E+02 -0.54601084866E+03  0.58792194756E+03  0.10100000352E+00 0. -1.
</event>
<event>
 5   0  0.2309055E-02  0.5994024E+03  0.7818609E-02  0.9906647E-01
        1   -1    0    0  501    0  0.00000000000E+00  0.00000000000E+00  0.66795760019E+03  0.66795760021E+03  0.50400001928E-02 0. -1.
       -1   -1    0    0    0  501  0.00000000000E+00  0.00000000000E+00 -0.13447082543E+03  0.13447082553E+03  0.50400001928E-02 0.  1.
    10030    2    1    2    0    0  0.00000000000E+00  0.00000000000E+00  0.53348677476E+03  0.80242842574E+03  0.59940240205E+03 0.  0.
        4    1    3    3  502    0 -0.16639310024E+03  0.24317409039E+03  0.19343250405E+03  0.35247418143E+03  0.12699999809E+01 0.  1.
       -4    1    3    3    0  502  0.16639310024E+03 -0.24317409039E+03  0.34005427071E+03  0.44995424431E+03  0.12699999809E+01 0. -1.
</event>
<event>
 5   0  0.2382531E-02  0.5963436E+03  0.7818609E-02  0.9913021E-01
        1   -1    0    0  501    0  0.00000000000E+00  0.00000000000E+00  0.20205920570E+03  0.20205920576E+03  0.50400001928E-02 0. -1.
       -1   -1    0    0    0  501  0.00000000000E+00  0.00000000000E+00 -0.44000180686E+03  0.44000180689E+03  0.50400001928E-02 0.  1.
    10030    2    1    2    0    0  0.00000000000E+00  0.00000000000E+00 -0.23794260117E+03  0.64206101265E+03  0.59634357758E+03 0.  0.
        5    1    3    3  502    0  0.21928033292E+03 -0.16544967881E+03  0.57863145696E+01  0.27479634652E+03  0.46999998093E+01 0. -1.
       -5    1    3    3    0  502 -0.21928033292E+03  0.16544967881E+03 -0.24372891574E+03  0.36726466613E+03  0.46999998093E+01 0.  1.
</event>
<event>
 5   0  0.3798925E-02  0.5972747E+03  0.7818609E-02  0.9911076E-01
       -2   -1    0    0    0  501  0.00000000000E+00  0.00000000000E+00  0.77291254393E+02  0.77291254435E+02  0.25500000920E-02 0. -1.
        2   -1    0    0  501    0  0.00000000000E+00  0.00000000000E+00 -0.11538728279E+04  0.11538728279E+04  0.25500000920E-02 0.  1.
    10030    2    1    2    0    0  0.00000000000E+00  0.00000000000E+00 -0.10765815735E+04  0.12311640823E+04  0.59727473847E+03 0.  0.
        2    1    3    3  502    0  0.23433474387E+03 -0.16281757459E+03 -0.35668610965E+03  0.45677928543E+03  0.25500000920E-02 0. -1.
       -2    1    3    3    0  502 -0.23433474387E+03  0.16281757459E+03 -0.71989546382E+03  0.77438479686E+03  0.25500000920E-02 0.  1.
</event>
<event>
 5   0  0.2225808E-02  0.5990363E+03  0.7818609E-02  0.9907407E-01
       -1   -1    0    0    0  501  0.00000000000E+00  0.00000000000E+00  0.17297955163E+03  0.17297955171E+03  0.50400001928E-02 0.  1.
        1   -1    0    0  501    0  0.00000000000E+00  0.00000000000E+00 -0.51862272629E+03  0.51862272632E+03  0.50400001928E-02 0. -1.
    10030    2    1    2    0    0  0.00000000000E+00  0.00000000000E+00 -0.34564317466E+03  0.69160227802E+03  0.59903631507E+03 0.  0.
        2    1    3    3  502    0  0.52909309815E+02  0.11398156604E+03  0.14107316105E+03  0.18892545947E+03  0.25500000920E-02 0.  1.
       -2    1    3    3    0  502 -0.52909309815E+02 -0.11398156604E+03 -0.48671633571E+03  0.50267681855E+03  0.25500000920E-02 0. -1.
</event>
<event>
 5   0  0.3737642E-02  0.5997230E+03  0.7818609E-02  0.9905981E-01
        2   -1    0    0  501    0  0.00000000000E+00  0.00000000000E+00  0.21495909568E+04  0.21495909568E+04  0.25500000920E-02 0. -1.
       -2   -1    0    0    0  501  0.00000000000E+00  0.00000000000E+00 -0.41829779859E+02  0.41829779937E+02  0.25500000920E-02 0.  1.
    10030    2    1    2    0    0  0.00000000000E+00  0.00000000000E+00  0.21077611770E+04  0.21914207368E+04  0.59972299138E+03 0.  0.
        5    1    3    3  502    0  0.10735494752E+02  0.26653437720E+03  0.15540858914E+04  0.15768198607E+04  0.46999998093E+01 0. -1.
       -5    1    3    3    0  502 -0.10735494752E+02 -0.26653437720E+03  0.55367528553E+03  0.61460087608E+03  0.46999998093E+01 0.  1.
</event>
<event>
 5   0  0.2276105E-02  0.6053398E+03  0.7818609E-02  0.9894389E-01
       -1   -1    0    0    0  501  0.00000000000E+00  0.00000000000E+00  0.31401506638E+03  0.31401506642E+03  0.50400001928E-02 0. -1.
        1   -1    0    0  501    0  0.00000000000E+00  0.00000000000E+00 -0.29173466809E+03  0.29173466813E+03  0.50400001928E-02 0.  1.
    10030    2    1    2    0    0  0.00000000000E+00  0.00000000000E+00  0.22280398290E+02  0.60574973455E+03  0.60533984237E+03 0.  0.
        1    1    3    3  502    0 -0.85926210292E+02  0.21422065330E+03 -0.18478634975E+03  0.29566839025E+03  0.50400001928E-02 0.  1.
       -1    1    3    3    0  502  0.85926210292E+02 -0.21422065330E+03  0.20706674804E+03  0.31008134430E+03  0.50400001928E-02 0. -1.
</event>
<event>
 5   0  0.3832191E-02  0.6052923E+03  0.7818609E-02  0.9894487E-01
        2   -1    0    0  501    0  0.00000000000E+00  0.00000000000E+00  0.36189301269E+03  0.36189301270E+03  0.25500000920E-02 0. -1.
       -2   -1    0    0    0  501  0.00000000000E+00  0.00000000000E+00 -0.25309880623E+03  0.25309880624E+03  0.25500000920E-02 0.  1.
    10030    2    1    2    0    0  0.00000000000E+00  0.00000000000E+00  0.10879420646E+03  0.61499181894E+03  0.60529229138E+03 0.  0.
        3    1    3    3  502    0 -0.69559359214E+02  0.27905204294E+03 -0.41379753475E+02  0.29055264811E+03  0.10100000352E+00 0.  1.
       -3    1    3    3    0  502  0.69559359214E+02 -0.27905204294E+03  0.15017395993E+03  0.32443917083E+03  0.10100000352E+00 0. -1.
</event>
<event>
 5   0  0.3737642E-02  0.6021387E+03  0.7818609E-02  0.9900979E-01
       -2   -1    0    0    0  501  0.00000000000E+00  0.00000000000E+00  0.41520085540E+03  0.41520085541E+03  0.25500000920E-02 0.  1.
        2   -1    0    0  501    0  0.00000000000E+00  0.00000000000E+00 -0.21831062344E+03  0.21831062346E+03  0.25500000920E-02 0. -1.
    10030    2    1    2    0    0  0.00000000000E+00  0.00000000000E+00  0.19689023196E+03  0.63351147887E+03  0.60213871360E+03 0.  0.
        5    1    3    3  502    0 -0.25830843805E+03 -0.15158657170E+03  0.66551843257E+02  0.30684356882E+03  0.46999998093E+01 0. -1.
       -5    1    3    3    0  502  0.25830843805E+03  0.15158657170E+03  0.13033838870E+03  0.32666791005E+03  0.46999998093E+01 0.  1.
</event>
<event>
 5   0  0.3737642E-02  0.5920618E+03  0.7818609E-02  0.9922013E-01
        2   -1    0    0  501    0  0.00000000000E+00  0.00000000000E+00  0.91185359912E+03  0.91185359912E+03  0.25500000920E-02 0.  1.
       -2   -1    0    0    0  501  0.00000000000E+00  0.00000000000E+00 -0.96105672177E+02  0.96105672211E+02  0.25500000920E-02 0. -1.
    10030    2    1    2    0    0  0.00000000000E+00  0.00000000000E+00  0.81574792694E+03  0.10079592713E+04  0.59206183153E+03 0.  0.
        5    1    3    3  502    0  0.53183527544E+02  0.28492831525E+03  0.30573254747E+03  0.42131593017E+03  0.46999998093E+01 0. -1.
       -5    1    3    3    0  502 -0.53183527544E+02 -0.28492831525E+03  0.51001537947E+03  0.58664334116E+03  0.46999998093E+01 0.  1.
</event>
<event>
 5   0  0.3832191E-02  0.6008735E+03  0.7818609E-02  0.9903596E-01
        2   -1    0    0  501    0  0.00000000000E+00  0.00000000000E+00  0.44203935748E+03  0.44203935749E+03  0.25500000920E-02 0.  1.
       -2   -1    0    0    0  501  0.00000000000E+00  0.00000000000E+00 -0.20419501179E+03  0.20419501180E+03  0.25500000920E-02 0. -1.
    10030    2    1    2    0    0  0.00000000000E+00  0.00000000000E+00  0.23784434569E+03  0.64623436929E+03  0.60087347027E+03 0.  0.
        3    1    3    3  502    0  0.17296250570E+03 -0.24407126075E+03  0.88973778921E+02  0.31209478086E+03  0.10100000352E+00 0.  1.
       -3    1    3    3    0  502 -0.17296250570E+03  0.24407126075E+03  0.14887056677E+03  0.33413958843E+03  0.10100000352E+00 0. -1.
</event>
<event>
 5   0  0.2276105E-02  0.6065319E+03  0.7818609E-02  0.9891946E-01
       -1   -1    0    0    0  501  0.00000000000E+00  0.00000000000E+00  0.12319489053E+03  0.12319489064E+03  0.50400001928E-02 0.  1.
        1   -1    0    0  501    0  0.00000000000E+00  0.00000000000E+00 -0.74654262865E+03  0.74654262866E+03  0.50400001928E-02 0. -1.
    10030    2    1    2    0    0  0.00000000000E+00  0.00000000000E+00 -0.62334773812E+03  0.86973751930E+03  0.60653190342E+03 0.  0.
        1    1    3    3  502    0  0.77382210074E+02 -0.79326331632E+02  0.93121263253E+02  0.14474889644E+03  0.50400001928E-02 0.  1.
       -1    1    3    3    0  502 -0.77382210074E+02  0.79326331632E+02 -0.71646900137E+03  0.72498862286E+03  0.50400001928E-02 0. -1.
</event>
<event>
 5   0  0.2225808E-02  0.5992212E+03  0.7818609E-02  0.9907023E-01
        1   -1    0    0  501    0  0.00000000000E+00  0.00000000000E+00  0.28586333749E+03  0.28586333753E+03  0.50400001928E-02 0.  1.
       -1   -1    0    0    0  501  0.00000000000E+00  0.00000000000E+00 -0.31401892334E+03  0.31401892338E+03  0.50400001928E-02 0. -1.
    10030    2    1    2    0    0  0.00000000000E+00  0.00000000000E+00 -0.28155585847E+02  0.59988226091E+03  0.59922115278E+03 0.  0.
        2    1    3    3  502    0  0.20220802509E+02 -0.22325083966E+03 -0.21308513742E+03  0.30928157730E+03  0.25500000920E-02 0. -1.
       -2    1    3    3    0  502 -0.20220802509E+02  0.22325083966E+03  0.18492955157E+03  0.29060068361E+03  0.25500000920E-02 0.  1.
</event>
<event>
 5   0  0.2382531E-02  0.5925984E+03  0.7818609E-02  0.9920882E-01
       -1   -1    0    0    0  501  0.00000000000E+00  0.00000000000E+00  0.57488618679E+02  0.57488618900E+02  0.50400001928E-02 0.  1.
        1   -1    0    0  501    0  0.00000000000E+00  0.00000000000E+00 -0.15271410401E+04  0.15271410401E+04  0.50400001928E-02 0. -1.
    10030    2    1    2    0    0  0.00000000000E+00  0.00000000000E+00 -0.14696524215E+04  0.15846296590E+04  0.59259844450E+03 0.  0.
        5    1    3    3  502    0  0.51920430254E+02  0.87909836648E+02 -0.14785124817E+04  0.14820408628E+04  0.46999998093E+01 0. -1.
       -5    1    3    3    0  502 -0.51920430254E+02 -0.87909836648E+02  0.88600602096E+01  0.10258879628E+03  0.46999998093E+01 0.  1.
</event>
<event>
 5   0  0.3798925E-02  0.6010884E+03  0.7818609E-02  0.9903151E-01
       -2   -1    0    0    0  501  0.00000000000E+00  0.00000000000E+00  0.26511454513E+03  0.26511454514E+03  0.25500000920E-02 0.  1.
        2   -1    0    0  501    0  0.00000000000E+00  0.00000000000E+00 -0.34070858579E+03  0.34070858580E+03  0.25500000920E-02 0. -1.
    10030    2    1    2    0    0  0.00000000000E+00  0.00000000000E+00 -0.75594040665E+02  0.60582313094E+03  0.60108835207E+03 0.  0.
        2    1    3    3  502    0 -0.15500437139E+03  0.11049101256E+03 -0.27220629558E+03  0.33216093444E+03  0.25500000920E-02 0. -1.
       -2    1    3    3    0  502  0.15500437139E+03 -0.11049101256E+03  0.19661225492E+03  0.27366219650E+03  0.25500000920E-02 0.  1.
</event>
<event>
 5   0  0.2295179E-02  0.5968453E+03  0.7818609E-02  0.9911973E-01
       -1   -1    0    0    0  501  0.00000000000E+00  0.00000000000E+00  0.41457034767E+03  0.41457034771E+03  0.50400001928E-02 0. -1.
        1   -1    0    0  501    0  0.00000000000E+00  0.00000000000E+00 -0.21481539205E+03  0.21481539211E+03  0.50400001928E-02 0.  1.
    10030    2    1    2    0    0  0.00000000000E+00  0.00000000000E+00  0.19975495563E+03  0.62938573981E+03  0.59684534612E+03 0.  0.
        3    1    3    3  502    0  0.12697311543E+03 -0.18289502574E+03 -0.10966009739E+03  0.24818966465E+03  0.10100000352E+00 0.  1.
       -3    1    3    3    0  502 -0.12697311543E+03  0.18289502574E+03  0.30941505302E+03  0.38119607516E+03  0.10100000352E+00 0. -1.
</event>
<event>
 5   0  0.2309055E-02  0.6014635E+03  0.7818609E-02  0.9902374E-01
       -1   -1    0    0    0  501  0.00000000000E+00  0.00000000000E+00  0.68734720823E+03  0.68734720825E+03  0.50400001928E-02 0.  1.
        1   -1    0    0  501    0  0.00000000000E+00  0.00000000000E+00 -0.13157772408E+03  0.13157772417E+03  0.50400001928E-02 0. -1.
    10030    2    1    2    0    0  0.00000000000E+00  0.00000000000E+00  0.55576948415E+03  0.81892493242E+03  0.60146348636E+03 0.  0.
        4    1    3    3  502    0 -0.17746491739E+03 -0.15772325158E+02 -0.51980745217E+02  0.18559680471E+03  0.12699999809E+01 0. -1.
       -4    1    3    3    0  502  0.17746491739E+03  0.15772325158E+02  0.60775022937E+03  0.63332812771E+03  0.12699999809E+01 0.  1.
</event>
<event>
 5   0  0.3724066E-02  0.5995929E+03  0.7818609E-02  0.9906251E-01
       -2   -1    0    0    0  501  0.00000000000E+00  0.00000000000E+00  0.26618882875E+03  0.26618882877E+03  0.25500000920E-02 0.  1.
        2   -1    0    0  501    0  0.00000000000E+00  0.00000000000E+00 -0.33764719292E+03  0.33764719293E+03  0.25500000920E-02 0. -1.
    10030    2    1    2    0    0  0.00000000000E+00  0.00000000000E+00 -0.71458364165E+02  0.60383602170E+03  0.59959289796E+03 0.  0.
        4    1    3    3  502    0  0.20547544379E+03  0.15329625542E+03 -0.19225234861E+03  0.32044106849E+03  0.12699999809E+01 0. -1.
       -4    1    3    3    0  502 -0.20547544379E+03 -0.15329625542E+03  0.12079398445E+03  0.28339495321E+03  0.12699999809E+01 0.  1.
</event>
<event>
 5   0  0.1521750E-02  0.6015607E+03  0.7818609E-02  0.9902173E-01
       -3   -1    0    0    0  501  0.00000000000E+00  0.00000000000E+00  0.53362052099E+03  0.53362053055E+03  0.10100000352E+00 0.  1.
        3   -1    0    0  501    0  0.00000000000E+00  0.00000000000E+00 -0.16953773380E+03  0.16953776388E+03  0.10100000352E+00 0. -1.
    10030    2    1    2    0    0  0.00000000000E+00  0.00000000000E+00  0.36408278719E+03  0.70315829443E+03  0.60156072935E+03 0.  0.
        4    1    3    3  502    0 -0.21802470431E+03  0.54326687920E+00 -0.60153474175E+02  0.22617497692E+03  0.12699999809E+01 0. -1.
       -4    1    3    3    0  502  0.21802470431E+03 -0.54326687920E+00  0.42423626137E+03  0.47698331752E+03  0.12699999809E+01 0.  1.
</event>
<event>
 5   0  0.2309055E-02  0.5919841E+03  0.7818609E-02  0.9922177E-01
       -1   -1    0    0    0  501  0.00000000000E+00  0.00000000000E+00  0.18160353057E+03  0.18160353064E+03  0.50400001928E-02 0.  1.
        1   -1    0    0  501    0  0.00000000000E+00  0.00000000000E+00 -0.48243169380E+03  0.48243169383E+03  0.50400001928E-02 0. -1.
    10030    2    1    2    0    0  0.00000000000E+00  0.00000000000E+00 -0.30082816324E+03  0.66403522447E+03  0.59198411764E+03 0.  0.
        4    1    3    3  502    0  0.11145699349E+02  0.82146304421E+02  0.16831270240E+03  0.18762468024E+03  0.12699999809E+01 0.  1.
       -4    1    3    3    0  502 -0.11145699349E+02 -0.82146304421E+02 -0.46914086564E+03  0.47641054423E+03  0.12699999809E+01 0. -1.
</event>
<event>
 5   0  0.1521750E-02  0.6059604E+03  0.7818609E-02  0.9893117E-01
        3   -1    0    0  501    0  0.00000000000E+00  0.00000000000E+00  0.60269925555E+03  0.60269926401E+03  0.10100000352E+00 0.  1.
       -3   -1    0    0    0  501  0.00000000000E+00  0.00000000000E+00 -0.15230976111E+03  0.15230979460E+03  0.10100000352E+00 0. -1.
    10030    2    1    2    0    0  0.00000000000E+00  0.00000000000E+00  0.45038949444E+03  0.75500905861E+03  0.60596037980E+03 0.  0.
        5    1    3    3  502    0  0.66755197980E+02 -0.11883576429E+03 -0.11190134203E+03  0.17641483974E+03  0.46999998093E+01 0. -1.
       -5    1    3    3    0  502 -0.66755197980E+02  0.11883576429E+03  0.56229083647E+03  0.57859421887E+03  0.46999998093E+01 0.  1.
</event>
<event>
 5   0  0.2309055E-02  0.6034619E+03  0.7818609E-02  0.9898250E-01
       -1   -1    0    0    0  501  0.00000000000E+00  0.00000000000E+00  0.57222937974E+02  0.57222938196E+02  0.50400001928E-02 0.  1.
        1   -1    0    0  501    0  0.00000000000E+00  0.00000000000E+00 -0.15909975549E+04  0.15909975549E+04  0.50400001928E-02 0. -1.
    10030    2    1    2    0    0  0.00000000000E+00  0.00000000000E+00 -0.15337746169E+04  0.16482204931E+04  0.60346186156E+03 0.  0.
        4    1    3    3  502    0 -0.14514559050E+03  0.10707628857E+03 -0.10623834032E+03  0.20933411540E+03  0.12699999809E+01 0.  1.
       -4    1    3    3    0  502  0.14514559050E+03 -0.10707628857E+03 -0.14275362766E+04  0.14388863777E+04  0.12699999809E+01 0. -1.
</event>
<event>
 5   0  0.2276105E-02  0.6021118E+03  0.7818609E-02  0.9901034E-01
       -1   -1    0    0    0  501  0.00000000000E+00  0.00000000000E+00  0.63344712378E+02  0.63344712578E+02  0.50400001928E-02 0.  1.
        1   -1    0    0  501    0  0.00000000000E+00  0.00000000000E+00 -0.14308165693E+04  0.14308165693E+04  0.50400001928E-02 0. -1.
    10030    2    1    2    0    0  0.00000000000E+00  0.00000000000E+00 -0.13674718569E+04  0.14941612819E+04  0.60211183082E+03 0.  0.
        1    1    3    3  502    0  0.31228971612E+02 -0.15605656870E+03 -0.49579979018E+02  0.16669455794E+03  0.50400001928E-02 0.  1.
       -1    1    3    3    0  502 -0.31228971612E+02  0.15605656870E+03 -0.13178918779E+04  0.13274667239E+04  0.50400001928E-02 0. -1.
</event>
<event>
 5   0  0.3934634E-02  0.5988248E+03  0.7818609E-02  0.9907847E-01
        2   -1    0    0  501    0  0.00000000000E+00  0.00000000000E+00  0.56083252108E+03  0.56083252109E+03  0.25500000920E-02 0. -1.
       -2   -1    0    0    0  501  0.00000000000E+00  0.00000000000E+00 -0.15984770907E+03  0.15984770909E+03  0.25500000920E-02 0.  1.
    10030    2    1    2    0    0  0.00000000000E+00  0.00000000000E+00  0.40098481201E+03  0.72068023018E+03  0.59882482807E+03 0.  0.
        1    1    3    3  502    0  0.63797684795E+02  0.15413943237E+03  0.49972072271E+03  0.52683005792E+03  0.50400001928E-02 0. -1.
       -1    1    3    3    0  502 -0.63797684795E+02 -0.15413943237E+03 -0.98735910701E+02  0.19385017226E+03  0.50400001928E-02 0.  1.
</event>
<event>
 5   0  0.2295179E-02  0.5997505E+03  0.7818609E-02  0.9905924E-01
        1   -1    0    0  501    0  0.00000000000E+00  0.00000000000E+00  0.15057279292E+03  0.15057279300E+03  0.50400001928E-02 0.  1.
       -1   -1    0    0    0  501  0.00000000000E+00  0.00000000000E+00 -0.59722056823E+03  0.59722056825E+03  0.50400001928E-02 0. -1.
    10030    2    1    2    0    0  0.00000000000E+00  0.00000000000E+00 -0.44664777531E+03  0.74779336126E+03  0.59975051142E+03 0.  0.
        3    1    3    3  502    0 -0.19799783126E+03 -0.11276740486E+03  0.19747799238E+02  0.22871295232E+03  0.10100000352E+00 0.  1.
       -3    1    3    3    0  502  0.19799783126E+03  0.11276740486E+03 -0.46639557455E+03  0.51908040894E+03  0.10100000352E+00 0. -1.
</event>
<event>
 5   0  0.3798925E-02  0.6015720E+03  0.7818609E-02  0.9902150E-01
        2   -1    0    0  501    0  0.00000000000E+00  0.00000000000E+00  0.30772554164E+03  0.30772554165E+03  0.25500000920E-02 0.  1.
       -2   -1    0    0    0  501  0.00000000000E+00  0.00000000000E+00 -0.29400292225E+03  0.29400292226E+03  0.25500000920E-02 0. -1.
    10030    2    1    2    0    0  0.00000000000E+00  0.00000000000E+00  0.13722619388E+02  0.60172846391E+03  0.60157196910E+03 0.  0.
        2    1    3    3  502    0 -0.23866384532E+03  0.33328494682E+02  0.18691088303E+03  0.30497032285E+03  0.25500000920E-02 0.  1.
       -2    1    3    3    0  502  0.23866384532E+03 -0.33328494682E+02 -0.17318826364E+03  0.29675814106E+03  0.25500000920E-02 0. -1.
</event>
<event>
 5   0  0.3832191E-02  0.5984417E+03  0.7818609E-02  0.9908644E-01
       -2   -1    0    0    0  501  0.00000000000E+00  0.00000000000E+00  0.68535590591E+02  0.68535590638E+02  0.25500000920E-02 0. -1.
        2   -1    0    0  501    0  0.00000000000E+00  0.00000000000E+00 -0.13063739670E+04  0.13063739670E+04  0.25500000920E-02 0.  1.
    10030    2    1    2    0    0  0.00000000000E+00  0.00000000000E+00 -0.12378383764E+04  0.13749095576E+04  0.59844168101E+03 0.  0.
        3    1    3    3  502    0 -0.15799799475E+03  0.23372537140E+03 -0.84800238238E+03  0.89369959511E+03  0.10100000352E+00 0. -1.
       -3    1    3    3    0  502  0.15799799475E+03 -0.23372537140E+03 -0.38983599398E+03  0.48120996248E+03  0.10100000352E+00 0.  1.
</event>
<event>
 5   0  0.2382531E-02  0.5985046E+03  0.7818609E-02  0.9908513E-01
        1   -1    0    0  501    0  0.00000000000E+00  0.00000000000E+00  0.58818287450E+03  0.58818287452E+03  0.50400001928E-02 0.  1.
       -1   -1    0    0    0  501  0.00000000000E+00  0.00000000000E+00 -0.15225184442E+03  0.15225184450E+03  0.50400001928E-02 0. -1.
    10030    2    1    2    0    0  0.00000000000E+00  0.00000000000E+00  0.43593103008E+03  0.74043471902E+03  0.59850456151E+03 0.  0.
        5    1    3    3  502    0  0.29342588184E+03 -0.23141692670E+02  0.15139453444E+03  0.33102368666E+03  0.46999998093E+01 0.  1.
       -5    1    3    3    0  502 -0.29342588184E+03  0.23141692670E+02  0.28453649564E+03  0.40941103236E+03  0.46999998093E+01 0. -1.
</event>
<event>
 5   0  0.2382531E-02  0.6042819E+03  0.7818609E-02  0.9896562E-01
       -1   -1    0    0    0  501  0.00000000000E+00  0.00000000000E+00  0.13509277245E+03  0.13509277254E+03  0.50400001928E-02 0. -1.
        1   -1    0    0  501    0  0.00000000000E+00  0.00000000000E+00 -0.67575168491E+03  0.67575168493E+03  0.50400001928E-02 0.  1.
    10030    2    1    2    0    0  0.00000000000E+00  0.00000000000E+00 -0.54065891246E+03  0.81084445747E+03  0.60428194958E+03 0.  0.
        5    1    3    3  502    0 -0.97987105701E+02  0.31803299963E+02 -0.65140519993E+03  0.65951781422E+03  0.46999998093E+01 0.  1.
       -5    1    3    3    0  502  0.97987105701E+02 -0.31803299963E+02  0.11074628747E+03  0.15132664326E+03  0.46999998093E+01 0. -1.
</event>
<event>
 5   0  0.3724066E-02  0.6021675E+03  0.7818609E-02  0.9900919E-01
       -2   -1    0    0    0  501  0.00000000000E+00  0.00000000000E+00  0.64332378063E+02  0.64332378113E+02  0.25500000920E-02 0.  1.
        2   -1    0    0  501    0  0.00000000000E+00  0.00000000000E+00 -0.14091103648E+04  0.14091103648E+04  0.25500000920E-02 0. -1.
    10030    2    1    2    0    0  0.00000000000E+00  0.00000000000E+00 -0.13447779868E+04  0.14734427430E+04  0.60216748754E+03 0.  0.
        4    1    3    3  502    0 -0.16961754647E+03 -0.11623310199E+03 -0.12105373735E+04  0.12278772706E+04  0.12699999809E+01 0. -1.
       -4    1    3    3    0  502  0.16961754647E+03  0.11623310199E+03 -0.13424061327E+03  0.24556547237E+03  0.12699999809E+01 0.  1.
</event>
<event>
 5   0  0.3724066E-02  0.6005954E+03  0.7818609E-02  0.9904172E-01
        2   -1    0    0  501    0  0.00000000000E+00  0.00000000000E+00  0.11647627095E+04  0.11647627095E+04  0.25500000920E-02 0.  1.
       -2   -1    0    0    0  501  0.00000000000E+00  0.00000000000E+00 -0.77422389970E+02  0.77422390012E+02  0.25500000920E-02 0. -1.
    10030    2    1    2    0    0  0.00000000000E+00  0.00000000000E+00  0.10873403196E+04  0.12421850995E+04  0.60059541373E+03 0.  0.
        4    1    3    3  502    0  0.24096764924E+03 -0.44701979568E+02  0.18476113412E+03  0.30692338545E+03  0.12699999809E+01 0. -1.
       -4    1    3    3    0  502 -0.24096764924E+03  0.44701979568E+02  0.90257918545E+03  0.93526171410E+03  0.12699999809E+01 0.  1.
</event>
<event>
 5   0  0.3798925E-02  0.5968076E+03  0.7818609E-02  0.9912051E-01
        2   -1    0    0  501    0  0.00000000000E+00  0.00000000000E+00  0.12529865539E+04  0.12529865539E+04  0.25500000920E-02 0. -1.
       -2   -1    0    0    0  501  0.00000000000E+00  0.00000000000E+00 -0.71066079105E+02  0.71066079151E+02  0.25500000920E-02 0.  1.
    10030    2    1    2    0    0  0.00000000000E+00  0.00000000000E+00  0.11819204748E+04  0.13240526330E+04  0.59680764602E+03 0.  0.
        2    1    3    3  502    0  0.27339343069E+03 -0.11835409449E+03  0.62894763023E+03  0.69593590309E+03  0.25500000920E-02 0.  1.
       -2    1    3    3    0  502 -0.27339343069E+03  0.11835409449E+03  0.55297284455E+03  0.62811672995E+03  0.25500000920E-02 0. -1.
</event>
<event>
 5   0  0.2295179E-02  0.6001721E+03  0.7818609E-02  0.9905049E-01
       -1   -1    0    0    0  501  0.00000000000E+00  0.00000000000E+00  0.64216986619E+02  0.64216986817E+02  0.50400001928E-02 0. -1.
        1   -1    0    0  501    0  0.00000000000E+00  0.00000000000E+00 -0.14023023686E+04  0.14023023686E+04  0.50400001928E-02 0.  1.
    10030    2    1    2    0    0  0.00000000000E+00  0.00000000000E+00 -0.13380853820E+04  0.14665193555E+04  0.60017208397E+03 0.  0.
        3    1    3    3  502    0 -0.21310410991E+03  0.21108906861E+03 -0.69085231111E+03  0.75315926769E+03  0.10100000352E+00 0.  1.
       -3    1    3    3    0  502  0.21310410991E+03 -0.21108906861E+03 -0.64723307091E+03  0.71336008777E+03  0.10100000352E+00 0. -1.
</event>
<event>
 5   0  0.3832191E-02  0.6003480E+03  0.7818609E-02  0.9904684E-01
        2   -1    0    0  501    0  0.00000000000E+00  0.00000000000E+00  0.86761121040E+03  0.86761121041E+03  0.25500000920E-02 0. -1.
       -2   -1    0    0    0  501  0.00000000000E+00  0.00000000000E+00 -0.10385346837E+03  0.10385346840E+03  0.25500000920E-02 0.  1.
    10030    2    1    2    0    0  0.00000000000E+00  0.00000000000E+00  0.76375774204E+03  0.97146467881E+03  0.60034801045E+03 0.  0.
        3    1    3    3  502    0 -0.67453624470E+01 -0.29926271377E+03  0.34566832751E+03  0.45726390040E+03  0.10100000352E+00 0. -1.
       -3    1    3    3    0  502  0.67453624470E+01  0.29926271377E+03  0.41808941453E+03  0.51420077841E+03  0.10100000352E+00 0.  1.
</event>
<event>
 5   0  0.2382531E-02  0.6017892E+03  0.7818609E-02  0.9901701E-01
        1   -1    0    0  501    0  0.00000000000E+00  0.00000000000E+00  0.40730437718E+03  0.40730437721E+03  0.50400001928E-02 0.  1.
       -1   -1    0    0    0  501  0.00000000000E+00  0.00000000000E+00 -0.22228477861E+03  0.22228477866E+03  0.50400001928E-02 0. -1.
    10030    2    1    2    0    0  0.00000000000E+00  0.00000000000E+00  0.18501959857E+03  0.62958915587E+03  0.60178921005E+03 0.  0.
        5    1    3    3  502    0 -0.36482395732E+02 -0.85375901707E+02 -0.20688397494E+03  0.22681066747E+03  0.46999998093E+01 0. -1.
       -5    1    3    3    0  502  0.36482395732E+02  0.85375901707E+02  0.39190357351E+03  0.40277848840E+03  0.46999998093E+01 0.  1.
</event>
<event>
 5   0  0.2295179E-02  0.5937767E+03  0.7818609E-02  0.9918402E-01
        1   -1    0    0  501    0  0.00000000000E+00  0.00000000000E+00  0.12990365619E+04  0.12990365619E+04  0.50400001928E-02 0. -1.
       -1   -1    0    0    0  501  0.00000000000E+00  0.00000000000E+00 -0.67852359706E+02  0.67852359893E+02  0.50400001928E-02 0.  1.
    10030    2    1    2    0    0  0.00000000000E+00  0.00000000000E+00  0.12311842022E+04  0.13668889218E+04  0.59377671293E+03 0.  0.
        3    1    3    3  502    0  0.51573946363E+02  0.27778950926E+03  0.40566807435E+03  0.49436168960E+03  0.10100000352E+00 0.  1.
       -3    1    3    3    0  502 -0.51573946363E+02 -0.27778950926E+03  0.82551612787E+03  0.87252723223E+03  0.10100000352E+00 0. -1.
</event>
<event>
 5   0  0.2382531E-02  0.6311001E+03  0.7818609E-02  0.9842904E-01
       -1   -1    0    0    0  501  0.00000000000E+00  0.00000000000E+00  0.36685091803E+03  0.36685091807E+03  0.50400001928E-02 0.  1.
        1   -1    0    0  501    0  0.00000000000E+00  0.00000000000E+00 -0.27142315341E+03  0.27142315346E+03  0.50400001928E-02 0. -1.
    10030    2    1    2    0    0  0.00000000000E+00  0.00000000000E+00  0.95427764622E+02  0.63827407153E+03  0.63110009675E+03 0.  0.
        5    1    3    3  502    0  0.12967470231E+03 -0.70285425654E+02  0.32980050518E+03  0.36131154520E+03  0.46999998093E+01 0.  1.
       -5    1    3    3    0  502 -0.12967470231E+03  0.70285425654E+02 -0.23437274056E+03  0.27696252633E+03  0.46999998093E+01 0. -1.
</event>
<event>
 5   0  0.3724066E-02  0.6007855E+03  0.7818609E-02  0.9903778E-01
        2   -1    0    0  501    0  0.00000000000E+00  0.00000000000E+00  0.62202988414E+03  0.62202988415E+03  0.25500000920E-02 0. -1.
       -2   -1    0    0    0  501  0.00000000000E+00  0.00000000000E+00 -0.14506666113E+03  0.14506666115E+03  0.25500000920E-02 0.  1.
    10030    2    1    2    0    0  0.00000000000E+00  0.00000000000E+00  0.47696322301E+03  0.76709654530E+03  0.60078548061E+03 0.  0.
        4    1    3    3  502    0  0.12990951095E+03 -0.27040946059E+03  0.25811431733E+03  0.39575544358E+03  0.12699999809E+01 0.  1.
       -4    1    3    3    0  502 -0.12990951095E+03  0.27040946059E+03  0.21884890569E+03  0.37134110173E+03  0.12699999809E+01 0. -1.
</event>
<event>
 5   0  0.2225808E-02  0.5987701E+03  0.7818609E-02  0.9907961E-01
        1   -1    0    0  501    0  0.00000000000E+00  0.00000000000E+00  0.13863142811E+04  0.13863142811E+04  0.50400001928E-02 0.  1.
       -1   -1    0    0    0  501  0.00000000000E+00  0.00000000000E+00 -0.64654458839E+02  0.64654459036E+02  0.50400001928E-02 0. -1.
    10030    2    1    2    0    0  0.00000000000E+00  0.00000000000E+00  0.13216598223E+04  0.14509687401E+04  0.59877007198E+03 0.  0.
        2    1    3    3  502    0 -0.22756963936E+03 -0.17024934112E+03  0.43275315459E+03  0.51773359145E+03  0.25500000920E-02 0.  1.
       -2    1    3    3    0  502  0.22756963936E+03  0.17024934112E+03  0.88890666768E+03  0.93323514870E+03  0.25500000920E-02 0. -1.
</event>
<event>
 5   0  0.2295179E-02  0.5953162E+03  0.7818609E-02  0.9915171E-01
       -1   -1    0    0    0  501  0.00000000000E+00  0.00000000000E+00  0.17203700103E+03  0.17203700111E+03  0.50400001928E-02 0. -1.
        1   -1    0    0  501    0  0.00000000000E+00  0.00000000000E+00 -0.51500752506E+03  0.51500752508E+03  0.50400001928E-02 0.  1.
    10030    2    1    2    0    0  0.00000000000E+00  0.00000000000E+00 -0.34297052402E+03  0.68704452619E+03  0.59531621901E+03 0.  0.
        3    1    3    3  502    0  0.12881781337E+03  0.19235103705E+03  0.44446750335E+02  0.23572966363E+03  0.10100000352E+00 0. -1.
       -3    1    3    3    0  502 -0.12881781337E+03 -0.19235103705E+03 -0.38741727436E+03  0.45131486256E+03  0.10100000352E+00 0.  1.
</event>
<event>
 5   0  0.3798925E-02  0.5998685E+03  0.7818609E-02  0.9905679E-01
        2   -1    0    0  501    0  0.00000000000E+00  0.00000000000E+00  0.10207117861E+04  0.10207117861E+04  0.25500000920E-02 0. -1.
       -2   -1    0    0    0  501  0.00000000000E+00  0.00000000000E+00 -0.88135126186E+02  0.88135126223E+02  0.25500000920E-02 0.  1.
    10030    2    1    2    0    0  0.00000000000E+00  0.00000000000E+00  0.93257665994E+03  0.11088469124E+04  0.59986852590E+03 0.  0.
        2    1    3    3  502    0  0.11797267132E+03  0.36736494256E+02 -0.38904000721E+02  0.12954011914E+03  0.25500000920E-02 0.  1.
       -2    1    3    3    0  502 -0.11797267132E+03 -0.36736494256E+02  0.97148066066E+03  0.97930679321E+03  0.25500000920E-02 0. -1.
</event>
<event>
 5   0  0.2295179E-02  0.6009653E+03  0.7818609E-02  0.9903405E-01
       -1   -1    0    0    0  501  0.00000000000E+00  0.00000000000E+00  0.94414261874E+03  0.94414261876E+03  0.50400001928E-02 0.  1.
        1   -1    0    0  501    0  0.00000000000E+00  0.00000000000E+00 -0.95631558456E+02  0.95631558589E+02  0.50400001928E-02 0. -1.
    10030    2    1    2    0    0  0.00000000000E+00  0.00000000000E+00  0.84851106029E+03  0.10397741773E+04  0.60096532383E+03 0.  0.
        3    1    3    3  502    0  0.34013510323E+02  0.10873992657E+03  0.90532004179E+03  0.91246133002E+03  0.10100000352E+00 0.  1.
       -3    1    3    3    0  502 -0.34013510323E+02 -0.10873992657E+03 -0.56808981500E+02  0.12731284733E+03  0.10100000352E+00 0. -1.
</event>
<event>
 5   0  0.3724066E-02  0.6073603E+03  0.7818609E-02  0.9890252E-01
       -2   -1    0    0    0  501  0.00000000000E+00  0.00000000000E+00  0.17180450171E+03  0.17180450173E+03  0.25500000920E-02 0.  1.
        2   -1    0    0  501    0  0.00000000000E+00  0.00000000000E+00 -0.53678242820E+03  0.53678242820E+03  0.25500000920E-02 0. -1.
    10030    2    1    2    0    0  0.00000000000E+00  0.00000000000E+00 -0.36497792648E+03  0.70858692993E+03  0.60736031353E+03 0.  0.
        4    1    3    3  502    0  0.11611560348E+03 -0.25929851361E+03 -0.57369911752E+02  0.28984732569E+03  0.12699999809E+01 0. -1.
       -4    1    3    3    0  502 -0.11611560348E+03  0.25929851361E+03 -0.30760801473E+03  0.41873960424E+03  0.12699999809E+01 0.  1.
</event>
<event>
 5   0  0.3934634E-02  0.6118376E+03  0.7818609E-02  0.9881147E-01
        2   -1    0    0  501    0  0.00000000000E+00  0.00000000000E+00  0.16586400858E+04  0.16586400858E+04  0.25500000920E-02 0.  1.
       -2   -1    0    0    0  501  0.00000000000E+00  0.00000000000E+00 -0.56423511473E+02  0.56423511531E+02  0.25500000920E-02 0. -1.
    10030    2    1    2    0    0  0.00000000000E+00  0.00000000000E+00  0.16022165743E+04  0.17150635973E+04  0.61183755348E+03 0.  0.
        1    1    3    3  502    0  0.10623209077E+03  0.28034547579E+03  0.97178805572E+03  0.10169812526E+04  0.50400001928E-02 0.  1.
       -1    1    3    3    0  502 -0.10623209077E+03 -0.28034547579E+03  0.63042851857E+03  0.69808234469E+03  0.50400001928E-02 0. -1.
</event>
<event>
 5   0  0.3832191E-02  0.5988327E+03  0.7818609E-02  0.9907831E-01
       -2   -1    0    0    0  501  0.00000000000E+00  0.00000000000E+00  0.13399013666E+04  0.13399013666E+04  0.25500000920E-02 0. -1.
        2   -1    0    0  501    0  0.00000000000E+00  0.00000000000E+00 -0.66908027928E+02  0.66908027977E+02  0.25500000920E-02 0.  1.
    10030    2    1    2    0    0  0.00000000000E+00  0.00000000000E+00  0.12729933387E+04  0.14068093946E+04  0.59883272487E+03 0.  0.
        3    1    3    3  502    0  0.58287925225E+02 -0.29346493856E+03  0.60960870505E+03  0.67907432279E+03  0.10100000352E+00 0. -1.
       -3    1    3    3    0  502 -0.58287925225E+02  0.29346493856E+03  0.66338463363E+03  0.72773507180E+03  0.10100000352E+00 0.  1.
</event>
<event>
 5   0  0.3832191E-02  0.6014035E+03  0.7818609E-02  0.9902499E-01
        2   -1    0    0  501    0  0.00000000000E+00  0.00000000000E+00  0.22980346239E+03  0.22980346240E+03  0.25500000920E-02 0.  1.
       -2   -1    0    0    0  501  0.00000000000E+00  0.00000000000E+00 -0.39347334076E+03  0.39347334077E+03  0.25500000920E-02 0. -1.
    10030    2    1    2    0    0  0.00000000000E+00  0.00000000000E+00 -0.16366987838E+03  0.62327680318E+03  0.60140347878E+03 0.  0.
        3    1    3    3  502    0  0.19257726680E+03  0.27280596705E+01 -0.32116265800E+03  0.37448485830E+03  0.10100000352E+00 0. -1.
       -3    1    3    3    0  502 -0.19257726680E+03 -0.27280596705E+01  0.15749277963E+03  0.24879194488E+03  0.10100000352E+00 0.  1.
</event>
<event>
 5   0  0.3737642E-02  0.5953324E+03  0.7818609E-02  0.9915137E-01
       -2   -1    0    0    0  501  0.00000000000E+00  0.00000000000E+00  0.13666397260E+03  0.13666397263E+03  0.25500000920E-02 0.  1.
        2   -1    0    0  501    0  0.00000000000E+00  0.00000000000E+00 -0.64834334657E+03  0.64834334658E+03  0.25500000920E-02 0. -1.
    10030    2    1    2    0    0  0.00000000000E+00  0.00000000000E+00 -0.51167937397E+03  0.78500731920E+03  0.59533243608E+03 0.  0.
        5    1    3    3  502    0 -0.13215224368E+03 -0.25936514194E+03 -0.17403743372E+03  0.33918374179E+03  0.46999998093E+01 0.  1.
       -5    1    3    3    0  502  0.13215224368E+03  0.25936514194E+03 -0.33764194025E+03  0.44582357741E+03  0.46999998093E+01 0. -1.
</event>
<event>
 5   0  0.2295179E-02  0.6064952E+03  0.7818609E-02  0.9892022E-01
       -1   -1    0    0    0  501  0.00000000000E+00  0.00000000000E+00  0.24926183875E+03  0.24926183880E+03  0.50400001928E-02 0.  1.
        1   -1    0    0  501    0  0.00000000000E+00  0.00000000000E+00 -0.36892569177E+03  0.36892569180E+03  0.50400001928E-02 0. -1.
    10030    2    1    2    0    0  0.00000000000E+00  0.00000000000E+00 -0.11966385302E+03  0.61818753060E+03  0.60649516509E+03 0.  0.
        3    1    3    3  502    0 -0.87017667666E+02  0.44333871110E+02 -0.35245812542E+03  0.36573803055E+03  0.10100000352E+00 0. -1.
       -3    1    3    3    0  502  0.87017667666E+02 -0.44333871110E+02  0.23279427240E+03  0.25244950005E+03  0.10100000352E+00 0.  1.
</event>
<event>
 5   0  0.2309055E-02  0.6155662E+03  0.7818609E-02  0.9873627E-01
        1   -1    0    0  501    0  0.00000000000E+00  0.00000000000E+00  0.79689580529E+03  0.79689580530E+03  0.50400001928E-02 0. -1.
       -1   -1    0    0    0  501  0.00000000000E+00  0.00000000000E+00 -0.11887432546E+03  0.11887432557E+03  0.50400001928E-02 0.  1.
    10030    2    1    2    0    0  0.00000000000E+00  0.00000000000E+00  0.67802147982E+03  0.91577013087E+03  0.61556624785E+03 0.  0.
        4    1    3    3  502    0 -0.29768891415E+03 -0.78145337892E+02  0.34177601111E+03  0.45993242776E+03  0.12699999809E+01 0.  1.
       -4    1    3    3    0  502  0.29768891415E+03  0.78145337892E+02  0.33624546872E+03  0.45583770311E+03  0.12699999809E+01 0. -1.
</event>
<event>
 5   0  0.3724066E-02  0.6031630E+03  0.7818609E-02  0.9898865E-01
        2   -1    0    0  501    0  0.00000000000E+00  0.00000000000E+00  0.51997739749E+03  0.51997739750E+03  0.25500000920E-02 0.  1.
       -2   -1    0    0    0  501  0.00000000000E+00  0.00000000000E+00 -0.17491416366E+03  0.17491416368E+03  0.25500000920E-02 0. -1.
    10030    2    1    2    0    0  0.00000000000E+00  0.00000000000E+00  0.34506323383E+03  0.69489156118E+03  0.60316303473E+03 0.  0.
        4    1    3    3  502    0  0.86813065581E+02  0.14451482449E+03  0.46061765686E+03  0.49050105154E+03  0.12699999809E+01 0.  1.
       -4    1    3    3    0  502 -0.86813065581E+02 -0.14451482449E+03 -0.11555442302E+03  0.20439050964E+03  0.12699999809E+01 0. -1.
</event>
<event>
 5   0  0.2295179E-02  0.5997759E+03  0.7818609E-02  0.9905871E-01
       -1   -1    0    0    0  501  0.00000000000E+00  0.00000000000E+00  0.75262078299E+03  0.75262078300E+03  0.50400001928E-02 0.  1.
        1   -1    0    0  501    0  0.00000000000E+00  0.00000000000E+00 -0.11949282773E+03  0.11949282783E+03  0.50400001928E-02 0. -1.
    10030    2    1    2    0    0  0.00000000000E+00  0.00000000000E+00  0.63312795526E+03  0.87211361084E+03  0.59977591022E+03 0.  0.
        3    1    3    3  502    0  0.21295753821E+03  0.21098530727E+03  0.30465639043E+03  0.42741225929E+03  0.10100000352E+00 0.  1.
       -3    1    3    3    0  502 -0.21295753821E+03 -0.21098530727E+03  0.32847156483E+03  0.44470135154E+03  0.10100000352E+00 0. -1.
</event>
<event>
 5   0  0.2225808E-02  0.5951698E+03  0.7818609E-02  0.9915478E-01
       -1   -1    0    0    0  501  0.00000000000E+00  0.00000000000E+00  0.39167248487E+03  0.39167248490E+03  0.50400001928E-02 0.  1.
        1   -1    0    0  501    0  0.00000000000E+00  0.00000000000E+00 -0.22609902545E+03  0.22609902550E+03  0.50400001928E-02 0. -1.
    10030    2    1    2    0    0  0.00000000000E+00  0.00000000000E+00  0.16557345942E+03  0.61777151040E+03  0.59516978133E+03 0.  0.
        2    1    3    3  502    0  0.12465738295E+03  0.26255413928E+03  0.14910862168E+03  0.32666117039E+03  0.25500000920E-02 0.  1.
       -2    1    3    3    0  502 -0.12465738295E+03 -0.26255413928E+03  0.16464837744E+02  0.29111034002E+03  0.25500000920E-02 0. -1.
</event>
<event>
 5   0  0.2295179E-02  0.5299532E+03  0.7818609E-02  0.1006243E+00
        1   -1    0    0  501    0  0.00000000000E+00  0.00000000000E+00  0.12683680617E+04  0.12683680617E+04  0.50400001928E-02 0.  1.
       -1   -1    0    0    0  501  0.00000000000E+00  0.00000000000E+00 -0.55356634335E+02  0.55356634565E+02  0.50400001928E-02 0. -1.
    10030    2    1    2    0    0  0.00000000000E+00  0.00000000000E+00  0.12130114274E+04  0.13237246963E+04  0.52995315700E+03 0.  0.
        3    1    3    3  502    0 -0.59417702130E+02 -0.38901103868E+02  0.12441524027E+04  0.12461777443E+04  0.10100000352E+00 0.  1.
       -3    1    3    3    0  502  0.59417702130E+02  0.38901103868E+02 -0.31140975316E+02  0.77546951927E+02  0.10100000352E+00 0. -1.
</event>
<event>
 5   0  0.2276105E-02  0.6098369E+03  0.7818609E-02  0.9885205E-01
       -1   -1    0    0    0  501  0.00000000000E+00  0.00000000000E+00  0.83445437517E+03  0.83445437519E+03  0.50400001928E-02 0. -1.
        1   -1    0    0  501    0  0.00000000000E+00  0.00000000000E+00 -0.11142040919E+03  0.11142040930E+03  0.50400001928E-02 0.  1.
    10030    2    1    2    0    0  0.00000000000E+00  0.00000000000E+00  0.72303396598E+03  0.94587478449E+03  0.60983685685E+03 0.  0.
        1    1    3    3  502    0  0.13598649812E+02  0.65043407472E+02 -0.10005346837E+03  0.12010938636E+03  0.50400001928E-02 0.  1.
       -1    1    3    3    0  502 -0.13598649812E+02 -0.65043407472E+02  0.82308743436E+03  0.82576539814E+03  0.50400001928E-02 0. -1.
</event>
<event>
 5   0  0.2382531E-02  0.6060271E+03  0.7818609E-02  0.9892980E-01
       -1   -1    0    0    0  501  0.00000000000E+00  0.00000000000E+00  0.14117693337E+03  0.14117693346E+03  0.50400001928E-02 0.  1.
        1   -1    0    0  501    0  0.00000000000E+00  0.00000000000E+00 -0.65036981076E+03  0.65036981078E+03  0.50400001928E-02 0. -1.
    10030    2    1    2    0    0  0.00000000000E+00  0.00000000000E+00 -0.50919287739E+03  0.79154674423E+03  0.60602711319E+03 0.  0.
        5    1    3    3  502    0  0.16596711298E+03 -0.80552416497E+02  0.59312139541E+02  0.19383960970E+03  0.46999998093E+01 0.  1.
       -5    1    3    3    0  502 -0.16596711298E+03  0.80552416497E+02 -0.56850501693E+03  0.59770713453E+03  0.46999998093E+01 0. -1.
</event>
<event>
 5   0  0.2225808E-02  0.5979653E+03  0.7818609E-02  0.9909636E-01
       -1   -1    0    0    0  501  0.00000000000E+00  0.00000000000E+00  0.48510095570E+03  0.48510095572E+03  0.50400001928E-02 0.  1.
        1   -1    0    0  501    0  0.00000000000E+00  0.00000000000E+00 -0.18427220003E+03  0.18427220010E+03  0.50400001928E-02 0. -1.
    10030    2    1    2    0    0  0.00000000000E+00  0.00000000000E+00  0.30082875567E+03  0.66937315582E+03  0.59796528452E+03 0.  0.
        2    1    3    3  502    0  0.64567437443E+02  0.27398669134E+03  0.26320906504E+03  0.38537860985E+03  0.25500000920E-02 0.  1.
       -2    1    3    3    0  502 -0.64567437443E+02 -0.27398669134E+03  0.37619690631E+02  0.28399454597E+03  0.25500000920E-02 0. -1.
</event>
<event>
 5   0  0.1521750E-02  0.6037194E+03  0.7818609E-02  0.9897719E-01
       -3   -1    0    0    0  501  0.00000000000E+00  0.00000000000E+00  0.94061972851E+03  0.94061973393E+03  0.10100000352E+00 0.  1.
        3   -1    0    0  501    0  0.00000000000E+00  0.00000000000E+00 -0.96871506048E+02  0.96871558701E+02  0.10100000352E+00 0. -1.
    10030    2    1    2    0    0  0.00000000000E+00  0.00000000000E+00  0.84374822246E+03  0.10374912926E+04  0.60371940451E+03 0.  0.
        2    1    3    3  502    0 -0.18680160259E+03 -0.16952316833E+03  0.70678415213E+03  0.75045105173E+03  0.25500000920E-02 0.  1.
       -2    1    3    3    0  502  0.18680160259E+03  0.16952316833E+03  0.13696407033E+03  0.28704024090E+03  0.25500000920E-02 0. -1.
</event>
<event>
 5   0  0.1521750E-02  0.6021108E+03  0.7818609E-02  0.9901037E-01
        4   -1    0    0  501    0  0.00000000000E+00  0.00000000000E+00  0.80676651632E+03  0.80676751592E+03  0.12699999809E+01 0.  1.
       -4   -1    0    0    0  501  0.00000000000E+00  0.00000000000E+00 -0.11233806287E+03  0.11234524142E+03  0.12699999809E+01 0. -1.
    10030    2    1    2    0    0  0.00000000000E+00  0.00000000000E+00  0.69442845345E+03  0.91911275734E+03  0.60211077366E+03 0.  0.
        1    1    3    3  502    0  0.17047887613E+03 -0.20347164950E+03  0.13041802962E+03  0.29575770798E+03  0.50400001928E-02 0. -1.
       -1    1    3    3    0  502 -0.17047887613E+03  0.20347164950E+03  0.56401042382E+03  0.62335504936E+03  0.50400001928E-02 0.  1.
</event>
<event>
 5   0  0.3737642E-02  0.5996741E+03  0.7818609E-02  0.9906082E-01
       -2   -1    0    0    0  501  0.00000000000E+00  0.00000000000E+00  0.95708272856E+02  0.95708272890E+02  0.25500000920E-02 0. -1.
        2   -1    0    0  501    0  0.00000000000E+00  0.00000000000E+00 -0.93933638276E+03  0.93933638276E+03  0.25500000920E-02 0.  1.
    10030    2    1    2    0    0  0.00000000000E+00  0.00000000000E+00 -0.84362810990E+03  0.10350446557E+04  0.59967412098E+03 0.  0.
        5    1    3    3  502    0  0.85432728964E+02 -0.19829517041E+03 -0.62818326049E+02  0.22491766910E+03  0.46999998093E+01 0. -1.
       -5    1    3    3    0  502 -0.85432728964E+02  0.19829517041E+03 -0.78080978385E+03  0.81012698656E+03  0.46999998093E+01 0.  1.
</event>
<event>
 5   0  0.2276105E-02  0.6026820E+03  0.7818609E-02  0.9899857E-01
        1   -1    0    0  501    0  0.00000000000E+00  0.00000000000E+00  0.17559285049E+04  0.17559285049E+04  0.50400001928E-02 0.  1.
       -1   -1    0    0    0  501  0.00000000000E+00  0.00000000000E+00 -0.51714168852E+02  0.51714169098E+02  0.50400001928E-02 0. -1.
    10030    2    1    2    0    0  0.00000000000E+00  0.00000000000E+00  0.17042143360E+04  0.18076426740E+04  0.60268195069E+03 0.  0.
        1    1    3    3  502    0 -0.67175109665E+02 -0.24973417162E+03  0.38816260587E+03  0.46642240561E+03  0.50400001928E-02 0. -1.
       -1    1    3    3    0  502  0.67175109665E+02  0.24973417162E+03  0.13160517301E+04  0.13412202684E+04  0.50400001928E-02 0.  1.
</event>
<event>
 5   0  0.3737642E-02  0.6003972E+03  0.7818609E-02  0.9904582E-01
       -2   -1    0    0    0  501  0.00000000000E+00  0.00000000000E+00  0.22974697671E+03  0.22974697672E+03  0.25500000920E-02 0. -1.
        2   -1    0    0  501    0  0.00000000000E+00  0.00000000000E+00 -0.39225406079E+03  0.39225406080E+03  0.25500000920E-02 0.  1.
    10030    2    1    2    0    0  0.00000000000E+00  0.00000000000E+00 -0.16250708408E+03  0.62200103752E+03  0.60039715047E+03 0.  0.
        5    1    3    3  502    0  0.16647162956E+03  0.14635150634E+03  0.12842875406E+03  0.25621787940E+03  0.46999998093E+01 0. -1.
       -5    1    3    3    0  502 -0.16647162956E+03 -0.14635150634E+03 -0.29093583814E+03  0.36578315812E+03  0.46999998093E+01 0.  1.
</event>
<event>
 5   0  0.2295179E-02  0.5976949E+03  0.7818609E-02  0.9910200E-01
       -1   -1    0    0    0  501  0.00000000000E+00  0.00000000000E+00  0.21448264790E+03  0.21448264796E+03  0.50400001928E-02 0.  1.
        1   -1    0    0  501    0  0.00000000000E+00  0.00000000000E+00 -0.41639639450E+03  0.41639639453E+03  0.50400001928E-02 0. -1.
    10030    2    1    2    0    0  0.00000000000E+00  0.00000000000E+00 -0.20191374660E+03  0.63087904250E+03  0.59769490979E+03 0.  0.
        3    1    3    3  502    0  0.93632819266E+02  0.28267152078E+03 -0.12764917352E+03  0.32398243039E+03  0.10100000352E+00 0.  1.
       -3    1    3    3    0  502 -0.93632819266E+02 -0.28267152078E+03 -0.74264573081E+02  0.30689661210E+03  0.10100000352E+00 0. -1.
</event>
<event>
 5   0  0.3724066E-02  0.6025760E+03  0.7818609E-02  0.9900076E-01
        2   -1    0    0  501    0  0.00000000000E+00  0.00000000000E+00  0.26499760150E+03  0.26499760151E+03  0.25500000920E-02 0. -1.
       -2   -1    0    0    0  501  0.00000000000E+00  0.00000000000E+00 -0.34254824032E+03  0.34254824033E+03  0.25500000920E-02 0.  1.
    10030    2    1    2    0    0  0.00000000000E+00  0.00000000000E+00 -0.77550638822E+02  0.60754584184E+03  0.60257601044E+03 0.  0.
        4    1    3    3  502    0  0.11117276310E+03  0.27089607444E+03  0.32723464245E+02  0.29464640574E+03  0.12699999809E+01 0. -1.
       -4    1    3    3    0  502 -0.11117276310E+03 -0.27089607444E+03 -0.11027410307E+03  0.31289943610E+03  0.12699999809E+01 0.  1.
</event>
<event>
 5   0  0.2309055E-02  0.5968424E+03  0.7818609E-02  0.9911979E-01
        1   -1    0    0  501    0  0.00000000000E+00  0.00000000000E+00  0.32400226357E+03  0.32400226361E+03  0.50400001928E-02 0. -1.
       -1   -1    0    0    0  501  0.00000000000E+00  0.00000000000E+00 -0.27485981789E+03  0.27485981794E+03  0.50400001928E-02 0.  1.
    10030    2    1    2    0    0  0.00000000000E+00  0.00000000000E+00  0.49142445679E+02  0.59886208154E+03  0.59684236842E+03 0.  0.
        4    1    3    3  502    0 -0.20320006963E+03 -0.21183870781E+03 -0.29347797553E+02  0.29500646187E+03  0.12699999809E+01 0.  1.
       -4    1    3    3    0  502  0.20320006963E+03  0.21183870781E+03  0.78490243232E+02  0.30385561967E+03  0.12699999809E+01 0. -1.
</event>
<event>
 5   0  0.3724066E-02  0.6090981E+03  0.7818609E-02  0.9886708E-01
       -2   -1    0    0    0  501  0.00000000000E+00  0.00000000000E+00  0.34613719098E+03  0.34613719099E+03  0.25500000920E-02 0. -1.
        2   -1    0    0  501    0  0.00000000000E+00  0.00000000000E+00 -0.26795772666E+03  0.26795772667E+03  0.25500000920E-02 0.  1.
    10030    2    1    2    0    0  0.00000000000E+00  0.00000000000E+00  0.78179464320E+02  0.61409491767E+03  0.60909813599E+03 0.  0.
        4    1    3    3  502    0  0.19552681199E+02  0.22933891431E+03  0.24014958315E+03  0.33264407427E+03  0.12699999809E+01 0. -1.
       -4    1    3    3    0  502 -0.19552681199E+02 -0.22933891431E+03 -0.16197011883E+03  0.28145084340E+03  0.12699999809E+01 0.  1.
</event>
<event>
 5   0  0.3798925E-02  0.6039410E+03  0.7818609E-02  0.9897263E-01
        2   -1    0    0  501    0  0.00000000000E+00  0.00000000000E+00  0.12628186106E+04  0.12628186106E+04  0.25500000920E-02 0.  1.
       -2   -1    0    0    0  501  0.00000000000E+00  0.00000000000E+00 -0.72208459743E+02  0.72208459788E+02  0.25500000920E-02 0. -1.
    10030    2    1    2    0    0  0.00000000000E+00  0.00000000000E+00  0.11906101509E+04  0.13350270704E+04  0.60394101315E+03 0.  0.
        2    1    3    3  502    0 -0.15437555987E+03  0.87804541904E+02  0.11351656447E+04  0.11489745393E+04  0.25500000920E-02 0.  1.
       -2    1    3    3    0  502  0.15437555987E+03 -0.87804541904E+02  0.55444506206E+02  0.18605253113E+03  0.25500000920E-02 0. -1.
</event>
<event>
 5   0  0.2276105E-02  0.6070832E+03  0.7818609E-02  0.9890819E-01
       -1   -1    0    0    0  501  0.00000000000E+00  0.00000000000E+00  0.91836811487E+02  0.91836811625E+02  0.50400001928E-02 0. -1.
        1   -1    0    0  501    0  0.00000000000E+00  0.00000000000E+00 -0.10032740394E+04  0.10032740394E+04  0.50400001928E-02 0.  1.
    10030    2    1    2    0    0  0.00000000000E+00  0.00000000000E+00 -0.91143722792E+03  0.10951108510E+04  0.60708315381E+03 0.  0.
        1    1    3    3  502    0 -0.18960134536E+03  0.10279896467E+03 -0.84101347172E+03  0.86822805584E+03  0.50400001928E-02 0.  1.
       -1    1    3    3    0  502  0.18960134536E+03 -0.10279896467E+03 -0.70423756197E+02  0.22688279521E+03  0.50400001928E-02 0. -1.
</event>
<event>
 5   0  0.2382531E-02  0.5989408E+03  0.7818609E-02  0.9907606E-01
        1   -1    0    0  501    0  0.00000000000E+00  0.00000000000E+00  0.88329662067E+03  0.88329662068E+03  0.50400001928E-02 0. -1.
       -1   -1    0    0    0  501  0.00000000000E+00  0.00000000000E+00 -0.10153161211E+03  0.10153161223E+03  0.50400001928E-02 0.  1.
    10030    2    1    2    0    0  0.00000000000E+00  0.00000000000E+00  0.78176500856E+03  0.98482823291E+03  0.59894083158E+03 0.  0.
        5    1    3    3  502    0 -0.14424127027E+03  0.67717418421E+01  0.82220222629E+03  0.83479937198E+03  0.46999998093E+01 0. -1.
       -5    1    3    3    0  502  0.14424127027E+03 -0.67717418421E+01 -0.40437217733E+02  0.15002886093E+03  0.46999998093E+01 0.  1.
</event>
<event>
 5   0  0.2276105E-02  0.5726230E+03  0.7818609E-02  0.9963891E-01
        1   -1    0    0  501    0  0.00000000000E+00  0.00000000000E+00  0.20786023383E+03  0.20786023390E+03  0.50400001928E-02 0.  1.
       -1   -1    0    0    0  501  0.00000000000E+00  0.00000000000E+00 -0.39437215176E+03  0.39437215180E+03  0.50400001928E-02 0. -1.
    10030    2    1    2    0    0  0.00000000000E+00  0.00000000000E+00 -0.18651191793E+03  0.60223238569E+03  0.57262304429E+03 0.  0.
        1    1    3    3  502    0  0.69818854380E+02 -0.19635749617E+03  0.11322024560E+03  0.23717032438E+03  0.50400001928E-02 0.  1.
       -1    1    3    3    0  502 -0.69818854380E+02  0.19635749617E+03 -0.29973216353E+03  0.36506206131E+03  0.50400001928E-02 0. -1.
</event>
<event>
 5   0  0.3737642E-02  0.5888733E+03  0.7818609E-02  0.9928763E-01
        2   -1    0    0  501    0  0.00000000000E+00  0.00000000000E+00  0.81482143532E+03  0.81482143532E+03  0.25500000920E-02 0. -1.
       -2   -1    0    0    0  501  0.00000000000E+00  0.00000000000E+00 -0.10639503328E+03  0.10639503331E+03  0.25500000920E-02 0.  1.
    10030    2    1    2    0    0  0.00000000000E+00  0.00000000000E+00  0.70842640204E+03  0.92121646863E+03  0.58887334373E+03 0.  0.
        5    1    3    3  502    0  0.80649894818E+02 -0.17330441573E+03  0.70447879252E+03  0.72996663290E+03  0.46999998093E+01 0. -1.
       -5    1    3    3    0  502 -0.80649894818E+02  0.17330441573E+03  0.39476095253E+01  0.19124983573E+03  0.46999998093E+01 0.  1.
</event>
<event>
 5   0  0.3832191E-02  0.5983057E+03  0.7818609E-02  0.9908927E-01
       -2   -1    0    0    0  501  0.00000000000E+00  0.00000000000E+00  0.13800005062E+03  0.13800005064E+03  0.25500000920E-02 0. -1.
        2   -1    0    0  501    0  0.00000000000E+00  0.00000000000E+00 -0.64849569700E+03  0.64849569701E+03  0.25500000920E-02 0.  1.
    10030    2    1    2    0    0  0.00000000000E+00  0.00000000000E+00 -0.51049564638E+03  0.78649574765E+03  0.59830573798E+03 0.  0.
        3    1    3    3  502    0  0.25265975542E+03 -0.76919085097E+02 -0.70561375856E+02  0.27337230223E+03  0.10100000352E+00 0. -1.
       -3    1    3    3    0  502 -0.25265975542E+03  0.76919085097E+02 -0.43993427053E+03  0.51312344543E+03  0.10100000352E+00 0.  1.
</event>
<event>
 5   0  0.3737642E-02  0.6049865E+03  0.7818609E-02  0.9895114E-01
        2   -1    0    0  501    0  0.00000000000E+00  0.00000000000E+00  0.67542875999E+03  0.67542875999E+03  0.25500000920E-02 0.  1.
       -2   -1    0    0    0  501  0.00000000000E+00  0.00000000000E+00 -0.13547269386E+03  0.13547269388E+03  0.25500000920E-02 0. -1.
    10030    2    1    2    0    0  0.00000000000E+00  0.00000000000E+00  0.53995606613E+03  0.81090145387E+03  0.60498645815E+03 0.  0.
        5    1    3    3  502    0  0.13239833147E+03  0.66200467168E+02 -0.83553327688E+02  0.17004431363E+03  0.46999998093E+01 0. -1.
       -5    1    3    3    0  502 -0.13239833147E+03 -0.66200467168E+02  0.62350939382E+03  0.64085714025E+03  0.46999998093E+01 0.  1.
</event>
<event>
 5   0  0.2225808E-02  0.6015739E+03  0.7818609E-02  0.9902146E-01
        1   -1    0    0  501    0  0.00000000000E+00  0.00000000000E+00  0.15389266828E+04  0.15389266828E+04  0.50400001928E-02 0. -1.
       -1   -1    0    0    0  501  0.00000000000E+00  0.00000000000E+00 -0.58789530610E+02  0.58789530826E+02  0.50400001928E-02 0.  1.
    10030    2    1    2    0    0  0.00000000000E+00  0.00000000000E+00  0.14801371522E+04  0.15977162136E+04  0.60157386081E+03 0.  0.
        2    1    3    3  502    0  0.31820899626E+01  0.27816220798E+03  0.10439153242E+04  0.10803441784E+04  0.25500000920E-02 0. -1.
       -2    1    3    3    0  502 -0.31820899626E+01 -0.27816220798E+03  0.43622182796E+03  0.51737203523E+03  0.25500000920E-02 0.  1.
</event>
<event>
 5   0  0.3724066E-02  0.6019889E+03  0.7818609E-02  0.9901288E-01
       -2   -1    0    0    0  501  0.00000000000E+00  0.00000000000E+00  0.13338183715E+03  0.13338183718E+03  0.25500000920E-02 0. -1.
        2   -1    0    0  501    0  0.00000000000E+00  0.00000000000E+00 -0.67923527060E+03  0.67923527060E+03  0.25500000920E-02 0.  1.
    10030    2    1    2    0    0  0.00000000000E+00  0.00000000000E+00 -0.54585343345E+03  0.81261710778E+03  0.60198886456E+03 0.  0.
        4    1    3    3  502    0 -0.11136543745E+03  0.12238556089E+03 -0.61232485907E+03  0.63429002207E+03  0.12699999809E+01 0.  1.
       -4    1    3    3    0  502  0.11136543745E+03 -0.12238556089E+03  0.66471425619E+02  0.17832708571E+03  0.12699999809E+01 0. -1.
</event>
<event>
 5   0  0.2276105E-02  0.6278319E+03  0.7818609E-02  0.9849289E-01
        1   -1    0    0  501    0  0.00000000000E+00  0.00000000000E+00  0.20176322761E+03  0.20176322767E+03  0.50400001928E-02 0.  1.
       -1   -1    0    0    0  501  0.00000000000E+00  0.00000000000E+00 -0.48841024466E+03  0.48841024469E+03  0.50400001928E-02 0. -1.
    10030    2    1    2    0    0  0.00000000000E+00  0.00000000000E+00 -0.28664701706E+03  0.69017347236E+03  0.62783191187E+03 0.  0.
        1    1    3    3  502    0 -0.21373042581E+03  0.22406426145E+03 -0.86651180097E+02  0.32154924228E+03  0.50400001928E-02 0. -1.
       -1    1    3    3    0  502  0.21373042581E+03 -0.22406426145E+03 -0.19999583696E+03  0.36862423008E+03  0.50400001928E-02 0.  1.
</event>
<event>
 5   0  0.3832191E-02  0.6016502E+03  0.7818609E-02  0.9901988E-01
       -2   -1    0    0    0  501  0.00000000000E+00  0.00000000000E+00  0.12656950578E+03  0.12656950581E+03  0.25500000920E-02 0. -1.
        2   -1    0    0  501    0  0.00000000000E+00  0.00000000000E+00 -0.71498842207E+03  0.71498842207E+03  0.25500000920E-02 0.  1.
    10030    2    1    2    0    0  0.00000000000E+00  0.00000000000E+00 -0.58841891628E+03  0.84155792788E+03  0.60165016824E+03 0.  0.
        3    1    3    3  502    0  0.29540289095E+03 -0.61429177132E+01 -0.21514461790E+03  0.36549667609E+03  0.10100000352E+00 0. -1.
       -3    1    3    3    0  502 -0.29540289095E+03  0.61429177132E+01 -0.37327429838E+03  0.47606125179E+03  0.10100000352E+00 0.  1.
</event>
<event>
 5   0  0.2276105E-02  0.6008162E+03  0.7818609E-02  0.9903714E-01
        1   -1    0    0  501    0  0.00000000000E+00  0.00000000000E+00  0.10341044063E+04  0.10341044063E+04  0.50400001928E-02 0. -1.
       -1   -1    0    0    0  501  0.00000000000E+00  0.00000000000E+00 -0.87268776296E+02  0.87268776441E+02  0.50400001928E-02 0.  1.
    10030    2    1    2    0    0  0.00000000000E+00  0.00000000000E+00  0.94683562998E+03  0.11213731827E+04  0.60081619880E+03 0.  0.
        1    1    3    3  502    0 -0.79633964373E+02  0.87969457860E+02  0.98851096904E+03  0.99560741748E+03  0.50400001928E-02 0. -1.
       -1    1    3    3    0  502  0.79633964373E+02 -0.87969457860E+02 -0.41675339060E+02  0.12576576525E+03  0.50400001928E-02 0.  1.
</event>
<event>
 5   0  0.1521750E-02  0.5963076E+03  0.7818609E-02  0.9913096E-01
        3   -1    0    0  501    0  0.00000000000E+00  0.00000000000E+00  0.10882878344E+04  0.10882878391E+04  0.10100000352E+00 0. -1.
       -3   -1    0    0    0  501  0.00000000000E+00  0.00000000000E+00 -0.81683941735E+02  0.81684004177E+02  0.10100000352E+00 0.  1.
    10030    2    1    2    0    0  0.00000000000E+00  0.00000000000E+00  0.10066038927E+04  0.11699718433E+04  0.59630756939E+03 0.  0.
        5    1    3    3  502    0 -0.17287761631E+03 -0.23595231636E+03  0.61624084877E+03  0.68215470350E+03  0.46999998093E+01 0. -1.
       -5    1    3    3    0  502  0.17287761631E+03  0.23595231636E+03  0.39036304394E+03  0.48781713981E+03  0.46999998093E+01 0.  1.
</event>
<event>
 5   0  0.3737642E-02  0.5957269E+03  0.7818609E-02  0.9914311E-01
        2   -1    0    0  501    0  0.00000000000E+00  0.00000000000E+00  0.36000311323E+03  0.36000311324E+03  0.25500000920E-02 0.  1.
       -2   -1    0    0    0  501  0.00000000000E+00  0.00000000000E+00 -0.24644966728E+03  0.24644966729E+03  0.25500000920E-02 0. -1.
    10030    2    1    2    0    0  0.00000000000E+00  0.00000000000E+00  0.11355344595E+03  0.60645278052E+03  0.59572694241E+03 0.  0.
        5    1    3    3  502    0  0.20559488113E+03  0.11022207967E+03 -0.13171198172E+03  0.26793338374E+03  0.46999998093E+01 0. -1.
       -5    1    3    3    0  502 -0.20559488113E+03 -0.11022207967E+03  0.24526542767E+03  0.33851939679E+03  0.46999998093E+01 0.  1.
</event>
<event>
 5   0  0.2382531E-02  0.5987177E+03  0.7818609E-02  0.9908070E-01
       -1   -1    0    0    0  501  0.00000000000E+00  0.00000000000E+00  0.17179803728E+03  0.17179803735E+03  0.50400001928E-02 0. -1.
        1   -1    0    0  501    0  0.00000000000E+00  0.00000000000E+00 -0.52163415074E+03  0.52163415076E+03  0.50400001928E-02 0.  1.
    10030    2    1    2    0    0  0.00000000000E+00  0.00000000000E+00 -0.34983611346E+03  0.69343218811E+03  0.59871770746E+03 0.  0.
        5    1    3    3  502    0  0.22581935751E+03 -0.12583803256E+03 -0.34966378594E+03  0.43487520723E+03  0.46999998093E+01 0.  1.
       -5    1    3    3    0  502 -0.22581935751E+03  0.12583803256E+03 -0.17232751386E+00  0.25855698088E+03  0.46999998093E+01 0. -1.
</event>
<event>
 5   0  0.2225808E-02  0.5978127E+03  0.7818609E-02  0.9909954E-01
        1   -1    0    0  501    0  0.00000000000E+00  0.00000000000E+00  0.82938516901E+03  0.82938516902E+03  0.50400001928E-02 0. -1.
       -1   -1    0    0    0  501  0.00000000000E+00  0.00000000000E+00 -0.10772439602E+03  0.10772439614E+03  0.50400001928E-02 0.  1.
    10030    2    1    2    0    0  0.00000000000E+00  0.00000000000E+00  0.72166077299E+03  0.93710956516E+03  0.59781273476E+03 0.  0.
        2    1    3    3  502    0 -0.96118245707E+02  0.12788206139E+02 -0.82384950723E+02  0.12723810548E+03  0.25500000920E-02 0.  1.
       -2    1    3    3    0  502  0.96118245707E+02 -0.12788206139E+02  0.80404572371E+03  0.80987145968E+03  0.25500000920E-02 0. -1.
</event>
<event>
 5   0  0.3798925E-02  0.6030494E+03  0.7818609E-02  0.9899100E-01
        2   -1    0    0  501    0  0.00000000000E+00  0.00000000000E+00  0.14505819025E+04  0.14505819025E+04  0.25500000920E-02 0. -1.
       -2   -1    0    0    0  501  0.00000000000E+00  0.00000000000E+00 -0.62676325352E+02  0.62676325404E+02  0.25500000920E-02 0.  1.
    10030    2    1    2    0    0  0.00000000000E+00  0.00000000000E+00  0.13879055771E+04  0.15132582279E+04  0.60304939535E+03 0.  0.
        2    1    3    3  502    0  0.33130171727E+01 -0.29757285288E+03  0.57213805535E+03  0.64490505754E+03  0.25500000920E-02 0.  1.
       -2    1    3    3    0  502 -0.33130171727E+01  0.29757285288E+03  0.81576752176E+03  0.86835317033E+03  0.25500000920E-02 0. -1.
</event>
<event>
 5   0  0.3832191E-02  0.6159333E+03  0.7818609E-02  0.9872890E-01
        2   -1    0    0  501    0  0.00000000000E+00  0.00000000000E+00  0.21113026219E+03  0.21113026221E+03  0.25500000920E-02 0.  1.
       -2   -1    0    0    0  501  0.00000000000E+00  0.00000000000E+00 -0.44921776732E+03  0.44921776733E+03  0.25500000920E-02 0. -1.
    10030    2    1    2    0    0  0.00000000000E+00  0.00000000000E+00 -0.23808750513E+03  0.66034802954E+03  0.61593332433E+03 0.  0.
        3    1    3    3  502    0  0.19909156156E+03  0.23404576580E+03 -0.14123886654E+03  0.33817643028E+03  0.10100000352E+00 0. -1.
       -3    1    3    3    0  502 -0.19909156156E+03 -0.23404576580E+03 -0.96848638591E+02  0.32217159926E+03  0.10100000352E+00 0.  1.
</event>
<event>
 5   0  0.2295179E-02  0.5925625E+03  0.7818609E-02  0.9920958E-01
        1   -1    0    0  501    0  0.00000000000E+00  0.00000000000E+00  0.23951436123E+03  0.23951436128E+03  0.50400001928E-02 0.  1.
       -1   -1    0    0    0  501  0.00000000000E+00  0.00000000000E+00 -0.36650239368E+03  0.36650239371E+03  0.50400001928E-02 0. -1.
    10030    2    1    2    0    0  0.00000000000E+00  0.00000000000E+00 -0.12698803245E+03  0.60601675499E+03  0.59256252577E+03 0.  0.
        3    1    3    3  502    0  0.23715452973E+03 -0.60512783682E+02  0.10726561845E+03  0.26722647897E+03  0.10100000352E+00 0.  1.
       -3    1    3    3    0  502 -0.23715452973E+03  0.60512783682E+02 -0.23425365090E+03  0.33879027602E+03  0.10100000352E+00 0. -1.
</event>
<event>
 5   0  0.1521750E-02  0.5989724E+03  0.7818609E-02  0.9907540E-01
        4   -1    0    0  501    0  0.00000000000E+00  0.00000000000E+00  0.99328145218E+02  0.99336263935E+02  0.12699999809E+01 0. -1.
       -4   -1    0    0    0  501  0.00000000000E+00  0.00000000000E+00 -0.90294107818E+03  0.90294197131E+03  0.12699999809E+01 0.  1.
    10030    2    1    2    0    0  0.00000000000E+00  0.00000000000E+00 -0.80361293296E+03  0.10022782352E+04  0.59897238236E+03 0.  0.
        4    1    3    3  502    0  0.15198488158E+03 -0.23200598927E+03 -0.59085704220E+03  0.65271727455E+03  0.12699999809E+01 0.  1.
       -4    1    3    3    0  502 -0.15198488158E+03  0.23200598927E+03 -0.21275589076E+03  0.34956096069E+03  0.12699999809E+01 0. -1.
</event>
<event>
 5   0  0.3724066E-02  0.5992244E+03  0.7818609E-02  0.9907017E-01
       -2   -1    0    0    0  501  0.00000000000E+00  0.00000000000E+00  0.68833339727E+02  0.68833339774E+02  0.25500000920E-02 0. -1.
        2   -1    0    0  501    0  0.00000000000E+00  0.00000000000E+00 -0.13041275789E+04  0.13041275789E+04  0.25500000920E-02 0.  1.
    10030    2    1    2    0    0  0.00000000000E+00  0.00000000000E+00 -0.12352942391E+04  0.13729609186E+04  0.59922435437E+03 0.  0.
        4    1    3    3  502    0 -0.22930636648E+03  0.18935593978E+03 -0.70116747770E+03  0.76162623794E+03  0.12699999809E+01 0. -1.
       -4    1    3    3    0  502  0.22930636648E+03 -0.18935593978E+03 -0.53412676143E+03  0.61133468069E+03  0.12699999809E+01 0.  1.
</event>
<event>
 5   0  0.3798925E-02  0.6051830E+03  0.7818609E-02  0.9894711E-01
       -2   -1    0    0    0  501  0.00000000000E+00  0.00000000000E+00  0.13147219629E+03  0.13147219631E+03  0.25500000920E-02 0.  1.
        2   -1    0    0  501    0  0.00000000000E+00  0.00000000000E+00 -0.69643325534E+03  0.69643325534E+03  0.25500000920E-02 0. -1.
    10030    2    1    2    0    0  0.00000000000E+00  0.00000000000E+00 -0.56496105905E+03  0.82790545166E+03  0.60518297947E+03 0.  0.
        2    1    3    3  502    0 -0.24200723297E+03  0.15341618559E+03 -0.14943995422E+03  0.32316609775E+03  0.25500000920E-02 0.  1.
       -2    1    3    3    0  502  0.24200723297E+03 -0.15341618559E+03 -0.41552110483E+03  0.50473935391E+03  0.25500000920E-02 0. -1.
</event>
<event>
 5   0  0.1521750E-02  0.5894913E+03  0.7818609E-02  0.9927451E-01
       -4   -1    0    0    0  501  0.00000000000E+00  0.00000000000E+00  0.52339563184E+03  0.52339717264E+03  0.12699999809E+01 0.  1.
        4   -1    0    0  501    0  0.00000000000E+00  0.00000000000E+00 -0.16597919124E+03  0.16598404991E+03  0.12699999809E+01 0. -1.
    10030    2    1    2    0    0  0.00000000000E+00  0.00000000000E+00  0.35741644060E+03  0.68938122256E+03  0.58949127050E+03 0.  0.
        3    1    3    3  502    0  0.17285003945E+02  0.23958384549E+02  0.52166300132E+03  0.52249887340E+03  0.10100000352E+00 0.  1.
       -3    1    3    3    0  502 -0.17285003945E+02 -0.23958384549E+02 -0.16424656072E+03  0.16688234916E+03  0.10100000352E+00 0. -1.
</event>
<event>
 5   0  0.3798925E-02  0.6407161E+03  0.7818609E-02  0.9824357E-01
       -2   -1    0    0    0  501  0.00000000000E+00  0.00000000000E+00  0.17386222096E+03  0.17386222098E+03  0.25500000920E-02 0.  1.
        2   -1    0    0  501    0  0.00000000000E+00  0.00000000000E+00 -0.59029083686E+03  0.59029083686E+03  0.25500000920E-02 0. -1.
    10030    2    1    2    0    0  0.00000000000E+00  0.00000000000E+00 -0.41642861590E+03  0.76415305784E+03  0.64071608663E+03 0.  0.
        2    1    3    3  502    0  0.20771974262E+03 -0.17648298696E+03 -0.40897582655E+03  0.49148241359E+03  0.25500000920E-02 0. -1.
       -2    1    3    3    0  502 -0.20771974262E+03  0.17648298696E+03 -0.74527893451E+01  0.27267064425E+03  0.25500000920E-02 0.  1.
</event>
<event>
 5   0  0.3737642E-02  0.6009597E+03  0.7818609E-02  0.9903417E-01
        2   -1    0    0  501    0  0.00000000000E+00  0.00000000000E+00  0.81468510469E+03  0.81468510470E+03  0.25500000920E-02 0.  1.
       -2   -1    0    0    0  501  0.00000000000E+00  0.00000000000E+00 -0.11082581733E+03  0.11082581736E+03  0.25500000920E-02 0. -1.
    10030    2    1    2    0    0  0.00000000000E+00  0.00000000000E+00  0.70385928736E+03  0.92551092206E+03  0.60095970784E+03 0.  0.
        5    1    3    3  502    0  0.68597858967E+02  0.26118419724E+03  0.14911429067E+03  0.30851258131E+03  0.46999998093E+01 0. -1.
       -5    1    3    3    0  502 -0.68597858967E+02 -0.26118419724E+03  0.55474499669E+03  0.61699834075E+03  0.46999998093E+01 0.  1.
</event>
<event>
 5   0  0.3724066E-02  0.5992813E+03  0.7818609E-02  0.9906898E-01
       -2   -1    0    0    0  501  0.00000000000E+00  0.00000000000E+00  0.73454787096E+03  0.73454787096E+03  0.25500000920E-02 0. -1.
        2   -1    0    0  501    0  0.00000000000E+00  0.00000000000E+00 -0.12223100634E+03  0.12223100637E+03  0.25500000920E-02 0.  1.
    10030    2    1    2    0    0  0.00000000000E+00  0.00000000000E+00  0.61231686461E+03  0.85677887733E+03  0.59928132121E+03 0.  0.
        4    1    3    3  502    0 -0.24903016463E+01  0.27394549083E+03  0.47967778500E+03  0.55239906216E+03  0.12699999809E+01 0.  1.
       -4    1    3    3    0  502  0.24903016463E+01 -0.27394549083E+03  0.13263907961E+03  0.30437981518E+03  0.12699999809E+01 0. -1.
</event>
<event>
 5   0  0.3798925E-02  0.5988990E+03  0.7818609E-02  0.9907693E-01
       -2   -1    0    0    0  501  0.00000000000E+00  0.00000000000E+00  0.42845908504E+02  0.42845908580E+02  0.25500000920E-02 0.  1.
        2   -1    0    0  501    0  0.00000000000E+00  0.00000000000E+00 -0.20928488671E+04  0.20928488671E+04  0.25500000920E-02 0. -1.
    10030    2    1    2    0    0  0.00000000000E+00  0.00000000000E+00 -0.20500029586E+04  0.21356947757E+04  0.59889902707E+03 0.  0.
        2    1    3    3  502    0 -0.22245289214E+03  0.10797699272E+03 -0.16272887219E+04  0.16459686828E+04  0.25500000920E-02 0. -1.
       -2    1    3    3    0  502  0.22245289214E+03 -0.10797699272E+03 -0.42271423669E+03  0.48972609292E+03  0.25500000920E-02 0.  1.
</event>
<event>
 5   0  0.3737642E-02  0.5993776E+03  0.7818609E-02  0.9906698E-01
       -2   -1    0    0    0  501  0.00000000000E+00  0.00000000000E+00  0.36955812803E+02  0.36955812891E+02  0.25500000920E-02 0. -1.
        2   -1    0    0  501    0  0.00000000000E+00  0.00000000000E+00 -0.24302912467E+04  0.24302912467E+04  0.25500000920E-02 0.  1.
    10030    2    1    2    0    0  0.00000000000E+00  0.00000000000E+00 -0.23933354339E+04  0.24672470596E+04  0.59937763882E+03 0.  0.
        5    1    3    3  502    0  0.29322879520E+03 -0.29236886515E+02 -0.97296486584E+03  0.10166221727E+04  0.46999998093E+01 0.  1.
       -5    1    3    3    0  502 -0.29322879520E+03  0.29236886515E+02 -0.14203705681E+04  0.14506248869E+04  0.46999998093E+01 0. -1.
</event>
<event>
 5   0  0.2276105E-02  0.5863413E+03  0.7818609E-02  0.9934156E-01
       -1   -1    0    0    0  501  0.00000000000E+00  0.00000000000E+00  0.11137370605E+03  0.11137370616E+03  0.50400001928E-02 0. -1.
        1   -1    0    0  501    0  0.00000000000E+00  0.00000000000E+00 -0.77171751595E+03  0.77171751597E+03  0.50400001928E-02 0.  1.
    10030    2    1    2    0    0  0.00000000000E+00  0.00000000000E+00 -0.66034380990E+03  0.88309122213E+03  0.58634133346E+03 0.  0.
        1    1    3    3  502    0  0.17322606816E+03  0.78809721162E+01  0.25854273568E+02  0.17532205765E+03  0.50400001928E-02 0. -1.
       -1    1    3    3    0  502 -0.17322606816E+03 -0.78809721162E+01 -0.68619808347E+03  0.70776916448E+03  0.50400001928E-02 0.  1.
</event>
<event>
 5   0  0.3832191E-02  0.6038450E+03  0.7818609E-02  0.9897461E-01
        2   -1    0    0  501    0  0.00000000000E+00  0.00000000000E+00  0.15795269643E+04  0.15795269643E+04  0.25500000920E-02 0. -1.
       -2   -1    0    0    0  501  0.00000000000E+00  0.00000000000E+00 -0.57711710262E+02  0.57711710318E+02  0.25500000920E-02 0.  1.
    10030    2    1    2    0    0  0.00000000000E+00  0.00000000000E+00  0.15218152540E+04  0.16372386746E+04  0.60384502171E+03 0.  0.
        3    1    3    3  502    0 -0.15756442694E+03  0.19521705663E+03  0.12163907370E+04  0.12419914182E+04  0.10100000352E+00 0. -1.
       -3    1    3    3    0  502  0.15756442694E+03 -0.19521705663E+03  0.30542451708E+03  0.39524725638E+03  0.10100000352E+00 0.  1.
</event>
<event>
 5   0  0.2276105E-02  0.6218355E+03  0.7818609E-02  0.9861112E-01
       -1   -1    0    0    0  501  0.00000000000E+00  0.00000000000E+00  0.55919558676E+03  0.55919558678E+03  0.50400001928E-02 0. -1.
        1   -1    0    0  501    0  0.00000000000E+00  0.00000000000E+00 -0.17287304929E+03  0.17287304937E+03  0.50400001928E-02 0.  1.
    10030    2    1    2    0    0  0.00000000000E+00  0.00000000000E+00  0.38632253747E+03  0.73206863615E+03  0.62183549680E+03 0.  0.
        1    1    3    3  502    0  0.23750163617E+03  0.29335593292E+02 -0.40526917801E+02  0.24271389600E+03  0.50400001928E-02 0.  1.
       -1    1    3    3    0  502 -0.23750163617E+03 -0.29335593292E+02  0.42684945527E+03  0.48935474015E+03  0.50400001928E-02 0. -1.
</event>
<event>
 5   0  0.3798925E-02  0.6007312E+03  0.7818609E-02  0.9903890E-01
        2   -1    0    0  501    0  0.00000000000E+00  0.00000000000E+00  0.12704987170E+04  0.12704987170E+04  0.25500000920E-02 0. -1.
       -2   -1    0    0    0  501  0.00000000000E+00  0.00000000000E+00 -0.71011084884E+02  0.71011084930E+02  0.25500000920E-02 0.  1.
    10030    2    1    2    0    0  0.00000000000E+00  0.00000000000E+00  0.11994876321E+04  0.13415098019E+04  0.60073119536E+03 0.  0.
        2    1    3    3  502    0 -0.22506523204E+03 -0.74444961760E+02  0.18783556981E+03  0.30245431440E+03  0.25500000920E-02 0.  1.
       -2    1    3    3    0  502  0.22506523204E+03  0.74444961760E+02  0.10116520623E+04  0.10390554875E+04  0.25500000920E-02 0. -1.
</event>
<event>
 5   0  0.3737642E-02  0.5938969E+03  0.7818609E-02  0.9918150E-01
        2   -1    0    0  501    0  0.00000000000E+00  0.00000000000E+00  0.11467126627E+04  0.11467126627E+04  0.25500000920E-02 0.  1.
       -2   -1    0    0    0  501  0.00000000000E+00  0.00000000000E+00 -0.76896656749E+02  0.76896656792E+02  0.25500000920E-02 0. -1.
    10030    2    1    2    0    0  0.00000000000E+00  0.00000000000E+00  0.10698160060E+04  0.12236093195E+04  0.59389685987E+03 0.  0.
        5    1    3    3  502    0  0.16831665426E+03 -0.11754285708E+03  0.97683986938E+03  0.99819088343E+03  0.46999998093E+01 0.  1.
       -5    1    3    3    0  502 -0.16831665426E+03  0.11754285708E+03  0.92976136582E+02  0.22541843608E+03  0.46999998093E+01 0. -1.
</event>
<event>
 5   0  0.2276105E-02  0.5996650E+03  0.7818609E-02  0.9906101E-01
        1   -1    0    0  501    0  0.00000000000E+00  0.00000000000E+00  0.97719070473E+02  0.97719070603E+02  0.50400001928E-02 0. -1.
       -1   -1    0    0    0  501  0.00000000000E+00  0.00000000000E+00 -0.91997950356E+03  0.91997950357E+03  0.50400001928E-02 0.  1.
    10030    2    1    2    0    0  0.00000000000E+00  0.00000000000E+00 -0.82226043309E+03  0.10176985742E+04  0.59966504656E+03 0.  0.
        1    1    3    3  502    0  0.18101539807E+03 -0.20249995141E+03 -0.19561214768E+03  0.33471916139E+03  0.50400001928E-02 0. -1.
       -1    1    3    3    0  502 -0.18101539807E+03  0.20249995141E+03 -0.62664828541E+03  0.68297941279E+03  0.50400001928E-02 0.  1.
</event>
<event>
 5   0  0.2309055E-02  0.6021544E+03  0.7818609E-02  0.9900946E-01
       -1   -1    0    0    0  501  0.00000000000E+00  0.00000000000E+00  0.52521032107E+02  0.52521032349E+02  0.50400001928E-02 0.  1.
        1   -1    0    0  501    0  0.00000000000E+00  0.00000000000E+00 -0.17259274822E+04  0.17259274822E+04  0.50400001928E-02 0. -1.
    10030    2    1    2    0    0  0.00000000000E+00  0.00000000000E+00 -0.16734064501E+04  0.17784485146E+04  0.60215444174E+03 0.  0.
        4    1    3    3  502    0 -0.27968660262E+03  0.97994301426E+02 -0.99349916495E+03  0.10367592211E+04  0.12699999809E+01 0.  1.
       -4    1    3    3    0  502  0.27968660262E+03 -0.97994301426E+02 -0.67990728514E+03  0.74168929349E+03  0.12699999809E+01 0. -1.
</event>
<event>
 5   0  0.2295179E-02  0.6006583E+03  0.7818609E-02  0.9904041E-01
       -1   -1    0    0    0  501  0.00000000000E+00  0.00000000000E+00  0.11486039509E+03  0.11486039520E+03  0.50400001928E-02 0.  1.
        1   -1    0    0  501    0  0.00000000000E+00  0.00000000000E+00 -0.78528029152E+03  0.78528029154E+03  0.50400001928E-02 0. -1.
    10030    2    1    2    0    0  0.00000000000E+00  0.00000000000E+00 -0.67041989644E+03  0.90014068674E+03  0.60065832083E+03 0.  0.
        3    1    3    3  502    0 -0.21944640229E+03 -0.20240105561E+03 -0.38433728330E+03  0.48666011581E+03  0.10100000352E+00 0.  1.
       -3    1    3    3    0  502  0.21944640229E+03  0.20240105561E+03 -0.28608261314E+03  0.41348057092E+03  0.10100000352E+00 0. -1.
</event>
<event>
 5   0  0.2382531E-02  0.5993110E+03  0.7818609E-02  0.9906837E-01
        1   -1    0    0  501    0  0.00000000000E+00  0.00000000000E+00  0.53549579593E+03  0.53549579596E+03  0.50400001928E-02 0.  1.
       -1   -1    0    0    0  501  0.00000000000E+00  0.00000000000E+00 -0.16768275281E+03  0.16768275289E+03  0.50400001928E-02 0. -1.
    10030    2    1    2    0    0  0.00000000000E+00  0.00000000000E+00  0.36781304312E+03  0.70317854885E+03  0.59931096842E+03 0.  0.
        5    1    3    3  502    0  0.31981704371E+02  0.20755297682E+03 -0.66837212901E+02  0.22043223591E+03  0.46999998093E+01 0. -1.
       -5    1    3    3    0  502 -0.31981704371E+02 -0.20755297682E+03  0.43465025602E+03  0.48274631294E+03  0.46999998093E+01 0.  1.
</event>
<event>
 5   0  0.2382531E-02  0.5978616E+03  0.7818609E-02  0.9909852E-01
       -1   -1    0    0    0  501  0.00000000000E+00  0.00000000000E+00  0.11328452781E+03  0.11328452792E+03  0.50400001928E-02 0.  1.
        1   -1    0    0  501    0  0.00000000000E+00  0.00000000000E+00 -0.78880702516E+03  0.78880702518E+03  0.50400001928E-02 0. -1.
    10030    2    1    2    0    0  0.00000000000E+00  0.00000000000E+00 -0.67552249736E+03  0.90209155310E+03  0.59786162758E+03 0.  0.
        5    1    3    3  502    0 -0.76566398193E+02  0.27309010710E+03 -0.48008252039E+03  0.55762167848E+03  0.46999998093E+01 0. -1.
       -5    1    3    3    0  502  0.76566398193E+02 -0.27309010710E+03 -0.19543997696E+03  0.34446987462E+03  0.46999998093E+01 0.  1.
</event>
<event>
 5   0  0.2295179E-02  0.6007689E+03  0.7818609E-02  0.9903812E-01
       -1   -1    0    0    0  501  0.00000000000E+00  0.00000000000E+00  0.22930926935E+03  0.22930926940E+03  0.50400001928E-02 0. -1.
        1   -1    0    0  501    0  0.00000000000E+00  0.00000000000E+00 -0.39348963178E+03  0.39348963181E+03  0.50400001928E-02 0.  1.
    10030    2    1    2    0    0  0.00000000000E+00  0.00000000000E+00 -0.16418036243E+03  0.62279890121E+03  0.60076890727E+03 0.  0.
        3    1    3    3  502    0 -0.78135185879E+02 -0.28677944454E+03 -0.37102388105E+02  0.29953990467E+03  0.10100000352E+00 0. -1.
       -3    1    3    3    0  502  0.78135185879E+02  0.28677944454E+03 -0.12707797433E+03  0.32325899654E+03  0.10100000352E+00 0.  1.
</event>
<event>
 5   0  0.3737642E-02  0.6019280E+03  0.7818609E-02  0.9901414E-01
       -2   -1    0    0    0  501  0.00000000000E+00  0.00000000000E+00  0.30227775816E+04  0.30227775816E+04  0.25500000920E-02 0.  1.
        2   -1    0    0  501    0  0.00000000000E+00  0.00000000000E+00 -0.29965595080E+02  0.29965595189E+02  0.25500000920E-02 0. -1.
    10030    2    1    2    0    0  0.00000000000E+00  0.00000000000E+00  0.29928119865E+04  0.30527431768E+04  0.60192799966E+03 0.  0.
        5    1    3    3  502    0 -0.20122339545E+03  0.82009526925E+02  0.25522367147E+04  0.25614743324E+04  0.46999998093E+01 0.  1.
       -5    1    3    3    0  502  0.20122339545E+03 -0.82009526925E+02  0.44057527177E+03  0.49126884440E+03  0.46999998093E+01 0. -1.
</event>
<event>
 5   0  0.1521750E-02  0.5983935E+03  0.7818609E-02  0.9908745E-01
       -3   -1    0    0    0  501  0.00000000000E+00  0.00000000000E+00  0.50052950308E+03  0.50052951327E+03  0.10100000352E+00 0. -1.
        3   -1    0    0  501    0  0.00000000000E+00  0.00000000000E+00 -0.17884793557E+03  0.17884796409E+03  0.10100000352E+00 0.  1.
    10030    2    1    2    0    0  0.00000000000E+00  0.00000000000E+00  0.32168156751E+03  0.67937747736E+03  0.59839345407E+03 0.  0.
        3    1    3    3  502    0 -0.92008280785E+02 -0.12855330389E+03  0.44924108281E+03  0.47624472318E+03  0.10100000352E+00 0. -1.
       -3    1    3    3    0  502  0.92008280785E+02  0.12855330389E+03 -0.12755951530E+03  0.20313275418E+03  0.10100000352E+00 0.  1.
</event>
<event>
 5   0  0.2382531E-02  0.5870527E+03  0.7818609E-02  0.9932638E-01
       -1   -1    0    0    0  501  0.00000000000E+00  0.00000000000E+00  0.79815378976E+02  0.79815379135E+02  0.50400001928E-02 0.  1.
        1   -1    0    0  501    0  0.00000000000E+00  0.00000000000E+00 -0.10794627970E+04  0.10794627971E+04  0.50400001928E-02 0. -1.
    10030    2    1    2    0    0  0.00000000000E+00  0.00000000000E+00 -0.99964741807E+03  0.11592781762E+04  0.58705274835E+03 0.  0.
        5    1    3    3  502    0  0.24126705005E+03 -0.16699499914E+03 -0.48756706793E+03  0.56907016695E+03  0.46999998093E+01 0.  1.
       -5    1    3    3    0  502 -0.24126705005E+03  0.16699499914E+03 -0.51208035014E+03  0.59020800925E+03  0.46999998093E+01 0. -1.
</event>
<event>
 5   0  0.3737642E-02  0.6253759E+03  0.7818609E-02  0.9854114E-01
        2   -1    0    0  501    0  0.00000000000E+00  0.00000000000E+00  0.24702330906E+04  0.24702330906E+04  0.25500000920E-02 0. -1.
       -2   -1    0    0    0  501  0.00000000000E+00  0.00000000000E+00 -0.39580786236E+02  0.39580786318E+02  0.25500000920E-02 0.  1.
    10030    2    1    2    0    0  0.00000000000E+00  0.00000000000E+00  0.24306523044E+04  0.25098138770E+04  0.62537594459E+03 0.  0.
        5    1    3    3  502    0 -0.17156675041E+03 -0.69406777938E+02  0.22266367650E+04  0.22343199914E+04  0.46999998093E+01 0. -1.
       -5    1    3    3    0  502  0.17156675041E+03  0.69406777938E+02  0.20401553940E+03  0.27549388557E+03  0.46999998093E+01 0.  1.
</event>
<event>
 5   0  0.2309055E-02  0.6034078E+03  0.7818609E-02  0.9898361E-01
        1   -1    0    0  501    0  0.00000000000E+00  0.00000000000E+00  0.11000673986E+03  0.11000673998E+03  0.50400001928E-02 0. -1.
       -1   -1    0    0    0  501  0.00000000000E+00  0.00000000000E+00 -0.82745155421E+03  0.82745155423E+03  0.50400001928E-02 0.  1.
    10030    2    1    2    0    0  0.00000000000E+00  0.00000000000E+00 -0.71744481435E+03  0.93745829421E+03  0.60340781545E+03 0.  0.
        4    1    3    3  502    0  0.25254586004E+03 -0.13336721308E+02 -0.61431950339E+03  0.66433978106E+03  0.12699999809E+01 0.  1.
       -4    1    3    3    0  502 -0.25254586004E+03  0.13336721308E+02 -0.10312531096E+03  0.27311851314E+03  0.12699999809E+01 0. -1.
</event>
<event>
 5   0  0.2382531E-02  0.5994731E+03  0.7818609E-02  0.9906500E-01
       -1   -1    0    0    0  501  0.00000000000E+00  0.00000000000E+00  0.14512738450E+03  0.14512738459E+03  0.50400001928E-02 0. -1.
        1   -1    0    0  501    0  0.00000000000E+00  0.00000000000E+00 -0.61905616598E+03  0.61905616600E+03  0.50400001928E-02 0.  1.
    10030    2    1    2    0    0  0.00000000000E+00  0.00000000000E+00 -0.47392878148E+03  0.76418355059E+03  0.59947310955E+03 0.  0.
        5    1    3    3  502    0  0.20068534155E+03  0.11258844899E+03  0.78063622449E+01  0.23029067383E+03  0.46999998093E+01 0. -1.
       -5    1    3    3    0  502 -0.20068534155E+03 -0.11258844899E+03 -0.48173514372E+03  0.53389287676E+03  0.46999998093E+01 0.  1.
</event>
<event>
 5   0  0.3832191E-02  0.6060478E+03  0.7818609E-02  0.9892938E-01
        2   -1    0    0  501    0  0.00000000000E+00  0.00000000000E+00  0.16459901771E+04  0.16459901771E+04  0.25500000920E-02 0.  1.
       -2   -1    0    0    0  501  0.00000000000E+00  0.00000000000E+00 -0.55786167628E+02  0.55786167687E+02  0.25500000920E-02 0. -1.
    10030    2    1    2    0    0  0.00000000000E+00  0.00000000000E+00  0.15902040095E+04  0.17017763448E+04  0.60604780005E+03 0.  0.
        3    1    3    3  502    0 -0.11029425288E+03  0.21989640307E+03  0.29828429192E+03  0.38664296102E+03  0.10100000352E+00 0. -1.
       -3    1    3    3    0  502  0.11029425288E+03 -0.21989640307E+03  0.12919197176E+04  0.13151333838E+04  0.10100000352E+00 0.  1.
</event>
<event>
 5   0  0.3737642E-02  0.6201858E+03  0.7818609E-02  0.9864390E-01
        2   -1    0    0  501    0  0.00000000000E+00  0.00000000000E+00  0.78467711809E+03  0.78467711810E+03  0.25500000920E-02 0. -1.
       -2   -1    0    0    0  501  0.00000000000E+00  0.00000000000E+00 -0.12254417582E+03  0.12254417584E+03  0.25500000920E-02 0.  1.
    10030    2    1    2    0    0  0.00000000000E+00  0.00000000000E+00  0.66213294228E+03  0.90722129394E+03  0.62018581323E+03 0.  0.
        5    1    3    3  502    0  0.15292810701E+03  0.20151360939E+03  0.68813984905E+02  0.26220639810E+03  0.46999998093E+01 0.  1.
       -5    1    3    3    0  502 -0.15292810701E+03 -0.20151360939E+03  0.59331895737E+03  0.64501489584E+03  0.46999998093E+01 0. -1.
</event>
<event>
 5   0  0.2382531E-02  0.5996604E+03  0.7818609E-02  0.9906111E-01
       -1   -1    0    0    0  501  0.00000000000E+00  0.00000000000E+00  0.30111234490E+03  0.30111234494E+03  0.50400001928E-02 0.  1.
        1   -1    0    0  501    0  0.00000000000E+00  0.00000000000E+00 -0.29855352467E+03  0.29855352472E+03  0.50400001928E-02 0. -1.
    10030    2    1    2    0    0  0.00000000000E+00  0.00000000000E+00  0.25588202236E+01  0.59966586966E+03  0.59966041029E+03 0.  0.
        5    1    3    3  502    0  0.28143557241E+03 -0.68246515507E+02 -0.76261566780E+02  0.29950206154E+03  0.46999998093E+01 0. -1.
       -5    1    3    3    0  502 -0.28143557241E+03  0.68246515507E+02  0.78820387004E+02  0.30016380812E+03  0.46999998093E+01 0.  1.
</event>
<event>
 5   0  0.3724066E-02  0.5996769E+03  0.7818609E-02  0.9906077E-01
        2   -1    0    0  501    0  0.00000000000E+00  0.00000000000E+00  0.72395268653E+03  0.72395268653E+03  0.25500000920E-02 0. -1.
       -2   -1    0    0    0  501  0.00000000000E+00  0.00000000000E+00 -0.12418366369E+03  0.12418366371E+03  0.25500000920E-02 0.  1.
    10030    2    1    2    0    0  0.00000000000E+00  0.00000000000E+00  0.59976902284E+03  0.84813635025E+03  0.59967690288E+03 0.  0.
        4    1    3    3  502    0  0.12942915685E+03 -0.27039447326E+03  0.30841819060E+03  0.43010286096E+03  0.12699999809E+01 0.  1.
       -4    1    3    3    0  502 -0.12942915685E+03  0.27039447326E+03  0.29135083224E+03  0.41803348928E+03  0.12699999809E+01 0. -1.
</event>
<event>
 5   0  0.2276105E-02  0.5604467E+03  0.7818609E-02  0.9991044E-01
        1   -1    0    0  501    0  0.00000000000E+00  0.00000000000E+00  0.12987468362E+04  0.12987468362E+04  0.50400001928E-02 0. -1.
       -1   -1    0    0    0  501  0.00000000000E+00  0.00000000000E+00 -0.60462222410E+02  0.60462222620E+02  0.50400001928E-02 0.  1.
    10030    2    1    2    0    0  0.00000000000E+00  0.00000000000E+00  0.12382846138E+04  0.13592090588E+04  0.56044667977E+03 0.  0.
        1    1    3    3  502    0  0.17938602709E+03 -0.10649944384E+03  0.10728838838E+04  0.10929781821E+04  0.50400001928E-02 0. -1.
       -1    1    3    3    0  502 -0.17938602709E+03  0.10649944384E+03  0.16540072998E+03  0.26623087679E+03  0.50400001928E-02 0.  1.
</event>
<event>
 5   0  0.2225808E-02  0.6023033E+03  0.7818609E-02  0.9900639E-01
        1   -1    0    0  501    0  0.00000000000E+00  0.00000000000E+00  0.22441507769E+03  0.22441507775E+03  0.50400001928E-02 0. -1.
       -1   -1    0    0    0  501  0.00000000000E+00  0.00000000000E+00 -0.40412754079E+03  0.40412754082E+03  0.50400001928E-02 0.  1.
    10030    2    1    2    0    0  0.00000000000E+00  0.00000000000E+00 -0.17971246309E+03  0.62854261857E+03  0.60230329068E+03 0.  0.
        2    1    3    3  502    0 -0.28674502254E+03 -0.55097593950E+01 -0.18572372480E+03  0.34168167548E+03  0.25500000920E-02 0.  1.
       -2    1    3    3    0  502  0.28674502254E+03  0.55097593950E+01  0.60112617071E+01  0.28686094309E+03  0.25500000920E-02 0. -1.
</event>
<event>
 5   0  0.2309055E-02  0.5999667E+03  0.7818609E-02  0.9905475E-01
        1   -1    0    0  501    0  0.00000000000E+00  0.00000000000E+00  0.67023716824E+03  0.67023716826E+03  0.50400001928E-02 0. -1.
       -1   -1    0    0    0  501  0.00000000000E+00  0.00000000000E+00 -0.13426593362E+03  0.13426593371E+03  0.50400001928E-02 0.  1.
    10030    2    1    2    0    0  0.00000000000E+00  0.00000000000E+00  0.53597123462E+03  0.80450310197E+03  0.59996672969E+03 0.  0.
        4    1    3    3  502    0  0.22328517722E+03  0.74271857096E+02  0.18504366961E+02  0.23604364770E+03  0.12699999809E+01 0.  1.
       -4    1    3    3    0  502 -0.22328517722E+03 -0.74271857096E+02  0.51746686766E+03  0.56845945427E+03  0.12699999809E+01 0. -1.
</event>
<event>
 5   0  0.2309055E-02  0.5983061E+03  0.7818609E-02  0.9908927E-01
        1   -1    0    0  501    0  0.00000000000E+00  0.00000000000E+00  0.19492742516E+04  0.19492742516E+04  0.50400001928E-02 0. -1.
       -1   -1    0    0    0  501  0.00000000000E+00  0.00000000000E+00 -0.45910697109E+02  0.45910697386E+02  0.50400001928E-02 0.  1.
    10030    2    1    2    0    0  0.00000000000E+00  0.00000000000E+00  0.19033635545E+04  0.19951849490E+04  0.59830607562E+03 0.  0.
        4    1    3    3  502    0  0.96492943850E+02 -0.21505523311E+03  0.15659526244E+04  0.15835936588E+04  0.12699999809E+01 0. -1.
       -4    1    3    3    0  502 -0.96492943850E+02  0.21505523311E+03  0.33741093010E+03  0.41159129018E+03  0.12699999809E+01 0.  1.
</event>
<event>
 5   0  0.2276105E-02  0.5996451E+03  0.7818609E-02  0.9906143E-01
       -1   -1    0    0    0  501  0.00000000000E+00  0.00000000000E+00  0.16572553273E+03  0.16572553281E+03  0.50400001928E-02 0.  1.
        1   -1    0    0  501    0  0.00000000000E+00  0.00000000000E+00 -0.54242438131E+03  0.54242438134E+03  0.50400001928E-02 0. -1.
    10030    2    1    2    0    0  0.00000000000E+00  0.00000000000E+00 -0.37669884858E+03  0.70814991414E+03  0.59964512704E+03 0.  0.
        1    1    3    3  502    0  0.19874504449E+02  0.28336004006E+03 -0.75041992756E+02  0.29380130859E+03  0.50400001928E-02 0.  1.
       -1    1    3    3    0  502 -0.19874504449E+02 -0.28336004006E+03 -0.30165685583E+03  0.41434860555E+03  0.50400001928E-02 0. -1.
</event>
<event>
 5   0  0.2382531E-02  0.6006632E+03  0.7818609E-02  0.9904031E-01
        1   -1    0    0  501    0  0.00000000000E+00  0.00000000000E+00  0.10351785750E+04  0.10351785750E+04  0.50400001928E-02 0.  1.
       -1   -1    0    0    0  501  0.00000000000E+00  0.00000000000E+00 -0.87133827666E+02  0.87133827811E+02  0.50400001928E-02 0. -1.
    10030    2    1    2    0    0  0.00000000000E+00  0.00000000000E+00  0.94804474735E+03  0.11223124028E+04  0.60066320562E+03 0.  0.
        5    1    3    3  502    0  0.28209213182E+03  0.97500414751E+02  0.53584199097E+03  0.61337674475E+03  0.46999998093E+01 0. -1.
       -5    1    3    3    0  502 -0.28209213182E+03 -0.97500414751E+02  0.41220275637E+03  0.50893565809E+03  0.46999998093E+01 0.  1.
</event>
<event>
 5   0  0.3724066E-02  0.6014415E+03  0.7818609E-02  0.9902420E-01
        2   -1    0    0  501    0  0.00000000000E+00  0.00000000000E+00  0.44991301174E+03  0.44991301175E+03  0.25500000920E-02 0.  1.
       -2   -1    0    0    0  501  0.00000000000E+00  0.00000000000E+00 -0.20100101539E+03  0.20100101541E+03  0.25500000920E-02 0. -1.
    10030    2    1    2    0    0  0.00000000000E+00  0.00000000000E+00  0.24891199635E+03  0.65091402715E+03  0.60144150906E+03 0.  0.
        4    1    3    3  502    0  0.27000377307E+03 -0.10899208466E+03  0.20580575800E+03  0.35656547073E+03  0.12699999809E+01 0.  1.
       -4    1    3    3    0  502 -0.27000377307E+03  0.10899208466E+03  0.43106238346E+02  0.29434855643E+03  0.12699999809E+01 0. -1.
</event>
<event>
 5   0  0.2382531E-02  0.6232371E+03  0.7818609E-02  0.9858336E-01
        1   -1    0    0  501    0  0.00000000000E+00  0.00000000000E+00  0.10452111760E+03  0.10452111772E+03  0.50400001928E-02 0.  1.
       -1   -1    0    0    0  501  0.00000000000E+00  0.00000000000E+00 -0.92905751464E+03  0.92905751465E+03  0.50400001928E-02 0. -1.
    10030    2    1    2    0    0  0.00000000000E+00  0.00000000000E+00 -0.82453639703E+03  0.10335786324E+04  0.62323712924E+03 0.  0.
        5    1    3    3  502    0 -0.58946780778E+02 -0.19231289692E+03 -0.80690225946E+03  0.83160827293E+03  0.46999998093E+01 0. -1.
       -5    1    3    3    0  502  0.58946780778E+02  0.19231289692E+03 -0.17634137574E+02  0.20197035944E+03  0.46999998093E+01 0.  1.
</event>
<event>
 5   0  0.3724066E-02  0.6017131E+03  0.7818609E-02  0.9901858E-01
        2   -1    0    0  501    0  0.00000000000E+00  0.00000000000E+00  0.22481152881E+03  0.22481152882E+03  0.25500000920E-02 0. -1.
       -2   -1    0    0    0  501  0.00000000000E+00  0.00000000000E+00 -0.40262464844E+03  0.40262464845E+03  0.25500000920E-02 0.  1.
    10030    2    1    2    0    0  0.00000000000E+00  0.00000000000E+00 -0.17781311964E+03  0.62743617727E+03  0.60171309695E+03 0.  0.
        4    1    3    3  502    0  0.27754040640E+02  0.85902495506E+02  0.21035266903E+03  0.22890911684E+03  0.12699999809E+01 0. -1.
       -4    1    3    3    0  502 -0.27754040640E+02 -0.85902495506E+02 -0.38816578867E+03  0.39852706043E+03  0.12699999809E+01 0.  1.
</event>
<event>
 5   0  0.2276105E-02  0.5976414E+03  0.7818609E-02  0.9910312E-01
        1   -1    0    0  501    0  0.00000000000E+00  0.00000000000E+00  0.58005621557E+03  0.58005621559E+03  0.50400001928E-02 0.  1.
       -1   -1    0    0    0  501  0.00000000000E+00  0.00000000000E+00 -0.15393992773E+03  0.15393992781E+03  0.50400001928E-02 0. -1.
    10030    2    1    2    0    0  0.00000000000E+00  0.00000000000E+00  0.42611628784E+03  0.73399614340E+03  0.59764140399E+03 0.  0.
        1    1    3    3  502    0 -0.53025342738E+02 -0.14683419298E+03 -0.99872811774E+02  0.18532821091E+03  0.50400001928E-02 0. -1.
       -1    1    3    3    0  502  0.53025342738E+02  0.14683419298E+03  0.52598909961E+03  0.54866793249E+03  0.50400001928E-02 0.  1.
</event>
<event>
 5   0  0.1521750E-02  0.5829909E+03  0.7818609E-02  0.9941337E-01
        3   -1    0    0  501    0  0.00000000000E+00  0.00000000000E+00  0.47857574265E+03  0.47857575331E+03  0.10100000352E+00 0. -1.
       -3   -1    0    0    0  501  0.00000000000E+00  0.00000000000E+00 -0.17754679890E+03  0.17754682763E+03  0.10100000352E+00 0.  1.
    10030    2    1    2    0    0  0.00000000000E+00  0.00000000000E+00  0.30102894375E+03  0.65612258094E+03  0.58299092295E+03 0.  0.
        4    1    3    3  502    0 -0.19039273986E+03  0.16866801681E+03  0.31074556958E+03  0.40157529456E+03  0.12699999809E+01 0. -1.
       -4    1    3    3    0  502  0.19039273986E+03 -0.16866801681E+03 -0.97166258261E+01  0.25454728638E+03  0.12699999809E+01 0.  1.
</event>
<event>
 5   0  0.3934634E-02  0.6006708E+03  0.7818609E-02  0.9904015E-01
        2   -1    0    0  501    0  0.00000000000E+00  0.00000000000E+00  0.12685133949E+04  0.12685133949E+04  0.25500000920E-02 0. -1.
       -2   -1    0    0    0  501  0.00000000000E+00  0.00000000000E+00 -0.71107914473E+02  0.71107914519E+02  0.25500000920E-02 0.  1.
    10030    2    1    2    0    0  0.00000000000E+00  0.00000000000E+00  0.11974054805E+04  0.13396213095E+04  0.60067076515E+03 0.  0.
        1    1    3    3  502    0  0.79972840695E+02  0.16493841206E+03  0.68114486891E+02  0.19555029627E+03  0.50400001928E-02 0.  1.
       -1    1    3    3    0  502 -0.79972840695E+02 -0.16493841206E+03  0.11292909936E+04  0.11440710132E+04  0.50400001928E-02 0. -1.
</event>
<event>
 5   0  0.2276105E-02  0.5931901E+03  0.7818609E-02  0.9919636E-01
        1   -1    0    0  501    0  0.00000000000E+00  0.00000000000E+00  0.58452983019E+03  0.58452983021E+03  0.50400001928E-02 0.  1.
       -1   -1    0    0    0  501  0.00000000000E+00  0.00000000000E+00 -0.15049464906E+03  0.15049464914E+03  0.50400001928E-02 0. -1.
    10030    2    1    2    0    0  0.00000000000E+00  0.00000000000E+00  0.43403518113E+03  0.73502447935E+03  0.59319005958E+03 0.  0.
        1    1    3    3  502    0  0.29418651343E+03  0.36901882147E+02  0.20732734347E+03  0.36179010624E+03  0.50400001928E-02 0. -1.
       -1    1    3    3    0  502 -0.29418651343E+03 -0.36901882147E+02  0.22670783766E+03  0.37323437311E+03  0.50400001928E-02 0.  1.
</event>
<event>
 5   0  0.3798925E-02  0.5991400E+03  0.7818609E-02  0.9907192E-01
        2   -1    0    0  501    0  0.00000000000E+00  0.00000000000E+00  0.47903595385E+03  0.47903595386E+03  0.25500000920E-02 0.  1.
       -2   -1    0    0    0  501  0.00000000000E+00  0.00000000000E+00 -0.18733914396E+03  0.18733914397E+03  0.25500000920E-02 0. -1.
    10030    2    1    2    0    0  0.00000000000E+00  0.00000000000E+00  0.29169680990E+03  0.66637509783E+03  0.59914000209E+03 0.  0.
        2    1    3    3  502    0  0.12929278031E+03  0.10216013989E+03  0.42410085187E+03  0.45498884578E+03  0.25500000920E-02 0.  1.
       -2    1    3    3    0  502 -0.12929278031E+03 -0.10216013989E+03 -0.13240404197E+03  0.21138625206E+03  0.25500000920E-02 0. -1.
</event>
<event>
 5   0  0.2276105E-02  0.5978096E+03  0.7818609E-02  0.9909961E-01
       -1   -1    0    0    0  501  0.00000000000E+00  0.00000000000E+00  0.21239082131E+03  0.21239082137E+03  0.50400001928E-02 0.  1.
        1   -1    0    0  501    0  0.00000000000E+00  0.00000000000E+00 -0.42065891783E+03  0.42065891786E+03  0.50400001928E-02 0. -1.
    10030    2    1    2    0    0  0.00000000000E+00  0.00000000000E+00 -0.20826809652E+03  0.63304973922E+03  0.59780964554E+03 0.  0.
        1    1    3    3  502    0 -0.11130987407E+03 -0.12841206196E+03  0.15625656182E+03  0.23085852564E+03  0.50400001928E-02 0.  1.
       -1    1    3    3    0  502  0.11130987407E+03  0.12841206196E+03 -0.36452465834E+03  0.40219121358E+03  0.50400001928E-02 0. -1.
</event>
<event>
 5   0  0.2295179E-02  0.6031099E+03  0.7818609E-02  0.9898975E-01
       -1   -1    0    0    0  501  0.00000000000E+00  0.00000000000E+00  0.14290332803E+03  0.14290332812E+03  0.50400001928E-02 0. -1.
        1   -1    0    0  501    0  0.00000000000E+00  0.00000000000E+00 -0.63634189438E+03  0.63634189440E+03  0.50400001928E-02 0.  1.
    10030    2    1    2    0    0  0.00000000000E+00  0.00000000000E+00 -0.49343856635E+03  0.77924522252E+03  0.60310985572E+03 0.  0.
        3    1    3    3  502    0 -0.24796434275E+03 -0.10581867755E+03 -0.72166616949E+02  0.27909127288E+03  0.10100000352E+00 0. -1.
       -3    1    3    3    0  502  0.24796434275E+03  0.10581867755E+03 -0.42127194940E+03  0.50015394965E+03  0.10100000352E+00 0.  1.
</event>
<event>
 5   0  0.2276105E-02  0.6127335E+03  0.7818609E-02  0.9879335E-01
       -1   -1    0    0    0  501  0.00000000000E+00  0.00000000000E+00  0.14011257608E+03  0.14011257617E+03  0.50400001928E-02 0.  1.
        1   -1    0    0  501    0  0.00000000000E+00  0.00000000000E+00 -0.66989398294E+03  0.66989398296E+03  0.50400001928E-02 0. -1.
    10030    2    1    2    0    0  0.00000000000E+00  0.00000000000E+00 -0.52978140685E+03  0.81000655913E+03  0.61273345493E+03 0.  0.
        1    1    3    3  502    0  0.57867831627E+02  0.15489900509E+03 -0.60583790825E+03  0.62799837485E+03  0.50400001928E-02 0. -1.
       -1    1    3    3    0  502 -0.57867831627E+02 -0.15489900509E+03  0.76056501400E+02  0.18200818428E+03  0.50400001928E-02 0.  1.
</event>
<event>
 5   0  0.3737642E-02  0.5993277E+03  0.7818609E-02  0.9906802E-01
       -2   -1    0    0    0  501  0.00000000000E+00  0.00000000000E+00  0.51231424829E+03  0.51231424829E+03  0.25500000920E-02 0.  1.
        2   -1    0    0  501    0  0.00000000000E+00  0.00000000000E+00 -0.17527998132E+03  0.17527998133E+03  0.25500000920E-02 0. -1.
    10030    2    1    2    0    0  0.00000000000E+00  0.00000000000E+00  0.33703426697E+03  0.68759422963E+03  0.59932772963E+03 0.  0.
        5    1    3    3  502    0  0.13060187027E+03 -0.22287497271E+03 -0.56506763089E+01  0.25842624116E+03  0.46999998093E+01 0. -1.
       -5    1    3    3    0  502 -0.13060187027E+03  0.22287497271E+03  0.34268494328E+03  0.42916798847E+03  0.46999998093E+01 0.  1.
</event>
<event>
 5   0  0.3832191E-02  0.5994813E+03  0.7818609E-02  0.9906483E-01
       -2   -1    0    0    0  501  0.00000000000E+00  0.00000000000E+00  0.12989853081E+03  0.12989853083E+03  0.25500000920E-02 0. -1.
        2   -1    0    0  501    0  0.00000000000E+00  0.00000000000E+00 -0.69165102504E+03  0.69165102505E+03  0.25500000920E-02 0.  1.
    10030    2    1    2    0    0  0.00000000000E+00  0.00000000000E+00 -0.56175249423E+03  0.82154955588E+03  0.59948128243E+03 0.  0.
        3    1    3    3  502    0  0.19255761856E+03 -0.27575975302E+02  0.31647535211E+02  0.19707979999E+03  0.10100000352E+00 0. -1.
       -3    1    3    3    0  502 -0.19255761856E+03  0.27575975302E+02 -0.59340002944E+03  0.62446975589E+03  0.10100000352E+00 0.  1.
</event>
<event>
 5   0  0.3934634E-02  0.5948305E+03  0.7818609E-02  0.9916189E-01
       -2   -1    0    0    0  501  0.00000000000E+00  0.00000000000E+00  0.28866405157E+03  0.28866405158E+03  0.25500000920E-02 0.  1.
        2   -1    0    0  501    0  0.00000000000E+00  0.00000000000E+00 -0.30643179049E+03  0.30643179050E+03  0.25500000920E-02 0. -1.
    10030    2    1    2    0    0  0.00000000000E+00  0.00000000000E+00 -0.17767738920E+02  0.59509584208E+03  0.59483053781E+03 0.  0.
        1    1    3    3  502    0  0.22103796479E+03 -0.46295330751E+01 -0.20791135308E+03  0.30349027203E+03  0.50400001928E-02 0. -1.
       -1    1    3    3    0  502 -0.22103796479E+03  0.46295330751E+01  0.19014361416E+03  0.29160557005E+03  0.50400001928E-02 0.  1.
</event>
<event>
 5   0  0.2225808E-02  0.5995426E+03  0.7818609E-02  0.9906355E-01
       -1   -1    0    0    0  501  0.00000000000E+00  0.00000000000E+00  0.93756022305E+02  0.93756022441E+02  0.50400001928E-02 0.  1.
        1   -1    0    0  501    0  0.00000000000E+00  0.00000000000E+00 -0.95847539064E+03  0.95847539065E+03  0.50400001928E-02 0. -1.
    10030    2    1    2    0    0  0.00000000000E+00  0.00000000000E+00 -0.86471936833E+03  0.10522314131E+04  0.59954262628E+03 0.  0.
        2    1    3    3  502    0  0.46775563269E+02 -0.28311248288E+03 -0.28014242704E+03  0.40102420216E+03  0.25500000920E-02 0.  1.
       -2    1    3    3    0  502 -0.46775563269E+02  0.28311248288E+03 -0.58457694129E+03  0.65120721093E+03  0.25500000920E-02 0. -1.
</event>
<event>
 5   0  0.2276105E-02  0.5964085E+03  0.7818609E-02  0.9912886E-01
        1   -1    0    0  501    0  0.00000000000E+00  0.00000000000E+00  0.74114889272E+03  0.74114889274E+03  0.50400001928E-02 0. -1.
       -1   -1    0    0    0  501  0.00000000000E+00  0.00000000000E+00 -0.11998366479E+03  0.11998366490E+03  0.50400001928E-02 0.  1.
    10030    2    1    2    0    0  0.00000000000E+00  0.00000000000E+00  0.62116522793E+03  0.86113255764E+03  0.59640845185E+03 0.  0.
        1    1    3    3  502    0  0.39178258230E+02  0.22929577613E+03  0.57998713260E+03  0.62489724185E+03  0.50400001928E-02 0. -1.
       -1    1    3    3    0  502 -0.39178258230E+02 -0.22929577613E+03  0.41178095336E+02  0.23623531579E+03  0.50400001928E-02 0.  1.
</event>
<event>
 5   0  0.3737642E-02  0.6002582E+03  0.7818609E-02  0.9904871E-01
        2   -1    0    0  501    0  0.00000000000E+00  0.00000000000E+00  0.26573302361E+04  0.26573302361E+04  0.25500000920E-02 0.  1.
       -2   -1    0    0    0  501  0.00000000000E+00  0.00000000000E+00 -0.33897732365E+02  0.33897732461E+02  0.25500000920E-02 0. -1.
    10030    2    1    2    0    0  0.00000000000E+00  0.00000000000E+00  0.26234325037E+04  0.26912279686E+04  0.60025817539E+03 0.  0.
        5    1    3    3  502    0 -0.16868550405E+03  0.23941062143E+03  0.10182938603E+04  0.10595832770E+04  0.46999998093E+01 0. -1.
       -5    1    3    3    0  502  0.16868550405E+03 -0.23941062143E+03  0.16051386435E+04  0.16316446916E+04  0.46999998093E+01 0.  1.
</event>
<event>
 5   0  0.2295179E-02  0.6013272E+03  0.7818609E-02  0.9902656E-01
        1   -1    0    0  501    0  0.00000000000E+00  0.00000000000E+00  0.12736199247E+04  0.12736199247E+04  0.50400001928E-02 0. -1.
       -1   -1    0    0    0  501  0.00000000000E+00  0.00000000000E+00 -0.70977693718E+02  0.70977693897E+02  0.50400001928E-02 0.  1.
    10030    2    1    2    0    0  0.00000000000E+00  0.00000000000E+00  0.12026422309E+04  0.13445976186E+04  0.60132721559E+03 0.  0.
        3    1    3    3  502    0 -0.81032531355E+02 -0.84271884946E+02 -0.18071036996E+02  0.11829875024E+03  0.10100000352E+00 0.  1.
       -3    1    3    3    0  502  0.81032531355E+02  0.84271884946E+02  0.12207132679E+04  0.12262988683E+04  0.10100000352E+00 0. -1.
</event>
<event>
 5   0  0.2309055E-02  0.5975685E+03  0.7818609E-02  0.9910464E-01
       -1   -1    0    0    0  501  0.00000000000E+00  0.00000000000E+00  0.52306854283E+02  0.52306854525E+02  0.50400001928E-02 0. -1.
        1   -1    0    0  501    0  0.00000000000E+00  0.00000000000E+00 -0.17066984761E+04  0.17066984761E+04  0.50400001928E-02 0.  1.
    10030    2    1    2    0    0  0.00000000000E+00  0.00000000000E+00 -0.16543916218E+04  0.17590053306E+04  0.59756850222E+03 0.  0.
        4    1    3    3  502    0 -0.30210049934E+02  0.10687500795E+03 -0.10720885112E+02  0.11158613139E+03  0.12699999809E+01 0. -1.
       -4    1    3    3    0  502  0.30210049934E+02 -0.10687500795E+03 -0.16436707367E+04  0.16474191992E+04  0.12699999809E+01 0.  1.
</event>
<event>
 5   0  0.3737642E-02  0.6007532E+03  0.7818609E-02  0.9903845E-01
       -2   -1    0    0    0  501  0.00000000000E+00  0.00000000000E+00  0.25847270307E+03  0.25847270309E+03  0.25500000920E-02 0. -1.
        2   -1    0    0  501    0  0.00000000000E+00  0.00000000000E+00 -0.34907399521E+03  0.34907399522E+03  0.25500000920E-02 0.  1.
    10030    2    1    2    0    0  0.00000000000E+00  0.00000000000E+00 -0.90601292141E+02  0.60754669831E+03  0.60075319100E+03 0.  0.
        5    1    3    3  502    0 -0.22730696029E+03  0.12017484649E+03  0.11167564984E+03  0.28036402888E+03  0.46999998093E+01 0. -1.
       -5    1    3    3    0  502  0.22730696029E+03 -0.12017484649E+03 -0.20227694198E+03  0.32718266943E+03  0.46999998093E+01 0.  1.
</event>
<event>
 5   0  0.2382531E-02  0.6001326E+03  0.7818609E-02  0.9905131E-01
       -1   -1    0    0    0  501  0.00000000000E+00  0.00000000000E+00  0.17026289154E+03  0.17026289162E+03  0.50400001928E-02 0. -1.
        1   -1    0    0  501    0  0.00000000000E+00  0.00000000000E+00 -0.52882805014E+03  0.52882805017E+03  0.50400001928E-02 0.  1.
    10030    2    1    2    0    0  0.00000000000E+00  0.00000000000E+00 -0.35856515860E+03  0.69909094178E+03  0.60013262861E+03 0.  0.
        5    1    3    3  502    0  0.73171005234E+02 -0.23331757661E+02 -0.51714069337E+03  0.52283358123E+03  0.46999998093E+01 0.  1.
       -5    1    3    3    0  502 -0.73171005234E+02  0.23331757661E+02  0.15857553477E+03  0.17625736055E+03  0.46999998093E+01 0. -1.
</event>
<event>
 5   0  0.3737642E-02  0.5996060E+03  0.7818609E-02  0.9906224E-01
       -2   -1    0    0    0  501  0.00000000000E+00  0.00000000000E+00  0.72911792618E+02  0.72911792662E+02  0.25500000920E-02 0. -1.
        2   -1    0    0  501    0  0.00000000000E+00  0.00000000000E+00 -0.12327476570E+04  0.12327476571E+04  0.25500000920E-02 0.  1.
    10030    2    1    2    0    0  0.00000000000E+00  0.00000000000E+00 -0.11598358644E+04  0.13056594497E+04  0.59960600915E+03 0.  0.
        5    1    3    3  502    0  0.89102121226E+02 -0.12626811782E+03 -0.20598409894E+02  0.15597823590E+03  0.46999998093E+01 0. -1.
       -5    1    3    3    0  502 -0.89102121226E+02  0.12626811782E+03 -0.11392374545E+04  0.11496812138E+04  0.46999998093E+01 0.  1.
</event>
<event>
 5   0  0.3724066E-02  0.5994773E+03  0.7818609E-02  0.9906491E-01
        2   -1    0    0  501    0  0.00000000000E+00  0.00000000000E+00  0.54063140756E+03  0.54063140756E+03  0.25500000920E-02 0.  1.
       -2   -1    0    0    0  501  0.00000000000E+00  0.00000000000E+00 -0.16618208004E+03  0.16618208006E+03  0.25500000920E-02 0. -1.
    10030    2    1    2    0    0  0.00000000000E+00  0.00000000000E+00  0.37444932752E+03  0.70681348763E+03  0.59947727848E+03 0.  0.
        4    1    3    3  502    0  0.13859076696E+03  0.16620871285E+03 -0.57293586336E+02  0.22386805232E+03  0.12699999809E+01 0. -1.
       -4    1    3    3    0  502 -0.13859076696E+03 -0.16620871285E+03  0.43174291385E+03  0.48294543530E+03  0.12699999809E+01 0.  1.
</event>
<event>
 5   0  0.3934634E-02  0.6155076E+03  0.7818609E-02  0.9873745E-01
       -2   -1    0    0    0  501  0.00000000000E+00  0.00000000000E+00  0.12340482070E+03  0.12340482072E+03  0.25500000920E-02 0. -1.
        2   -1    0    0  501    0  0.00000000000E+00  0.00000000000E+00 -0.76749365270E+03  0.76749365270E+03  0.25500000920E-02 0.  1.
    10030    2    1    2    0    0  0.00000000000E+00  0.00000000000E+00 -0.64408883200E+03  0.89089847342E+03  0.61550764938E+03 0.  0.
        1    1    3    3  502    0  0.18962390751E+03 -0.22790536786E+03 -0.20256132333E+03  0.35906708667E+03  0.50400001928E-02 0. -1.
       -1    1    3    3    0  502 -0.18962390751E+03  0.22790536786E+03 -0.44152750867E+03  0.53183138675E+03  0.50400001928E-02 0.  1.
</event>
<event>
 5   0  0.3934634E-02  0.5994716E+03  0.7818609E-02  0.9906503E-01
       -2   -1    0    0    0  501  0.00000000000E+00  0.00000000000E+00  0.39228102490E+03  0.39228102491E+03  0.25500000920E-02 0.  1.
        2   -1    0    0  501    0  0.00000000000E+00  0.00000000000E+00 -0.22902346753E+03  0.22902346754E+03  0.25500000920E-02 0. -1.
    10030    2    1    2    0    0  0.00000000000E+00  0.00000000000E+00  0.16325755737E+03  0.62130449245E+03  0.59947163594E+03 0.  0.
        1    1    3    3  502    0 -0.98674516608E+02  0.21852731474E+03 -0.10478490274E+03  0.26166911048E+03  0.50400001928E-02 0. -1.
       -1    1    3    3    0  502  0.98674516608E+02 -0.21852731474E+03  0.26804246011E+03  0.35963538196E+03  0.50400001928E-02 0.  1.
</event>
<event>
 5   0  0.1521750E-02  0.5976791E+03  0.7818609E-02  0.9910233E-01
        3   -1    0    0  501    0  0.00000000000E+00  0.00000000000E+00  0.94247453616E+02  0.94247507735E+02  0.10100000352E+00 0. -1.
       -3   -1    0    0    0  501  0.00000000000E+00  0.00000000000E+00 -0.94755934969E+03  0.94755935508E+03  0.10100000352E+00 0.  1.
    10030    2    1    2    0    0  0.00000000000E+00  0.00000000000E+00 -0.85331189608E+03  0.10418068628E+04  0.59767913416E+03 0.  0.
        5    1    3    3  502    0 -0.46358995347E+02  0.29415755755E+03 -0.38377558632E+03  0.48578144856E+03  0.46999998093E+01 0.  1.
       -5    1    3    3    0  502  0.46358995347E+02 -0.29415755755E+03 -0.46953630976E+03  0.55602541425E+03  0.46999998093E+01 0. -1.
</event>
<event>
 5   0  0.2225808E-02  0.5988453E+03  0.7818609E-02  0.9907805E-01
       -1   -1    0    0    0  501  0.00000000000E+00  0.00000000000E+00  0.88893441306E+02  0.88893441449E+02  0.50400001928E-02 0.  1.
        1   -1    0    0  501    0  0.00000000000E+00  0.00000000000E+00 -0.10085548663E+04  0.10085548664E+04  0.50400001928E-02 0. -1.
    10030    2    1    2    0    0  0.00000000000E+00  0.00000000000E+00 -0.91966142504E+03  0.10974483078E+04  0.59884526516E+03 0.  0.
        2    1    3    3  502    0  0.28763752110E+02 -0.16461007528E+03 -0.45095017452E+01  0.16716508586E+03  0.25500000920E-02 0.  1.
       -2    1    3    3    0  502 -0.28763752110E+02  0.16461007528E+03 -0.91515192330E+03  0.93028322195E+03  0.25500000920E-02 0. -1.
</event>
<event>
 5   0  0.3934634E-02  0.5991363E+03  0.7818609E-02  0.9907200E-01
        2   -1    0    0  501    0  0.00000000000E+00  0.00000000000E+00  0.58443768592E+03  0.58443768593E+03  0.25500000920E-02 0. -1.
       -2   -1    0    0    0  501  0.00000000000E+00  0.00000000000E+00 -0.15355112648E+03  0.15355112650E+03  0.25500000920E-02 0.  1.
    10030    2    1    2    0    0  0.00000000000E+00  0.00000000000E+00  0.43088655944E+03  0.73798881243E+03  0.59913626177E+03 0.  0.
        1    1    3    3  502    0 -0.98944364499E+02 -0.43202652700E+02  0.55964012977E+03  0.56995923656E+03  0.50400001928E-02 0. -1.
       -1    1    3    3    0  502  0.98944364499E+02  0.43202652700E+02 -0.12875357033E+03  0.16802957587E+03  0.50400001928E-02 0.  1.
</event>
<event>
 5   0  0.2382531E-02  0.5983041E+03  0.7818609E-02  0.9908931E-01
       -1   -1    0    0    0  501  0.00000000000E+00  0.00000000000E+00  0.44558461353E+03  0.44558461356E+03  0.50400001928E-02 0.  1.
        1   -1    0    0  501    0  0.00000000000E+00  0.00000000000E+00 -0.20084168250E+03  0.20084168256E+03  0.50400001928E-02 0. -1.
    10030    2    1    2    0    0  0.00000000000E+00  0.00000000000E+00  0.24474293103E+03  0.64642629613E+03  0.59830414843E+03 0.  0.
        5    1    3    3  502    0 -0.52336642551E+02  0.17988474970E+03  0.37430475555E+03  0.41859740486E+03  0.46999998093E+01 0.  1.
       -5    1    3    3    0  502  0.52336642551E+02 -0.17988474970E+03 -0.12956182452E+03  0.22782889127E+03  0.46999998093E+01 0. -1.
</event>
<event>
 5   0  0.2295179E-02  0.6030072E+03  0.7818609E-02  0.9899187E-01
       -1   -1    0    0    0  501  0.00000000000E+00  0.00000000000E+00  0.38496603183E+03  0.38496603186E+03  0.50400001928E-02 0.  1.
        1   -1    0    0  501    0  0.00000000000E+00  0.00000000000E+00 -0.23613623406E+03  0.23613623411E+03  0.50400001928E-02 0. -1.
    10030    2    1    2    0    0  0.00000000000E+00  0.00000000000E+00  0.14882979777E+03  0.62110226597E+03  0.60300722723E+03 0.  0.
        3    1    3    3  502    0 -0.12841173739E+01  0.82369838409E+02 -0.22431934789E+03  0.23896782059E+03  0.10100000352E+00 0. -1.
       -3    1    3    3    0  502  0.12841173739E+01 -0.82369838409E+02  0.37314914567E+03  0.38213444538E+03  0.10100000352E+00 0.  1.
</event>
<event>
 5   0  0.3724066E-02  0.5997480E+03  0.7818609E-02  0.9905929E-01
        2   -1    0    0  501    0  0.00000000000E+00  0.00000000000E+00  0.79837289381E+03  0.79837289381E+03  0.25500000920E-02 0. -1.
       -2   -1    0    0    0  501  0.00000000000E+00  0.00000000000E+00 -0.11263461654E+03  0.11263461656E+03  0.25500000920E-02 0.  1.
    10030    2    1    2    0    0  0.00000000000E+00  0.00000000000E+00  0.68573827727E+03  0.91100751038E+03  0.59974802963E+03 0.  0.
        4    1    3    3  502    0 -0.14741955222E+03 -0.31019657220E+01  0.73949748093E+03  0.75405588902E+03  0.12699999809E+01 0. -1.
       -4    1    3    3    0  502  0.14741955222E+03  0.31019657220E+01 -0.53759203659E+02  0.15695162135E+03  0.12699999809E+01 0.  1.
</event>
<event>
 5   0  0.2309055E-02  0.6009508E+03  0.7818609E-02  0.9903435E-01
        1   -1    0    0  501    0  0.00000000000E+00  0.00000000000E+00  0.46907569185E+03  0.46907569188E+03  0.50400001928E-02 0.  1.
       -1   -1    0    0    0  501  0.00000000000E+00  0.00000000000E+00 -0.19247526030E+03  0.19247526037E+03  0.50400001928E-02 0. -1.
    10030    2    1    2    0    0  0.00000000000E+00  0.00000000000E+00  0.27660043155E+03  0.66155095225E+03  0.60095079972E+03 0.  0.
        4    1    3    3  502    0 -0.25125582518E+03 -0.17661083700E+01  0.31969268358E+03  0.40661730615E+03  0.12699999809E+01 0.  1.
       -4    1    3    3    0  502  0.25125582518E+03  0.17661083700E+01 -0.43092252032E+02  0.25493364610E+03  0.12699999809E+01 0. -1.
</event>
<event>
 5   0  0.3832191E-02  0.5980356E+03  0.7818609E-02  0.9909490E-01
       -2   -1    0    0    0  501  0.00000000000E+00  0.00000000000E+00  0.46268164111E+02  0.46268164181E+02  0.25500000920E-02 0.  1.
        2   -1    0    0  501    0  0.00000000000E+00  0.00000000000E+00 -0.19324660512E+04  0.19324660512E+04  0.25500000920E-02 0. -1.
    10030    2    1    2    0    0  0.00000000000E+00  0.00000000000E+00 -0.18861978871E+04  0.19787342154E+04  0.59803563929E+03 0.  0.
        3    1    3    3  502    0 -0.14845493775E+03 -0.68399929144E+01 -0.84576251559E+02  0.17099358635E+03  0.10100000352E+00 0.  1.
       -3    1    3    3    0  502  0.14845493775E+03  0.68399929144E+01 -0.18016216355E+04  0.18077406290E+04  0.10100000352E+00 0. -1.
</event>
<event>
 5   0  0.3832191E-02  0.5981915E+03  0.7818609E-02  0.9909165E-01
        2   -1    0    0  501    0  0.00000000000E+00  0.00000000000E+00  0.94579189502E+03  0.94579189502E+03  0.25500000920E-02 0. -1.
       -2   -1    0    0    0  501  0.00000000000E+00  0.00000000000E+00 -0.94585564172E+02  0.94585564206E+02  0.25500000920E-02 0.  1.
    10030    2    1    2    0    0  0.00000000000E+00  0.00000000000E+00  0.85120633085E+03  0.10403774592E+04  0.59819147436E+03 0.  0.
        3    1    3    3  502    0 -0.17931773689E+03  0.18613685560E+03  0.68738941909E+03  0.73437456618E+03  0.10100000352E+00 0. -1.
       -3    1    3    3    0  502  0.17931773689E+03 -0.18613685560E+03  0.16381691176E+03  0.30600289305E+03  0.10100000352E+00 0.  1.
</event>
<event>
 5   0  0.3832191E-02  0.6041750E+03  0.7818609E-02  0.9896782E-01
       -2   -1    0    0    0  501  0.00000000000E+00  0.00000000000E+00  0.44910874942E+03  0.44910874943E+03  0.25500000920E-02 0. -1.
        2   -1    0    0  501    0  0.00000000000E+00  0.00000000000E+00 -0.20319548988E+03  0.20319548989E+03  0.25500000920E-02 0.  1.
    10030    2    1    2    0    0  0.00000000000E+00  0.00000000000E+00  0.24591325954E+03  0.65230423932E+03  0.60417504866E+03 0.  0.
        3    1    3    3  502    0 -0.18519206924E+03  0.28423619789E+02  0.37879951608E+03  0.42260275467E+03  0.10100000352E+00 0. -1.
       -3    1    3    3    0  502  0.18519206924E+03 -0.28423619789E+02 -0.13288625654E+03  0.22970148465E+03  0.10100000352E+00 0.  1.
</event>
<event>
 5   0  0.2225808E-02  0.5984833E+03  0.7818609E-02  0.9908558E-01
       -1   -1    0    0    0  501  0.00000000000E+00  0.00000000000E+00  0.16397798773E+03  0.16397798780E+03  0.50400001928E-02 0.  1.
        1   -1    0    0  501    0  0.00000000000E+00  0.00000000000E+00 -0.54608283031E+03  0.54608283033E+03  0.50400001928E-02 0. -1.
    10030    2    1    2    0    0  0.00000000000E+00  0.00000000000E+00 -0.38210484259E+03  0.71006081814E+03  0.59848329528E+03 0.  0.
        2    1    3    3  502    0  0.82328529843E+02  0.27390823989E+03 -0.29544412251E+03  0.41120668797E+03  0.25500000920E-02 0. -1.
       -2    1    3    3    0  502 -0.82328529843E+02 -0.27390823989E+03 -0.86660720077E+02  0.29885413016E+03  0.25500000920E-02 0.  1.
</event>
<event>
 5   0  0.3737642E-02  0.5982865E+03  0.7818609E-02  0.9908967E-01
        2   -1    0    0  501    0  0.00000000000E+00  0.00000000000E+00  0.18844350931E+04  0.18844350931E+04  0.25500000920E-02 0. -1.
       -2   -1    0    0    0  501  0.00000000000E+00  0.00000000000E+00 -0.47487273394E+02  0.47487273463E+02  0.25500000920E-02 0.  1.
    10030    2    1    2    0    0  0.00000000000E+00  0.00000000000E+00  0.18369478197E+04  0.19319223665E+04  0.59828650169E+03 0.  0.
        5    1    3    3  502    0 -0.59158042180E+02 -0.18456709059E+03  0.16541112523E+04  0.16654341205E+04  0.46999998093E+01 0. -1.
       -5    1    3    3    0  502  0.59158042180E+02  0.18456709059E+03  0.18283656739E+03  0.26648824600E+03  0.46999998093E+01 0.  1.
</event>
<event>
 5   0  0.3737642E-02  0.5923372E+03  0.7818609E-02  0.9921433E-01
        2   -1    0    0  501    0  0.00000000000E+00  0.00000000000E+00  0.98316570777E+02  0.98316570810E+02  0.25500000920E-02 0.  1.
       -2   -1    0    0    0  501  0.00000000000E+00  0.00000000000E+00 -0.89217764140E+03  0.89217764141E+03  0.25500000920E-02 0. -1.
    10030    2    1    2    0    0  0.00000000000E+00  0.00000000000E+00 -0.79386107063E+03  0.99049421222E+03  0.59233722235E+03 0.  0.
        5    1    3    3  502    0  0.13184138875E+03 -0.16122925696E+03 -0.44910990385E+02  0.21311056319E+03  0.46999998093E+01 0.  1.
       -5    1    3    3    0  502 -0.13184138875E+03  0.16122925696E+03 -0.74895008024E+03  0.77738364903E+03  0.46999998093E+01 0. -1.
</event>
<event>
 5   0  0.3724066E-02  0.5908932E+03  0.7818609E-02  0.9924482E-01
        2   -1    0    0  501    0  0.00000000000E+00  0.00000000000E+00  0.15027209506E+04  0.15027209506E+04  0.25500000920E-02 0. -1.
       -2   -1    0    0    0  501  0.00000000000E+00  0.00000000000E+00 -0.58087094881E+02  0.58087094937E+02  0.25500000920E-02 0.  1.
    10030    2    1    2    0    0  0.00000000000E+00  0.00000000000E+00  0.14446338557E+04  0.15608080456E+04  0.59089320349E+03 0.  0.
        4    1    3    3  502    0  0.93974970730E+02  0.16291245296E+03  0.12046692855E+03  0.22335097096E+03  0.12699999809E+01 0.  1.
       -4    1    3    3    0  502 -0.93974970730E+02 -0.16291245296E+03  0.13241669272E+04  0.13374570746E+04  0.12699999809E+01 0. -1.
</event>
<event>
 5   0  0.3724066E-02  0.5964418E+03  0.7818609E-02  0.9912816E-01
        2   -1    0    0  501    0  0.00000000000E+00  0.00000000000E+00  0.40058374816E+03  0.40058374816E+03  0.25500000920E-02 0. -1.
       -2   -1    0    0    0  501  0.00000000000E+00  0.00000000000E+00 -0.22201528257E+03  0.22201528258E+03  0.25500000920E-02 0.  1.
    10030    2    1    2    0    0  0.00000000000E+00  0.00000000000E+00  0.17856846559E+03  0.62259903075E+03  0.59644182968E+03 0.  0.
        4    1    3    3  502    0  0.21750874019E+02  0.84816697993E+02  0.38686016543E+03  0.39664766894E+03  0.12699999809E+01 0. -1.
       -4    1    3    3    0  502 -0.21750874019E+02 -0.84816697993E+02 -0.20829169984E+03  0.22595136181E+03  0.12699999809E+01 0.  1.
</event>
<event>
 5   0  0.2225808E-02  0.5998713E+03  0.7818609E-02  0.9905673E-01
        1   -1    0    0  501    0  0.00000000000E+00  0.00000000000E+00  0.16335184278E+03  0.16335184286E+03  0.50400001928E-02 0.  1.
       -1   -1    0    0    0  501  0.00000000000E+00  0.00000000000E+00 -0.55072172003E+03  0.55072172005E+03  0.50400001928E-02 0. -1.
    10030    2    1    2    0    0  0.00000000000E+00  0.00000000000E+00 -0.38736987725E+03  0.71407356291E+03  0.59987134575E+03 0.  0.
        2    1    3    3  502    0  0.51307968208E+02  0.10223338889E+03 -0.52373796027E+03  0.53608359837E+03  0.25500000920E-02 0. -1.
       -2    1    3    3    0  502 -0.51307968208E+02 -0.10223338889E+03  0.13636808302E+03  0.17798996455E+03  0.25500000920E-02 0.  1.
</event>
<event>
 5   0  0.3832191E-02  0.5963634E+03  0.7818609E-02  0.9912980E-01
       -2   -1    0    0    0  501  0.00000000000E+00  0.00000000000E+00  0.18158580200E+03  0.18158580202E+03  0.25500000920E-02 0. -1.
        2   -1    0    0  501    0  0.00000000000E+00  0.00000000000E+00 -0.48964365228E+03  0.48964365228E+03  0.25500000920E-02 0.  1.
    10030    2    1    2    0    0  0.00000000000E+00  0.00000000000E+00 -0.30805785028E+03  0.67122945430E+03  0.59636343047E+03 0.  0.
        3    1    3    3  502    0  0.66116048647E+01  0.14495986934E+03 -0.44722065950E+03  0.47017380353E+03  0.10100000352E+00 0.  1.
       -3    1    3    3    0  502 -0.66116048647E+01 -0.14495986934E+03  0.13916280922E+03  0.20105565078E+03  0.10100000352E+00 0. -1.
</event>
<event>
 5   0  0.2309055E-02  0.5986864E+03  0.7818609E-02  0.9908135E-01
       -1   -1    0    0    0  501  0.00000000000E+00  0.00000000000E+00  0.95883163578E+03  0.95883163579E+03  0.50400001928E-02 0. -1.
        1   -1    0    0  501    0  0.00000000000E+00  0.00000000000E+00 -0.93453690835E+02  0.93453690971E+02  0.50400001928E-02 0.  1.
    10030    2    1    2    0    0  0.00000000000E+00  0.00000000000E+00  0.86537794494E+03  0.10522853268E+04  0.59868641318E+03 0.  0.
        4    1    3    3  502    0  0.25435872023E+02 -0.42897076200E+02  0.95147355719E+03  0.95278050235E+03  0.12699999809E+01 0. -1.
       -4    1    3    3    0  502 -0.25435872023E+02  0.42897076200E+02 -0.86095612249E+02  0.99504824408E+02  0.12699999809E+01 0.  1.
</event>
<event>
 5   0  0.3934634E-02  0.6020690E+03  0.7818609E-02  0.9901123E-01
       -2   -1    0    0    0  501  0.00000000000E+00  0.00000000000E+00  0.46007141802E+03  0.46007141803E+03  0.25500000920E-02 0. -1.
        2   -1    0    0  501    0  0.00000000000E+00  0.00000000000E+00 -0.19697329160E+03  0.19697329161E+03  0.25500000920E-02 0.  1.
    10030    2    1    2    0    0  0.00000000000E+00  0.00000000000E+00  0.26309812642E+03  0.65704470964E+03  0.60206903786E+03 0.  0.
        1    1    3    3  502    0  0.54682843360E+02 -0.14254332740E+03 -0.15158883200E+03  0.21514643282E+03  0.50400001928E-02 0.  1.
       -1    1    3    3    0  502 -0.54682843360E+02  0.14254332740E+03  0.41468695843E+03  0.44189827682E+03  0.50400001928E-02 0. -1.
</event>
<event>
 5   0  0.3798925E-02  0.5986202E+03  0.7818609E-02  0.9908273E-01
       -2   -1    0    0    0  501  0.00000000000E+00  0.00000000000E+00  0.14057316791E+03  0.14057316793E+03  0.25500000920E-02 0.  1.
        2   -1    0    0  501    0  0.00000000000E+00  0.00000000000E+00 -0.63729470529E+03  0.63729470530E+03  0.25500000920E-02 0. -1.
    10030    2    1    2    0    0  0.00000000000E+00  0.00000000000E+00 -0.49672153738E+03  0.77786787323E+03  0.59862019888E+03 0.  0.
        2    1    3    3  502    0 -0.58780081096E+01  0.29416778312E+03 -0.31973866034E+03  0.43451357462E+03  0.25500000920E-02 0. -1.
       -2    1    3    3    0  502  0.58780081096E+01 -0.29416778312E+03 -0.17698287704E+03  0.34335429861E+03  0.25500000920E-02 0.  1.
</event>
<event>
 5   0  0.2309055E-02  0.5953714E+03  0.7818609E-02  0.9915056E-01
        1   -1    0    0  501    0  0.00000000000E+00  0.00000000000E+00  0.60642582177E+03  0.60642582179E+03  0.50400001928E-02 0. -1.
       -1   -1    0    0    0  501  0.00000000000E+00  0.00000000000E+00 -0.14612961229E+03  0.14612961237E+03  0.50400001928E-02 0.  1.
    10030    2    1    2    0    0  0.00000000000E+00  0.00000000000E+00  0.46029620948E+03  0.75255543417E+03  0.59537138076E+03 0.  0.
        4    1    3    3  502    0 -0.15060388056E+03  0.25599193971E+03  0.25548371445E+03  0.39177409726E+03  0.12699999809E+01 0. -1.
       -4    1    3    3    0  502  0.15060388056E+03 -0.25599193971E+03  0.20481249503E+03  0.36078133690E+03  0.12699999809E+01 0.  1.
</event>
<event>
 5   0  0.2225808E-02  0.6004488E+03  0.7818609E-02  0.9904475E-01
       -1   -1    0    0    0  501  0.00000000000E+00  0.00000000000E+00  0.75468000177E+03  0.75468000179E+03  0.50400001928E-02 0.  1.
        1   -1    0    0  501    0  0.00000000000E+00  0.00000000000E+00 -0.11943433085E+03  0.11943433095E+03  0.50400001928E-02 0. -1.
    10030    2    1    2    0    0  0.00000000000E+00  0.00000000000E+00  0.63524567092E+03  0.87411433274E+03  0.60044883568E+03 0.  0.
        2    1    3    3  502    0 -0.74170010491E+02 -0.49444575948E+02  0.73497090358E+03  0.74035679619E+03  0.25500000920E-02 0.  1.
       -2    1    3    3    0  502  0.74170010491E+02  0.49444575948E+02 -0.99725232661E+02  0.13375753655E+03  0.25500000920E-02 0. -1.
</event>
<event>
 5   0  0.3724066E-02  0.6019876E+03  0.7818609E-02  0.9901291E-01
       -2   -1    0    0    0  501  0.00000000000E+00  0.00000000000E+00  0.34994483157E+02  0.34994483250E+02  0.25500000920E-02 0. -1.
        2   -1    0    0  501    0  0.00000000000E+00  0.00000000000E+00 -0.25889016285E+04  0.25889016285E+04  0.25500000920E-02 0.  1.
    10030    2    1    2    0    0  0.00000000000E+00  0.00000000000E+00 -0.25539071454E+04  0.26238961118E+04  0.60198762299E+03 0.  0.
        4    1    3    3  502    0  0.26496083232E+03 -0.42789974468E+02 -0.68313582496E+03  0.73396961301E+03  0.12699999809E+01 0. -1.
       -4    1    3    3    0  502 -0.26496083232E+03  0.42789974468E+02 -0.18707713204E+04  0.18899264988E+04  0.12699999809E+01 0.  1.
</event>
<event>
 5   0  0.3724066E-02  0.5958961E+03  0.7818609E-02  0.9913957E-01
        2   -1    0    0  501    0  0.00000000000E+00  0.00000000000E+00  0.80008162599E+03  0.80008162600E+03  0.25500000920E-02 0.  1.
       -2   -1    0    0    0  501  0.00000000000E+00  0.00000000000E+00 -0.11095498183E+03  0.11095498186E+03  0.25500000920E-02 0. -1.
    10030    2    1    2    0    0  0.00000000000E+00  0.00000000000E+00  0.68912664416E+03  0.91103660786E+03  0.59589610602E+03 0.  0.
        4    1    3    3  502    0 -0.24463525566E+03  0.75676627549E+02  0.57742134194E+03  0.63165685248E+03  0.12699999809E+01 0.  1.
       -4    1    3    3    0  502  0.24463525566E+03 -0.75676627549E+02  0.11170530222E+03  0.27937975537E+03  0.12699999809E+01 0. -1.
</event>
<event>
 5   0  0.2309055E-02  0.5949091E+03  0.7818609E-02  0.9916025E-01
       -1   -1    0    0    0  501  0.00000000000E+00  0.00000000000E+00  0.20030883625E+03  0.20030883632E+03  0.50400001928E-02 0. -1.
        1   -1    0    0  501    0  0.00000000000E+00  0.00000000000E+00 -0.44171402315E+03  0.44171402318E+03  0.50400001928E-02 0.  1.
    10030    2    1    2    0    0  0.00000000000E+00  0.00000000000E+00 -0.24140518690E+03  0.64202285949E+03  0.59490914252E+03 0.  0.
        4    1    3    3  502    0  0.17598174923E+03  0.84577620968E+02  0.12146703652E+03  0.22995391689E+03  0.12699999809E+01 0. -1.
       -4    1    3    3    0  502 -0.17598174923E+03 -0.84577620968E+02 -0.36287222342E+03  0.41206894261E+03  0.12699999809E+01 0.  1.
</event>
<event>
 5   0  0.2225808E-02  0.6036569E+03  0.7818609E-02  0.9897848E-01
        1   -1    0    0  501    0  0.00000000000E+00  0.00000000000E+00  0.14322679146E+04  0.14322679146E+04  0.50400001928E-02 0.  1.
       -1   -1    0    0    0  501  0.00000000000E+00  0.00000000000E+00 -0.63605700780E+02  0.63605700979E+02  0.50400001928E-02 0. -1.
    10030    2    1    2    0    0  0.00000000000E+00  0.00000000000E+00  0.13686622139E+04  0.14958736156E+04  0.60365687131E+03 0.  0.
        2    1    3    3  502    0  0.25637590070E+03 -0.15604867950E+03  0.60516577615E+03  0.67550381898E+03  0.25500000920E-02 0. -1.
       -2    1    3    3    0  502 -0.25637590070E+03  0.15604867950E+03  0.76349643771E+03  0.82036979664E+03  0.25500000920E-02 0.  1.
</event>
<event>
 5   0  0.3737642E-02  0.6070622E+03  0.7818609E-02  0.9890862E-01
       -2   -1    0    0    0  501  0.00000000000E+00  0.00000000000E+00  0.87096461645E+02  0.87096461683E+02  0.25500000920E-02 0. -1.
        2   -1    0    0  501    0  0.00000000000E+00  0.00000000000E+00 -0.10578055798E+04  0.10578055798E+04  0.25500000920E-02 0.  1.
    10030    2    1    2    0    0  0.00000000000E+00  0.00000000000E+00 -0.97070911816E+03  0.11449020415E+04  0.60706218177E+03 0.  0.
        5    1    3    3  502    0  0.10462272387E+03  0.44652927734E+02 -0.10160109208E+04  0.10223698350E+04  0.46999998093E+01 0.  1.
       -5    1    3    3    0  502 -0.10462272387E+03 -0.44652927734E+02  0.45301802658E+02  0.12253220649E+03  0.46999998093E+01 0. -1.
</event>
<event>
 5   0  0.3737642E-02  0.6025395E+03  0.7818609E-02  0.9900151E-01
        2   -1    0    0  501    0  0.00000000000E+00  0.00000000000E+00  0.99462940148E+03  0.99462940148E+03  0.25500000920E-02 0. -1.
       -2   -1    0    0    0  501  0.00000000000E+00  0.00000000000E+00 -0.91253547662E+02  0.91253547697E+02  0.25500000920E-02 0.  1.
    10030    2    1    2    0    0  0.00000000000E+00  0.00000000000E+00  0.90337585382E+03  0.10858829492E+04  0.60253949751E+03 0.  0.
        5    1    3    3  502    0 -0.22810668316E+03 -0.84228614568E+02  0.77212219595E+03  0.80951954509E+03  0.46999998093E+01 0. -1.
       -5    1    3    3    0  502  0.22810668316E+03  0.84228614568E+02  0.13125365787E+03  0.27636340409E+03  0.46999998093E+01 0.  1.
</event>
<event>
 5   0  0.2295179E-02  0.6010357E+03  0.7818609E-02  0.9903260E-01
        1   -1    0    0  501    0  0.00000000000E+00  0.00000000000E+00  0.30583969953E+03  0.30583969957E+03  0.50400001928E-02 0. -1.
       -1   -1    0    0    0  501  0.00000000000E+00  0.00000000000E+00 -0.29528864119E+03  0.29528864123E+03  0.50400001928E-02 0.  1.
    10030    2    1    2    0    0  0.00000000000E+00  0.00000000000E+00  0.10551058336E+02  0.60112834080E+03  0.60103573711E+03 0.  0.
        3    1    3    3  502    0 -0.10733643444E+03  0.95520946412E+02 -0.25870758898E+03  0.29593071513E+03  0.10100000352E+00 0.  1.
       -3    1    3    3    0  502  0.10733643444E+03 -0.95520946412E+02  0.26925864731E+03  0.30519762567E+03  0.10100000352E+00 0. -1.
</event>
<event>
 5   0  0.3798925E-02  0.6050010E+03  0.7818609E-02  0.9895085E-01
        2   -1    0    0  501    0  0.00000000000E+00  0.00000000000E+00  0.46378690862E+03  0.46378690862E+03  0.25500000920E-02 0. -1.
       -2   -1    0    0    0  501  0.00000000000E+00  0.00000000000E+00 -0.19730298407E+03  0.19730298408E+03  0.25500000920E-02 0.  1.
    10030    2    1    2    0    0  0.00000000000E+00  0.00000000000E+00  0.26648392455E+03  0.66108989271E+03  0.60500096215E+03 0.  0.
        2    1    3    3  502    0 -0.14768579670E+03  0.25846005762E+03  0.74460268860E+02  0.30685017122E+03  0.25500000920E-02 0.  1.
       -2    1    3    3    0  502  0.14768579670E+03 -0.25846005762E+03  0.19202365569E+03  0.35423972149E+03  0.25500000920E-02 0. -1.
</event>
<event>
 5   0  0.2309055E-02  0.5989826E+03  0.7818609E-02  0.9907519E-01
       -1   -1    0    0    0  501  0.00000000000E+00  0.00000000000E+00  0.10496779945E+03  0.10496779957E+03  0.50400001928E-02 0. -1.
        1   -1    0    0  501    0  0.00000000000E+00  0.00000000000E+00 -0.85450063661E+03  0.85450063662E+03  0.50400001928E-02 0.  1.
    10030    2    1    2    0    0  0.00000000000E+00  0.00000000000E+00 -0.74953283716E+03  0.95946843619E+03  0.59898264254E+03 0.  0.
        4    1    3    3  502    0  0.94102192933E+02  0.25318415883E+03 -0.58199147067E+03  0.64161758535E+03  0.12699999809E+01 0.  1.
       -4    1    3    3    0  502 -0.94102192933E+02 -0.25318415883E+03 -0.16754136649E+03  0.31785085084E+03  0.12699999809E+01 0. -1.
</event>
<event>
 5   0  0.3832191E-02  0.6270462E+03  0.7818609E-02  0.9850830E-01
       -2   -1    0    0    0  501  0.00000000000E+00  0.00000000000E+00  0.10213627326E+03  0.10213627329E+03  0.25500000920E-02 0.  1.
        2   -1    0    0  501    0  0.00000000000E+00  0.00000000000E+00 -0.96240781673E+03  0.96240781673E+03  0.25500000920E-02 0. -1.
    10030    2    1    2    0    0  0.00000000000E+00  0.00000000000E+00 -0.86027154347E+03  0.10645440900E+04  0.62704624318E+03 0.  0.
        3    1    3    3  502    0  0.14239074784E+03 -0.57025867721E+01  0.43976304887E+02  0.14913607933E+03  0.10100000352E+00 0.  1.
       -3    1    3    3    0  502 -0.14239074784E+03  0.57025867721E+01 -0.90424784836E+03  0.91540801069E+03  0.10100000352E+00 0. -1.
</event>
<event>
 5   0  0.1521750E-02  0.6000318E+03  0.7818609E-02  0.9905340E-01
       -4   -1    0    0    0  501  0.00000000000E+00  0.00000000000E+00  0.20249607926E+03  0.20250006176E+03  0.12699999809E+01 0. -1.
        4   -1    0    0  501    0  0.00000000000E+00  0.00000000000E+00 -0.44449096384E+03  0.44449277816E+03  0.12699999809E+01 0.  1.
    10030    2    1    2    0    0  0.00000000000E+00  0.00000000000E+00 -0.24199488458E+03  0.64699283992E+03  0.60003184144E+03 0.  0.
        2    1    3    3  502    0  0.29294760070E+03 -0.62367414440E+02 -0.13972206825E+03  0.33049999622E+03  0.25500000920E-02 0.  1.
       -2    1    3    3    0  502 -0.29294760070E+03  0.62367414440E+02 -0.10227281633E+03  0.31649284370E+03  0.25500000920E-02 0. -1.
</event>
<event>
 5   0  0.3798925E-02  0.5968224E+03  0.7818609E-02  0.9912021E-01
       -2   -1    0    0    0  501  0.00000000000E+00  0.00000000000E+00  0.19017695323E+03  0.19017695325E+03  0.25500000920E-02 0. -1.
        2   -1    0    0  501    0  0.00000000000E+00  0.00000000000E+00 -0.46824416507E+03  0.46824416508E+03  0.25500000920E-02 0.  1.
    10030    2    1    2    0    0  0.00000000000E+00  0.00000000000E+00 -0.27806721184E+03  0.65842111832E+03  0.59682241476E+03 0.  0.
        2    1    3    3  502    0  0.28466420527E+03 -0.86206429863E+02 -0.11237352467E+03  0.31795136007E+03  0.25500000920E-02 0. -1.
       -2    1    3    3    0  502 -0.28466420527E+03  0.86206429863E+02 -0.16569368717E+03  0.34046975826E+03  0.25500000920E-02 0.  1.
</event>
<event>
 5   0  0.2276105E-02  0.5965042E+03  0.7818609E-02  0.9912685E-01
       -1   -1    0    0    0  501  0.00000000000E+00  0.00000000000E+00  0.24019542915E+03  0.24019542921E+03  0.50400001928E-02 0. -1.
        1   -1    0    0  501    0  0.00000000000E+00  0.00000000000E+00 -0.37034140588E+03  0.37034140591E+03  0.50400001928E-02 0.  1.
    10030    2    1    2    0    0  0.00000000000E+00  0.00000000000E+00 -0.13014597673E+03  0.61053683512E+03  0.59650419259E+03 0.  0.
        1    1    3    3  502    0 -0.12859621359E+03  0.16125748843E+03 -0.28557869060E+03  0.35227283784E+03  0.50400001928E-02 0.  1.
       -1    1    3    3    0  502  0.12859621359E+03 -0.16125748843E+03  0.15543271388E+03  0.25826399728E+03  0.50400001928E-02 0. -1.
</event>
<event>
 5   0  0.3798925E-02  0.6025912E+03  0.7818609E-02  0.9900045E-01
        2   -1    0    0  501    0  0.00000000000E+00  0.00000000000E+00  0.10297497949E+04  0.10297497949E+04  0.25500000920E-02 0.  1.
       -2   -1    0    0    0  501  0.00000000000E+00  0.00000000000E+00 -0.88156393765E+02  0.88156393802E+02  0.25500000920E-02 0. -1.
    10030    2    1    2    0    0  0.00000000000E+00  0.00000000000E+00  0.94159340112E+03  0.11179061887E+04  0.60259116628E+03 0.  0.
        2    1    3    3  502    0 -0.13709303746E+03 -0.99202043033E+02  0.83300801289E+01  0.16942531246E+03  0.25500000920E-02 0. -1.
       -2    1    3    3    0  502  0.13709303746E+03  0.99202043033E+02  0.93326332099E+03  0.94848087623E+03  0.25500000920E-02 0.  1.
</event>
<event>
 5   0  0.2295179E-02  0.5999471E+03  0.7818609E-02  0.9905516E-01
       -1   -1    0    0    0  501  0.00000000000E+00  0.00000000000E+00  0.16851148844E+03  0.16851148851E+03  0.50400001928E-02 0. -1.
        1   -1    0    0  501    0  0.00000000000E+00  0.00000000000E+00 -0.53399412924E+03  0.53399412926E+03  0.50400001928E-02 0.  1.
    10030    2    1    2    0    0  0.00000000000E+00  0.00000000000E+00 -0.36548264081E+03  0.70250561777E+03  0.59994714957E+03 0.  0.
        3    1    3    3  502    0 -0.29136200915E+03  0.51600472345E+02 -0.24045964182E+03  0.38128110190E+03  0.10100000352E+00 0.  1.
       -3    1    3    3    0  502  0.29136200915E+03 -0.51600472345E+02 -0.12502299898E+03  0.32122451587E+03  0.10100000352E+00 0. -1.
</event>
<event>
 5   0  0.2309055E-02  0.6045910E+03  0.7818609E-02  0.9895927E-01
       -1   -1    0    0    0  501  0.00000000000E+00  0.00000000000E+00  0.20244181481E+03  0.20244181487E+03  0.50400001928E-02 0. -1.
        1   -1    0    0  501    0  0.00000000000E+00  0.00000000000E+00 -0.45140169384E+03  0.45140169387E+03  0.50400001928E-02 0.  1.
    10030    2    1    2    0    0  0.00000000000E+00  0.00000000000E+00 -0.24895987904E+03  0.65384350874E+03  0.60459102917E+03 0.  0.
        4    1    3    3  502    0 -0.16280847125E+03  0.82935128825E+00  0.15097234696E+03  0.22203952031E+03  0.12699999809E+01 0. -1.
       -4    1    3    3    0  502  0.16280847125E+03 -0.82935128825E+00 -0.39993222600E+03  0.43180398843E+03  0.12699999809E+01 0.  1.
</event>
<event>
 5   0  0.3832191E-02  0.6016392E+03  0.7818609E-02  0.9902011E-01
       -2   -1    0    0    0  501  0.00000000000E+00  0.00000000000E+00  0.84519154876E+02  0.84519154914E+02  0.25500000920E-02 0. -1.
        2   -1    0    0  501    0  0.00000000000E+00  0.00000000000E+00 -0.10706737187E+04  0.10706737187E+04  0.25500000920E-02 0.  1.
    10030    2    1    2    0    0  0.00000000000E+00  0.00000000000E+00 -0.98615456387E+03  0.11551928737E+04  0.60163922040E+03 0.  0.
        3    1    3    3  502    0 -0.13445487640E+03  0.16512156326E+01  0.23603603636E+02  0.13652098962E+03  0.10100000352E+00 0. -1.
       -3    1    3    3    0  502  0.13445487640E+03 -0.16512156326E+01 -0.10097581675E+04  0.10186718840E+04  0.10100000352E+00 0.  1.
</event>
<event>
 5   0  0.2276105E-02  0.6018930E+03  0.7818609E-02  0.9901486E-01
        1   -1    0    0  501    0  0.00000000000E+00  0.00000000000E+00  0.13981534666E+04  0.13981534666E+04  0.50400001928E-02 0. -1.
       -1   -1    0    0    0  501  0.00000000000E+00  0.00000000000E+00 -0.64777432642E+02  0.64777432838E+02  0.50400001928E-02 0.  1.
    10030    2    1    2    0    0  0.00000000000E+00  0.00000000000E+00  0.13333760340E+04  0.14629308995E+04  0.60189298769E+03 0.  0.
        1    1    3    3  502    0 -0.14722114118E+03  0.22441389931E+03  0.33580162270E+03  0.42988183544E+03  0.50400001928E-02 0.  1.
       -1    1    3    3    0  502  0.14722114118E+03 -0.22441389931E+03  0.99757441129E+03  0.10330490640E+04  0.50400001928E-02 0. -1.
</event>
<event>
 5   0  0.2225808E-02  0.5526702E+03  0.7818609E-02  0.1000878E+00
        1   -1    0    0  501    0  0.00000000000E+00  0.00000000000E+00  0.70961282327E+03  0.70961282329E+03  0.50400001928E-02 0.  1.
       -1   -1    0    0    0  501  0.00000000000E+00  0.00000000000E+00 -0.10760949544E+03  0.10760949555E+03  0.50400001928E-02 0. -1.
    10030    2    1    2    0    0  0.00000000000E+00  0.00000000000E+00  0.60200332783E+03  0.81722231884E+03  0.55267016537E+03 0.  0.
        2    1    3    3  502    0 -0.29095051408E+02  0.25735048088E+02 -0.10355249124E+03  0.11059807035E+03  0.25500000920E-02 0. -1.
       -2    1    3    3    0  502  0.29095051408E+02 -0.25735048088E+02  0.70555581908E+03  0.70662424849E+03  0.25500000920E-02 0.  1.
</event>
<event>
 5   0  0.2225808E-02  0.6003292E+03  0.7818609E-02  0.9904723E-01
        1   -1    0    0  501    0  0.00000000000E+00  0.00000000000E+00  0.19389426143E+03  0.19389426149E+03  0.50400001928E-02 0.  1.
       -1   -1    0    0    0  501  0.00000000000E+00  0.00000000000E+00 -0.46468003153E+03  0.46468003156E+03  0.50400001928E-02 0. -1.
    10030    2    1    2    0    0  0.00000000000E+00  0.00000000000E+00 -0.27078577010E+03  0.65857429305E+03  0.60032921483E+03 0.  0.
        2    1    3    3  502    0 -0.89000957006E+02  0.10042176968E+03  0.15915920854E+03  0.20817626148E+03  0.25500000920E-02 0.  1.
       -2    1    3    3    0  502  0.89000957006E+02 -0.10042176968E+03 -0.42994497865E+03  0.45039803157E+03  0.25500000920E-02 0. -1.
</event>
<event>
 5   0  0.3724066E-02  0.5992518E+03  0.7818609E-02  0.9906960E-01
       -2   -1    0    0    0  501  0.00000000000E+00  0.00000000000E+00  0.12573320627E+03  0.12573320629E+03  0.25500000920E-02 0. -1.
        2   -1    0    0  501    0  0.00000000000E+00  0.00000000000E+00 -0.71401724008E+03  0.71401724009E+03  0.25500000920E-02 0.  1.
    10030    2    1    2    0    0  0.00000000000E+00  0.00000000000E+00 -0.58828403381E+03  0.83975044638E+03  0.59925178995E+03 0.  0.
        4    1    3    3  502    0 -0.78391386235E+00 -0.18049375077E+03 -0.62927846673E+03  0.65465380941E+03  0.12699999809E+01 0.  1.
       -4    1    3    3    0  502  0.78391386235E+00  0.18049375077E+03  0.40994432917E+02  0.18509663697E+03  0.12699999809E+01 0. -1.
</event>
<event>
 5   0  0.2309055E-02  0.6304092E+03  0.7818609E-02  0.9844251E-01
        1   -1    0    0  501    0  0.00000000000E+00  0.00000000000E+00  0.48167360199E+03  0.48167360202E+03  0.50400001928E-02 0. -1.
       -1   -1    0    0    0  501  0.00000000000E+00  0.00000000000E+00 -0.20626817794E+03  0.20626817800E+03  0.50400001928E-02 0.  1.
    10030    2    1    2    0    0  0.00000000000E+00  0.00000000000E+00  0.27540542405E+03  0.68794178002E+03  0.63040918862E+03 0.  0.
        4    1    3    3  502    0 -0.11697496439E+03  0.23624489736E+03  0.32626554158E+03  0.41945871113E+03  0.12699999809E+01 0. -1.
       -4    1    3    3    0  502  0.11697496439E+03 -0.23624489736E+03 -0.50860117528E+02  0.26848306889E+03  0.12699999809E+01 0.  1.
</event>
<event>
 5   0  0.2309055E-02  0.5964554E+03  0.7818609E-02  0.9912787E-01
        1   -1    0    0  501    0  0.00000000000E+00  0.00000000000E+00  0.32141507856E+03  0.32141507860E+03  0.50400001928E-02 0.  1.
       -1   -1    0    0    0  501  0.00000000000E+00  0.00000000000E+00 -0.27671309729E+03  0.27671309734E+03  0.50400001928E-02 0. -1.
    10030    2    1    2    0    0  0.00000000000E+00  0.00000000000E+00  0.44701981265E+02  0.59812817593E+03  0.59645540296E+03 0.  0.
        4    1    3    3  502    0  0.54396952400E+02 -0.14777552309E+03  0.27632302176E+03  0.31804505799E+03  0.12699999809E+01 0.  1.
       -4    1    3    3    0  502 -0.54396952400E+02  0.14777552309E+03 -0.23162104050E+03  0.28008311794E+03  0.12699999809E+01 0. -1.
</event>
<event>
 5   0  0.3737642E-02  0.6158521E+03  0.7818609E-02  0.9873053E-01
        2   -1    0    0  501    0  0.00000000000E+00  0.00000000000E+00  0.69642110162E+03  0.69642110162E+03  0.25500000920E-02 0.  1.
       -2   -1    0    0    0  501  0.00000000000E+00  0.00000000000E+00 -0.13615104405E+03  0.13615104407E+03  0.25500000920E-02 0. -1.
    10030    2    1    2    0    0  0.00000000000E+00  0.00000000000E+00  0.56027005757E+03  0.83257214569E+03  0.61585212541E+03 0.  0.
        5    1    3    3  502    0 -0.24476079673E+03  0.51737096113E+01  0.53255287520E+03  0.58614782246E+03  0.46999998093E+01 0.  1.
       -5    1    3    3    0  502  0.24476079673E+03 -0.51737096113E+01  0.27717182366E+02  0.24642432324E+03  0.46999998093E+01 0. -1.
</event>
<event>
 5   0  0.3934634E-02  0.5992886E+03  0.7818609E-02  0.9906883E-01
        2   -1    0    0  501    0  0.00000000000E+00  0.00000000000E+00  0.65520602524E+03  0.65520602524E+03  0.25500000920E-02 0.  1.
       -2   -1    0    0    0  501  0.00000000000E+00  0.00000000000E+00 -0.13703583649E+03  0.13703583651E+03  0.25500000920E-02 0. -1.
    10030    2    1    2    0    0  0.00000000000E+00  0.00000000000E+00  0.51817018875E+03  0.79224186176E+03  0.59928859743E+03 0.  0.
        1    1    3    3  502    0  0.17248299594E+03 -0.13660447604E+03  0.52798682921E+03  0.57199760367E+03  0.50400001928E-02 0.  1.
       -1    1    3    3    0  502 -0.17248299594E+03  0.13660447604E+03 -0.98166404625E+01  0.22024425808E+03  0.50400001928E-02 0. -1.
</event>
<event>
 5   0  0.3934634E-02  0.6012308E+03  0.7818609E-02  0.9902856E-01
       -2   -1    0    0    0  501  0.00000000000E+00  0.00000000000E+00  0.56252338900E+02  0.56252338958E+02  0.25500000920E-02 0. -1.
        2   -1    0    0  501    0  0.00000000000E+00  0.00000000000E+00 -0.16065044477E+04  0.16065044477E+04  0.25500000920E-02 0.  1.
    10030    2    1    2    0    0  0.00000000000E+00  0.00000000000E+00 -0.15502521088E+04  0.16627567867E+04  0.60123084647E+03 0.  0.
        1    1    3    3  502    0 -0.63222854028E+02 -0.20396372092E+03 -0.13603031869E+04  0.13769615424E+04  0.50400001928E-02 0.  1.
       -1    1    3    3    0  502  0.63222854028E+02  0.20396372092E+03 -0.18994892187E+03  0.28579524431E+03  0.50400001928E-02 0. -1.
</event>
<event>
 5   0  0.1521750E-02  0.5969738E+03  0.7818609E-02  0.9911704E-01
        3   -1    0    0  501    0  0.00000000000E+00  0.00000000000E+00  0.84234619931E+03  0.84234620537E+03  0.10100000352E+00 0.  1.
       -3   -1    0    0    0  501  0.00000000000E+00  0.00000000000E+00 -0.10576935469E+03  0.10576940292E+03  0.10100000352E+00 0. -1.
    10030    2    1    2    0    0  0.00000000000E+00  0.00000000000E+00  0.73657684462E+03  0.94811560829E+03  0.59697383414E+03 0.  0.
        1    1    3    3  502    0 -0.29730931280E+03  0.11988476378E+02  0.33077560002E+03  0.44491465321E+03  0.50400001928E-02 0.  1.
       -1    1    3    3    0  502  0.29730931280E+03 -0.11988476378E+02  0.40580124460E+03  0.50320095508E+03  0.50400001928E-02 0. -1.
</event>
<event>
 5   0  0.2276105E-02  0.5927756E+03  0.7818609E-02  0.9920509E-01
        1   -1    0    0  501    0  0.00000000000E+00  0.00000000000E+00  0.24520239151E+03  0.24520239156E+03  0.50400001928E-02 0. -1.
       -1   -1    0    0    0  501  0.00000000000E+00  0.00000000000E+00 -0.35825801603E+03  0.35825801606E+03  0.50400001928E-02 0.  1.
    10030    2    1    2    0    0  0.00000000000E+00  0.00000000000E+00 -0.11305562452E+03  0.60346040762E+03  0.59277558092E+03 0.  0.
        1    1    3    3  502    0  0.26216109674E+03 -0.57453421026E+02  0.71502293942E+02  0.27774433261E+03  0.50400001928E-02 0. -1.
       -1    1    3    3    0  502 -0.26216109674E+03  0.57453421026E+02 -0.18455791846E+03  0.32571607501E+03  0.50400001928E-02 0.  1.
</event>
<event>
 5   0  0.3737642E-02  0.5975403E+03  0.7818609E-02  0.9910522E-01
       -2   -1    0    0    0  501  0.00000000000E+00  0.00000000000E+00  0.25043382732E+03  0.25043382733E+03  0.25500000920E-02 0.  1.
        2   -1    0    0  501    0  0.00000000000E+00  0.00000000000E+00 -0.35643586181E+03  0.35643586182E+03  0.25500000920E-02 0. -1.
    10030    2    1    2    0    0  0.00000000000E+00  0.00000000000E+00 -0.10600203449E+03  0.60686968915E+03  0.59754028174E+03 0.  0.
        5    1    3    3  502    0  0.21670522589E+03 -0.20288758006E+03 -0.86944105053E+02  0.30936368965E+03  0.46999998093E+01 0. -1.
       -5    1    3    3    0  502 -0.21670522589E+03  0.20288758006E+03 -0.19057929434E+02  0.29750599951E+03  0.46999998093E+01 0.  1.
</event>
<event>
 5   0  0.3798925E-02  0.6197467E+03  0.7818609E-02  0.9865264E-01
       -2   -1    0    0    0  501  0.00000000000E+00  0.00000000000E+00  0.43863626956E+02  0.43863627030E+02  0.25500000920E-02 0. -1.
        2   -1    0    0  501    0  0.00000000000E+00  0.00000000000E+00 -0.21890917840E+04  0.21890917840E+04  0.25500000920E-02 0.  1.
    10030    2    1    2    0    0  0.00000000000E+00  0.00000000000E+00 -0.21452281570E+04  0.22329554110E+04  0.61974674011E+03 0.  0.
        2    1    3    3  502    0 -0.24064220293E+03 -0.10642370796E+03 -0.48292041553E+03  0.54995163713E+03  0.25500000920E-02 0. -1.
       -2    1    3    3    0  502  0.24064220293E+03  0.10642370796E+03 -0.16623077415E+04  0.16830037739E+04  0.25500000920E-02 0.  1.
</event>
<event>
 5   0  0.2382531E-02  0.6011527E+03  0.7818609E-02  0.9903017E-01
        1   -1    0    0  501    0  0.00000000000E+00  0.00000000000E+00  0.29138781353E+03  0.29138781358E+03  0.50400001928E-02 0. -1.
       -1   -1    0    0    0  501  0.00000000000E+00  0.00000000000E+00 -0.31005464623E+03  0.31005464627E+03  0.50400001928E-02 0.  1.
    10030    2    1    2    0    0  0.00000000000E+00  0.00000000000E+00 -0.18666832694E+02  0.60144245985E+03  0.60115271093E+03 0.  0.
        5    1    3    3  502    0 -0.77748396332E+02  0.27194798596E+03 -0.11098718817E+03  0.30387623490E+03  0.46999998093E+01 0. -1.
       -5    1    3    3    0  502  0.77748396332E+02 -0.27194798596E+03  0.92320355481E+02  0.29756622495E+03  0.46999998093E+01 0.  1.
</event>
<event>
 5   0  0.3934634E-02  0.5861811E+03  0.7818609E-02  0.9934498E-01
        2   -1    0    0  501    0  0.00000000000E+00  0.00000000000E+00  0.11797645666E+04  0.11797645666E+04  0.25500000920E-02 0. -1.
       -2   -1    0    0    0  501  0.00000000000E+00  0.00000000000E+00 -0.72812893613E+02  0.72812893658E+02  0.25500000920E-02 0.  1.
    10030    2    1    2    0    0  0.00000000000E+00  0.00000000000E+00  0.11069516730E+04  0.12525774602E+04  0.58618110479E+03 0.  0.
        1    1    3    3  502    0  0.21853143508E+02 -0.99738878373E+02  0.11405313044E+04  0.11450925989E+04  0.50400001928E-02 0. -1.
       -1    1    3    3    0  502 -0.21853143508E+02  0.99738878373E+02 -0.33579631441E+02  0.10748486132E+03  0.50400001928E-02 0.  1.
</event>
<event>
 5   0  0.3724066E-02  0.6024278E+03  0.7818609E-02  0.9900382E-01
       -2   -1    0    0    0  501  0.00000000000E+00  0.00000000000E+00  0.43763207775E+03  0.43763207776E+03  0.25500000920E-02 0.  1.
        2   -1    0    0  501    0  0.00000000000E+00  0.00000000000E+00 -0.20731987309E+03  0.20731987311E+03  0.25500000920E-02 0. -1.
    10030    2    1    2    0    0  0.00000000000E+00  0.00000000000E+00  0.23031220466E+03  0.64495195087E+03  0.60242784407E+03 0.  0.
        4    1    3    3  502    0 -0.18368783955E+03  0.19967659357E+03  0.25522013572E+03  0.37249281201E+03  0.12699999809E+01 0.  1.
       -4    1    3    3    0  502  0.18368783955E+03 -0.19967659357E+03 -0.24907931059E+02  0.27245913886E+03  0.12699999809E+01 0. -1.
</event>
<event>
 5   0  0.3934634E-02  0.5989241E+03  0.7818609E-02  0.9907641E-01
        2   -1    0    0  501    0  0.00000000000E+00  0.00000000000E+00  0.90459823919E+03  0.90459823919E+03  0.25500000920E-02 0.  1.
       -2   -1    0    0    0  501  0.00000000000E+00  0.00000000000E+00 -0.99135206083E+02  0.99135206116E+02  0.25500000920E-02 0. -1.
    10030    2    1    2    0    0  0.00000000000E+00  0.00000000000E+00  0.80546303311E+03  0.10037334453E+04  0.59892414506E+03 0.  0.
        1    1    3    3  502    0  0.16072265835E+03  0.24787523901E+03  0.48489521989E+03  0.56780038862E+03  0.50400001928E-02 0. -1.
       -1    1    3    3    0  502 -0.16072265835E+03 -0.24787523901E+03  0.32056781322E+03  0.43593305669E+03  0.50400001928E-02 0.  1.
</event>
<event>
 5   0  0.3798925E-02  0.6047114E+03  0.7818609E-02  0.9895679E-01
       -2   -1    0    0    0  501  0.00000000000E+00  0.00000000000E+00  0.17800287962E+03  0.17800287963E+03  0.25500000920E-02 0. -1.
        2   -1    0    0  501    0  0.00000000000E+00  0.00000000000E+00 -0.51358143911E+03  0.51358143912E+03  0.25500000920E-02 0.  1.
    10030    2    1    2    0    0  0.00000000000E+00  0.00000000000E+00 -0.33557855950E+03  0.69158431875E+03  0.60471141907E+03 0.  0.
        2    1    3    3  502    0  0.13361076554E+03 -0.17209324260E+03 -0.40755197731E+03  0.46213259465E+03  0.25500000920E-02 0.  1.
       -2    1    3    3    0  502 -0.13361076554E+03  0.17209324260E+03  0.71973417813E+02  0.22945172411E+03  0.25500000920E-02 0. -1.
</event>
<event>
 5   0  0.2225808E-02  0.5971193E+03  0.7818609E-02  0.9911401E-01
        1   -1    0    0  501    0  0.00000000000E+00  0.00000000000E+00  0.32056516326E+03  0.32056516330E+03  0.50400001928E-02 0.  1.
       -1   -1    0    0    0  501  0.00000000000E+00  0.00000000000E+00 -0.27806472637E+03  0.27806472642E+03  0.50400001928E-02 0. -1.
    10030    2    1    2    0    0  0.00000000000E+00  0.00000000000E+00  0.42500436895E+02  0.59862988972E+03  0.59711929941E+03 0.  0.
        2    1    3    3  502    0  0.20684905468E+02  0.26283709228E+03 -0.11919938305E+03  0.28934355932E+03  0.25500000920E-02 0. -1.
       -2    1    3    3    0  502 -0.20684905468E+02 -0.26283709228E+03  0.16169981995E+03  0.30928633040E+03  0.25500000920E-02 0.  1.
</event>
<event>
 5   0  0.2225808E-02  0.5996802E+03  0.7818609E-02  0.9906070E-01
        1   -1    0    0  501    0  0.00000000000E+00  0.00000000000E+00  0.91670173572E+02  0.91670173711E+02  0.50400001928E-02 0. -1.
       -1   -1    0    0    0  501  0.00000000000E+00  0.00000000000E+00 -0.98073435996E+03  0.98073435998E+03  0.50400001928E-02 0.  1.
    10030    2    1    2    0    0  0.00000000000E+00  0.00000000000E+00 -0.88906418639E+03  0.10724045337E+04  0.59968021174E+03 0.  0.
        2    1    3    3  502    0  0.80826916281E+02 -0.18616037466E+03 -0.83923663169E+03  0.86342735622E+03  0.25500000920E-02 0.  1.
       -2    1    3    3    0  502 -0.80826916281E+02  0.18616037466E+03 -0.49827554701E+02  0.20897717747E+03  0.25500000920E-02 0. -1.
</event>
<event>
 5   0  0.3934634E-02  0.5935853E+03  0.7818609E-02  0.9918805E-01
       -2   -1    0    0    0  501  0.00000000000E+00  0.00000000000E+00  0.22210659175E+03  0.22210659177E+03  0.25500000920E-02 0. -1.
        2   -1    0    0  501    0  0.00000000000E+00  0.00000000000E+00 -0.39659281399E+03  0.39659281400E+03  0.25500000920E-02 0.  1.
    10030    2    1    2    0    0  0.00000000000E+00  0.00000000000E+00 -0.17448622224E+03  0.61869940577E+03  0.59358530385E+03 0.  0.
        1    1    3    3  502    0 -0.12816954560E+03  0.53926906949E+02  0.18605332391E+03  0.23227437025E+03  0.50400001928E-02 0. -1.
       -1    1    3    3    0  502  0.12816954560E+03 -0.53926906949E+02 -0.36053954615E+03  0.38642503552E+03  0.50400001928E-02 0.  1.
</event>
<event>
 5   0  0.2276105E-02  0.5951469E+03  0.7818609E-02  0.9915526E-01
        1   -1    0    0  501    0  0.00000000000E+00  0.00000000000E+00  0.12136514963E+04  0.12136514963E+04  0.50400001928E-02 0. -1.
       -1   -1    0    0    0  501  0.00000000000E+00  0.00000000000E+00 -0.72961591926E+02  0.72961592100E+02  0.50400001928E-02 0.  1.
    10030    2    1    2    0    0  0.00000000000E+00  0.00000000000E+00  0.11406899043E+04  0.12866130884E+04  0.59514685693E+03 0.  0.
        1    1    3    3  502    0  0.90504543929E+02 -0.14333279622E+03  0.10990669234E+04  0.11120627074E+04  0.50400001928E-02 0. -1.
       -1    1    3    3    0  502 -0.90504543929E+02  0.14333279622E+03  0.41622980921E+02  0.17455038101E+03  0.50400001928E-02 0.  1.
</event>
<event>
 5   0  0.2382531E-02  0.5953384E+03  0.7818609E-02  0.9915125E-01
        1   -1    0    0  501    0  0.00000000000E+00  0.00000000000E+00  0.26517159036E+03  0.26517159040E+03  0.50400001928E-02 0.  1.
       -1   -1    0    0    0  501  0.00000000000E+00  0.00000000000E+00 -0.33414950628E+03  0.33414950631E+03  0.50400001928E-02 0. -1.
    10030    2    1    2    0    0  0.00000000000E+00  0.00000000000E+00 -0.68977915921E+02  0.59932109672E+03  0.59533841140E+03 0.  0.
        5    1    3    3  502    0 -0.88994574998E+02 -0.27855819232E+03  0.21290787646E+02  0.29324066656E+03  0.46999998093E+01 0. -1.
       -5    1    3    3    0  502  0.88994574998E+02  0.27855819232E+03 -0.90268703566E+02  0.30608043016E+03  0.46999998093E+01 0.  1.
</event>
<event>
 5   0  0.3832191E-02  0.5932765E+03  0.7818609E-02  0.9919454E-01
        2   -1    0    0  501    0  0.00000000000E+00  0.00000000000E+00  0.12619524922E+03  0.12619524924E+03  0.25500000920E-02 0.  1.
       -2   -1    0    0    0  501  0.00000000000E+00  0.00000000000E+00 -0.69728662598E+03  0.69728662599E+03  0.25500000920E-02 0. -1.
    10030    2    1    2    0    0  0.00000000000E+00  0.00000000000E+00 -0.57109137677E+03  0.82348187523E+03  0.59327652761E+03 0.  0.
        3    1    3    3  502    0 -0.11899044887E+03  0.15767733797E+03 -0.59271435736E+03  0.62476490735E+03  0.10100000352E+00 0. -1.
       -3    1    3    3    0  502  0.11899044887E+03 -0.15767733797E+03  0.21622980598E+02  0.19871696788E+03  0.10100000352E+00 0.  1.
</event>
<event>
 5   0  0.2309055E-02  0.5974879E+03  0.7818609E-02  0.9910632E-01
        1   -1    0    0  501    0  0.00000000000E+00  0.00000000000E+00  0.69264722174E+02  0.69264722357E+02  0.50400001928E-02 0. -1.
       -1   -1    0    0    0  501  0.00000000000E+00  0.00000000000E+00 -0.12885048925E+04  0.12885048925E+04  0.50400001928E-02 0.  1.
    10030    2    1    2    0    0  0.00000000000E+00  0.00000000000E+00 -0.12192401704E+04  0.13577696149E+04  0.59748785270E+03 0.  0.
        4    1    3    3  502    0  0.19868866147E+03  0.22149081450E+03 -0.54902767561E+03  0.62447447233E+03  0.12699999809E+01 0. -1.
       -4    1    3    3    0  502 -0.19868866147E+03 -0.22149081450E+03 -0.67021249474E+03  0.73329514257E+03  0.12699999809E+01 0.  1.
</event>
<event>
 5   0  0.3798925E-02  0.6011046E+03  0.7818609E-02  0.9903117E-01
        2   -1    0    0  501    0  0.00000000000E+00  0.00000000000E+00  0.57551565979E+03  0.57551565980E+03  0.25500000920E-02 0.  1.
       -2   -1    0    0    0  501  0.00000000000E+00  0.00000000000E+00 -0.15695781126E+03  0.15695781128E+03  0.25500000920E-02 0. -1.
    10030    2    1    2    0    0  0.00000000000E+00  0.00000000000E+00  0.41855784853E+03  0.73247347108E+03  0.60110457765E+03 0.  0.
        2    1    3    3  502    0 -0.13692764473E+02 -0.80960688509E+02  0.56158316197E+03  0.56755420243E+03  0.25500000920E-02 0.  1.
       -2    1    3    3    0  502  0.13692764473E+02  0.80960688509E+02 -0.14302531344E+03  0.16491926865E+03  0.25500000920E-02 0. -1.
</event>
<event>
 5   0  0.2309055E-02  0.5994043E+03  0.7818609E-02  0.9906643E-01
       -1   -1    0    0    0  501  0.00000000000E+00  0.00000000000E+00  0.74783538085E+03  0.74783538086E+03  0.50400001928E-02 0. -1.
        1   -1    0    0  501    0  0.00000000000E+00  0.00000000000E+00 -0.12010850101E+03  0.12010850112E+03  0.50400001928E-02 0.  1.
    10030    2    1    2    0    0  0.00000000000E+00  0.00000000000E+00  0.62772687984E+03  0.86794388198E+03  0.59940432647E+03 0.  0.
        4    1    3    3  502    0  0.78034097179E+02  0.24077640603E+03  0.54625528996E+03  0.60204572313E+03  0.12699999809E+01 0.  1.
       -4    1    3    3    0  502 -0.78034097179E+02 -0.24077640603E+03  0.81471589873E+02  0.26589815885E+03  0.12699999809E+01 0. -1.
</event>
<event>
 5   0  0.2276105E-02  0.5995608E+03  0.7818609E-02  0.9906318E-01
        1   -1    0    0  501    0  0.00000000000E+00  0.00000000000E+00  0.17979747676E+04  0.17979747676E+04  0.50400001928E-02 0. -1.
       -1   -1    0    0    0  501  0.00000000000E+00  0.00000000000E+00 -0.49983061404E+02  0.49983061658E+02  0.50400001928E-02 0.  1.
    10030    2    1    2    0    0  0.00000000000E+00  0.00000000000E+00  0.17479917062E+04  0.18479578293E+04  0.59956078409E+03 0.  0.
        1    1    3    3  502    0 -0.19350750555E+03 -0.60949335695E+01  0.16854562872E+03  0.25669034244E+03  0.50400001928E-02 0.  1.
       -1    1    3    3    0  502  0.19350750555E+03  0.60949335695E+01  0.15794460775E+04  0.15912674868E+04  0.50400001928E-02 0. -1.
</event>
<event>
 5   0  0.3737642E-02  0.5995472E+03  0.7818609E-02  0.9906346E-01
        2   -1    0    0  501    0  0.00000000000E+00  0.00000000000E+00  0.75432284091E+03  0.75432284092E+03  0.25500000920E-02 0. -1.
       -2   -1    0    0    0  501  0.00000000000E+00  0.00000000000E+00 -0.11913227974E+03  0.11913227976E+03  0.25500000920E-02 0.  1.
    10030    2    1    2    0    0  0.00000000000E+00  0.00000000000E+00  0.63519056118E+03  0.87345512068E+03  0.59954716148E+03 0.  0.
        5    1    3    3  502    0 -0.23944480109E+03 -0.49458597532E+02  0.57019171738E+03  0.62041973712E+03  0.46999998093E+01 0. -1.
       -5    1    3    3    0  502  0.23944480109E+03  0.49458597532E+02  0.64998843796E+02  0.25303538356E+03  0.46999998093E+01 0.  1.
</event>
<event>
 5   0  0.2295179E-02  0.6009214E+03  0.7818609E-02  0.9903496E-01
        1   -1    0    0  501    0  0.00000000000E+00  0.00000000000E+00  0.15954494954E+04  0.15954494954E+04  0.50400001928E-02 0.  1.
       -1   -1    0    0    0  501  0.00000000000E+00  0.00000000000E+00 -0.56583816513E+02  0.56583816738E+02  0.50400001928E-02 0. -1.
    10030    2    1    2    0    0  0.00000000000E+00  0.00000000000E+00  0.15388656789E+04  0.16520333122E+04  0.60092136489E+03 0.  0.
        3    1    3    3  502    0  0.71358845311E+02 -0.15434024015E+03  0.14504477654E+04  0.14603806780E+04  0.10100000352E+00 0.  1.
       -3    1    3    3    0  502 -0.71358845311E+02  0.15434024015E+03  0.88417913556E+02  0.19165263414E+03  0.10100000352E+00 0. -1.
</event>
<event>
 5   0  0.1521750E-02  0.6296870E+03  0.7818609E-02  0.9845660E-01
        3   -1    0    0  501    0  0.00000000000E+00  0.00000000000E+00  0.28579805223E+03  0.28579807007E+03  0.10100000352E+00 0. -1.
       -3   -1    0    0    0  501  0.00000000000E+00  0.00000000000E+00 -0.34684082813E+03  0.34684084283E+03  0.10100000352E+00 0.  1.
    10030    2    1    2    0    0  0.00000000000E+00  0.00000000000E+00 -0.61042775903E+02  0.63263891291E+03  0.62968704420E+03 0.  0.
        3    1    3    3  502    0  0.25870564547E+03 -0.16838210691E+03 -0.92822470914E+02  0.32233083351E+03  0.10100000352E+00 0.  1.
       -3    1    3    3    0  502 -0.25870564547E+03  0.16838210691E+03  0.31779695011E+02  0.31030807940E+03  0.10100000352E+00 0. -1.
</event>
<event>
 5   0  0.2295179E-02  0.5792903E+03  0.7818609E-02  0.9949329E-01
        1   -1    0    0  501    0  0.00000000000E+00  0.00000000000E+00  0.38318891219E+03  0.38318891222E+03  0.50400001928E-02 0. -1.
       -1   -1    0    0    0  501  0.00000000000E+00  0.00000000000E+00 -0.21893718947E+03  0.21893718953E+03  0.50400001928E-02 0.  1.
    10030    2    1    2    0    0  0.00000000000E+00  0.00000000000E+00  0.16425172272E+03  0.60212610175E+03  0.57929026748E+03 0.  0.
        3    1    3    3  502    0  0.12463477604E+03  0.25626224466E+03  0.28214824714E+02  0.28635686123E+03  0.10100000352E+00 0.  1.
       -3    1    3    3    0  502 -0.12463477604E+03 -0.25626224466E+03  0.13603689800E+03  0.31576924052E+03  0.10100000352E+00 0. -1.
</event>
<event>
 5   0  0.3798925E-02  0.6167035E+03  0.7818609E-02  0.9871345E-01
       -2   -1    0    0    0  501  0.00000000000E+00  0.00000000000E+00  0.14901575435E+03  0.14901575437E+03  0.25500000920E-02 0. -1.
        2   -1    0    0  501    0  0.00000000000E+00  0.00000000000E+00 -0.63805861869E+03  0.63805861870E+03  0.25500000920E-02 0.  1.
    10030    2    1    2    0    0  0.00000000000E+00  0.00000000000E+00 -0.48904286435E+03  0.78707437306E+03  0.61670345026E+03 0.  0.
        2    1    3    3  502    0  0.10548497753E+03  0.20815641836E+03 -0.50175876846E+03  0.55336971070E+03  0.25500000920E-02 0.  1.
       -2    1    3    3    0  502 -0.10548497753E+03 -0.20815641836E+03  0.12715904110E+02  0.23370466237E+03  0.25500000920E-02 0. -1.
</event>
<event>
 5   0  0.3724066E-02  0.6025304E+03  0.7818609E-02  0.9900170E-01
       -2   -1    0    0    0  501  0.00000000000E+00  0.00000000000E+00  0.77555496466E+02  0.77555496508E+02  0.25500000920E-02 0. -1.
        2   -1    0    0  501    0  0.00000000000E+00  0.00000000000E+00 -0.11702680371E+04  0.11702680371E+04  0.25500000920E-02 0.  1.
    10030    2    1    2    0    0  0.00000000000E+00  0.00000000000E+00 -0.10927125406E+04  0.12478235336E+04  0.60253039306E+03 0.  0.
        4    1    3    3  502    0  0.25271951644E+03 -0.11035827296E+03 -0.29515323643E+03  0.40393458415E+03  0.12699999809E+01 0. -1.
       -4    1    3    3    0  502 -0.25271951644E+03  0.11035827296E+03 -0.79755930416E+03  0.84388894942E+03  0.12699999809E+01 0.  1.
</event>
<event>
 5   0  0.2295179E-02  0.5984803E+03  0.7818609E-02  0.9908564E-01
        1   -1    0    0  501    0  0.00000000000E+00  0.00000000000E+00  0.19335629393E+03  0.19335629400E+03  0.50400001928E-02 0. -1.
       -1   -1    0    0    0  501  0.00000000000E+00  0.00000000000E+00 -0.46310708650E+03  0.46310708653E+03  0.50400001928E-02 0.  1.
    10030    2    1    2    0    0  0.00000000000E+00  0.00000000000E+00 -0.26975079257E+03  0.65646338053E+03  0.59848030868E+03 0.  0.
        3    1    3    3  502    0  0.28259324511E+03  0.61156145565E+02 -0.50296878538E+02  0.29347709028E+03  0.10100000352E+00 0. -1.
       -3    1    3    3    0  502 -0.28259324511E+03 -0.61156145565E+02 -0.21945391403E+03  0.36298629025E+03  0.10100000352E+00 0.  1.
</event>
<event>
 5   0  0.3798925E-02  0.5883955E+03  0.7818609E-02  0.9929778E-01
        2   -1    0    0  501    0  0.00000000000E+00  0.00000000000E+00  0.18196836965E+04  0.18196836965E+04  0.25500000920E-02 0.  1.
       -2   -1    0    0    0  501  0.00000000000E+00  0.00000000000E+00 -0.47564484815E+02  0.47564484884E+02  0.25500000920E-02 0. -1.
    10030    2    1    2    0    0  0.00000000000E+00  0.00000000000E+00  0.17721192117E+04  0.18672481814E+04  0.58839550514E+03 0.  0.
        2    1    3    3  502    0 -0.10782404942E+03  0.72178832903E+02  0.17239756607E+04  0.17288516097E+04  0.25500000920E-02 0.  1.
       -2    1    3    3    0  502  0.10782404942E+03 -0.72178832903E+02  0.48143550966E+02  0.13839657170E+03  0.25500000920E-02 0. -1.
</event>
<event>
 5   0  0.3724066E-02  0.5989720E+03  0.7818609E-02  0.9907541E-01
        2   -1    0    0  501    0  0.00000000000E+00  0.00000000000E+00  0.33008989088E+03  0.33008989089E+03  0.25500000920E-02 0.  1.
       -2   -1    0    0    0  501  0.00000000000E+00  0.00000000000E+00 -0.27171951459E+03  0.27171951461E+03  0.25500000920E-02 0. -1.
    10030    2    1    2    0    0  0.00000000000E+00  0.00000000000E+00  0.58370376289E+02  0.60180940550E+03  0.59897200245E+03 0.  0.
        4    1    3    3  502    0 -0.66781026070E+00 -0.25072124969E+03  0.19375567244E+03  0.31686663523E+03  0.12699999809E+01 0.  1.
       -4    1    3    3    0  502  0.66781026070E+00  0.25072124969E+03 -0.13538529615E+03  0.28494277027E+03  0.12699999809E+01 0. -1.
</event>
<event>
 5   0  0.3832191E-02  0.6013366E+03  0.7818609E-02  0.9902637E-01
       -2   -1    0    0    0  501  0.00000000000E+00  0.00000000000E+00  0.10158663529E+03  0.10158663532E+03  0.25500000920E-02 0. -1.
        2   -1    0    0  501    0  0.00000000000E+00  0.00000000000E+00 -0.88989494518E+03  0.88989494518E+03  0.25500000920E-02 0.  1.
    10030    2    1    2    0    0  0.00000000000E+00  0.00000000000E+00 -0.78830830989E+03  0.99148158050E+03  0.60133662206E+03 0.  0.
        3    1    3    3  502    0  0.10258645937E+03  0.28099536164E+03 -0.44413874434E+03  0.53548259480E+03  0.10100000352E+00 0. -1.
       -3    1    3    3    0  502 -0.10258645937E+03 -0.28099536164E+03 -0.34416956555E+03  0.45599898570E+03  0.10100000352E+00 0.  1.
</event>
<event>
 5   0  0.2295179E-02  0.6048945E+03  0.7818609E-02  0.9895303E-01
        1   -1    0    0  501    0  0.00000000000E+00  0.00000000000E+00  0.95639311151E+03  0.95639311152E+03  0.50400001928E-02 0. -1.
       -1   -1    0    0    0  501  0.00000000000E+00  0.00000000000E+00 -0.95645111897E+02  0.95645112030E+02  0.50400001928E-02 0.  1.
    10030    2    1    2    0    0  0.00000000000E+00  0.00000000000E+00  0.86074799961E+03  0.10520382236E+04  0.60489445772E+03 0.  0.
        3    1    3    3  502    0  0.15841237143E+03  0.74049452497E+02  0.11854427496E+01  0.17486914054E+03  0.10100000352E+00 0.  1.
       -3    1    3    3    0  502 -0.15841237143E+03 -0.74049452497E+02  0.85956255686E+03  0.87716908301E+03  0.10100000352E+00 0. -1.
</event>
<event>
 5   0  0.3798925E-02  0.5957175E+03  0.7818609E-02  0.9914331E-01
        2   -1    0    0  501    0  0.00000000000E+00  0.00000000000E+00  0.65173641989E+03  0.65173641990E+03  0.25500000920E-02 0. -1.
       -2   -1    0    0    0  501  0.00000000000E+00  0.00000000000E+00 -0.13612839020E+03  0.13612839023E+03  0.25500000920E-02 0.  1.
    10030    2    1    2    0    0  0.00000000000E+00  0.00000000000E+00  0.51560802969E+03  0.78786481012E+03  0.59571748233E+03 0.  0.
        2    1    3    3  502    0 -0.15913120883E+03 -0.21813507125E+03  0.91487766653E+02  0.28508886753E+03  0.25500000920E-02 0.  1.
       -2    1    3    3    0  502  0.15913120883E+03  0.21813507125E+03  0.42412026303E+03  0.50277594260E+03  0.25500000920E-02 0. -1.
</event>
<event>
 5   0  0.2382531E-02  0.6004306E+03  0.7818609E-02  0.9904513E-01
        1   -1    0    0  501    0  0.00000000000E+00  0.00000000000E+00  0.14428950741E+03  0.14428950750E+03  0.50400001928E-02 0.  1.
       -1   -1    0    0    0  501  0.00000000000E+00  0.00000000000E+00 -0.62464160411E+03  0.62464160413E+03  0.50400001928E-02 0. -1.
    10030    2    1    2    0    0  0.00000000000E+00  0.00000000000E+00 -0.48035209671E+03  0.76893111163E+03  0.60043061017E+03 0.  0.
        5    1    3    3  502    0 -0.98587086819E+01 -0.23707910919E+03 -0.47225942833E+01  0.23737752852E+03  0.46999998093E+01 0.  1.
       -5    1    3    3    0  502  0.98587086819E+01  0.23707910919E+03 -0.47562950242E+03  0.53155358311E+03  0.46999998093E+01 0. -1.
</event>
<event>
 5   0  0.2225808E-02  0.5977229E+03  0.7818609E-02  0.9910142E-01
        1   -1    0    0  501    0  0.00000000000E+00  0.00000000000E+00  0.11554976610E+04  0.11554976610E+04  0.50400001928E-02 0. -1.
       -1   -1    0    0    0  501  0.00000000000E+00  0.00000000000E+00 -0.77298443648E+02  0.77298443812E+02  0.50400001928E-02 0.  1.
    10030    2    1    2    0    0  0.00000000000E+00  0.00000000000E+00  0.10781992173E+04  0.12327961048E+04  0.59772291553E+03 0.  0.
        2    1    3    3  502    0  0.26972648063E+03 -0.45192704449E+02  0.78765645878E+03  0.83378501542E+03  0.25500000920E-02 0. -1.
       -2    1    3    3    0  502 -0.26972648063E+03  0.45192704449E+02  0.29054275853E+03  0.39901108936E+03  0.25500000920E-02 0.  1.
</event>
<event>
 5   0  0.3798925E-02  0.6010748E+03  0.7818609E-02  0.9903179E-01
       -2   -1    0    0    0  501  0.00000000000E+00  0.00000000000E+00  0.66724614678E+03  0.66724614679E+03  0.25500000920E-02 0. -1.
        2   -1    0    0  501    0  0.00000000000E+00  0.00000000000E+00 -0.13536643748E+03  0.13536643751E+03  0.25500000920E-02 0.  1.
    10030    2    1    2    0    0  0.00000000000E+00  0.00000000000E+00  0.53187970930E+03  0.80261258430E+03  0.60107481673E+03 0.  0.
        2    1    3    3  502    0 -0.20851746291E+03  0.41972228050E+02  0.54945533223E+03  0.58918788377E+03  0.25500000920E-02 0. -1.
       -2    1    3    3    0  502  0.20851746291E+03 -0.41972228050E+02 -0.17575622925E+02  0.21342470052E+03  0.25500000920E-02 0.  1.
</event>
<event>
 5   0  0.2295179E-02  0.6025998E+03  0.7818609E-02  0.9900027E-01
       -1   -1    0    0    0  501  0.00000000000E+00  0.00000000000E+00  0.94318314444E+02  0.94318314578E+02  0.50400001928E-02 0. -1.
        1   -1    0    0  501    0  0.00000000000E+00  0.00000000000E+00 -0.96250278865E+03  0.96250278866E+03  0.50400001928E-02 0.  1.
    10030    2    1    2    0    0  0.00000000000E+00  0.00000000000E+00 -0.86818447421E+03  0.10568211032E+04  0.60259983654E+03 0.  0.
        3    1    3    3  502    0 -0.96548997358E+02  0.17617820889E+03 -0.40289359336E+02  0.20489927490E+03  0.10100000352E+00 0. -1.
       -3    1    3    3    0  502  0.96548997358E+02 -0.17617820889E+03 -0.82789511487E+03  0.85192182834E+03  0.10100000352E+00 0.  1.
</event>
<event>
 5   0  0.2295179E-02  0.6008180E+03  0.7818609E-02  0.9903710E-01
       -1   -1    0    0    0  501  0.00000000000E+00  0.00000000000E+00  0.65741598424E+03  0.65741598426E+03  0.50400001928E-02 0. -1.
        1   -1    0    0  501    0  0.00000000000E+00  0.00000000000E+00 -0.13727314069E+03  0.13727314079E+03  0.50400001928E-02 0.  1.
    10030    2    1    2    0    0  0.00000000000E+00  0.00000000000E+00  0.52014284355E+03  0.79468912505E+03  0.60081796559E+03 0.  0.
        3    1    3    3  502    0  0.27751309359E+03 -0.53016197545E+02  0.39509685133E+03  0.48572190237E+03  0.10100000352E+00 0. -1.
       -3    1    3    3    0  502 -0.27751309359E+03  0.53016197545E+02  0.12504599222E+03  0.30896722268E+03  0.10100000352E+00 0.  1.
</event>
<event>
 5   0  0.2295179E-02  0.5995010E+03  0.7818609E-02  0.9906442E-01
       -1   -1    0    0    0  501  0.00000000000E+00  0.00000000000E+00  0.13254843992E+03  0.13254844001E+03  0.50400001928E-02 0. -1.
        1   -1    0    0  501    0  0.00000000000E+00  0.00000000000E+00 -0.67786814150E+03  0.67786814152E+03  0.50400001928E-02 0.  1.
    10030    2    1    2    0    0  0.00000000000E+00  0.00000000000E+00 -0.54531970158E+03  0.81041658153E+03  0.59950100807E+03 0.  0.
        3    1    3    3  502    0 -0.88328184344E+02 -0.28534476770E+03 -0.23881441048E+03  0.38243409558E+03  0.10100000352E+00 0. -1.
       -3    1    3    3    0  502  0.88328184344E+02  0.28534476770E+03 -0.30650529110E+03  0.42798248595E+03  0.10100000352E+00 0.  1.
</event>
<event>
 5   0  0.2225808E-02  0.5991041E+03  0.7818609E-02  0.9907267E-01
       -1   -1    0    0    0  501  0.00000000000E+00  0.00000000000E+00  0.21953025966E+03  0.21953025972E+03  0.50400001928E-02 0.  1.
        1   -1    0    0  501    0  0.00000000000E+00  0.00000000000E+00 -0.40874285920E+03  0.40874285923E+03  0.50400001928E-02 0. -1.
    10030    2    1    2    0    0  0.00000000000E+00  0.00000000000E+00 -0.18921259954E+03  0.62827311895E+03  0.59910408459E+03 0.  0.
        2    1    3    3  502    0  0.87290904810E+02 -0.23184269448E+03 -0.27121194699E+03  0.36732364101E+03  0.25500000920E-02 0. -1.
       -2    1    3    3    0  502 -0.87290904810E+02  0.23184269448E+03  0.81999347452E+02  0.26094947794E+03  0.25500000920E-02 0.  1.
</event>
<event>
 5   0  0.3737642E-02  0.5986934E+03  0.7818609E-02  0.9908120E-01
        2   -1    0    0  501    0  0.00000000000E+00  0.00000000000E+00  0.88865521994E+02  0.88865522030E+02  0.25500000920E-02 0. -1.
       -2   -1    0    0    0  501  0.00000000000E+00  0.00000000000E+00 -0.10083601827E+04  0.10083601827E+04  0.25500000920E-02 0.  1.
    10030    2    1    2    0    0  0.00000000000E+00  0.00000000000E+00 -0.91949466075E+03  0.10972257048E+04  0.59869342411E+03 0.  0.
        5    1    3    3  502    0  0.72608018351E+02 -0.16806030897E+03 -0.25779606390E+02  0.18494017921E+03  0.46999998093E+01 0. -1.
       -5    1    3    3    0  502 -0.72608018351E+02  0.16806030897E+03 -0.89371505435E+03  0.91228552557E+03  0.46999998093E+01 0.  1.
</event>
<event>
 5   0  0.2309055E-02  0.5991984E+03  0.7818609E-02  0.9907071E-01
        1   -1    0    0  501    0  0.00000000000E+00  0.00000000000E+00  0.12935302770E+03  0.12935302780E+03  0.50400001928E-02 0.  1.
       -1   -1    0    0    0  501  0.00000000000E+00  0.00000000000E+00 -0.69391237089E+03  0.69391237091E+03  0.50400001928E-02 0. -1.
    10030    2    1    2    0    0  0.00000000000E+00  0.00000000000E+00 -0.56455934319E+03  0.82326539871E+03  0.59919835173E+03 0.  0.
        4    1    3    3  502    0 -0.18759721194E+03 -0.74606209395E+02  0.21853633583E+02  0.20307140273E+03  0.12699999809E+01 0.  1.
       -4    1    3    3    0  502  0.18759721194E+03  0.74606209395E+02 -0.58641297678E+03  0.62019399597E+03  0.12699999809E+01 0. -1.
</event>
<event>
 5   0  0.2295179E-02  0.5988468E+03  0.7818609E-02  0.9907801E-01
        1   -1    0    0  501    0  0.00000000000E+00  0.00000000000E+00  0.21069788176E+03  0.21069788182E+03  0.50400001928E-02 0.  1.
       -1   -1    0    0    0  501  0.00000000000E+00  0.00000000000E+00 -0.42551154096E+03  0.42551154098E+03  0.50400001928E-02 0. -1.
    10030    2    1    2    0    0  0.00000000000E+00  0.00000000000E+00 -0.21481365919E+03  0.63620942281E+03  0.59884682640E+03 0.  0.
        3    1    3    3  502    0 -0.21945851648E+03 -0.14028842420E+03  0.49494632125E+02  0.26512753767E+03  0.10100000352E+00 0.  1.
       -3    1    3    3    0  502  0.21945851648E+03  0.14028842420E+03 -0.26430829132E+03  0.37108188514E+03  0.10100000352E+00 0. -1.
</event>
<event>
 5   0  0.1521750E-02  0.6014004E+03  0.7818609E-02  0.9902505E-01
       -3   -1    0    0    0  501  0.00000000000E+00  0.00000000000E+00  0.11823869017E+03  0.11823873330E+03  0.10100000352E+00 0.  1.
        3   -1    0    0  501    0  0.00000000000E+00  0.00000000000E+00 -0.76472915289E+03  0.76472915956E+03  0.10100000352E+00 0. -1.
    10030    2    1    2    0    0  0.00000000000E+00  0.00000000000E+00 -0.64649046272E+03  0.88296789286E+03  0.60140035038E+03 0.  0.
        5    1    3    3  502    0  0.95984457850E+02  0.26078900489E+03 -0.15472591345E+03  0.31809765720E+03  0.46999998093E+01 0.  1.
       -5    1    3    3    0  502 -0.95984457850E+02 -0.26078900489E+03 -0.49176454927E+03  0.56487023566E+03  0.46999998093E+01 0. -1.
</event>
<event>
 5   0  0.3798925E-02  0.6043878E+03  0.7818609E-02  0.9896344E-01
       -2   -1    0    0    0  501  0.00000000000E+00  0.00000000000E+00  0.25806551732E+03  0.25806551733E+03  0.25500000920E-02 0.  1.
        2   -1    0    0  501    0  0.00000000000E+00  0.00000000000E+00 -0.35386806753E+03  0.35386806753E+03  0.25500000920E-02 0. -1.
    10030    2    1    2    0    0  0.00000000000E+00  0.00000000000E+00 -0.95802550206E+02  0.61193358487E+03  0.60438777590E+03 0.  0.
        2    1    3    3  502    0 -0.30095477820E+03 -0.76216238867E+01 -0.74483167796E+02  0.31012837659E+03  0.25500000920E-02 0. -1.
       -2    1    3    3    0  502  0.30095477820E+03  0.76216238867E+01 -0.21319382410E+02  0.30180520828E+03  0.25500000920E-02 0.  1.
</event>
<event>
 5   0  0.1521750E-02  0.5976934E+03  0.7818609E-02  0.9910203E-01
        4   -1    0    0  501    0  0.00000000000E+00  0.00000000000E+00  0.11997802700E+03  0.11998474846E+03  0.12699999809E+01 0. -1.
       -4   -1    0    0    0  501  0.00000000000E+00  0.00000000000E+00 -0.74435273686E+03  0.74435382029E+03  0.12699999809E+01 0.  1.
    10030    2    1    2    0    0  0.00000000000E+00  0.00000000000E+00 -0.62437470986E+03  0.86433856874E+03  0.59769338552E+03 0.  0.
        1    1    3    3  502    0 -0.25947871010E+02 -0.13159928939E+03 -0.69838004470E+03  0.71114439591E+03  0.50400001928E-02 0.  1.
       -1    1    3    3    0  502  0.25947871010E+02  0.13159928939E+03  0.74005334835E+02  0.15319417283E+03  0.50400001928E-02 0. -1.
</event>
<event>
 5   0  0.3737642E-02  0.5931154E+03  0.7818609E-02  0.9919793E-01
        2   -1    0    0  501    0  0.00000000000E+00  0.00000000000E+00  0.58715100617E+03  0.58715100618E+03  0.25500000920E-02 0. -1.
       -2   -1    0    0    0  501  0.00000000000E+00  0.00000000000E+00 -0.14978508277E+03  0.14978508280E+03  0.25500000920E-02 0.  1.
    10030    2    1    2    0    0  0.00000000000E+00  0.00000000000E+00  0.43736592340E+03  0.73693608898E+03  0.59311537519E+03 0.  0.
        5    1    3    3  502    0  0.32138625491E+02 -0.29340391850E+03  0.18341696608E+03  0.34753794625E+03  0.46999998093E+01 0.  1.
       -5    1    3    3    0  502 -0.32138625491E+02  0.29340391850E+03  0.25394895732E+03  0.38939814273E+03  0.46999998093E+01 0. -1.
</event>
<event>
 5   0  0.2276105E-02  0.6015102E+03  0.7818609E-02  0.9902278E-01
       -1   -1    0    0    0  501  0.00000000000E+00  0.00000000000E+00  0.20028624802E+03  0.20028624808E+03  0.50400001928E-02 0.  1.
        1   -1    0    0  501    0  0.00000000000E+00  0.00000000000E+00 -0.45162181378E+03  0.45162181381E+03  0.50400001928E-02 0. -1.
    10030    2    1    2    0    0  0.00000000000E+00  0.00000000000E+00 -0.25133556576E+03  0.65190806189E+03  0.60151022813E+03 0.  0.
        1    1    3    3  502    0 -0.15601524521E+03  0.21502079587E+03  0.27138052054E+02  0.26704151978E+03  0.50400001928E-02 0.  1.
       -1    1    3    3    0  502  0.15601524521E+03 -0.21502079587E+03 -0.27847361781E+03  0.38486654211E+03  0.50400001928E-02 0. -1.
</event>
<event>
 5   0  0.3832191E-02  0.5976818E+03  0.7818609E-02  0.9910227E-01
        2   -1    0    0  501    0  0.00000000000E+00  0.00000000000E+00  0.30148156916E+03  0.30148156917E+03  0.25500000920E-02 0.  1.
       -2   -1    0    0    0  501  0.00000000000E+00  0.00000000000E+00 -0.29622333798E+03  0.29622333800E+03  0.25500000920E-02 0. -1.
    10030    2    1    2    0    0  0.00000000000E+00  0.00000000000E+00  0.52582311716E+01  0.59770490716E+03  0.59768177741E+03 0.  0.
        3    1    3    3  502    0  0.16685896825E+03 -0.22059188588E+03  0.11578459324E+03  0.29984792418E+03  0.10100000352E+00 0.  1.
       -3    1    3    3    0  502 -0.16685896825E+03  0.22059188588E+03 -0.11052636207E+03  0.29785698299E+03  0.10100000352E+00 0. -1.
</event>
<event>
 5   0  0.3737642E-02  0.6186641E+03  0.7818609E-02  0.9867423E-01
        2   -1    0    0  501    0  0.00000000000E+00  0.00000000000E+00  0.26458391938E+03  0.26458391939E+03  0.25500000920E-02 0.  1.
       -2   -1    0    0    0  501  0.00000000000E+00  0.00000000000E+00 -0.36164831546E+03  0.36164831547E+03  0.25500000920E-02 0. -1.
    10030    2    1    2    0    0  0.00000000000E+00  0.00000000000E+00 -0.97064396075E+02  0.62623223486E+03  0.61866413747E+03 0.  0.
        5    1    3    3  502    0  0.25525271419E+02  0.20322080277E+03  0.18606576836E+03  0.27675403215E+03  0.46999998093E+01 0.  1.
       -5    1    3    3    0  502 -0.25525271419E+02 -0.20322080277E+03 -0.28313016443E+03  0.34947820271E+03  0.46999998093E+01 0. -1.
</event>
<event>
 5   0  0.2276105E-02  0.6025257E+03  0.7818609E-02  0.9900180E-01
        1   -1    0    0  501    0  0.00000000000E+00  0.00000000000E+00  0.71282761653E+03  0.71282761655E+03  0.50400001928E-02 0.  1.
       -1   -1    0    0    0  501  0.00000000000E+00  0.00000000000E+00 -0.12732294401E+03  0.12732294411E+03  0.50400001928E-02 0. -1.
    10030    2    1    2    0    0  0.00000000000E+00  0.00000000000E+00  0.58550467252E+03  0.84015056066E+03  0.60252571981E+03 0.  0.
        1    1    3    3  502    0 -0.73500546751E+02  0.19935043137E+03  0.59056418197E+03  0.62762168375E+03  0.50400001928E-02 0.  1.
       -1    1    3    3    0  502  0.73500546751E+02 -0.19935043137E+03 -0.50595094476E+01  0.21252887691E+03  0.50400001928E-02 0. -1.
</event>
<event>
 5   0  0.3798925E-02  0.6008330E+03  0.7818609E-02  0.9903679E-01
        2   -1    0    0  501    0  0.00000000000E+00  0.00000000000E+00  0.54308112120E+03  0.54308112121E+03  0.25500000920E-02 0. -1.
       -2   -1    0    0    0  501  0.00000000000E+00  0.00000000000E+00 -0.16618159617E+03  0.16618159619E+03  0.25500000920E-02 0.  1.
    10030    2    1    2    0    0  0.00000000000E+00  0.00000000000E+00  0.37689952503E+03  0.70926271740E+03  0.60083304697E+03 0.  0.
        2    1    3    3  502    0 -0.14508364455E+03 -0.17536388558E+03 -0.43018828357E+02  0.23162982511E+03  0.25500000920E-02 0.  1.
       -2    1    3    3    0  502  0.14508364455E+03  0.17536388558E+03  0.41991835338E+03  0.47763289229E+03  0.25500000920E-02 0. -1.
</event>
<event>
 5   0  0.3737642E-02  0.5942852E+03  0.7818609E-02  0.9917334E-01
       -2   -1    0    0    0  501  0.00000000000E+00  0.00000000000E+00  0.41004602453E+03  0.41004602454E+03  0.25500000920E-02 0. -1.
        2   -1    0    0  501    0  0.00000000000E+00  0.00000000000E+00 -0.21532639542E+03  0.21532639544E+03  0.25500000920E-02 0.  1.
    10030    2    1    2    0    0  0.00000000000E+00  0.00000000000E+00  0.19471962911E+03  0.62537241998E+03  0.59428522589E+03 0.  0.
        5    1    3    3  502    0 -0.14204917620E+03 -0.29191830849E+02  0.37023404406E+03  0.39764993251E+03  0.46999998093E+01 0. -1.
       -5    1    3    3    0  502  0.14204917620E+03  0.29191830849E+02 -0.17551441494E+03  0.22772248747E+03  0.46999998093E+01 0.  1.
</event>
<event>
 5   0  0.2225808E-02  0.6039793E+03  0.7818609E-02  0.9897184E-01
        1   -1    0    0  501    0  0.00000000000E+00  0.00000000000E+00  0.32593569417E+03  0.32593569421E+03  0.50400001928E-02 0. -1.
       -1   -1    0    0    0  501  0.00000000000E+00  0.00000000000E+00 -0.27980290273E+03  0.27980290277E+03  0.50400001928E-02 0.  1.
    10030    2    1    2    0    0  0.00000000000E+00  0.00000000000E+00  0.46132791441E+02  0.60573859698E+03  0.60397931539E+03 0.  0.
        2    1    3    3  502    0 -0.29401077026E+03  0.32713167769E+02  0.83949638720E+02  0.30750614013E+03  0.25500000920E-02 0. -1.
       -2    1    3    3    0  502  0.29401077026E+03 -0.32713167769E+02 -0.37816847280E+02  0.29823245685E+03  0.25500000920E-02 0.  1.
</event>
<event>
 5   0  0.3737642E-02  0.6000642E+03  0.7818609E-02  0.9905273E-01
       -2   -1    0    0    0  501  0.00000000000E+00  0.00000000000E+00  0.12740818273E+03  0.12740818275E+03  0.25500000920E-02 0. -1.
        2   -1    0    0  501    0  0.00000000000E+00  0.00000000000E+00 -0.70654232585E+03  0.70654232585E+03  0.25500000920E-02 0.  1.
    10030    2    1    2    0    0  0.00000000000E+00  0.00000000000E+00 -0.57913414312E+03  0.83395050860E+03  0.60006424246E+03 0.  0.
        5    1    3    3  502    0  0.20771888865E+03 -0.19469833451E+03 -0.42099103748E+03  0.50824218814E+03  0.46999998093E+01 0. -1.
       -5    1    3    3    0  502 -0.20771888865E+03  0.19469833451E+03 -0.15814310563E+03  0.32570832047E+03  0.46999998093E+01 0.  1.
</event>
<event>
 5   0  0.2309055E-02  0.5959535E+03  0.7818609E-02  0.9913837E-01
       -1   -1    0    0    0  501  0.00000000000E+00  0.00000000000E+00  0.10478064260E+03  0.10478064272E+03  0.50400001928E-02 0. -1.
        1   -1    0    0  501    0  0.00000000000E+00  0.00000000000E+00 -0.84739063414E+03  0.84739063416E+03  0.50400001928E-02 0.  1.
    10030    2    1    2    0    0  0.00000000000E+00  0.00000000000E+00 -0.74260999154E+03  0.95217127688E+03  0.59595347216E+03 0.  0.
        4    1    3    3  502    0  0.25533857398E+03  0.69057264885E+02 -0.15210848560E+03  0.30513160683E+03  0.12699999809E+01 0. -1.
       -4    1    3    3    0  502 -0.25533857398E+03 -0.69057264885E+02 -0.59050150594E+03  0.64703967005E+03  0.12699999809E+01 0.  1.
</event>
<event>
 5   0  0.2382531E-02  0.6093119E+03  0.7818609E-02  0.9886273E-01
       -1   -1    0    0    0  501  0.00000000000E+00  0.00000000000E+00  0.29816558818E+03  0.29816558822E+03  0.50400001928E-02 0.  1.
        1   -1    0    0  501    0  0.00000000000E+00  0.00000000000E+00 -0.31128754308E+03  0.31128754312E+03  0.50400001928E-02 0. -1.
    10030    2    1    2    0    0  0.00000000000E+00  0.00000000000E+00 -0.13121954908E+02  0.60945313134E+03  0.60931185250E+03 0.  0.
        5    1    3    3  502    0  0.42301947319E+02  0.12374415440E+03 -0.28174487484E+03  0.31065146868E+03  0.46999998093E+01 0. -1.
       -5    1    3    3    0  502 -0.42301947319E+02 -0.12374415440E+03  0.26862291993E+03  0.29880166266E+03  0.46999998093E+01 0.  1.
</event>
<event>
 5   0  0.2382531E-02  0.6140048E+03  0.7818609E-02  0.9876769E-01
        1   -1    0    0  501    0  0.00000000000E+00  0.00000000000E+00  0.46095179353E+03  0.46095179356E+03  0.50400001928E-02 0. -1.
       -1   -1    0    0    0  501  0.00000000000E+00  0.00000000000E+00 -0.20446925326E+03  0.20446925332E+03  0.50400001928E-02 0.  1.
    10030    2    1    2    0    0  0.00000000000E+00  0.00000000000E+00  0.25648254027E+03  0.66542104688E+03  0.61400478513E+03 0.  0.
        5    1    3    3  502    0  0.20778585303E+03 -0.12115742909E+03 -0.78449971421E+02  0.25304262755E+03  0.46999998093E+01 0.  1.
       -5    1    3    3    0  502 -0.20778585303E+03  0.12115742909E+03  0.33493251169E+03  0.41237841933E+03  0.46999998093E+01 0. -1.
</event>
<event>
 5   0  0.2382531E-02  0.6006148E+03  0.7818609E-02  0.9904131E-01
       -1   -1    0    0    0  501  0.00000000000E+00  0.00000000000E+00  0.11969919194E+03  0.11969919204E+03  0.50400001928E-02 0.  1.
        1   -1    0    0  501    0  0.00000000000E+00  0.00000000000E+00 -0.75342633894E+03  0.75342633896E+03  0.50400001928E-02 0. -1.
    10030    2    1    2    0    0  0.00000000000E+00  0.00000000000E+00 -0.63372714701E+03  0.87312553100E+03  0.60061476508E+03 0.  0.
        5    1    3    3  502    0  0.13868351702E+03 -0.25648196107E+03 -0.42115030752E+03  0.51225558637E+03  0.46999998093E+01 0.  1.
       -5    1    3    3    0  502 -0.13868351702E+03  0.25648196107E+03 -0.21257683949E+03  0.36086994463E+03  0.46999998093E+01 0. -1.
</event>
<event>
 5   0  0.3832191E-02  0.6137963E+03  0.7818609E-02  0.9877189E-01
       -2   -1    0    0    0  501  0.00000000000E+00  0.00000000000E+00  0.37913085627E+03  0.37913085628E+03  0.25500000920E-02 0.  1.
        2   -1    0    0  501    0  0.00000000000E+00  0.00000000000E+00 -0.24842733566E+03  0.24842733567E+03  0.25500000920E-02 0. -1.
    10030    2    1    2    0    0  0.00000000000E+00  0.00000000000E+00  0.13070352062E+03  0.62755819195E+03  0.61379628052E+03 0.  0.
        3    1    3    3  502    0  0.21553341286E+03  0.21342925798E+03  0.17617093197E+02  0.30383724656E+03  0.10100000352E+00 0. -1.
       -3    1    3    3    0  502 -0.21553341286E+03 -0.21342925798E+03  0.11308642742E+03  0.32372094540E+03  0.10100000352E+00 0.  1.
</event>
<event>
 5   0  0.2295179E-02  0.5990033E+03  0.7818609E-02  0.9907476E-01
        1   -1    0    0  501    0  0.00000000000E+00  0.00000000000E+00  0.12389550562E+03  0.12389550572E+03  0.50400001928E-02 0.  1.
       -1   -1    0    0    0  501  0.00000000000E+00  0.00000000000E+00 -0.72400731555E+03  0.72400731557E+03  0.50400001928E-02 0. -1.
    10030    2    1    2    0    0  0.00000000000E+00  0.00000000000E+00 -0.60011180993E+03  0.84790282129E+03  0.59900334718E+03 0.  0.
        3    1    3    3  502    0 -0.20809119251E+03  0.18877192844E+03 -0.15319273667E+03  0.32000751575E+03  0.10100000352E+00 0.  1.
       -3    1    3    3    0  502  0.20809119251E+03 -0.18877192844E+03 -0.44691907326E+03  0.52789530554E+03  0.10100000352E+00 0. -1.
</event>
<event>
 5   0  0.2382531E-02  0.6158037E+03  0.7818609E-02  0.9873150E-01
        1   -1    0    0  501    0  0.00000000000E+00  0.00000000000E+00  0.81103117798E+03  0.81103117800E+03  0.50400001928E-02 0.  1.
       -1   -1    0    0    0  501  0.00000000000E+00  0.00000000000E+00 -0.11689260078E+03  0.11689260089E+03  0.50400001928E-02 0. -1.
    10030    2    1    2    0    0  0.00000000000E+00  0.00000000000E+00  0.69413857720E+03  0.92792377889E+03  0.61580368225E+03 0.  0.
        5    1    3    3  502    0  0.16331892884E+03 -0.21098023967E+03  0.11560359219E+03  0.29081267953E+03  0.46999998093E+01 0. -1.
       -5    1    3    3    0  502 -0.16331892884E+03  0.21098023967E+03  0.57853498501E+03  0.63711109936E+03  0.46999998093E+01 0.  1.
</event>
<event>
 5   0  0.3832191E-02  0.5960212E+03  0.7818609E-02  0.9913695E-01
        2   -1    0    0  501    0  0.00000000000E+00  0.00000000000E+00  0.13797341763E+03  0.13797341766E+03  0.25500000920E-02 0.  1.
       -2   -1    0    0    0  501  0.00000000000E+00  0.00000000000E+00 -0.64367695201E+03  0.64367695202E+03  0.25500000920E-02 0. -1.
    10030    2    1    2    0    0  0.00000000000E+00  0.00000000000E+00 -0.50570353438E+03  0.78165036968E+03  0.59602117054E+03 0.  0.
        3    1    3    3  502    0 -0.20664558939E+03 -0.20016702398E+03 -0.15092048558E+03  0.32487880859E+03  0.10100000352E+00 0.  1.
       -3    1    3    3    0  502  0.20664558939E+03  0.20016702398E+03 -0.35478304879E+03  0.45677156108E+03  0.10100000352E+00 0. -1.
</event>
<event>
 5   0  0.3934634E-02  0.6014113E+03  0.7818609E-02  0.9902482E-01
        2   -1    0    0  501    0  0.00000000000E+00  0.00000000000E+00  0.93859842837E+03  0.93859842837E+03  0.25500000920E-02 0. -1.
       -2   -1    0    0    0  501  0.00000000000E+00  0.00000000000E+00 -0.96339258503E+02  0.96339258537E+02  0.25500000920E-02 0.  1.
    10030    2    1    2    0    0  0.00000000000E+00  0.00000000000E+00  0.84225916987E+03  0.10349376869E+04  0.60141126242E+03 0.  0.
        1    1    3    3  502    0 -0.78980590999E+02 -0.29651204926E+02 -0.75557352324E+02  0.11325211355E+03  0.50400001928E-02 0.  1.
       -1    1    3    3    0  502  0.78980590999E+02  0.29651204926E+02  0.91781652219E+03  0.92168557336E+03  0.50400001928E-02 0. -1.
</event>
<event>
 5   0  0.3724066E-02  0.6033194E+03  0.7818609E-02  0.9898543E-01
        2   -1    0    0  501    0  0.00000000000E+00  0.00000000000E+00  0.45078526865E+03  0.45078526866E+03  0.25500000920E-02 0.  1.
       -2   -1    0    0    0  501  0.00000000000E+00  0.00000000000E+00 -0.20186680888E+03  0.20186680890E+03  0.25500000920E-02 0. -1.
    10030    2    1    2    0    0  0.00000000000E+00  0.00000000000E+00  0.24891845977E+03  0.65265207756E+03  0.60331943009E+03 0.  0.
        4    1    3    3  502    0  0.44531398662E+00 -0.32407017386E+02 -0.19997501312E+03  0.20258833098E+03  0.12699999809E+01 0. -1.
       -4    1    3    3    0  502 -0.44531398662E+00  0.32407017386E+02  0.44889347289E+03  0.45006374657E+03  0.12699999809E+01 0.  1.
</event>
<event>
 5   0  0.1521750E-02  0.6014400E+03  0.7818609E-02  0.9902423E-01
        3   -1    0    0  501    0  0.00000000000E+00  0.00000000000E+00  0.38227430932E+03  0.38227432266E+03  0.10100000352E+00 0.  1.
       -3   -1    0    0    0  501  0.00000000000E+00  0.00000000000E+00 -0.23656443141E+03  0.23656445297E+03  0.10100000352E+00 0. -1.
    10030    2    1    2    0    0  0.00000000000E+00  0.00000000000E+00  0.14570987791E+03  0.61883877564E+03  0.60143999012E+03 0.  0.
        5    1    3    3  502    0  0.61065514149E+02 -0.13578349287E+03 -0.19593828600E+03  0.24613016043E+03  0.46999998093E+01 0. -1.
       -5    1    3    3    0  502 -0.61065514149E+02  0.13578349287E+03  0.34164816390E+03  0.37270861521E+03  0.46999998093E+01 0.  1.
</event>
<event>
 5   0  0.2225808E-02  0.6038536E+03  0.7818609E-02  0.9897443E-01
       -1   -1    0    0    0  501  0.00000000000E+00  0.00000000000E+00  0.12044576921E+03  0.12044576931E+03  0.50400001928E-02 0. -1.
        1   -1    0    0  501    0  0.00000000000E+00  0.00000000000E+00 -0.75685329754E+03  0.75685329756E+03  0.50400001928E-02 0.  1.
    10030    2    1    2    0    0  0.00000000000E+00  0.00000000000E+00 -0.63640752833E+03  0.87729906687E+03  0.60385355063E+03 0.  0.
        2    1    3    3  502    0 -0.11727562339E+03 -0.27819994660E+03 -0.31338624005E+03  0.43515482025E+03  0.25500000920E-02 0. -1.
       -2    1    3    3    0  502  0.11727562339E+03  0.27819994660E+03 -0.32302128828E+03  0.44214424662E+03  0.25500000920E-02 0.  1.
</event>
<event>
 5   0  0.3737642E-02  0.6047599E+03  0.7818609E-02  0.9895580E-01
       -2   -1    0    0    0  501  0.00000000000E+00  0.00000000000E+00  0.61172147475E+03  0.61172147475E+03  0.25500000920E-02 0.  1.
        2   -1    0    0  501    0  0.00000000000E+00  0.00000000000E+00 -0.14946939192E+03  0.14946939195E+03  0.25500000920E-02 0. -1.
    10030    2    1    2    0    0  0.00000000000E+00  0.00000000000E+00  0.46225208282E+03  0.76119086670E+03  0.60475990895E+03 0.  0.
        5    1    3    3  502    0 -0.64620473143E+02 -0.28029314109E+02  0.60120408782E+03  0.60533453000E+03  0.46999998093E+01 0.  1.
       -5    1    3    3    0  502  0.64620473143E+02  0.28029314109E+02 -0.13895200500E+03  0.15585633670E+03  0.46999998093E+01 0. -1.
</event>
<event>
 5   0  0.2309055E-02  0.5973661E+03  0.7818609E-02  0.9910886E-01
        1   -1    0    0  501    0  0.00000000000E+00  0.00000000000E+00  0.10585770330E+03  0.10585770342E+03  0.50400001928E-02 0.  1.
       -1   -1    0    0    0  501  0.00000000000E+00  0.00000000000E+00 -0.84274971945E+03  0.84274971946E+03  0.50400001928E-02 0. -1.
    10030    2    1    2    0    0  0.00000000000E+00  0.00000000000E+00 -0.73689201614E+03  0.94860742288E+03  0.59736605134E+03 0.  0.
        4    1    3    3  502    0  0.11276492213E+03  0.22198917606E+02 -0.80622634903E+03  0.81437783515E+03  0.12699999809E+01 0. -1.
       -4    1    3    3    0  502 -0.11276492213E+03 -0.22198917606E+02  0.69334332888E+02  0.13422958773E+03  0.12699999809E+01 0.  1.
</event>
<event>
 5   0  0.3934634E-02  0.5964920E+03  0.7818609E-02  0.9912711E-01
        2   -1    0    0  501    0  0.00000000000E+00  0.00000000000E+00  0.79781001731E+03  0.79781001731E+03  0.25500000920E-02 0.  1.
       -2   -1    0    0    0  501  0.00000000000E+00  0.00000000000E+00 -0.11149355851E+03  0.11149355854E+03  0.25500000920E-02 0. -1.
    10030    2    1    2    0    0  0.00000000000E+00  0.00000000000E+00  0.68631645880E+03  0.90930357585E+03  0.59649200450E+03 0.  0.
        1    1    3    3  502    0  0.29228204975E+02 -0.17634694486E+03  0.70710228711E+03  0.72934640425E+03  0.50400001928E-02 0.  1.
       -1    1    3    3    0  502 -0.29228204975E+02  0.17634694486E+03 -0.20785828305E+02  0.17995717161E+03  0.50400001928E-02 0. -1.
</event>
<event>
 5   0  0.3737642E-02  0.6048225E+03  0.7818609E-02  0.9895451E-01
       -2   -1    0    0    0  501  0.00000000000E+00  0.00000000000E+00  0.75577224177E+02  0.75577224220E+02  0.25500000920E-02 0. -1.
        2   -1    0    0  501    0  0.00000000000E+00  0.00000000000E+00 -0.12100544642E+04  0.12100544642E+04  0.25500000920E-02 0.  1.
    10030    2    1    2    0    0  0.00000000000E+00  0.00000000000E+00 -0.11344772401E+04  0.12856316885E+04  0.60482247822E+03 0.  0.
        5    1    3    3  502    0  0.11249510666E+03  0.86713029311E+02 -0.11346524017E+04  0.11435175824E+04  0.46999998093E+01 0.  1.
       -5    1    3    3    0  502 -0.11249510666E+03 -0.86713029311E+02  0.17516163465E+00  0.14211410611E+03  0.46999998093E+01 0. -1.
</event>
<event>
 5   0  0.3798925E-02  0.5976023E+03  0.7818609E-02  0.9910393E-01
       -2   -1    0    0    0  501  0.00000000000E+00  0.00000000000E+00  0.11781320945E+03  0.11781320948E+03  0.25500000920E-02 0. -1.
        2   -1    0    0  501    0  0.00000000000E+00  0.00000000000E+00 -0.75782787054E+03  0.75782787055E+03  0.25500000920E-02 0.  1.
    10030    2    1    2    0    0  0.00000000000E+00  0.00000000000E+00 -0.64001466109E+03  0.87564108002E+03  0.59760232146E+03 0.  0.
        2    1    3    3  502    0  0.11239024048E+03 -0.11811781461E+03 -0.68690359596E+03  0.70598862203E+03  0.25500000920E-02 0.  1.
       -2    1    3    3    0  502 -0.11239024048E+03  0.11811781461E+03  0.46888934871E+02  0.16965245799E+03  0.25500000920E-02 0. -1.
</event>
<event>
 5   0  0.2276105E-02  0.6011864E+03  0.7818609E-02  0.9902948E-01
        1   -1    0    0  501    0  0.00000000000E+00  0.00000000000E+00  0.50389083728E+03  0.50389083730E+03  0.50400001928E-02 0. -1.
       -1   -1    0    0    0  501  0.00000000000E+00  0.00000000000E+00 -0.17931717496E+03  0.17931717503E+03  0.50400001928E-02 0.  1.
    10030    2    1    2    0    0  0.00000000000E+00  0.00000000000E+00  0.32457366232E+03  0.68320801233E+03  0.60118643185E+03 0.  0.
        1    1    3    3  502    0  0.23743175202E+03  0.16465386907E+03  0.68082456347E+02  0.29685005366E+03  0.50400001928E-02 0. -1.
       -1    1    3    3    0  502 -0.23743175202E+03 -0.16465386907E+03  0.25649120597E+03  0.38635795868E+03  0.50400001928E-02 0.  1.
</event>
<event>
 5   0  0.2309055E-02  0.6004256E+03  0.7818609E-02  0.9904524E-01
       -1   -1    0    0    0  501  0.00000000000E+00  0.00000000000E+00  0.10613575655E+03  0.10613575666E+03  0.50400001928E-02 0. -1.
        1   -1    0    0  501    0  0.00000000000E+00  0.00000000000E+00 -0.84917389447E+03  0.84917389449E+03  0.50400001928E-02 0.  1.
    10030    2    1    2    0    0  0.00000000000E+00  0.00000000000E+00 -0.74303813793E+03  0.95530965115E+03  0.60042556172E+03 0.  0.
        4    1    3    3  502    0  0.99550616251E+01  0.76422321872E+02 -0.83316237800E+03  0.83672016561E+03  0.12699999809E+01 0.  1.
       -4    1    3    3    0  502 -0.99550616251E+01 -0.76422321872E+02  0.90124240070E+02  0.11858948554E+03  0.12699999809E+01 0. -1.
</event>
<event>
 5   0  0.3798925E-02  0.5965571E+03  0.7818609E-02  0.9912575E-01
       -2   -1    0    0    0  501  0.00000000000E+00  0.00000000000E+00  0.63191193935E+02  0.63191193987E+02  0.25500000920E-02 0.  1.
        2   -1    0    0  501    0  0.00000000000E+00  0.00000000000E+00 -0.14079509381E+04  0.14079509381E+04  0.25500000920E-02 0. -1.
    10030    2    1    2    0    0  0.00000000000E+00  0.00000000000E+00 -0.13447597442E+04  0.14711421321E+04  0.59655712492E+03 0.  0.
        2    1    3    3  502    0  0.19677861643E+03 -0.44263264474E+02 -0.12142895209E+04  0.12309265214E+04  0.25500000920E-02 0. -1.
       -2    1    3    3    0  502 -0.19677861643E+03  0.44263264474E+02 -0.13047022329E+03  0.24021561073E+03  0.25500000920E-02 0.  1.
</event>
<event>
 5   0  0.3737642E-02  0.6027379E+03  0.7818609E-02  0.9899742E-01
        2   -1    0    0  501    0  0.00000000000E+00  0.00000000000E+00  0.16765283118E+04  0.16765283118E+04  0.25500000920E-02 0.  1.
       -2   -1    0    0    0  501  0.00000000000E+00  0.00000000000E+00 -0.54173397691E+02  0.54173397751E+02  0.25500000920E-02 0. -1.
    10030    2    1    2    0    0  0.00000000000E+00  0.00000000000E+00  0.16223549141E+04  0.17307017096E+04  0.60273787016E+03 0.  0.
        5    1    3    3  502    0 -0.13559058190E+03 -0.15334898934E+03  0.17621204722E+03  0.27013606574E+03  0.46999998093E+01 0. -1.
       -5    1    3    3    0  502  0.13559058190E+03  0.15334898934E+03  0.14461428669E+04  0.14605656438E+04  0.46999998093E+01 0.  1.
</event>
<event>
 5   0  0.2309055E-02  0.5968124E+03  0.7818609E-02  0.9912041E-01
        1   -1    0    0  501    0  0.00000000000E+00  0.00000000000E+00  0.13639565809E+04  0.13639565809E+04  0.50400001928E-02 0.  1.
       -1   -1    0    0    0  501  0.00000000000E+00  0.00000000000E+00 -0.65285260405E+02  0.65285260600E+02  0.50400001928E-02 0. -1.
    10030    2    1    2    0    0  0.00000000000E+00  0.00000000000E+00  0.12986713205E+04  0.14292418415E+04  0.59681240172E+03 0.  0.
        4    1    3    3  502    0  0.14873270956E+02  0.13349397819E+03  0.12874604174E+04  0.12944488385E+04  0.12699999809E+01 0.  1.
       -4    1    3    3    0  502 -0.14873270956E+02 -0.13349397819E+03  0.11210903125E+02  0.13479300297E+03  0.12699999809E+01 0. -1.
</event>
<event>
 5   0  0.2225808E-02  0.6019727E+03  0.7818609E-02  0.9901322E-01
        1   -1    0    0  501    0  0.00000000000E+00  0.00000000000E+00  0.36788812049E+03  0.36788812053E+03  0.50400001928E-02 0. -1.
       -1   -1    0    0    0  501  0.00000000000E+00  0.00000000000E+00 -0.24625088475E+03  0.24625088480E+03  0.50400001928E-02 0.  1.
    10030    2    1    2    0    0  0.00000000000E+00  0.00000000000E+00  0.12163723574E+03  0.61413900533E+03  0.60197267442E+03 0.  0.
        2    1    3    3  502    0  0.47684836239E+02 -0.12643080387E+03 -0.21356722201E+03  0.25272425704E+03  0.25500000920E-02 0.  1.
       -2    1    3    3    0  502 -0.47684836239E+02  0.12643080387E+03  0.33520445775E+03  0.36141474828E+03  0.25500000920E-02 0. -1.
</event>
<event>
 5   0  0.1521750E-02  0.5991696E+03  0.7818609E-02  0.9907130E-01
        3   -1    0    0  501    0  0.00000000000E+00  0.00000000000E+00  0.25581983728E+03  0.25581985722E+03  0.10100000352E+00 0. -1.
       -3   -1    0    0    0  501  0.00000000000E+00  0.00000000000E+00 -0.35083694976E+03  0.35083696429E+03  0.10100000352E+00 0.  1.
    10030    2    1    2    0    0  0.00000000000E+00  0.00000000000E+00 -0.95017112476E+02  0.60665682151E+03  0.59916963159E+03 0.  0.
        1    1    3    3  502    0 -0.12882825051E+03 -0.10981205153E+03  0.20275548994E+03  0.26413101582E+03  0.50400001928E-02 0. -1.
       -1    1    3    3    0  502  0.12882825051E+03  0.10981205153E+03 -0.29777260241E+03  0.34252580569E+03  0.50400001928E-02 0.  1.
</event>
<event>
 5   0  0.3724066E-02  0.6304289E+03  0.7818609E-02  0.9844212E-01
        2   -1    0    0  501    0  0.00000000000E+00  0.00000000000E+00  0.11987069047E+04  0.11987069047E+04  0.25500000920E-02 0.  1.
       -2   -1    0    0    0  501  0.00000000000E+00  0.00000000000E+00 -0.82889440129E+02  0.82889440169E+02  0.25500000920E-02 0. -1.
    10030    2    1    2    0    0  0.00000000000E+00  0.00000000000E+00  0.11158174645E+04  0.12815963448E+04  0.63042888333E+03 0.  0.
        4    1    3    3  502    0 -0.97531319904E+02 -0.12244720522E+03  0.11140938224E+04  0.11250388146E+04  0.12699999809E+01 0.  1.
       -4    1    3    3    0  502  0.97531319904E+02  0.12244720522E+03  0.17236421654E+01  0.15655753023E+03  0.12699999809E+01 0. -1.
</event>
<event>
 5   0  0.2382531E-02  0.5986178E+03  0.7818609E-02  0.9908278E-01
       -1   -1    0    0    0  501  0.00000000000E+00  0.00000000000E+00  0.48766376588E+03  0.48766376590E+03  0.50400001928E-02 0. -1.
        1   -1    0    0  501    0  0.00000000000E+00  0.00000000000E+00 -0.18370407799E+03  0.18370407806E+03  0.50400001928E-02 0.  1.
    10030    2    1    2    0    0  0.00000000000E+00  0.00000000000E+00  0.30395968789E+03  0.67136784396E+03  0.59861781634E+03 0.  0.
        5    1    3    3  502    0 -0.19091681008E+03 -0.19947042603E+03  0.28144761484E+03  0.39430004962E+03  0.46999998093E+01 0. -1.
       -5    1    3    3    0  502  0.19091681008E+03  0.19947042603E+03  0.22512073050E+02  0.27706779434E+03  0.46999998093E+01 0.  1.
</event>
<event>
 5   0  0.3724066E-02  0.6007082E+03  0.7818609E-02  0.9903938E-01
        2   -1    0    0  501    0  0.00000000000E+00  0.00000000000E+00  0.14546446562E+03  0.14546446564E+03  0.25500000920E-02 0. -1.
       -2   -1    0    0    0  501  0.00000000000E+00  0.00000000000E+00 -0.62016929752E+03  0.62016929752E+03  0.25500000920E-02 0.  1.
    10030    2    1    2    0    0  0.00000000000E+00  0.00000000000E+00 -0.47470483190E+03  0.76563376317E+03  0.60070823357E+03 0.  0.
        4    1    3    3  502    0 -0.10722122994E+03  0.22660713794E+03 -0.44818884888E+03  0.51353874661E+03  0.12699999809E+01 0.  1.
       -4    1    3    3    0  502  0.10722122994E+03 -0.22660713794E+03 -0.26515983018E+02  0.25209501655E+03  0.12699999809E+01 0. -1.
</event>
<event>
 5   0  0.3724066E-02  0.5984025E+03  0.7818609E-02  0.9908726E-01
        2   -1    0    0  501    0  0.00000000000E+00  0.00000000000E+00  0.94698446151E+03  0.94698446151E+03  0.25500000920E-02 0. -1.
       -2   -1    0    0    0  501  0.00000000000E+00  0.00000000000E+00 -0.94533119250E+02  0.94533119285E+02  0.25500000920E-02 0.  1.
    10030    2    1    2    0    0  0.00000000000E+00  0.00000000000E+00  0.85245134225E+03  0.10415175808E+04  0.59840252355E+03 0.  0.
        4    1    3    3  502    0  0.20266465622E+03 -0.48941902876E+02  0.52721786028E+02  0.21505690494E+03  0.12699999809E+01 0.  1.
       -4    1    3    3    0  502 -0.20266465622E+03  0.48941902876E+02  0.79972955623E+03  0.82646067586E+03  0.12699999809E+01 0. -1.
</event>
<event>
 5   0  0.3832191E-02  0.6047817E+03  0.7818609E-02  0.9895535E-01
        2   -1    0    0  501    0  0.00000000000E+00  0.00000000000E+00  0.10157716876E+04  0.10157716876E+04  0.25500000920E-02 0. -1.
       -2   -1    0    0    0  501  0.00000000000E+00  0.00000000000E+00 -0.90020461076E+02  0.90020461112E+02  0.25500000920E-02 0.  1.
    10030    2    1    2    0    0  0.00000000000E+00  0.00000000000E+00  0.92575122649E+03  0.11057921487E+04  0.60478173149E+03 0.  0.
        3    1    3    3  502    0 -0.18511553908E+03  0.13712999359E+03  0.10473098418E+03  0.25306320791E+03  0.10100000352E+00 0.  1.
       -3    1    3    3    0  502  0.18511553908E+03 -0.13712999359E+03  0.82102024231E+03  0.85272894077E+03  0.10100000352E+00 0. -1.
</event>
<event>
 5   0  0.2225808E-02  0.6016687E+03  0.7818609E-02  0.9901950E-01
        1   -1    0    0  501    0  0.00000000000E+00  0.00000000000E+00  0.54096876007E+03  0.54096876009E+03  0.50400001928E-02 0. -1.
       -1   -1    0    0    0  501  0.00000000000E+00  0.00000000000E+00 -0.16729489558E+03  0.16729489565E+03  0.50400001928E-02 0.  1.
    10030    2    1    2    0    0  0.00000000000E+00  0.00000000000E+00  0.37367386449E+03  0.70826365574E+03  0.60166872034E+03 0.  0.
        2    1    3    3  502    0 -0.31101432766E+02  0.81927107159E+02 -0.15193723055E+03  0.17539746874E+03  0.25500000920E-02 0.  1.
       -2    1    3    3    0  502  0.31101432766E+02 -0.81927107159E+02  0.52561109504E+03  0.53286618700E+03  0.25500000920E-02 0. -1.
</event>
<event>
 5   0  0.2309055E-02  0.5987261E+03  0.7818609E-02  0.9908052E-01
        1   -1    0    0  501    0  0.00000000000E+00  0.00000000000E+00  0.12801695793E+04  0.12801695793E+04  0.50400001928E-02 0.  1.
       -1   -1    0    0    0  501  0.00000000000E+00  0.00000000000E+00 -0.70004977804E+02  0.70004977986E+02  0.50400001928E-02 0. -1.
    10030    2    1    2    0    0  0.00000000000E+00  0.00000000000E+00  0.12101646015E+04  0.13501745573E+04  0.59872612475E+03 0.  0.
        4    1    3    3  502    0 -0.74176727029E+01  0.50757728062E+02  0.12701786252E+04  0.12712146639E+04  0.12699999809E+01 0.  1.
       -4    1    3    3    0  502  0.74176727029E+01 -0.50757728062E+02 -0.60014023712E+02  0.78959893417E+02  0.12699999809E+01 0. -1.
</event>
<event>
 5   0  0.2382531E-02  0.5997380E+03  0.7818609E-02  0.9905950E-01
       -1   -1    0    0    0  501  0.00000000000E+00  0.00000000000E+00  0.79977046562E+02  0.79977046721E+02  0.50400001928E-02 0. -1.
        1   -1    0    0  501    0  0.00000000000E+00  0.00000000000E+00 -0.11243401929E+04  0.11243401930E+04  0.50400001928E-02 0.  1.
    10030    2    1    2    0    0  0.00000000000E+00  0.00000000000E+00 -0.10443631464E+04  0.12043172397E+04  0.59973796967E+03 0.  0.
        5    1    3    3  502    0 -0.18404073890E+03 -0.55623286669E+02 -0.60174897478E+02  0.20151439621E+03  0.46999998093E+01 0. -1.
       -5    1    3    3    0  502  0.18404073890E+03  0.55623286669E+02 -0.98418824890E+03  0.10028028435E+04  0.46999998093E+01 0.  1.
</event>
<event>
 5   0  0.3934634E-02  0.6690215E+03  0.7818609E-02  0.9771727E-01
       -2   -1    0    0    0  501  0.00000000000E+00  0.00000000000E+00  0.36365277257E+03  0.36365277257E+03  0.25500000920E-02 0.  1.
        2   -1    0    0  501    0  0.00000000000E+00  0.00000000000E+00 -0.30770411603E+03  0.30770411604E+03  0.25500000920E-02 0. -1.
    10030    2    1    2    0    0  0.00000000000E+00  0.00000000000E+00  0.55948656532E+02  0.67135688862E+03  0.66902153906E+03 0.  0.
        1    1    3    3  502    0  0.18559950969E+03 -0.57195562707E+02  0.30128316529E+03  0.35845509635E+03  0.50400001928E-02 0.  1.
       -1    1    3    3    0  502 -0.18559950969E+03  0.57195562707E+02 -0.24533450876E+03  0.31290179227E+03  0.50400001928E-02 0. -1.
</event>
<event>
 5   0  0.3737642E-02  0.6074131E+03  0.7818609E-02  0.9890144E-01
        2   -1    0    0  501    0  0.00000000000E+00  0.00000000000E+00  0.14173679321E+04  0.14173679321E+04  0.25500000920E-02 0.  1.
       -2   -1    0    0    0  501  0.00000000000E+00  0.00000000000E+00 -0.65076729612E+02  0.65076729662E+02  0.25500000920E-02 0. -1.
    10030    2    1    2    0    0  0.00000000000E+00  0.00000000000E+00  0.13522912024E+04  0.14824446617E+04  0.60741310395E+03 0.  0.
        5    1    3    3  502    0  0.32183232600E+02  0.20117982008E+03  0.12657164000E+03  0.23989904234E+03  0.46999998093E+01 0. -1.
       -5    1    3    3    0  502 -0.32183232600E+02 -0.20117982008E+03  0.12257195624E+04  0.12425456194E+04  0.46999998093E+01 0.  1.
</event>
<event>
 5   0  0.3724066E-02  0.5987706E+03  0.7818609E-02  0.9907960E-01
        2   -1    0    0  501    0  0.00000000000E+00  0.00000000000E+00  0.11859266254E+04  0.11859266254E+04  0.25500000920E-02 0.  1.
       -2   -1    0    0    0  501  0.00000000000E+00  0.00000000000E+00 -0.75579344237E+02  0.75579344280E+02  0.25500000920E-02 0. -1.
    10030    2    1    2    0    0  0.00000000000E+00  0.00000000000E+00  0.11103472812E+04  0.12615059697E+04  0.59877059610E+03 0.  0.
        4    1    3    3  502    0 -0.23230641941E+03 -0.17750197967E+03  0.41934099726E+03  0.51119635187E+03  0.12699999809E+01 0. -1.
       -4    1    3    3    0  502  0.23230641941E+03  0.17750197967E+03  0.69100628390E+03  0.75030961781E+03  0.12699999809E+01 0.  1.
</event>
<event>
 5   0  0.2382531E-02  0.6063576E+03  0.7818609E-02  0.9892303E-01
        1   -1    0    0  501    0  0.00000000000E+00  0.00000000000E+00  0.19960975712E+03  0.19960975718E+03  0.50400001928E-02 0. -1.
       -1   -1    0    0    0  501  0.00000000000E+00  0.00000000000E+00 -0.46048542958E+03  0.46048542961E+03  0.50400001928E-02 0.  1.
    10030    2    1    2    0    0  0.00000000000E+00  0.00000000000E+00 -0.26087567247E+03  0.66009518679E+03  0.60635760005E+03 0.  0.
        5    1    3    3  502    0 -0.11267569581E+03 -0.65897503572E+02 -0.42828533252E+03  0.44775965590E+03  0.46999998093E+01 0.  1.
       -5    1    3    3    0  502  0.11267569581E+03  0.65897503572E+02  0.16740966005E+03  0.21233553089E+03  0.46999998093E+01 0. -1.
</event>
<event>
 5   0  0.2276105E-02  0.6013945E+03  0.7818609E-02  0.9902517E-01
       -1   -1    0    0    0  501  0.00000000000E+00  0.00000000000E+00  0.38537260942E+03  0.38537260945E+03  0.50400001928E-02 0.  1.
        1   -1    0    0  501    0  0.00000000000E+00  0.00000000000E+00 -0.23462701770E+03  0.23462701776E+03  0.50400001928E-02 0. -1.
    10030    2    1    2    0    0  0.00000000000E+00  0.00000000000E+00  0.15074559172E+03  0.61999962721E+03  0.60139446648E+03 0.  0.
        1    1    3    3  502    0 -0.17041266646E+03 -0.24767924669E+03  0.81325500130E+02  0.31144714339E+03  0.50400001928E-02 0. -1.
       -1    1    3    3    0  502  0.17041266646E+03  0.24767924669E+03  0.69420091589E+02  0.30855248382E+03  0.50400001928E-02 0.  1.
</event>
<event>
 5   0  0.1521750E-02  0.6003504E+03  0.7818609E-02  0.9904679E-01
        4   -1    0    0  501    0  0.00000000000E+00  0.00000000000E+00  0.72982903992E+03  0.72983014491E+03  0.12699999809E+01 0. -1.
       -4   -1    0    0    0  501  0.00000000000E+00  0.00000000000E+00 -0.12345614402E+03  0.12346267612E+03  0.12699999809E+01 0.  1.
    10030    2    1    2    0    0  0.00000000000E+00  0.00000000000E+00  0.60637289590E+03  0.85329282103E+03  0.60035035565E+03 0.  0.
        3    1    3    3  502    0 -0.58830016506E+02  0.10163413112E+03 -0.89456051490E+02  0.14762405902E+03  0.10100000352E+00 0.  1.
       -3    1    3    3    0  502  0.58830016506E+02 -0.10163413112E+03  0.69582894739E+03  0.70566876201E+03  0.10100000352E+00 0. -1.
</event>
<event>
 5   0  0.2225808E-02  0.5923410E+03  0.7818609E-02  0.9921425E-01
       -1   -1    0    0    0  501  0.00000000000E+00  0.00000000000E+00  0.42955473944E+03  0.42955473947E+03  0.50400001928E-02 0. -1.
        1   -1    0    0  501    0  0.00000000000E+00  0.00000000000E+00 -0.20420436452E+03  0.20420436458E+03  0.50400001928E-02 0.  1.
    10030    2    1    2    0    0  0.00000000000E+00  0.00000000000E+00  0.22535037492E+03  0.63375910406E+03  0.59234095798E+03 0.  0.
        2    1    3    3  502    0 -0.10909966417E+03 -0.22734872661E+03 -0.53513730970E+02  0.25778653887E+03  0.25500000920E-02 0. -1.
       -2    1    3    3    0  502  0.10909966417E+03  0.22734872661E+03  0.27886410589E+03  0.37597256519E+03  0.25500000920E-02 0.  1.
</event>
<event>
 5   0  0.2295179E-02  0.6365408E+03  0.7818609E-02  0.9832367E-01
       -1   -1    0    0    0  501  0.00000000000E+00  0.00000000000E+00  0.12710990274E+03  0.12710990284E+03  0.50400001928E-02 0.  1.
        1   -1    0    0  501    0  0.00000000000E+00  0.00000000000E+00 -0.79691712895E+03  0.79691712897E+03  0.50400001928E-02 0. -1.
    10030    2    1    2    0    0  0.00000000000E+00  0.00000000000E+00 -0.66980722621E+03  0.92402703181E+03  0.63654083547E+03 0.  0.
        3    1    3    3  502    0  0.20064833841E+03  0.19556918079E+03 -0.55404324636E+03  0.62086310022E+03  0.10100000352E+00 0.  1.
       -3    1    3    3    0  502 -0.20064833841E+03 -0.19556918079E+03 -0.11576397985E+03  0.30316393158E+03  0.10100000352E+00 0. -1.
</event>
<event>
 5   0  0.3934634E-02  0.6080062E+03  0.7818609E-02  0.9888934E-01
       -2   -1    0    0    0  501  0.00000000000E+00  0.00000000000E+00  0.12097790906E+03  0.12097790909E+03  0.25500000920E-02 0.  1.
        2   -1    0    0  501    0  0.00000000000E+00  0.00000000000E+00 -0.76392356368E+03  0.76392356368E+03  0.25500000920E-02 0. -1.
    10030    2    1    2    0    0  0.00000000000E+00  0.00000000000E+00 -0.64294565462E+03  0.88490147277E+03  0.60800616914E+03 0.  0.
        1    1    3    3  502    0  0.45592092939E+01 -0.85002148494E+02  0.10327840788E+03  0.13383789149E+03  0.50400001928E-02 0.  1.
       -1    1    3    3    0  502 -0.45592092939E+01  0.85002148494E+02 -0.74622406250E+03  0.75106358128E+03  0.50400001928E-02 0. -1.
</event>
<event>
 5   0  0.2225808E-02  0.6022568E+03  0.7818609E-02  0.9900735E-01
        1   -1    0    0  501    0  0.00000000000E+00  0.00000000000E+00  0.49837416909E+03  0.49837416911E+03  0.50400001928E-02 0. -1.
       -1   -1    0    0    0  501  0.00000000000E+00  0.00000000000E+00 -0.18194823945E+03  0.18194823952E+03  0.50400001928E-02 0.  1.
    10030    2    1    2    0    0  0.00000000000E+00  0.00000000000E+00  0.31642592964E+03  0.68032240864E+03  0.60225676480E+03 0.  0.
        2    1    3    3  502    0  0.28097108622E+03 -0.10670132966E+03  0.13712871153E+03  0.33035467088E+03  0.25500000920E-02 0.  1.
       -2    1    3    3    0  502 -0.28097108622E+03  0.10670132966E+03  0.17929721810E+03  0.34996773775E+03  0.25500000920E-02 0. -1.
</event>
<event>
 5   0  0.2309055E-02  0.6030593E+03  0.7818609E-02  0.9899079E-01
       -1   -1    0    0    0  501  0.00000000000E+00  0.00000000000E+00  0.37427262231E+03  0.37427262234E+03  0.50400001928E-02 0. -1.
        1   -1    0    0  501    0  0.00000000000E+00  0.00000000000E+00 -0.24292487390E+03  0.24292487396E+03  0.50400001928E-02 0.  1.
    10030    2    1    2    0    0  0.00000000000E+00  0.00000000000E+00  0.13134774840E+03  0.61719749630E+03  0.60305929926E+03 0.  0.
        4    1    3    3  502    0  0.96841628198E-01 -0.90986556623E+02  0.35988505287E+03  0.37121075825E+03  0.12699999809E+01 0. -1.
       -4    1    3    3    0  502 -0.96841628198E-01  0.90986556623E+02 -0.22853730446E+03  0.24598673805E+03  0.12699999809E+01 0.  1.
</event>
<event>
 5   0  0.3724066E-02  0.6008937E+03  0.7818609E-02  0.9903554E-01
        2   -1    0    0  501    0  0.00000000000E+00  0.00000000000E+00  0.54869457528E+03  0.54869457529E+03  0.25500000920E-02 0. -1.
       -2   -1    0    0    0  501  0.00000000000E+00  0.00000000000E+00 -0.16451467712E+03  0.16451467714E+03  0.25500000920E-02 0.  1.
    10030    2    1    2    0    0  0.00000000000E+00  0.00000000000E+00  0.38417989817E+03  0.71320925243E+03  0.60089370407E+03 0.  0.
        4    1    3    3  502    0 -0.19709808977E+03 -0.22674841769E+03  0.19452126435E+03  0.35791428736E+03  0.12699999809E+01 0.  1.
       -4    1    3    3    0  502  0.19709808977E+03  0.22674841769E+03  0.18965863382E+03  0.35529496506E+03  0.12699999809E+01 0. -1.
</event>
<event>
 5   0  0.2382531E-02  0.6004738E+03  0.7818609E-02  0.9904424E-01
       -1   -1    0    0    0  501  0.00000000000E+00  0.00000000000E+00  0.13581090813E+03  0.13581090822E+03  0.50400001928E-02 0. -1.
        1   -1    0    0  501    0  0.00000000000E+00  0.00000000000E+00 -0.66373301001E+03  0.66373301003E+03  0.50400001928E-02 0.  1.
    10030    2    1    2    0    0  0.00000000000E+00  0.00000000000E+00 -0.52792210188E+03  0.79954391825E+03  0.60047375593E+03 0.  0.
        5    1    3    3  502    0  0.10715802722E+03  0.26597020653E+03 -0.38228757135E+03  0.47790048207E+03  0.46999998093E+01 0.  1.
       -5    1    3    3    0  502 -0.10715802722E+03 -0.26597020653E+03 -0.14563453053E+03  0.32164343618E+03  0.46999998093E+01 0. -1.
</event>
<event>
 5   0  0.2382531E-02  0.6016943E+03  0.7818609E-02  0.9901897E-01
       -1   -1    0    0    0  501  0.00000000000E+00  0.00000000000E+00  0.84629027529E+02  0.84629027679E+02  0.50400001928E-02 0.  1.
        1   -1    0    0  501    0  0.00000000000E+00  0.00000000000E+00 -0.10694796234E+04  0.10694796234E+04  0.50400001928E-02 0. -1.
    10030    2    1    2    0    0  0.00000000000E+00  0.00000000000E+00 -0.98485059585E+03  0.11541086511E+04  0.60169434294E+03 0.  0.
        5    1    3    3  502    0  0.14848319139E+03  0.23948493278E+03 -0.69438779409E+03  0.74939761791E+03  0.46999998093E+01 0. -1.
       -5    1    3    3    0  502 -0.14848319139E+03 -0.23948493278E+03 -0.29046280176E+03  0.40471103316E+03  0.46999998093E+01 0.  1.
</event>
<event>
 5   0  0.1521750E-02  0.5967554E+03  0.7818609E-02  0.9912161E-01
       -3   -1    0    0    0  501  0.00000000000E+00  0.00000000000E+00  0.11275368584E+03  0.11275373108E+03  0.10100000352E+00 0.  1.
        3   -1    0    0  501    0  0.00000000000E+00  0.00000000000E+00 -0.78959037796E+03  0.78959038442E+03  0.10100000352E+00 0. -1.
    10030    2    1    2    0    0  0.00000000000E+00  0.00000000000E+00 -0.67683669212E+03  0.90234411550E+03  0.59675538957E+03 0.  0.
        1    1    3    3  502    0 -0.69697797258E+02 -0.80169191547E+02  0.83191073253E+02  0.13492826580E+03  0.50400001928E-02 0.  1.
       -1    1    3    3    0  502  0.69697797258E+02  0.80169191547E+02 -0.76002776537E+03  0.76741584971E+03  0.50400001928E-02 0. -1.
</event>
<event>
 5   0  0.2225808E-02  0.5976443E+03  0.7818609E-02  0.9910305E-01
        1   -1    0    0  501    0  0.00000000000E+00  0.00000000000E+00  0.71711873215E+03  0.71711873217E+03  0.50400001928E-02 0.  1.
       -1   -1    0    0    0  501  0.00000000000E+00  0.00000000000E+00 -0.12451869006E+03  0.12451869016E+03  0.50400001928E-02 0. -1.
    10030    2    1    2    0    0  0.00000000000E+00  0.00000000000E+00  0.59260004209E+03  0.84163742234E+03  0.59764432633E+03 0.  0.
        2    1    3    3  502    0 -0.96773241288E+02 -0.26091599150E+03  0.44961573694E+03  0.52876887745E+03  0.25500000920E-02 0.  1.
       -2    1    3    3    0  502  0.96773241288E+02  0.26091599150E+03  0.14298430515E+03  0.31286854488E+03  0.25500000920E-02 0. -1.
</event>
<event>
 5   0  0.3934634E-02  0.5884484E+03  0.7818609E-02  0.9929666E-01
        2   -1    0    0  501    0  0.00000000000E+00  0.00000000000E+00  0.71072015539E+03  0.71072015539E+03  0.25500000920E-02 0.  1.
       -2   -1    0    0    0  501  0.00000000000E+00  0.00000000000E+00 -0.12180305510E+03  0.12180305513E+03  0.25500000920E-02 0. -1.
    10030    2    1    2    0    0  0.00000000000E+00  0.00000000000E+00  0.58891710028E+03  0.83252321052E+03  0.58844842174E+03 0.  0.
        1    1    3    3  502    0 -0.52636307127E+02 -0.36219097463E+02  0.70078650967E+03  0.70369321157E+03  0.50400001928E-02 0.  1.
       -1    1    3    3    0  502  0.52636307127E+02  0.36219097463E+02 -0.11186940938E+03  0.12882999895E+03  0.50400001928E-02 0. -1.
</event>
<event>
 5   0  0.2225808E-02  0.6006415E+03  0.7818609E-02  0.9904076E-01
       -1   -1    0    0    0  501  0.00000000000E+00  0.00000000000E+00  0.18105930710E+03  0.18105930717E+03  0.50400001928E-02 0. -1.
        1   -1    0    0  501    0  0.00000000000E+00  0.00000000000E+00 -0.49813822594E+03  0.49813822596E+03  0.50400001928E-02 0.  1.
    10030    2    1    2    0    0  0.00000000000E+00  0.00000000000E+00 -0.31707891884E+03  0.67919753313E+03  0.60064153057E+03 0.  0.
        2    1    3    3  502    0  0.26648506192E+03 -0.42069984053E+02 -0.30773644527E+03  0.40925040200E+03  0.25500000920E-02 0.  1.
       -2    1    3    3    0  502 -0.26648506192E+03  0.42069984053E+02 -0.93424735720E+01  0.26994713113E+03  0.25500000920E-02 0. -1.
</event>
<event>
 5   0  0.3934634E-02  0.6024135E+03  0.7818609E-02  0.9900411E-01
        2   -1    0    0  501    0  0.00000000000E+00  0.00000000000E+00  0.77549947083E+03  0.77549947083E+03  0.25500000920E-02 0.  1.
       -2   -1    0    0    0  501  0.00000000000E+00  0.00000000000E+00 -0.11698977673E+03  0.11698977676E+03  0.25500000920E-02 0. -1.
    10030    2    1    2    0    0  0.00000000000E+00  0.00000000000E+00  0.65850969410E+03  0.89248924759E+03  0.60241351233E+03 0.  0.
        1    1    3    3  502    0 -0.11278991935E+03 -0.27536342643E+03  0.26009887834E+03  0.39521893814E+03  0.50400001928E-02 0. -1.
       -1    1    3    3    0  502  0.11278991935E+03  0.27536342643E+03  0.39841081576E+03  0.49727030945E+03  0.50400001928E-02 0.  1.
</event>
<event>
 5   0  0.3832191E-02  0.6074732E+03  0.7818609E-02  0.9890022E-01
        2   -1    0    0  501    0  0.00000000000E+00  0.00000000000E+00  0.95152692854E+03  0.95152692855E+03  0.25500000920E-02 0. -1.
       -2   -1    0    0    0  501  0.00000000000E+00  0.00000000000E+00 -0.96955672195E+02  0.96955672229E+02  0.25500000920E-02 0.  1.
    10030    2    1    2    0    0  0.00000000000E+00  0.00000000000E+00  0.85457125635E+03  0.10484826008E+04  0.60747323559E+03 0.  0.
        3    1    3    3  502    0 -0.25661723147E+03  0.81954012098E+02  0.66945794867E+03  0.72162512347E+03  0.10100000352E+00 0. -1.
       -3    1    3    3    0  502  0.25661723147E+03 -0.81954012098E+02  0.18511330768E+03  0.32685747730E+03  0.10100000352E+00 0.  1.
</event>
<event>
 5   0  0.3832191E-02  0.6045361E+03  0.7818609E-02  0.9896040E-01
        2   -1    0    0  501    0  0.00000000000E+00  0.00000000000E+00  0.14138264651E+04  0.14138264651E+04  0.25500000920E-02 0.  1.
       -2   -1    0    0    0  501  0.00000000000E+00  0.00000000000E+00 -0.64623181763E+02  0.64623181813E+02  0.25500000920E-02 0. -1.
    10030    2    1    2    0    0  0.00000000000E+00  0.00000000000E+00  0.13492032833E+04  0.14784496469E+04  0.60453606897E+03 0.  0.
        3    1    3    3  502    0 -0.18722865505E+03 -0.12151458805E+03  0.11730805488E+04  0.11941266049E+04  0.10100000352E+00 0.  1.
       -3    1    3    3    0  502  0.18722865505E+03  0.12151458805E+03  0.17612273447E+03  0.28432304194E+03  0.10100000352E+00 0. -1.
</event>
<event>
 5   0  0.2276105E-02  0.6009986E+03  0.7818609E-02  0.9903336E-01
       -1   -1    0    0    0  501  0.00000000000E+00  0.00000000000E+00  0.17240020319E+03  0.17240020327E+03  0.50400001928E-02 0. -1.
        1   -1    0    0  501    0  0.00000000000E+00  0.00000000000E+00 -0.52378029672E+03  0.52378029675E+03  0.50400001928E-02 0.  1.
    10030    2    1    2    0    0  0.00000000000E+00  0.00000000000E+00 -0.35138009353E+03  0.69618050001E+03  0.60099860105E+03 0.  0.
        1    1    3    3  502    0 -0.13021940676E+03  0.96514764861E+02  0.11742095963E+03  0.20014963282E+03  0.50400001928E-02 0. -1.
       -1    1    3    3    0  502  0.13021940676E+03 -0.96514764861E+02 -0.46880105316E+03  0.49603086719E+03  0.50400001928E-02 0.  1.
</event>
<event>
 5   0  0.2295179E-02  0.6037715E+03  0.7818609E-02  0.9897612E-01
       -1   -1    0    0    0  501  0.00000000000E+00  0.00000000000E+00  0.11067537905E+03  0.11067537916E+03  0.50400001928E-02 0. -1.
        1   -1    0    0  501    0  0.00000000000E+00  0.00000000000E+00 -0.82344438583E+03  0.82344438584E+03  0.50400001928E-02 0.  1.
    10030    2    1    2    0    0  0.00000000000E+00  0.00000000000E+00 -0.71276900678E+03  0.93411976501E+03  0.60377154483E+03 0.  0.
        3    1    3    3  502    0  0.22470330623E+02 -0.65375504091E+01  0.10926989281E+03  0.11174781877E+03  0.10100000352E+00 0. -1.
       -3    1    3    3    0  502 -0.22470330623E+02  0.65375504091E+01 -0.82203889959E+03  0.82237194624E+03  0.10100000352E+00 0.  1.
</event>
<event>
 5   0  0.3832191E-02  0.6012563E+03  0.7818609E-02  0.9902803E-01
       -2   -1    0    0    0  501  0.00000000000E+00  0.00000000000E+00  0.11500947406E+03  0.11500947409E+03  0.25500000920E-02 0. -1.
        2   -1    0    0  501    0  0.00000000000E+00  0.00000000000E+00 -0.78582464533E+03  0.78582464534E+03  0.25500000920E-02 0.  1.
    10030    2    1    2    0    0  0.00000000000E+00  0.00000000000E+00 -0.67081517127E+03  0.90083411942E+03  0.60125628205E+03 0.  0.
        3    1    3    3  502    0  0.17738038115E+02 -0.30001079465E+03 -0.32418027272E+03  0.44205652843E+03  0.10100000352E+00 0. -1.
       -3    1    3    3    0  502 -0.17738038115E+02  0.30001079465E+03 -0.34663489855E+03  0.45877759100E+03  0.10100000352E+00 0.  1.
</event>
<event>
 5   0  0.1521750E-02  0.6006991E+03  0.7818609E-02  0.9903957E-01
        3   -1    0    0  501    0  0.00000000000E+00  0.00000000000E+00  0.30248751860E+03  0.30248753547E+03  0.10100000352E+00 0.  1.
       -3   -1    0    0    0  501  0.00000000000E+00  0.00000000000E+00 -0.29822666640E+03  0.29822668351E+03  0.10100000352E+00 0. -1.
    10030    2    1    2    0    0  0.00000000000E+00  0.00000000000E+00  0.42608521991E+01  0.60071421897E+03  0.60069910772E+03 0.  0.
        5    1    3    3  502    0  0.36394742921E+02  0.29724411710E+03  0.24694726626E+02  0.30051715755E+03  0.46999998093E+01 0. -1.
       -5    1    3    3    0  502 -0.36394742921E+02 -0.29724411710E+03 -0.20433874427E+02  0.30019706142E+03  0.46999998093E+01 0.  1.
</event>
<event>
 5   0  0.2295179E-02  0.5914456E+03  0.7818609E-02  0.9923314E-01
       -1   -1    0    0    0  501  0.00000000000E+00  0.00000000000E+00  0.13849794383E+03  0.13849794393E+03  0.50400001928E-02 0. -1.
        1   -1    0    0  501    0  0.00000000000E+00  0.00000000000E+00 -0.63143147581E+03  0.63143147583E+03  0.50400001928E-02 0.  1.
    10030    2    1    2    0    0  0.00000000000E+00  0.00000000000E+00 -0.49293353198E+03  0.76992941976E+03  0.59144555494E+03 0.  0.
        3    1    3    3  502    0  0.23063228024E+02 -0.18931801356E+03 -0.54067591925E+03  0.57332685495E+03  0.10100000352E+00 0.  1.
       -3    1    3    3    0  502 -0.23063228024E+02  0.18931801356E+03  0.47742387273E+02  0.19660256481E+03  0.10100000352E+00 0. -1.
</event>
<event>
 5   0  0.3798925E-02  0.5967030E+03  0.7818609E-02  0.9912270E-01
       -2   -1    0    0    0  501  0.00000000000E+00  0.00000000000E+00  0.13797128701E+03  0.13797128703E+03  0.25500000920E-02 0. -1.
        2   -1    0    0  501    0  0.00000000000E+00  0.00000000000E+00 -0.64516052255E+03  0.64516052255E+03  0.25500000920E-02 0.  1.
    10030    2    1    2    0    0  0.00000000000E+00  0.00000000000E+00 -0.50718923554E+03  0.78313180959E+03  0.59670303380E+03 0.  0.
        2    1    3    3  502    0 -0.11435272648E+03 -0.22352730432E+03 -0.42082843666E+02  0.25458194666E+03  0.25500000920E-02 0. -1.
       -2    1    3    3    0  502  0.11435272648E+03  0.22352730432E+03 -0.46510639187E+03  0.52854986292E+03  0.25500000920E-02 0.  1.
</event>
<event>
 5   0  0.2276105E-02  0.5984712E+03  0.7818609E-02  0.9908583E-01
       -1   -1    0    0    0  501  0.00000000000E+00  0.00000000000E+00  0.15356021815E+03  0.15356021823E+03  0.50400001928E-02 0.  1.
        1   -1    0    0  501    0  0.00000000000E+00  0.00000000000E+00 -0.58310634196E+03  0.58310634198E+03  0.50400001928E-02 0. -1.
    10030    2    1    2    0    0  0.00000000000E+00  0.00000000000E+00 -0.42954612381E+03  0.73666656021E+03  0.59847117596E+03 0.  0.
        1    1    3    3  502    0 -0.14806107496E+03 -0.21669055927E+03 -0.39172120861E+03  0.47151074823E+03  0.50400001928E-02 0.  1.
       -1    1    3    3    0  502  0.14806107496E+03  0.21669055927E+03 -0.37824915203E+02  0.26515581199E+03  0.50400001928E-02 0. -1.
</event>
<event>
 5   0  0.2276105E-02  0.5947362E+03  0.7818609E-02  0.9916387E-01
        1   -1    0    0  501    0  0.00000000000E+00  0.00000000000E+00  0.29673377016E+03  0.29673377021E+03  0.50400001928E-02 0.  1.
       -1   -1    0    0    0  501  0.00000000000E+00  0.00000000000E+00 -0.29800377735E+03  0.29800377740E+03  0.50400001928E-02 0. -1.
    10030    2    1    2    0    0  0.00000000000E+00  0.00000000000E+00 -0.12700071897E+01  0.59473754760E+03  0.59473619161E+03 0.  0.
        1    1    3    3  502    0  0.76064165040E+02  0.63553674784E+02  0.27972782565E+03  0.29677008483E+03  0.50400001928E-02 0.  1.
       -1    1    3    3    0  502 -0.76064165040E+02 -0.63553674784E+02 -0.28099783284E+03  0.29796746277E+03  0.50400001928E-02 0. -1.
</event>
<event>
 5   0  0.2225808E-02  0.6004013E+03  0.7818609E-02  0.9904574E-01
       -1   -1    0    0    0  501  0.00000000000E+00  0.00000000000E+00  0.75883390856E+02  0.75883391023E+02  0.50400001928E-02 0.  1.
        1   -1    0    0  501    0  0.00000000000E+00  0.00000000000E+00 -0.11876171850E+04  0.11876171850E+04  0.50400001928E-02 0. -1.
    10030    2    1    2    0    0  0.00000000000E+00  0.00000000000E+00 -0.11117337941E+04  0.12635005760E+04  0.60040126298E+03 0.  0.
        2    1    3    3  502    0 -0.40584008926E+02  0.21574718420E+03 -0.98676859247E+03  0.10108937453E+04  0.25500000920E-02 0. -1.
       -2    1    3    3    0  502  0.40584008926E+02 -0.21574718420E+03 -0.12496520165E+03  0.25260683067E+03  0.25500000920E-02 0.  1.
</event>
<event>
 5   0  0.3724066E-02  0.5952048E+03  0.7818609E-02  0.9915405E-01
       -2   -1    0    0    0  501  0.00000000000E+00  0.00000000000E+00  0.50455000687E+02  0.50455000752E+02  0.25500000920E-02 0.  1.
        2   -1    0    0  501    0  0.00000000000E+00  0.00000000000E+00 -0.17553699892E+04  0.17553699892E+04  0.25500000920E-02 0. -1.
    10030    2    1    2    0    0  0.00000000000E+00  0.00000000000E+00 -0.17049149885E+04  0.18058249900E+04  0.59520481877E+03 0.  0.
        4    1    3    3  502    0  0.65664144731E+02  0.26765515658E+02  0.24441797264E+02  0.75014579150E+02  0.12699999809E+01 0.  1.
       -4    1    3    3    0  502 -0.65664144731E+02 -0.26765515658E+02 -0.17293567858E+04  0.17308104108E+04  0.12699999809E+01 0. -1.
</event>
<event>
 5   0  0.2295179E-02  0.6074921E+03  0.7818609E-02  0.9889983E-01
        1   -1    0    0  501    0  0.00000000000E+00  0.00000000000E+00  0.10049388987E+04  0.10049388987E+04  0.50400001928E-02 0.  1.
       -1   -1    0    0    0  501  0.00000000000E+00  0.00000000000E+00 -0.91808221277E+02  0.91808221415E+02  0.50400001928E-02 0. -1.
    10030    2    1    2    0    0  0.00000000000E+00  0.00000000000E+00  0.91313067745E+03  0.10967471202E+04  0.60749206700E+03 0.  0.
        3    1    3    3  502    0  0.41135457099E+02 -0.22636719614E+03  0.81459050986E+03  0.84645847050E+03  0.10100000352E+00 0.  1.
       -3    1    3    3    0  502 -0.41135457099E+02  0.22636719614E+03  0.98540167591E+02  0.25028864966E+03  0.10100000352E+00 0. -1.
</event>
<event>
 5   0  0.2382531E-02  0.6029388E+03  0.7818609E-02  0.9899328E-01
        1   -1    0    0  501    0  0.00000000000E+00  0.00000000000E+00  0.45818794859E+03  0.45818794861E+03  0.50400001928E-02 0.  1.
       -1   -1    0    0    0  501  0.00000000000E+00  0.00000000000E+00 -0.19835485222E+03  0.19835485228E+03  0.50400001928E-02 0. -1.
    10030    2    1    2    0    0  0.00000000000E+00  0.00000000000E+00  0.25983309637E+03  0.65654280089E+03  0.60293881235E+03 0.  0.
        5    1    3    3  502    0 -0.82916199774E+02 -0.17922823242E+03  0.37789971948E+03  0.42641311361E+03  0.46999998093E+01 0.  1.
       -5    1    3    3    0  502  0.82916199774E+02  0.17922823242E+03 -0.11806662311E+03  0.23012968728E+03  0.46999998093E+01 0. -1.
</event>
<event>
 5   0  0.2225808E-02  0.6066294E+03  0.7818609E-02  0.9891747E-01
        1   -1    0    0  501    0  0.00000000000E+00  0.00000000000E+00  0.26329539830E+04  0.26329539830E+04  0.50400001928E-02 0. -1.
       -1   -1    0    0    0  501  0.00000000000E+00  0.00000000000E+00 -0.34941671380E+02  0.34941671744E+02  0.50400001928E-02 0.  1.
    10030    2    1    2    0    0  0.00000000000E+00  0.00000000000E+00  0.25980123116E+04  0.26678956547E+04  0.60662942007E+03 0.  0.
        2    1    3    3  502    0  0.24895880021E+03  0.16131335866E+03  0.10209513910E+04  0.10631764795E+04  0.25500000920E-02 0.  1.
       -2    1    3    3    0  502 -0.24895880021E+03 -0.16131335866E+03  0.15770609206E+04  0.16047191752E+04  0.25500000920E-02 0. -1.
</event>
<event>
 5   0  0.3798925E-02  0.5995428E+03  0.7818609E-02  0.9906355E-01
        2   -1    0    0  501    0  0.00000000000E+00  0.00000000000E+00  0.25877911792E+03  0.25877911793E+03  0.25500000920E-02 0. -1.
       -2   -1    0    0    0  501  0.00000000000E+00  0.00000000000E+00 -0.34725714466E+03  0.34725714467E+03  0.25500000920E-02 0.  1.
    10030    2    1    2    0    0  0.00000000000E+00  0.00000000000E+00 -0.88478026739E+02  0.60603626260E+03  0.59954281779E+03 0.  0.
        2    1    3    3  502    0  0.19310363306E+02  0.18849866428E+03 -0.27904403402E+03  0.33729839830E+03  0.25500000920E-02 0.  1.
       -2    1    3    3    0  502 -0.19310363306E+02 -0.18849866428E+03  0.19056600728E+03  0.26873786429E+03  0.25500000920E-02 0. -1.
</event>
<event>
 5   0  0.1521750E-02  0.6009911E+03  0.7818609E-02  0.9903352E-01
       -3   -1    0    0    0  501  0.00000000000E+00  0.00000000000E+00  0.95503821209E+03  0.95503821743E+03  0.10100000352E+00 0. -1.
        3   -1    0    0  501    0  0.00000000000E+00  0.00000000000E+00 -0.94548632706E+02  0.94548686652E+02  0.10100000352E+00 0.  1.
    10030    2    1    2    0    0  0.00000000000E+00  0.00000000000E+00  0.86048957938E+03  0.10495869041E+04  0.60099114219E+03 0.  0.
        4    1    3    3  502    0  0.20376088170E+03 -0.90370638901E+02  0.78218604156E+03  0.81332771120E+03  0.12699999809E+01 0. -1.
       -4    1    3    3    0  502 -0.20376088170E+03  0.90370638901E+02  0.78303537815E+02  0.23625919288E+03  0.12699999809E+01 0.  1.
</event>
<event>
 5   0  0.3724066E-02  0.6038071E+03  0.7818609E-02  0.9897539E-01
        2   -1    0    0  501    0  0.00000000000E+00  0.00000000000E+00  0.17506502217E+04  0.17506502217E+04  0.25500000920E-02 0.  1.
       -2   -1    0    0    0  501  0.00000000000E+00  0.00000000000E+00 -0.52063948929E+02  0.52063948991E+02  0.25500000920E-02 0. -1.
    10030    2    1    2    0    0  0.00000000000E+00  0.00000000000E+00  0.16985862728E+04  0.18027141707E+04  0.60380713409E+03 0.  0.
        4    1    3    3  502    0  0.49636978151E+02 -0.12552447540E+03  0.43054405156E+02  0.14168810193E+03  0.12699999809E+01 0. -1.
       -4    1    3    3    0  502 -0.49636978151E+02  0.12552447540E+03  0.16555318676E+04  0.16610260688E+04  0.12699999809E+01 0.  1.
</event>
<event>
 5   0  0.3724066E-02  0.6003699E+03  0.7818609E-02  0.9904639E-01
        2   -1    0    0  501    0  0.00000000000E+00  0.00000000000E+00  0.13434759296E+03  0.13434759298E+03  0.25500000920E-02 0. -1.
       -2   -1    0    0    0  501  0.00000000000E+00  0.00000000000E+00 -0.67073026870E+03  0.67073026870E+03  0.25500000920E-02 0.  1.
    10030    2    1    2    0    0  0.00000000000E+00  0.00000000000E+00 -0.53638267574E+03  0.80507786168E+03  0.60036987644E+03 0.  0.
        4    1    3    3  502    0  0.22139920569E+03  0.12661976847E+03 -0.55914465391E+02  0.26110958310E+03  0.12699999809E+01 0. -1.
       -4    1    3    3    0  502 -0.22139920569E+03 -0.12661976847E+03 -0.48046821035E+03  0.54396827858E+03  0.12699999809E+01 0.  1.
</event>
<event>
 5   0  0.2309055E-02  0.6035343E+03  0.7818609E-02  0.9898101E-01
       -1   -1    0    0    0  501  0.00000000000E+00  0.00000000000E+00  0.34170247249E+03  0.34170247253E+03  0.50400001928E-02 0. -1.
        1   -1    0    0  501    0  0.00000000000E+00  0.00000000000E+00 -0.26649910340E+03  0.26649910344E+03  0.50400001928E-02 0.  1.
    10030    2    1    2    0    0  0.00000000000E+00  0.00000000000E+00  0.75203369099E+02  0.60820157598E+03  0.60353426605E+03 0.  0.
        4    1    3    3  502    0 -0.47221019071E+02 -0.17441700129E+03 -0.20595032654E+03  0.27398588446E+03  0.12699999809E+01 0.  1.
       -4    1    3    3    0  502  0.47221019071E+02  0.17441700129E+03  0.28115369564E+03  0.33421569151E+03  0.12699999809E+01 0. -1.
</event>
<event>
 5   0  0.3798925E-02  0.6024483E+03  0.7818609E-02  0.9900340E-01
       -2   -1    0    0    0  501  0.00000000000E+00  0.00000000000E+00  0.27705756898E+03  0.27705756899E+03  0.25500000920E-02 0. -1.
        2   -1    0    0  501    0  0.00000000000E+00  0.00000000000E+00 -0.32749868464E+03  0.32749868465E+03  0.25500000920E-02 0.  1.
    10030    2    1    2    0    0  0.00000000000E+00  0.00000000000E+00 -0.50441115653E+02  0.60455625364E+03  0.60244830290E+03 0.  0.
        2    1    3    3  502    0 -0.49161090100E+02  0.39021327432E+02 -0.32086387788E+03  0.32694510993E+03  0.25500000920E-02 0.  1.
       -2    1    3    3    0  502  0.49161090100E+02 -0.39021327432E+02  0.27042276223E+03  0.27761114371E+03  0.25500000920E-02 0. -1.
</event>
<event>
 5   0  0.1521750E-02  0.6026283E+03  0.7818609E-02  0.9899968E-01
       -3   -1    0    0    0  501  0.00000000000E+00  0.00000000000E+00  0.85232010458E+02  0.85232070301E+02  0.10100000352E+00 0. -1.
        3   -1    0    0  501    0  0.00000000000E+00  0.00000000000E+00 -0.10652122744E+04  0.10652122792E+04  0.10100000352E+00 0.  1.
    10030    2    1    2    0    0  0.00000000000E+00  0.00000000000E+00 -0.97998026395E+03  0.11504443495E+04  0.60262831294E+03 0.  0.
        4    1    3    3  502    0 -0.12087203269E+03  0.24977492457E+03 -0.26580092600E+03  0.38425161860E+03  0.12699999809E+01 0. -1.
       -4    1    3    3    0  502  0.12087203269E+03 -0.24977492457E+03 -0.71417933795E+03  0.76619273090E+03  0.12699999809E+01 0.  1.
</event>
<event>
 5   0  0.3724066E-02  0.5956097E+03  0.7818609E-02  0.9914557E-01
       -2   -1    0    0    0  501  0.00000000000E+00  0.00000000000E+00  0.67089624297E+02  0.67089624345E+02  0.25500000920E-02 0.  1.
        2   -1    0    0  501    0  0.00000000000E+00  0.00000000000E+00 -0.13219292425E+04  0.13219292425E+04  0.25500000920E-02 0. -1.
    10030    2    1    2    0    0  0.00000000000E+00  0.00000000000E+00 -0.12548396182E+04  0.13890188669E+04  0.59560972545E+03 0.  0.
        4    1    3    3  502    0  0.13076115197E+03  0.10877100369E+03 -0.57335630119E+02  0.17949539685E+03  0.12699999809E+01 0.  1.
       -4    1    3    3    0  502 -0.13076115197E+03 -0.10877100369E+03 -0.11975039881E+04  0.12095234700E+04  0.12699999809E+01 0. -1.
</event>
<event>
 5   0  0.3737642E-02  0.6122465E+03  0.7818609E-02  0.9880319E-01
       -2   -1    0    0    0  501  0.00000000000E+00  0.00000000000E+00  0.52257888916E+02  0.52257888979E+02  0.25500000920E-02 0. -1.
        2   -1    0    0  501    0  0.00000000000E+00  0.00000000000E+00 -0.17932496732E+04  0.17932496732E+04  0.25500000920E-02 0.  1.
    10030    2    1    2    0    0  0.00000000000E+00  0.00000000000E+00 -0.17409917842E+04  0.18455075621E+04  0.61224649375E+03 0.  0.
        5    1    3    3  502    0  0.87452140717E+02 -0.27653079551E+03 -0.57558196679E+03  0.64454157995E+03  0.46999998093E+01 0. -1.
       -5    1    3    3    0  502 -0.87452140717E+02  0.27653079551E+03 -0.11654098174E+04  0.12009659822E+04  0.46999998093E+01 0.  1.
</event>
<event>
 5   0  0.1521750E-02  0.5986318E+03  0.7818609E-02  0.9908249E-01
        4   -1    0    0  501    0  0.00000000000E+00  0.00000000000E+00  0.32970433958E+03  0.32970678555E+03  0.12699999809E+01 0. -1.
       -4   -1    0    0    0  501  0.00000000000E+00  0.00000000000E+00 -0.27172336119E+03  0.27172632908E+03  0.12699999809E+01 0.  1.
    10030    2    1    2    0    0  0.00000000000E+00  0.00000000000E+00  0.57980978390E+02  0.60143311463E+03  0.59863177123E+03 0.  0.
        4    1    3    3  502    0 -0.17016822668E+03 -0.37757938236E+02  0.27345093403E+03  0.32428369292E+03  0.12699999809E+01 0. -1.
       -4    1    3    3    0  502  0.17016822668E+03  0.37757938236E+02 -0.21546995564E+03  0.27714942171E+03  0.12699999809E+01 0.  1.
</event>
<event>
 5   0  0.3737642E-02  0.5547431E+03  0.7818609E-02  0.1000402E+00
       -2   -1    0    0    0  501  0.00000000000E+00  0.00000000000E+00  0.68791624947E+02  0.68791624995E+02  0.25500000920E-02 0. -1.
        2   -1    0    0  501    0  0.00000000000E+00  0.00000000000E+00 -0.11183770692E+04  0.11183770692E+04  0.25500000920E-02 0.  1.
    10030    2    1    2    0    0  0.00000000000E+00  0.00000000000E+00 -0.10495854443E+04  0.11871686942E+04  0.55474309704E+03 0.  0.
        5    1    3    3  502    0 -0.21261856656E+03 -0.41606982864E+02 -0.15428200277E+03  0.26601282346E+03  0.46999998093E+01 0. -1.
       -5    1    3    3    0  502  0.21261856656E+03  0.41606982864E+02 -0.89530344152E+03  0.92115587078E+03  0.46999998093E+01 0.  1.
</event>
<event>
 5   0  0.2382531E-02  0.6025089E+03  0.7818609E-02  0.9900215E-01
       -1   -1    0    0    0  501  0.00000000000E+00  0.00000000000E+00  0.73011569799E+02  0.73011569973E+02  0.50400001928E-02 0. -1.
        1   -1    0    0  501    0  0.00000000000E+00  0.00000000000E+00 -0.12430118146E+04  0.12430118147E+04  0.50400001928E-02 0.  1.
    10030    2    1    2    0    0  0.00000000000E+00  0.00000000000E+00 -0.11700002449E+04  0.13160233846E+04  0.60250890114E+03 0.  0.
        5    1    3    3  502    0  0.90411064291E+02  0.18816856767E+03 -0.11071044214E+03  0.23634818045E+03  0.46999998093E+01 0. -1.
       -5    1    3    3    0  502 -0.90411064291E+02 -0.18816856767E+03 -0.10592898027E+04  0.10796752042E+04  0.46999998093E+01 0.  1.
</event>
<event>
 5   0  0.2225808E-02  0.6012702E+03  0.7818609E-02  0.9902774E-01
        1   -1    0    0  501    0  0.00000000000E+00  0.00000000000E+00  0.12648754647E+04  0.12648754647E+04  0.50400001928E-02 0.  1.
       -1   -1    0    0    0  501  0.00000000000E+00  0.00000000000E+00 -0.71454835705E+02  0.71454835882E+02  0.50400001928E-02 0. -1.
    10030    2    1    2    0    0  0.00000000000E+00  0.00000000000E+00  0.11934206290E+04  0.13363303006E+04  0.60127021760E+03 0.  0.
        2    1    3    3  502    0  0.96916606382E+02  0.14541531905E+03  0.11403997479E+04  0.11537114148E+04  0.25500000920E-02 0.  1.
       -2    1    3    3    0  502 -0.96916606382E+02 -0.14541531905E+03  0.53020881083E+02  0.18261888579E+03  0.25500000920E-02 0. -1.
</event>
<event>
 5   0  0.3934634E-02  0.5996248E+03  0.7818609E-02  0.9906185E-01
       -2   -1    0    0    0  501  0.00000000000E+00  0.00000000000E+00  0.38074056767E+03  0.38074056768E+03  0.25500000920E-02 0. -1.
        2   -1    0    0  501    0  0.00000000000E+00  0.00000000000E+00 -0.23608591872E+03  0.23608591873E+03  0.25500000920E-02 0.  1.
    10030    2    1    2    0    0  0.00000000000E+00  0.00000000000E+00  0.14465464895E+03  0.61682648641E+03  0.59962483844E+03 0.  0.
        1    1    3    3  502    0 -0.87570800087E+02 -0.16594340530E+03 -0.16822198644E+03  0.25200098321E+03  0.50400001928E-02 0.  1.
       -1    1    3    3    0  502  0.87570800087E+02  0.16594340530E+03  0.31287663539E+03  0.36482550321E+03  0.50400001928E-02 0. -1.
</event>
<event>
 5   0  0.2309055E-02  0.6072827E+03  0.7818609E-02  0.9890411E-01
       -1   -1    0    0    0  501  0.00000000000E+00  0.00000000000E+00  0.65703061923E+03  0.65703061925E+03  0.50400001928E-02 0.  1.
        1   -1    0    0  501    0  0.00000000000E+00  0.00000000000E+00 -0.14032536665E+03  0.14032536674E+03  0.50400001928E-02 0. -1.
    10030    2    1    2    0    0  0.00000000000E+00  0.00000000000E+00  0.51670525257E+03  0.79735598599E+03  0.60728267747E+03 0.  0.
        4    1    3    3  502    0  0.22350811312E+03 -0.20046574340E+03  0.31785959111E+03  0.43723989235E+03  0.12699999809E+01 0.  1.
       -4    1    3    3    0  502 -0.22350811312E+03  0.20046574340E+03  0.19884566147E+03  0.36011609363E+03  0.12699999809E+01 0. -1.
</event>
<event>
 5   0  0.3832191E-02  0.5976188E+03  0.7818609E-02  0.9910359E-01
        2   -1    0    0  501    0  0.00000000000E+00  0.00000000000E+00  0.54695087087E+03  0.54695087088E+03  0.25500000920E-02 0. -1.
       -2   -1    0    0    0  501  0.00000000000E+00  0.00000000000E+00 -0.16324509549E+03  0.16324509551E+03  0.25500000920E-02 0.  1.
    10030    2    1    2    0    0  0.00000000000E+00  0.00000000000E+00  0.38370577539E+03  0.71019596639E+03  0.59761876527E+03 0.  0.
        3    1    3    3  502    0 -0.59399326051E+02  0.20829315671E+03 -0.52770026843E+02  0.22293273650E+03  0.10100000352E+00 0.  1.
       -3    1    3    3    0  502  0.59399326051E+02 -0.20829315671E+03  0.43647580223E+03  0.48726322989E+03  0.10100000352E+00 0. -1.
</event>
<event>
 5   0  0.2295179E-02  0.6030731E+03  0.7818609E-02  0.9899051E-01
       -1   -1    0    0    0  501  0.00000000000E+00  0.00000000000E+00  0.29443127217E+03  0.29443127221E+03  0.50400001928E-02 0.  1.
        1   -1    0    0  501    0  0.00000000000E+00  0.00000000000E+00 -0.30881333203E+03  0.30881333207E+03  0.50400001928E-02 0. -1.
    10030    2    1    2    0    0  0.00000000000E+00  0.00000000000E+00 -0.14382059864E+02  0.60324460429E+03  0.60307313732E+03 0.  0.
        3    1    3    3  502    0 -0.76408265670E+00  0.29956757352E+03 -0.41595243305E+02  0.30244253900E+03  0.10100000352E+00 0. -1.
       -3    1    3    3    0  502  0.76408265670E+00 -0.29956757352E+03  0.27213183442E+02  0.30080206529E+03  0.10100000352E+00 0.  1.
</event>
<event>
 5   0  0.2295179E-02  0.5884786E+03  0.7818609E-02  0.9929602E-01
       -1   -1    0    0    0  501  0.00000000000E+00  0.00000000000E+00  0.28632309697E+03  0.28632309701E+03  0.50400001928E-02 0. -1.
        1   -1    0    0  501    0  0.00000000000E+00  0.00000000000E+00 -0.30237441949E+03  0.30237441953E+03  0.50400001928E-02 0.  1.
    10030    2    1    2    0    0  0.00000000000E+00  0.00000000000E+00 -0.16051322518E+02  0.58869751654E+03  0.58847864960E+03 0.  0.
        3    1    3    3  502    0 -0.56079162680E+02 -0.11782907606E+03  0.25579236078E+03  0.28715554267E+03  0.10100000352E+00 0. -1.
       -3    1    3    3    0  502  0.56079162680E+02  0.11782907606E+03 -0.27184368330E+03  0.30154197387E+03  0.10100000352E+00 0.  1.
</event>
<event>
 5   0  0.2382531E-02  0.6040215E+03  0.7818609E-02  0.9897098E-01
       -1   -1    0    0    0  501  0.00000000000E+00  0.00000000000E+00  0.60861878841E+02  0.60861879050E+02  0.50400001928E-02 0. -1.
        1   -1    0    0  501    0  0.00000000000E+00  0.00000000000E+00 -0.14986474286E+04  0.14986474286E+04  0.50400001928E-02 0.  1.
    10030    2    1    2    0    0  0.00000000000E+00  0.00000000000E+00 -0.14377855497E+04  0.15595093076E+04  0.60402151748E+03 0.  0.
        5    1    3    3  502    0  0.18277617157E+02  0.29140891217E+03 -0.51998460629E+03  0.59637178517E+03  0.46999998093E+01 0. -1.
       -5    1    3    3    0  502 -0.18277617157E+02 -0.29140891217E+03 -0.91780094346E+03  0.96313752247E+03  0.46999998093E+01 0.  1.
</event>
<event>
 5   0  0.3798925E-02  0.6008516E+03  0.7818609E-02  0.9903641E-01
       -2   -1    0    0    0  501  0.00000000000E+00  0.00000000000E+00  0.46497518816E+03  0.46497518817E+03  0.25500000920E-02 0. -1.
        2   -1    0    0  501    0  0.00000000000E+00  0.00000000000E+00 -0.19410855991E+03  0.19410855993E+03  0.25500000920E-02 0.  1.
    10030    2    1    2    0    0  0.00000000000E+00  0.00000000000E+00  0.27086662825E+03  0.65908374810E+03  0.60085160956E+03 0.  0.
        2    1    3    3  502    0 -0.35510875258E+02 -0.60235195876E+02 -0.18505836874E+03  0.19782795792E+03  0.25500000920E-02 0.  1.
       -2    1    3    3    0  502  0.35510875258E+02  0.60235195876E+02  0.45592499700E+03  0.46125579018E+03  0.25500000920E-02 0. -1.
</event>
<event>
 5   0  0.3737642E-02  0.5996994E+03  0.7818609E-02  0.9906030E-01
        2   -1    0    0  501    0  0.00000000000E+00  0.00000000000E+00  0.48657630854E+03  0.48657630855E+03  0.25500000920E-02 0. -1.
       -2   -1    0    0    0  501  0.00000000000E+00  0.00000000000E+00 -0.18478056178E+03  0.18478056179E+03  0.25500000920E-02 0.  1.
    10030    2    1    2    0    0  0.00000000000E+00  0.00000000000E+00  0.30179574676E+03  0.67135687034E+03  0.59969940353E+03 0.  0.
        5    1    3    3  502    0  0.62911513974E+02 -0.28973438695E+03  0.20076077290E+03  0.35809335585E+03  0.46999998093E+01 0. -1.
       -5    1    3    3    0  502 -0.62911513974E+02  0.28973438695E+03  0.10103497387E+03  0.31326351449E+03  0.46999998093E+01 0.  1.
</event>
<event>
 5   0  0.2309055E-02  0.6008717E+03  0.7818609E-02  0.9903599E-01
        1   -1    0    0  501    0  0.00000000000E+00  0.00000000000E+00  0.10414472660E+04  0.10414472660E+04  0.50400001928E-02 0.  1.
       -1   -1    0    0    0  501  0.00000000000E+00  0.00000000000E+00 -0.86669484077E+02  0.86669484223E+02  0.50400001928E-02 0. -1.
    10030    2    1    2    0    0  0.00000000000E+00  0.00000000000E+00  0.95477778191E+03  0.11281167502E+04  0.60087169122E+03 0.  0.
        4    1    3    3  502    0  0.23542109570E+03 -0.26273264512E+02  0.13045500352E+03  0.27043205722E+03  0.12699999809E+01 0. -1.
       -4    1    3    3    0  502 -0.23542109570E+03  0.26273264512E+02  0.82432277840E+03  0.85768469300E+03  0.12699999809E+01 0.  1.
</event>
<event>
 5   0  0.3724066E-02  0.6011574E+03  0.7818609E-02  0.9903008E-01
        2   -1    0    0  501    0  0.00000000000E+00  0.00000000000E+00  0.54487761060E+03  0.54487761060E+03  0.25500000920E-02 0.  1.
       -2   -1    0    0    0  501  0.00000000000E+00  0.00000000000E+00 -0.16581254554E+03  0.16581254555E+03  0.25500000920E-02 0. -1.
    10030    2    1    2    0    0  0.00000000000E+00  0.00000000000E+00  0.37906506506E+03  0.71069015616E+03  0.60115736252E+03 0.  0.
        4    1    3    3  502    0 -0.24921103807E+03  0.14415092083E+03  0.87422053820E+02  0.30088180049E+03  0.12699999809E+01 0. -1.
       -4    1    3    3    0  502  0.24921103807E+03 -0.14415092083E+03  0.29164301124E+03  0.40980835567E+03  0.12699999809E+01 0.  1.
</event>
<event>
 5   0  0.2382531E-02  0.5996560E+03  0.7818609E-02  0.9906120E-01
       -1   -1    0    0    0  501  0.00000000000E+00  0.00000000000E+00  0.10893668667E+03  0.10893668679E+03  0.50400001928E-02 0. -1.
        1   -1    0    0  501    0  0.00000000000E+00  0.00000000000E+00 -0.82522090382E+03  0.82522090383E+03  0.50400001928E-02 0.  1.
    10030    2    1    2    0    0  0.00000000000E+00  0.00000000000E+00 -0.71628421715E+03  0.93415759063E+03  0.59965600505E+03 0.  0.
        5    1    3    3  502    0  0.11181160573E+03 -0.12493082696E+03  0.29017343241E+02  0.17021645898E+03  0.46999998093E+01 0. -1.
       -5    1    3    3    0  502 -0.11181160573E+03  0.12493082696E+03 -0.74530156039E+03  0.76394113164E+03  0.46999998093E+01 0.  1.
</event>
<event>
 5   0  0.3798925E-02  0.5990674E+03  0.7818609E-02  0.9907343E-01
        2   -1    0    0  501    0  0.00000000000E+00  0.00000000000E+00  0.17957227416E+03  0.17957227417E+03  0.25500000920E-02 0.  1.
       -2   -1    0    0    0  501  0.00000000000E+00  0.00000000000E+00 -0.49963412084E+03  0.49963412085E+03  0.25500000920E-02 0. -1.
    10030    2    1    2    0    0  0.00000000000E+00  0.00000000000E+00 -0.32006184669E+03  0.67920639502E+03  0.59906739298E+03 0.  0.
        2    1    3    3  502    0  0.95454077844E+01 -0.19247536280E+03 -0.42001510688E+03  0.46211532122E+03  0.25500000920E-02 0. -1.
       -2    1    3    3    0  502 -0.95454077844E+01  0.19247536280E+03  0.99953260194E+02  0.21709107380E+03  0.25500000920E-02 0.  1.
</event>
<event>
 5   0  0.3832191E-02  0.5781882E+03  0.7818609E-02  0.9951721E-01
       -2   -1    0    0    0  501  0.00000000000E+00  0.00000000000E+00  0.20035141086E+03  0.20035141088E+03  0.25500000920E-02 0.  1.
        2   -1    0    0  501    0  0.00000000000E+00  0.00000000000E+00 -0.41714405886E+03  0.41714405886E+03  0.25500000920E-02 0. -1.
    10030    2    1    2    0    0  0.00000000000E+00  0.00000000000E+00 -0.21679264799E+03  0.61749546974E+03  0.57818820718E+03 0.  0.
        3    1    3    3  502    0  0.11353420923E+03  0.11380752226E+03  0.14821596051E+03  0.21865532223E+03  0.10100000352E+00 0.  1.
       -3    1    3    3    0  502 -0.11353420923E+03 -0.11380752226E+03 -0.36500860850E+03  0.39884014752E+03  0.10100000352E+00 0. -1.
</event>
<event>
 5   0  0.2225808E-02  0.5984297E+03  0.7818609E-02  0.9908669E-01
        1   -1    0    0  501    0  0.00000000000E+00  0.00000000000E+00  0.10193047763E+04  0.10193047763E+04  0.50400001928E-02 0.  1.
       -1   -1    0    0    0  501  0.00000000000E+00  0.00000000000E+00 -0.87833917859E+02  0.87833918003E+02  0.50400001928E-02 0. -1.
    10030    2    1    2    0    0  0.00000000000E+00  0.00000000000E+00  0.93147085846E+03  0.11071386943E+04  0.59842971879E+03 0.  0.
        2    1    3    3  502    0 -0.12030362652E+03 -0.16178369752E+03  0.87477568030E+03  0.89770786907E+03  0.25500000920E-02 0.  1.
       -2    1    3    3    0  502  0.12030362652E+03  0.16178369752E+03  0.56695178160E+02  0.20943082526E+03  0.25500000920E-02 0. -1.
</event>
<event>
 5   0  0.2382531E-02  0.5974479E+03  0.7818609E-02  0.9910715E-01
       -1   -1    0    0    0  501  0.00000000000E+00  0.00000000000E+00  0.13490283537E+03  0.13490283546E+03  0.50400001928E-02 0. -1.
        1   -1    0    0  501    0  0.00000000000E+00  0.00000000000E+00 -0.66148353956E+03  0.66148353958E+03  0.50400001928E-02 0.  1.
    10030    2    1    2    0    0  0.00000000000E+00  0.00000000000E+00 -0.52658070419E+03  0.79638637504E+03  0.59744792268E+03 0.  0.
        5    1    3    3  502    0  0.27422807690E+03  0.89457709221E+00 -0.10550197182E+03  0.29386152264E+03  0.46999998093E+01 0.  1.
       -5    1    3    3    0  502 -0.27422807690E+03 -0.89457709221E+00 -0.42107873237E+03  0.50252485240E+03  0.46999998093E+01 0. -1.
</event>
<event>
 5   0  0.3832191E-02  0.5964869E+03  0.7818609E-02  0.9912722E-01
        2   -1    0    0  501    0  0.00000000000E+00  0.00000000000E+00  0.58922673952E+03  0.58922673953E+03  0.25500000920E-02 0. -1.
       -2   -1    0    0    0  501  0.00000000000E+00  0.00000000000E+00 -0.15095912936E+03  0.15095912938E+03  0.25500000920E-02 0.  1.
    10030    2    1    2    0    0  0.00000000000E+00  0.00000000000E+00  0.43826761016E+03  0.74018586891E+03  0.59648690045E+03 0.  0.
        3    1    3    3  502    0 -0.28608834460E+03  0.25913990448E+00  0.11455428566E+03  0.30817089842E+03  0.10100000352E+00 0.  1.
       -3    1    3    3    0  502  0.28608834460E+03 -0.25913990448E+00  0.32371332450E+03  0.43201497049E+03  0.10100000352E+00 0. -1.
</event>
<event>
 5   0  0.3832191E-02  0.5943436E+03  0.7818609E-02  0.9917211E-01
        2   -1    0    0  501    0  0.00000000000E+00  0.00000000000E+00  0.15369403292E+04  0.15369403292E+04  0.25500000920E-02 0.  1.
       -2   -1    0    0    0  501  0.00000000000E+00  0.00000000000E+00 -0.57459018652E+02  0.57459018709E+02  0.25500000920E-02 0. -1.
    10030    2    1    2    0    0  0.00000000000E+00  0.00000000000E+00  0.14794813106E+04  0.15943993479E+04  0.59434361473E+03 0.  0.
        3    1    3    3  502    0  0.28825173855E+03 -0.63396621862E+01  0.54663253610E+03  0.61801002890E+03  0.10100000352E+00 0. -1.
       -3    1    3    3    0  502 -0.28825173855E+03  0.63396621862E+01  0.93284877447E+03  0.97638931903E+03  0.10100000352E+00 0.  1.
</event>
<event>
 5   0  0.3798925E-02  0.5925341E+03  0.7818609E-02  0.9921018E-01
        2   -1    0    0  501    0  0.00000000000E+00  0.00000000000E+00  0.78059808902E+03  0.78059808903E+03  0.25500000920E-02 0. -1.
       -2   -1    0    0    0  501  0.00000000000E+00  0.00000000000E+00 -0.11244475906E+03  0.11244475909E+03  0.25500000920E-02 0.  1.
    10030    2    1    2    0    0  0.00000000000E+00  0.00000000000E+00  0.66815332996E+03  0.89304284811E+03  0.59253409711E+03 0.  0.
        2    1    3    3  502    0  0.20644674179E+03  0.72664217282E+02  0.63503256607E+03  0.67168944137E+03  0.25500000920E-02 0. -1.
       -2    1    3    3    0  502 -0.20644674179E+03 -0.72664217282E+02  0.33120763885E+02  0.22135340674E+03  0.25500000920E-02 0.  1.
</event>
<event>
 5   0  0.2276105E-02  0.5914431E+03  0.7818609E-02  0.9923320E-01
       -1   -1    0    0    0  501  0.00000000000E+00  0.00000000000E+00  0.59298157678E+02  0.59298157892E+02  0.50400001928E-02 0. -1.
        1   -1    0    0  501    0  0.00000000000E+00  0.00000000000E+00 -0.14747717359E+04  0.14747717359E+04  0.50400001928E-02 0.  1.
    10030    2    1    2    0    0  0.00000000000E+00  0.00000000000E+00 -0.14154735782E+04  0.15340698938E+04  0.59144314048E+03 0.  0.
        1    1    3    3  502    0  0.57433878776E+02  0.16616713568E+03 -0.13244939440E+04  0.13361116626E+04  0.50400001928E-02 0.  1.
       -1    1    3    3    0  502 -0.57433878776E+02 -0.16616713568E+03 -0.90979634266E+02  0.19795823117E+03  0.50400001928E-02 0. -1.
</event>
<event>
 5   0  0.3724066E-02  0.6001994E+03  0.7818609E-02  0.9904992E-01
        2   -1    0    0  501    0  0.00000000000E+00  0.00000000000E+00  0.10439445075E+04  0.10439445075E+04  0.25500000920E-02 0. -1.
       -2   -1    0    0    0  501  0.00000000000E+00  0.00000000000E+00 -0.86268787882E+02  0.86268787920E+02  0.25500000920E-02 0.  1.
    10030    2    1    2    0    0  0.00000000000E+00  0.00000000000E+00  0.95767571957E+03  0.11302132954E+04  0.60019939119E+03 0.  0.
        4    1    3    3  502    0 -0.62602108101E+02 -0.17556959519E+03  0.92171614517E+03  0.94037544197E+03  0.12699999809E+01 0. -1.
       -4    1    3    3    0  502  0.62602108101E+02  0.17556959519E+03  0.35959574404E+02  0.18983785341E+03  0.12699999809E+01 0.  1.
</event>
<event>
 5   0  0.3832191E-02  0.6019470E+03  0.7818609E-02  0.9901375E-01
       -2   -1    0    0    0  501  0.00000000000E+00  0.00000000000E+00  0.71345077265E+02  0.71345077310E+02  0.25500000920E-02 0.  1.
        2   -1    0    0  501    0  0.00000000000E+00  0.00000000000E+00 -0.12696748374E+04  0.12696748374E+04  0.25500000920E-02 0. -1.
    10030    2    1    2    0    0  0.00000000000E+00  0.00000000000E+00 -0.11983297601E+04  0.13410199147E+04  0.60194700567E+03 0.  0.
        3    1    3    3  502    0 -0.18772439287E+03  0.79725825045E+02 -0.10607790904E+03  0.22988951225E+03  0.10100000352E+00 0.  1.
       -3    1    3    3    0  502  0.18772439287E+03 -0.79725825045E+02 -0.10922518511E+04  0.11111304025E+04  0.10100000352E+00 0. -1.
</event>
<event>
 5   0  0.1521750E-02  0.6001800E+03  0.7818609E-02  0.9905033E-01
        4   -1    0    0  501    0  0.00000000000E+00  0.00000000000E+00  0.77364317594E+03  0.77364421835E+03  0.12699999809E+01 0.  1.
       -4   -1    0    0    0  501  0.00000000000E+00  0.00000000000E+00 -0.11639794308E+03  0.11640487126E+03  0.12699999809E+01 0. -1.
    10030    2    1    2    0    0  0.00000000000E+00  0.00000000000E+00  0.65724523286E+03  0.89004908961E+03  0.60018004449E+03 0.  0.
        3    1    3    3  502    0  0.44061249420E+02 -0.14315398784E+03 -0.57005381541E+02  0.16026253979E+03  0.10100000352E+00 0. -1.
       -3    1    3    3    0  502 -0.44061249420E+02  0.14315398784E+03  0.71425061440E+03  0.72978654983E+03  0.10100000352E+00 0.  1.
</event>
<event>
 5   0  0.2309055E-02  0.5982322E+03  0.7818609E-02  0.9909080E-01
       -1   -1    0    0    0  501  0.00000000000E+00  0.00000000000E+00  0.26916824270E+03  0.26916824275E+03  0.50400001928E-02 0. -1.
        1   -1    0    0  501    0  0.00000000000E+00  0.00000000000E+00 -0.33239600105E+03  0.33239600109E+03  0.50400001928E-02 0.  1.
    10030    2    1    2    0    0  0.00000000000E+00  0.00000000000E+00 -0.63227758351E+02  0.60156424384E+03  0.59823222083E+03 0.  0.
        4    1    3    3  502    0  0.13430685759E+03 -0.10797028916E+03  0.21423285728E+03  0.27494225826E+03  0.12699999809E+01 0. -1.
       -4    1    3    3    0  502 -0.13430685759E+03  0.10797028916E+03 -0.27746061563E+03  0.32662198558E+03  0.12699999809E+01 0.  1.
</event>
<event>
 5   0  0.3934634E-02  0.5941065E+03  0.7818609E-02  0.9917709E-01
        2   -1    0    0  501    0  0.00000000000E+00  0.00000000000E+00  0.12486750906E+04  0.12486750906E+04  0.25500000920E-02 0. -1.
       -2   -1    0    0    0  501  0.00000000000E+00  0.00000000000E+00 -0.70667403938E+02  0.70667403984E+02  0.25500000920E-02 0.  1.
    10030    2    1    2    0    0  0.00000000000E+00  0.00000000000E+00  0.11780076867E+04  0.13193424946E+04  0.59410647883E+03 0.  0.
        1    1    3    3  502    0 -0.20969935965E+03  0.18531030051E+03  0.81026238443E+03  0.85722742639E+03  0.50400001928E-02 0. -1.
       -1    1    3    3    0  502  0.20969935965E+03 -0.18531030051E+03  0.36774530224E+03  0.46211506820E+03  0.50400001928E-02 0.  1.
</event>
<event>
 5   0  0.2382531E-02  0.6004180E+03  0.7818609E-02  0.9904539E-01
       -1   -1    0    0    0  501  0.00000000000E+00  0.00000000000E+00  0.12191073609E+03  0.12191073619E+03  0.50400001928E-02 0. -1.
        1   -1    0    0  501    0  0.00000000000E+00  0.00000000000E+00 -0.73927404606E+03  0.73927404608E+03  0.50400001928E-02 0.  1.
    10030    2    1    2    0    0  0.00000000000E+00  0.00000000000E+00 -0.61736330997E+03  0.86118478227E+03  0.60041799833E+03 0.  0.
        5    1    3    3  502    0 -0.14511002229E+02  0.28444200009E+03 -0.44464271949E+03  0.52805971120E+03  0.46999998093E+01 0.  1.
       -5    1    3    3    0  502  0.14511002229E+02 -0.28444200009E+03 -0.17272059048E+03  0.33312507107E+03  0.46999998093E+01 0. -1.
</event>
<event>
 5   0  0.2309055E-02  0.6016123E+03  0.7818609E-02  0.9902067E-01
       -1   -1    0    0    0  501  0.00000000000E+00  0.00000000000E+00  0.56859611677E+03  0.56859611679E+03  0.50400001928E-02 0. -1.
        1   -1    0    0  501    0  0.00000000000E+00  0.00000000000E+00 -0.15913639347E+03  0.15913639355E+03  0.50400001928E-02 0.  1.
    10030    2    1    2    0    0  0.00000000000E+00  0.00000000000E+00  0.40945972330E+03  0.72773251035E+03  0.60161228512E+03 0.  0.
        4    1    3    3  502    0 -0.77479522264E+01  0.27606974642E+03  0.60543424464E+02  0.28273955294E+03  0.12699999809E+01 0.  1.
       -4    1    3    3    0  502  0.77479522264E+01 -0.27606974642E+03  0.34891629883E+03  0.44499295741E+03  0.12699999809E+01 0. -1.
</event>
<event>
 5   0  0.3832191E-02  0.6039518E+03  0.7818609E-02  0.9897241E-01
       -2   -1    0    0    0  501  0.00000000000E+00  0.00000000000E+00  0.94521749738E+02  0.94521749773E+02  0.25500000920E-02 0.  1.
        2   -1    0    0  501    0  0.00000000000E+00  0.00000000000E+00 -0.96474561517E+03  0.96474561517E+03  0.25500000920E-02 0. -1.
    10030    2    1    2    0    0  0.00000000000E+00  0.00000000000E+00 -0.87022386543E+03  0.10592673649E+04  0.60395179814E+03 0.  0.
        3    1    3    3  502    0  0.19339279938E+03 -0.22203185767E+03 -0.31758124423E+03  0.43307825801E+03  0.10100000352E+00 0.  1.
       -3    1    3    3    0  502 -0.19339279938E+03  0.22203185767E+03 -0.55264262120E+03  0.62618910694E+03  0.10100000352E+00 0. -1.
</event>
<event>
 5   0  0.2309055E-02  0.6025020E+03  0.7818609E-02  0.9900229E-01
        1   -1    0    0  501    0  0.00000000000E+00  0.00000000000E+00  0.14038150151E+03  0.14038150160E+03  0.50400001928E-02 0.  1.
       -1   -1    0    0    0  501  0.00000000000E+00  0.00000000000E+00 -0.64646810036E+03  0.64646810038E+03  0.50400001928E-02 0. -1.
    10030    2    1    2    0    0  0.00000000000E+00  0.00000000000E+00 -0.50608659886E+03  0.78684960198E+03  0.60250199219E+03 0.  0.
        4    1    3    3  502    0 -0.23932647007E+03  0.11610830282E+03 -0.68387009215E+02  0.27465741058E+03  0.12699999809E+01 0.  1.
       -4    1    3    3    0  502  0.23932647007E+03 -0.11610830282E+03 -0.43769958964E+03  0.51219219140E+03  0.12699999809E+01 0. -1.
</event>
<event>
 5   0  0.2276105E-02  0.5999894E+03  0.7818609E-02  0.9905428E-01
        1   -1    0    0  501    0  0.00000000000E+00  0.00000000000E+00  0.45606351521E+03  0.45606351524E+03  0.50400001928E-02 0.  1.
       -1   -1    0    0    0  501  0.00000000000E+00  0.00000000000E+00 -0.19733393731E+03  0.19733393737E+03  0.50400001928E-02 0. -1.
    10030    2    1    2    0    0  0.00000000000E+00  0.00000000000E+00  0.25872957791E+03  0.65339745261E+03  0.59998936373E+03 0.  0.
        1    1    3    3  502    0 -0.17389002279E+03  0.23925510982E+03  0.18399017429E+03  0.34832905687E+03  0.50400001928E-02 0.  1.
       -1    1    3    3    0  502  0.17389002279E+03 -0.23925510982E+03  0.74739403621E+02  0.30506839574E+03  0.50400001928E-02 0. -1.
</event>
<event>
 5   0  0.2225808E-02  0.5992934E+03  0.7818609E-02  0.9906873E-01
       -1   -1    0    0    0  501  0.00000000000E+00  0.00000000000E+00  0.10334997183E+03  0.10334997195E+03  0.50400001928E-02 0. -1.
        1   -1    0    0  501    0  0.00000000000E+00  0.00000000000E+00 -0.86877768674E+03  0.86877768675E+03  0.50400001928E-02 0.  1.
    10030    2    1    2    0    0  0.00000000000E+00  0.00000000000E+00 -0.76542771491E+03  0.97212765870E+03  0.59929341566E+03 0.  0.
        2    1    3    3  502    0  0.15396222503E+03 -0.14555527757E+03 -0.72642578391E+03  0.75669354768E+03  0.25500000920E-02 0.  1.
       -2    1    3    3    0  502 -0.15396222503E+03  0.14555527757E+03 -0.39001931004E+02  0.21543411102E+03  0.25500000920E-02 0. -1.
</event>
<event>
 5   0  0.3934634E-02  0.5996924E+03  0.7818609E-02  0.9906045E-01
       -2   -1    0    0    0  501  0.00000000000E+00  0.00000000000E+00  0.77165591052E+02  0.77165591094E+02  0.25500000920E-02 0. -1.
        2   -1    0    0  501    0  0.00000000000E+00  0.00000000000E+00 -0.11651272095E+04  0.11651272095E+04  0.25500000920E-02 0.  1.
    10030    2    1    2    0    0  0.00000000000E+00  0.00000000000E+00 -0.10879616184E+04  0.12422928006E+04  0.59969235380E+03 0.  0.
        1    1    3    3  502    0 -0.89406344192E+02  0.28428954768E+03 -0.61248896465E+03  0.68114372430E+03  0.50400001928E-02 0. -1.
       -1    1    3    3    0  502  0.89406344192E+02 -0.28428954768E+03 -0.47547265380E+03  0.56114907630E+03  0.50400001928E-02 0.  1.
</event>
<event>
 5   0  0.2382531E-02  0.6022909E+03  0.7818609E-02  0.9900665E-01
        1   -1    0    0  501    0  0.00000000000E+00  0.00000000000E+00  0.30477962802E+03  0.30477962806E+03  0.50400001928E-02 0.  1.
       -1   -1    0    0    0  501  0.00000000000E+00  0.00000000000E+00 -0.29755462122E+03  0.29755462127E+03  0.50400001928E-02 0. -1.
    10030    2    1    2    0    0  0.00000000000E+00  0.00000000000E+00  0.72250067984E+01  0.60233424933E+03  0.60229091575E+03 0.  0.
        5    1    3    3  502    0 -0.46987376466E+02  0.25337495872E+03  0.15937933093E+03  0.30303554969E+03  0.46999998093E+01 0.  1.
       -5    1    3    3    0  502  0.46987376466E+02 -0.25337495872E+03 -0.15215432413E+03  0.29929869963E+03  0.46999998093E+01 0. -1.
</event>
<event>
 5   0  0.3832191E-02  0.5991977E+03  0.7818609E-02  0.9907072E-01
       -2   -1    0    0    0  501  0.00000000000E+00  0.00000000000E+00  0.55810810256E+02  0.55810810315E+02  0.25500000920E-02 0. -1.
        2   -1    0    0  501    0  0.00000000000E+00  0.00000000000E+00 -0.16082813146E+04  0.16082813146E+04  0.25500000920E-02 0.  1.
    10030    2    1    2    0    0  0.00000000000E+00  0.00000000000E+00 -0.15524705044E+04  0.16640921249E+04  0.59919774145E+03 0.  0.
        3    1    3    3  502    0  0.11373512216E+03  0.78802191814E+02 -0.38241586743E+02  0.14355449350E+03  0.10100000352E+00 0. -1.
       -3    1    3    3    0  502 -0.11373512216E+03 -0.78802191814E+02 -0.15142289176E+04  0.15205376314E+04  0.10100000352E+00 0.  1.
</event>
<event>
 5   0  0.3798925E-02  0.5998681E+03  0.7818609E-02  0.9905680E-01
        2   -1    0    0  501    0  0.00000000000E+00  0.00000000000E+00  0.15760998548E+04  0.15760998548E+04  0.25500000920E-02 0. -1.
       -2   -1    0    0    0  501  0.00000000000E+00  0.00000000000E+00 -0.57077877968E+02  0.57077878024E+02  0.25500000920E-02 0.  1.
    10030    2    1    2    0    0  0.00000000000E+00  0.00000000000E+00  0.15190219768E+04  0.16331777328E+04  0.59986810292E+03 0.  0.
        2    1    3    3  502    0  0.28771739877E+03 -0.82904571472E+02  0.80713369179E+03  0.86088284102E+03  0.25500000920E-02 0. -1.
       -2    1    3    3    0  502 -0.28771739877E+03  0.82904571472E+02  0.71188828503E+03  0.77229489180E+03  0.25500000920E-02 0.  1.
</event>
<event>
 5   0  0.3724066E-02  0.5999474E+03  0.7818609E-02  0.9905515E-01
       -2   -1    0    0    0  501  0.00000000000E+00  0.00000000000E+00  0.12450926118E+03  0.12450926121E+03  0.25500000920E-02 0.  1.
        2   -1    0    0  501    0  0.00000000000E+00  0.00000000000E+00 -0.72271107767E+03  0.72271107767E+03  0.25500000920E-02 0. -1.
    10030    2    1    2    0    0  0.00000000000E+00  0.00000000000E+00 -0.59820181649E+03  0.84722033888E+03  0.59994740550E+03 0.  0.
        4    1    3    3  502    0 -0.10474357320E+03  0.11487520461E+03 -0.66138219585E+03  0.67940823564E+03  0.12699999809E+01 0. -1.
       -4    1    3    3    0  502  0.10474357320E+03 -0.11487520461E+03  0.63180379365E+02  0.16781210325E+03  0.12699999809E+01 0.  1.
</event>
<event>
 5   0  0.3832191E-02  0.6003306E+03  0.7818609E-02  0.9904720E-01
        2   -1    0    0  501    0  0.00000000000E+00  0.00000000000E+00  0.10598179050E+04  0.10598179050E+04  0.25500000920E-02 0.  1.
       -2   -1    0    0    0  501  0.00000000000E+00  0.00000000000E+00 -0.85013864638E+02  0.85013864676E+02  0.25500000920E-02 0. -1.
    10030    2    1    2    0    0  0.00000000000E+00  0.00000000000E+00  0.97480404038E+03  0.11448317697E+04  0.60033062871E+03 0.  0.
        3    1    3    3  502    0  0.16510706565E+03  0.60967927392E+02  0.23715040150E+02  0.17759460754E+03  0.10100000352E+00 0. -1.
       -3    1    3    3    0  502 -0.16510706565E+03 -0.60967927392E+02  0.95108900023E+03  0.96723716216E+03  0.10100000352E+00 0.  1.
</event>
<event>
 5   0  0.2276105E-02  0.6020246E+03  0.7818609E-02  0.9901214E-01
        1   -1    0    0  501    0  0.00000000000E+00  0.00000000000E+00  0.57387773989E+03  0.57387773992E+03  0.50400001928E-02 0. -1.
       -1   -1    0    0    0  501  0.00000000000E+00  0.00000000000E+00 -0.15788800645E+03  0.15788800653E+03  0.50400001928E-02 0.  1.
    10030    2    1    2    0    0  0.00000000000E+00  0.00000000000E+00  0.41598973344E+03  0.73176574645E+03  0.60202462520E+03 0.  0.
        1    1    3    3  502    0  0.18502797035E+03  0.20967415127E+03  0.72588078964E+02  0.28890764745E+03  0.50400001928E-02 0.  1.
       -1    1    3    3    0  502 -0.18502797035E+03 -0.20967415127E+03  0.34340165448E+03  0.44285809900E+03  0.50400001928E-02 0. -1.
</event>
<event>
 5   0  0.2382531E-02  0.5986742E+03  0.7818609E-02  0.9908160E-01
        1   -1    0    0  501    0  0.00000000000E+00  0.00000000000E+00  0.60603489540E+03  0.60603489542E+03  0.50400001928E-02 0. -1.
       -1   -1    0    0    0  501  0.00000000000E+00  0.00000000000E+00 -0.14785074729E+03  0.14785074737E+03  0.50400001928E-02 0.  1.
    10030    2    1    2    0    0  0.00000000000E+00  0.00000000000E+00  0.45818414811E+03  0.75388564279E+03  0.59867424266E+03 0.  0.
        5    1    3    3  502    0  0.14442715866E+03  0.87405457678E+02  0.54031420441E+03  0.56609226075E+03  0.46999998093E+01 0. -1.
       -5    1    3    3    0  502 -0.14442715866E+03 -0.87405457678E+02 -0.82130056302E+02  0.18779338204E+03  0.46999998093E+01 0.  1.
</event>
<event>
 5   0  0.2382531E-02  0.6527229E+03  0.7818609E-02  0.9801683E-01
        1   -1    0    0  501    0  0.00000000000E+00  0.00000000000E+00  0.40789296723E+03  0.40789296727E+03  0.50400001928E-02 0. -1.
       -1   -1    0    0    0  501  0.00000000000E+00  0.00000000000E+00 -0.26112679042E+03  0.26112679047E+03  0.50400001928E-02 0.  1.
    10030    2    1    2    0    0  0.00000000000E+00  0.00000000000E+00  0.14676617681E+03  0.66901975774E+03  0.65272285511E+03 0.  0.
        5    1    3    3  502    0  0.20588960418E+03  0.21149349003E+03  0.21603289577E+03  0.36580367342E+03  0.46999998093E+01 0. -1.
       -5    1    3    3    0  502 -0.20588960418E+03 -0.21149349003E+03 -0.69266718964E+02  0.30321608432E+03  0.46999998093E+01 0.  1.
</event>
<event>
 5   0  0.3724066E-02  0.5994033E+03  0.7818609E-02  0.9906645E-01
       -2   -1    0    0    0  501  0.00000000000E+00  0.00000000000E+00  0.26939123805E+03  0.26939123806E+03  0.25500000920E-02 0.  1.
        2   -1    0    0  501    0  0.00000000000E+00  0.00000000000E+00 -0.33342241163E+03  0.33342241164E+03  0.25500000920E-02 0. -1.
    10030    2    1    2    0    0  0.00000000000E+00  0.00000000000E+00 -0.64031173583E+02  0.60281364970E+03  0.59940329085E+03 0.  0.
        4    1    3    3  502    0  0.14810419443E+03 -0.25741012107E+03 -0.72551745935E+02  0.30571259637E+03  0.12699999809E+01 0. -1.
       -4    1    3    3    0  502 -0.14810419443E+03  0.25741012107E+03  0.85205723521E+01  0.29710105333E+03  0.12699999809E+01 0.  1.
</event>
<event>
 5   0  0.3798925E-02  0.6021744E+03  0.7818609E-02  0.9900905E-01
        2   -1    0    0  501    0  0.00000000000E+00  0.00000000000E+00  0.36123069157E+03  0.36123069158E+03  0.25500000920E-02 0. -1.
       -2   -1    0    0    0  501  0.00000000000E+00  0.00000000000E+00 -0.25095733994E+03  0.25095733995E+03  0.25500000920E-02 0.  1.
    10030    2    1    2    0    0  0.00000000000E+00  0.00000000000E+00  0.11027335164E+03  0.61218803153E+03  0.60217437165E+03 0.  0.
        2    1    3    3  502    0  0.65129048792E+02  0.29368112618E+03  0.42153378485E+02  0.30375533608E+03  0.25500000920E-02 0. -1.
       -2    1    3    3    0  502 -0.65129048792E+02 -0.29368112618E+03  0.68119973153E+02  0.30843269545E+03  0.25500000920E-02 0.  1.
</event>
<event>
 5   0  0.2225808E-02  0.5994388E+03  0.7818609E-02  0.9906571E-01
        1   -1    0    0  501    0  0.00000000000E+00  0.00000000000E+00  0.20752433288E+04  0.20752433288E+04  0.50400001928E-02 0. -1.
       -1   -1    0    0    0  501  0.00000000000E+00  0.00000000000E+00 -0.43287313400E+02  0.43287313693E+02  0.50400001928E-02 0.  1.
    10030    2    1    2    0    0  0.00000000000E+00  0.00000000000E+00  0.20319560154E+04  0.21185306425E+04  0.59943876642E+03 0.  0.
        2    1    3    3  502    0 -0.21552004555E+03 -0.67492226722E+02  0.31957554525E+03  0.39132163220E+03  0.25500000920E-02 0.  1.
       -2    1    3    3    0  502  0.21552004555E+03  0.67492226722E+02  0.17123804702E+04  0.17272090103E+04  0.25500000920E-02 0. -1.
</event>
<event>
 5   0  0.1521750E-02  0.5949746E+03  0.7818609E-02  0.9915887E-01
       -4   -1    0    0    0  501  0.00000000000E+00  0.00000000000E+00  0.20323492130E+04  0.20323496098E+04  0.12699999809E+01 0.  1.
        4   -1    0    0  501    0  0.00000000000E+00  0.00000000000E+00 -0.43535366445E+02  0.43553886525E+02  0.12699999809E+01 0. -1.
    10030    2    1    2    0    0  0.00000000000E+00  0.00000000000E+00  0.19888138466E+04  0.20759034964E+04  0.59497462957E+03 0.  0.
        4    1    3    3  502    0  0.10863453550E+03 -0.21611691591E+03  0.15986204895E+04  0.16168169550E+04  0.12699999809E+01 0.  1.
       -4    1    3    3    0  502 -0.10863453550E+03  0.21611691591E+03  0.39019335711E+03  0.45908654138E+03  0.12699999809E+01 0. -1.
</event>
<event>
 5   0  0.3934634E-02  0.5909344E+03  0.7818609E-02  0.9924395E-01
        2   -1    0    0  501    0  0.00000000000E+00  0.00000000000E+00  0.95516258455E+03  0.95516258455E+03  0.25500000920E-02 0. -1.
       -2   -1    0    0    0  501  0.00000000000E+00  0.00000000000E+00 -0.91398961041E+02  0.91398961077E+02  0.25500000920E-02 0.  1.
    10030    2    1    2    0    0  0.00000000000E+00  0.00000000000E+00  0.86376362351E+03  0.10465615456E+04  0.59093440541E+03 0.  0.
        1    1    3    3  502    0  0.17521030210E+03 -0.23321224215E+03  0.51521933487E+03  0.59206212757E+03  0.50400001928E-02 0. -1.
       -1    1    3    3    0  502 -0.17521030210E+03  0.23321224215E+03  0.34854428864E+03  0.45449941806E+03  0.50400001928E-02 0.  1.
</event>
<event>
 5   0  0.2309055E-02  0.6022044E+03  0.7818609E-02  0.9900843E-01
       -1   -1    0    0    0  501  0.00000000000E+00  0.00000000000E+00  0.39153375781E+03  0.39153375785E+03  0.50400001928E-02 0. -1.
        1   -1    0    0  501    0  0.00000000000E+00  0.00000000000E+00 -0.23155736178E+03  0.23155736184E+03  0.50400001928E-02 0.  1.
    10030    2    1    2    0    0  0.00000000000E+00  0.00000000000E+00  0.15997639603E+03  0.62309111968E+03  0.60220436410E+03 0.  0.
        4    1    3    3  502    0 -0.81515025960E+02 -0.65405384451E+02 -0.21218560832E+03  0.23653098962E+03  0.12699999809E+01 0.  1.
       -4    1    3    3    0  502  0.81515025960E+02  0.65405384451E+02  0.37216200435E+03  0.38656013006E+03  0.12699999809E+01 0. -1.
</event>
<event>
 5   0  0.2382531E-02  0.6098329E+03  0.7818609E-02  0.9885213E-01
       -1   -1    0    0    0  501  0.00000000000E+00  0.00000000000E+00  0.17489452821E+03  0.17489452828E+03  0.50400001928E-02 0.  1.
        1   -1    0    0  501    0  0.00000000000E+00  0.00000000000E+00 -0.53160057256E+03  0.53160057258E+03  0.50400001928E-02 0. -1.
    10030    2    1    2    0    0  0.00000000000E+00  0.00000000000E+00 -0.35670604435E+03  0.70649510087E+03  0.60983286684E+03 0.  0.
        5    1    3    3  502    0  0.74071469030E+02 -0.16468242773E+03 -0.46294272233E+03  0.49693554782E+03  0.46999998093E+01 0. -1.
       -5    1    3    3    0  502 -0.74071469030E+02  0.16468242773E+03  0.10623667799E+03  0.20955955305E+03  0.46999998093E+01 0.  1.
</event>
<event>
 5   0  0.2276105E-02  0.6005828E+03  0.7818609E-02  0.9904198E-01
        1   -1    0    0  501    0  0.00000000000E+00  0.00000000000E+00  0.26764585902E+03  0.26764585907E+03  0.50400001928E-02 0.  1.
       -1   -1    0    0    0  501  0.00000000000E+00  0.00000000000E+00 -0.33691876806E+03  0.33691876810E+03  0.50400001928E-02 0. -1.
    10030    2    1    2    0    0  0.00000000000E+00  0.00000000000E+00 -0.69272909042E+02  0.60456462717E+03  0.60058276074E+03 0.  0.
        1    1    3    3  502    0  0.77316779501E+02  0.14548916361E+03 -0.28735859454E+03  0.33124000815E+03  0.50400001928E-02 0. -1.
       -1    1    3    3    0  502 -0.77316779501E+02 -0.14548916361E+03  0.21808568550E+03  0.27332461902E+03  0.50400001928E-02 0.  1.
</event>
<event>
 5   0  0.2295179E-02  0.6056286E+03  0.7818609E-02  0.9893797E-01
       -1   -1    0    0    0  501  0.00000000000E+00  0.00000000000E+00  0.22563091194E+03  0.22563091200E+03  0.50400001928E-02 0.  1.
        1   -1    0    0  501    0  0.00000000000E+00  0.00000000000E+00 -0.40640038995E+03  0.40640038999E+03  0.50400001928E-02 0. -1.
    10030    2    1    2    0    0  0.00000000000E+00  0.00000000000E+00 -0.18076947801E+03  0.63203130199E+03  0.60562856811E+03 0.  0.
        3    1    3    3  502    0 -0.29719569330E+03  0.57919350448E+02 -0.86139324033E+02  0.31480140504E+03  0.10100000352E+00 0.  1.
       -3    1    3    3    0  502  0.29719569330E+03 -0.57919350448E+02 -0.94630153977E+02  0.31722989694E+03  0.10100000352E+00 0. -1.
</event>
<event>
 5   0  0.3832191E-02  0.5930025E+03  0.7818609E-02  0.9920031E-01
       -2   -1    0    0    0  501  0.00000000000E+00  0.00000000000E+00  0.93004012922E+02  0.93004012957E+02  0.25500000920E-02 0.  1.
        2   -1    0    0  501    0  0.00000000000E+00  0.00000000000E+00 -0.94526024050E+03  0.94526024050E+03  0.25500000920E-02 0. -1.
    10030    2    1    2    0    0  0.00000000000E+00  0.00000000000E+00 -0.85225622758E+03  0.10382642535E+04  0.59300251481E+03 0.  0.
        3    1    3    3  502    0  0.11751164853E+03 -0.26965107892E+03 -0.36079749520E+03  0.46550567628E+03  0.10100000352E+00 0. -1.
       -3    1    3    3    0  502 -0.11751164853E+03  0.26965107892E+03 -0.49145873237E+03  0.57275857718E+03  0.10100000352E+00 0.  1.
</event>
<event>
 5   0  0.3934634E-02  0.5985738E+03  0.7818609E-02  0.9908369E-01
       -2   -1    0    0    0  501  0.00000000000E+00  0.00000000000E+00  0.20281215557E+03  0.20281215559E+03  0.25500000920E-02 0. -1.
        2   -1    0    0  501    0  0.00000000000E+00  0.00000000000E+00 -0.44165318134E+03  0.44165318134E+03  0.25500000920E-02 0.  1.
    10030    2    1    2    0    0  0.00000000000E+00  0.00000000000E+00 -0.23884102576E+03  0.64446533693E+03  0.59857375061E+03 0.  0.
        1    1    3    3  502    0  0.84444408364E+02  0.28103581532E+03 -0.18275795065E+03  0.34570573636E+03  0.50400001928E-02 0.  1.
       -1    1    3    3    0  502 -0.84444408364E+02 -0.28103581532E+03 -0.56083075115E+02  0.29875960058E+03  0.50400001928E-02 0. -1.
</event>
<event>
 5   0  0.2382531E-02  0.6456032E+03  0.7818609E-02  0.9815065E-01
       -1   -1    0    0    0  501  0.00000000000E+00  0.00000000000E+00  0.15082789834E+03  0.15082789842E+03  0.50400001928E-02 0. -1.
        1   -1    0    0  501    0  0.00000000000E+00  0.00000000000E+00 -0.69085938506E+03  0.69085938508E+03  0.50400001928E-02 0.  1.
    10030    2    1    2    0    0  0.00000000000E+00  0.00000000000E+00 -0.54003148673E+03  0.84168728350E+03  0.64560318815E+03 0.  0.
        5    1    3    3  502    0  0.19883451097E+03 -0.11112746135E+03 -0.56815028216E+03  0.61212850655E+03  0.46999998093E+01 0.  1.
       -5    1    3    3    0  502 -0.19883451097E+03  0.11112746135E+03  0.28118795430E+02  0.22955877695E+03  0.46999998093E+01 0. -1.
</event>
<event>
 5   0  0.3724066E-02  0.5974725E+03  0.7818609E-02  0.9910664E-01
       -2   -1    0    0    0  501  0.00000000000E+00  0.00000000000E+00  0.10791304538E+03  0.10791304541E+03  0.25500000920E-02 0.  1.
        2   -1    0    0  501    0  0.00000000000E+00  0.00000000000E+00 -0.82699302983E+03  0.82699302983E+03  0.25500000920E-02 0. -1.
    10030    2    1    2    0    0  0.00000000000E+00  0.00000000000E+00 -0.71907998445E+03  0.93490607524E+03  0.59747246421E+03 0.  0.
        4    1    3    3  502    0 -0.15914397472E+03 -0.48673931647E+02  0.28654332613E+02  0.16887462802E+03  0.12699999809E+01 0.  1.
       -4    1    3    3    0  502  0.15914397472E+03  0.48673931647E+02 -0.74773431706E+03  0.76603144722E+03  0.12699999809E+01 0. -1.
</event>
<event>
 5   0  0.2225808E-02  0.5980554E+03  0.7818609E-02  0.9909449E-01
        1   -1    0    0  501    0  0.00000000000E+00  0.00000000000E+00  0.18717414639E+03  0.18717414646E+03  0.50400001928E-02 0.  1.
       -1   -1    0    0    0  501  0.00000000000E+00  0.00000000000E+00 -0.47772385131E+03  0.47772385134E+03  0.50400001928E-02 0. -1.
    10030    2    1    2    0    0  0.00000000000E+00  0.00000000000E+00 -0.29054970492E+03  0.66489799780E+03  0.59805536236E+03 0.  0.
        2    1    3    3  502    0 -0.66018336831E+02  0.28956058717E+03 -0.18400838824E+03  0.34937492954E+03  0.25500000920E-02 0. -1.
       -2    1    3    3    0  502  0.66018336831E+02 -0.28956058717E+03 -0.10654131668E+03  0.31552306826E+03  0.25500000920E-02 0.  1.
</event>
<event>
 5   0  0.3737642E-02  0.5973088E+03  0.7818609E-02  0.9911005E-01
        2   -1    0    0  501    0  0.00000000000E+00  0.00000000000E+00  0.55152555499E+03  0.55152555499E+03  0.25500000920E-02 0.  1.
       -2   -1    0    0    0  501  0.00000000000E+00  0.00000000000E+00 -0.16172313539E+03  0.16172313541E+03  0.25500000920E-02 0. -1.
    10030    2    1    2    0    0  0.00000000000E+00  0.00000000000E+00  0.38980241960E+03  0.71324869040E+03  0.59730877110E+03 0.  0.
        5    1    3    3  502    0  0.14680379570E+03 -0.20314145939E+03  0.10494032661E+01  0.25068106869E+03  0.46999998093E+01 0. -1.
       -5    1    3    3    0  502 -0.14680379570E+03  0.20314145939E+03  0.38875301633E+03  0.46256762171E+03  0.46999998093E+01 0.  1.
</event>
<event>
 5   0  0.3737642E-02  0.5938094E+03  0.7818609E-02  0.9918334E-01
        2   -1    0    0  501    0  0.00000000000E+00  0.00000000000E+00  0.60187257185E+03  0.60187257186E+03  0.25500000920E-02 0.  1.
       -2   -1    0    0    0  501  0.00000000000E+00  0.00000000000E+00 -0.14646355175E+03  0.14646355177E+03  0.25500000920E-02 0. -1.
    10030    2    1    2    0    0  0.00000000000E+00  0.00000000000E+00  0.45540902010E+03  0.74833612363E+03  0.59380937879E+03 0.  0.
        5    1    3    3  502    0  0.21923481004E+03  0.63775117091E+02 -0.11404368548E+02  0.22865545503E+03  0.46999998093E+01 0. -1.
       -5    1    3    3    0  502 -0.21923481004E+03 -0.63775117091E+02  0.46681338865E+03  0.51968066860E+03  0.46999998093E+01 0.  1.
</event>
<event>
 5   0  0.3832191E-02  0.5922567E+03  0.7818609E-02  0.9921602E-01
        2   -1    0    0  501    0  0.00000000000E+00  0.00000000000E+00  0.81645894908E+03  0.81645894908E+03  0.25500000920E-02 0. -1.
       -2   -1    0    0    0  501  0.00000000000E+00  0.00000000000E+00 -0.10740529172E+03  0.10740529175E+03  0.25500000920E-02 0.  1.
    10030    2    1    2    0    0  0.00000000000E+00  0.00000000000E+00  0.70905365735E+03  0.92386424083E+03  0.59225674035E+03 0.  0.
        3    1    3    3  502    0  0.94541083439E+02  0.17736766668E+03  0.69376472677E+03  0.72229274671E+03  0.10100000352E+00 0. -1.
       -3    1    3    3    0  502 -0.94541083439E+02 -0.17736766668E+03  0.15288930584E+02  0.20157149412E+03  0.10100000352E+00 0.  1.
</event>
<event>
 5   0  0.3737642E-02  0.5976121E+03  0.7818609E-02  0.9910373E-01
       -2   -1    0    0    0  501  0.00000000000E+00  0.00000000000E+00  0.90561840969E+02  0.90561841005E+02  0.25500000920E-02 0.  1.
        2   -1    0    0  501    0  0.00000000000E+00  0.00000000000E+00 -0.98590153176E+03  0.98590153176E+03  0.25500000920E-02 0. -1.
    10030    2    1    2    0    0  0.00000000000E+00  0.00000000000E+00 -0.89533969079E+03  0.10764633728E+04  0.59761210748E+03 0.  0.
        5    1    3    3  502    0  0.17667294955E+03 -0.15775367968E+03 -0.77569676128E+03  0.81106541660E+03  0.46999998093E+01 0. -1.
       -5    1    3    3    0  502 -0.17667294955E+03  0.15775367968E+03 -0.11964292951E+03  0.26539795616E+03  0.46999998093E+01 0.  1.
</event>
<event>
 5   0  0.3798925E-02  0.6003550E+03  0.7818609E-02  0.9904670E-01
       -2   -1    0    0    0  501  0.00000000000E+00  0.00000000000E+00  0.40493657742E+03  0.40493657743E+03  0.25500000920E-02 0. -1.
        2   -1    0    0  501    0  0.00000000000E+00  0.00000000000E+00 -0.22252014592E+03  0.22252014594E+03  0.25500000920E-02 0.  1.
    10030    2    1    2    0    0  0.00000000000E+00  0.00000000000E+00  0.18241643149E+03  0.62745672337E+03  0.60035504930E+03 0.  0.
        2    1    3    3  502    0 -0.29220993581E+03  0.42748165222E+02  0.34998440448E+02  0.29738685757E+03  0.25500000920E-02 0.  1.
       -2    1    3    3    0  502  0.29220993581E+03 -0.42748165222E+02  0.14741799105E+03  0.33006986580E+03  0.25500000920E-02 0. -1.
</event>
<event>
 5   0  0.3737642E-02  0.5991174E+03  0.7818609E-02  0.9907239E-01
       -2   -1    0    0    0  501  0.00000000000E+00  0.00000000000E+00  0.13839532131E+03  0.13839532133E+03  0.25500000920E-02 0.  1.
        2   -1    0    0  501    0  0.00000000000E+00  0.00000000000E+00 -0.64839925223E+03  0.64839925224E+03  0.25500000920E-02 0. -1.
    10030    2    1    2    0    0  0.00000000000E+00  0.00000000000E+00 -0.51000393093E+03  0.78679457357E+03  0.59911742708E+03 0.  0.
        5    1    3    3  502    0  0.29115970755E+03 -0.39070306824E+02 -0.17828185970E+03  0.34366695458E+03  0.46999998093E+01 0.  1.
       -5    1    3    3    0  502 -0.29115970755E+03  0.39070306824E+02 -0.33172207123E+03  0.44312761899E+03  0.46999998093E+01 0. -1.
</event>
<event>
 5   0  0.3798925E-02  0.6045313E+03  0.7818609E-02  0.9896049E-01
        2   -1    0    0  501    0  0.00000000000E+00  0.00000000000E+00  0.34553396133E+03  0.34553396134E+03  0.25500000920E-02 0.  1.
       -2   -1    0    0    0  501  0.00000000000E+00  0.00000000000E+00 -0.26441548895E+03  0.26441548897E+03  0.25500000920E-02 0. -1.
    10030    2    1    2    0    0  0.00000000000E+00  0.00000000000E+00  0.81118472380E+02  0.60994945031E+03  0.60453132704E+03 0.  0.
        2    1    3    3  502    0  0.75403293526E+02  0.21027199073E+03  0.24601275686E+03  0.33229842507E+03  0.25500000920E-02 0.  1.
       -2    1    3    3    0  502 -0.75403293526E+02 -0.21027199073E+03 -0.16489428448E+03  0.27765102524E+03  0.25500000920E-02 0. -1.
</event>
<event>
 5   0  0.3724066E-02  0.5976945E+03  0.7818609E-02  0.9910201E-01
       -2   -1    0    0    0  501  0.00000000000E+00  0.00000000000E+00  0.28086741984E+03  0.28086741986E+03  0.25500000920E-02 0. -1.
        2   -1    0    0  501    0  0.00000000000E+00  0.00000000000E+00 -0.31797809495E+03  0.31797809496E+03  0.25500000920E-02 0.  1.
    10030    2    1    2    0    0  0.00000000000E+00  0.00000000000E+00 -0.37110675106E+02  0.59884551482E+03  0.59769452767E+03 0.  0.
        4    1    3    3  502    0  0.34728107547E+01 -0.24639281735E+03  0.15084595646E+03  0.28892489739E+03  0.12699999809E+01 0. -1.
       -4    1    3    3    0  502 -0.34728107547E+01  0.24639281735E+03 -0.18795663156E+03  0.30992061742E+03  0.12699999809E+01 0.  1.
</event>
<event>
 5   0  0.3934634E-02  0.6027792E+03  0.7818609E-02  0.9899657E-01
        2   -1    0    0  501    0  0.00000000000E+00  0.00000000000E+00  0.75342797007E+03  0.75342797008E+03  0.25500000920E-02 0. -1.
       -2   -1    0    0    0  501  0.00000000000E+00  0.00000000000E+00 -0.12056322455E+03  0.12056322458E+03  0.25500000920E-02 0.  1.
    10030    2    1    2    0    0  0.00000000000E+00  0.00000000000E+00  0.63286474552E+03  0.87399119466E+03  0.60277924832E+03 0.  0.
        1    1    3    3  502    0  0.19618995279E+03 -0.49432054760E+01  0.64808683060E+03  0.67714952032E+03  0.50400001928E-02 0. -1.
       -1    1    3    3    0  502 -0.19618995279E+03  0.49432054760E+01 -0.15222085073E+02  0.19684167433E+03  0.50400001928E-02 0.  1.
</event>
<event>
 5   0  0.2276105E-02  0.6061528E+03  0.7818609E-02  0.9892722E-01
       -1   -1    0    0    0  501  0.00000000000E+00  0.00000000000E+00  0.69312572032E+02  0.69312572215E+02  0.50400001928E-02 0.  1.
        1   -1    0    0  501    0  0.00000000000E+00  0.00000000000E+00 -0.13252330886E+04  0.13252330887E+04  0.50400001928E-02 0. -1.
    10030    2    1    2    0    0  0.00000000000E+00  0.00000000000E+00 -0.12559205166E+04  0.13945456609E+04  0.60615283238E+03 0.  0.
        1    1    3    3  502    0  0.32383662534E+02 -0.29762383721E+03 -0.73652228413E+03  0.79504322217E+03  0.50400001928E-02 0.  1.
       -1    1    3    3    0  502 -0.32383662534E+02  0.29762383721E+03 -0.51939823249E+03  0.59950243870E+03  0.50400001928E-02 0. -1.
</event>
<event>
 5   0  0.2382531E-02  0.6000494E+03  0.7818609E-02  0.9905304E-01
       -1   -1    0    0    0  501  0.00000000000E+00  0.00000000000E+00  0.19991516506E+03  0.19991516513E+03  0.50400001928E-02 0. -1.
        1   -1    0    0  501    0  0.00000000000E+00  0.00000000000E+00 -0.45026511877E+03  0.45026511880E+03  0.50400001928E-02 0.  1.
    10030    2    1    2    0    0  0.00000000000E+00  0.00000000000E+00 -0.25034995371E+03  0.65018028392E+03  0.60004941653E+03 0.  0.
        5    1    3    3  502    0 -0.91900775252E+02 -0.20143428357E+03 -0.34449899117E+03  0.40954019095E+03  0.46999998093E+01 0.  1.
       -5    1    3    3    0  502  0.91900775252E+02  0.20143428357E+03  0.94149037464E+02  0.24064009297E+03  0.46999998093E+01 0. -1.
</event>
<event>
 5   0  0.2225808E-02  0.6023125E+03  0.7818609E-02  0.9900620E-01
        1   -1    0    0  501    0  0.00000000000E+00  0.00000000000E+00  0.38151466924E+03  0.38151466927E+03  0.50400001928E-02 0.  1.
       -1   -1    0    0    0  501  0.00000000000E+00  0.00000000000E+00 -0.23772369651E+03  0.23772369657E+03  0.50400001928E-02 0. -1.
    10030    2    1    2    0    0  0.00000000000E+00  0.00000000000E+00  0.14379097272E+03  0.61923836584E+03  0.60231246865E+03 0.  0.
        2    1    3    3  502    0  0.96466821133E+01 -0.82075976056E+02 -0.22583808716E+03  0.24048360846E+03  0.25500000920E-02 0. -1.
       -2    1    3    3    0  502 -0.96466821133E+01  0.82075976056E+02  0.36962905988E+03  0.37875475738E+03  0.25500000920E-02 0.  1.
</event>
<event>
 5   0  0.2382531E-02  0.5990701E+03  0.7818609E-02  0.9907337E-01
       -1   -1    0    0    0  501  0.00000000000E+00  0.00000000000E+00  0.11925568244E+03  0.11925568255E+03  0.50400001928E-02 0.  1.
        1   -1    0    0  501    0  0.00000000000E+00  0.00000000000E+00 -0.75234347652E+03  0.75234347653E+03  0.50400001928E-02 0. -1.
    10030    2    1    2    0    0  0.00000000000E+00  0.00000000000E+00 -0.63308779408E+03  0.87159915908E+03  0.59907006193E+03 0.  0.
        5    1    3    3  502    0 -0.21564042062E+03 -0.46864341176E+02 -0.21937502627E+02  0.22181163518E+03  0.46999998093E+01 0.  1.
       -5    1    3    3    0  502  0.21564042062E+03  0.46864341176E+02 -0.61115029145E+03  0.64978752390E+03  0.46999998093E+01 0. -1.
</event>
<event>
 5   0  0.3934634E-02  0.6032506E+03  0.7818609E-02  0.9898685E-01
        2   -1    0    0  501    0  0.00000000000E+00  0.00000000000E+00  0.90645563635E+03  0.90645563635E+03  0.25500000920E-02 0. -1.
       -2   -1    0    0    0  501  0.00000000000E+00  0.00000000000E+00 -0.10036653017E+03  0.10036653020E+03  0.25500000920E-02 0.  1.
    10030    2    1    2    0    0  0.00000000000E+00  0.00000000000E+00  0.80608910618E+03  0.10068221666E+04  0.60325055156E+03 0.  0.
        1    1    3    3  502    0  0.98635965850E+02 -0.20770769003E+03  0.77242922403E+02  0.24256547022E+03  0.50400001928E-02 0.  1.
       -1    1    3    3    0  502 -0.98635965850E+02  0.20770769003E+03  0.72884618378E+03  0.76425669633E+03  0.50400001928E-02 0. -1.
</event>
<event>
 5   0  0.3724066E-02  0.5985735E+03  0.7818609E-02  0.9908370E-01
       -2   -1    0    0    0  501  0.00000000000E+00  0.00000000000E+00  0.47319256267E+02  0.47319256336E+02  0.25500000920E-02 0. -1.
        2   -1    0    0  501    0  0.00000000000E+00  0.00000000000E+00 -0.18929412394E+04  0.18929412394E+04  0.25500000920E-02 0.  1.
    10030    2    1    2    0    0  0.00000000000E+00  0.00000000000E+00 -0.18456219831E+04  0.19402604957E+04  0.59857354326E+03 0.  0.
        4    1    3    3  502    0  0.23350629475E+03  0.67297203381E+02 -0.14890664674E+04  0.15087659396E+04  0.12699999809E+01 0.  1.
       -4    1    3    3    0  502 -0.23350629475E+03 -0.67297203381E+02 -0.35655551572E+03  0.43149455612E+03  0.12699999809E+01 0. -1.
</event>
<event>
 5   0  0.2309055E-02  0.5967983E+03  0.7818609E-02  0.9912071E-01
       -1   -1    0    0    0  501  0.00000000000E+00  0.00000000000E+00  0.47565353967E+03  0.47565353970E+03  0.50400001928E-02 0. -1.
        1   -1    0    0  501    0  0.00000000000E+00  0.00000000000E+00 -0.18719941515E+03  0.18719941522E+03  0.50400001928E-02 0.  1.
    10030    2    1    2    0    0  0.00000000000E+00  0.00000000000E+00  0.28845412452E+03  0.66285295492E+03  0.59679833938E+03 0.  0.
        4    1    3    3  502    0 -0.12298085010E+03  0.24405539504E+03  0.27729175727E+03  0.38933232191E+03  0.12699999809E+01 0. -1.
       -4    1    3    3    0  502  0.12298085010E+03 -0.24405539504E+03  0.11162367257E+02  0.27352063301E+03  0.12699999809E+01 0.  1.
</event>
<event>
 5   0  0.2225808E-02  0.5974852E+03  0.7818609E-02  0.9910637E-01
       -1   -1    0    0    0  501  0.00000000000E+00  0.00000000000E+00  0.22290538912E+04  0.22290538912E+04  0.50400001928E-02 0.  1.
        1   -1    0    0  501    0  0.00000000000E+00  0.00000000000E+00 -0.40038124372E+02  0.40038124690E+02  0.50400001928E-02 0. -1.
    10030    2    1    2    0    0  0.00000000000E+00  0.00000000000E+00  0.21890157668E+04  0.22690920159E+04  0.59748518741E+03 0.  0.
        2    1    3    3  502    0  0.20856215986E+03  0.13583562196E+03  0.17219700836E+04  0.17398650694E+04  0.25500000920E-02 0.  1.
       -2    1    3    3    0  502 -0.20856215986E+03 -0.13583562196E+03  0.46704568318E+03  0.52922694650E+03  0.25500000920E-02 0. -1.
</event>
<event>
 5   0  0.2225808E-02  0.6003626E+03  0.7818609E-02  0.9904654E-01
       -1   -1    0    0    0  501  0.00000000000E+00  0.00000000000E+00  0.80106937269E+02  0.80106937427E+02  0.50400001928E-02 0. -1.
        1   -1    0    0  501    0  0.00000000000E+00  0.00000000000E+00 -0.11248566483E+04  0.11248566483E+04  0.50400001928E-02 0.  1.
    10030    2    1    2    0    0  0.00000000000E+00  0.00000000000E+00 -0.10447497111E+04  0.12049635858E+04  0.60036262730E+03 0.  0.
        2    1    3    3  502    0  0.13531152353E+03 -0.10821908520E+03 -0.10143634367E+04  0.10290547899E+04  0.25500000920E-02 0.  1.
       -2    1    3    3    0  502 -0.13531152353E+03  0.10821908520E+03 -0.30386274356E+02  0.17590879591E+03  0.25500000920E-02 0. -1.
</event>
<event>
 5   0  0.3798925E-02  0.6004103E+03  0.7818609E-02  0.9904555E-01
        2   -1    0    0  501    0  0.00000000000E+00  0.00000000000E+00  0.83733304607E+03  0.83733304608E+03  0.25500000920E-02 0.  1.
       -2   -1    0    0    0  501  0.00000000000E+00  0.00000000000E+00 -0.10763117069E+03  0.10763117072E+03  0.25500000920E-02 0. -1.
    10030    2    1    2    0    0  0.00000000000E+00  0.00000000000E+00  0.72970187539E+03  0.94496421679E+03  0.60041031310E+03 0.  0.
        2    1    3    3  502    0  0.23232294163E+02 -0.14118592303E+03  0.78021370783E+03  0.79322546243E+03  0.25500000920E-02 0.  1.
       -2    1    3    3    0  502 -0.23232294163E+02  0.14118592303E+03 -0.50511832442E+02  0.15173875437E+03  0.25500000920E-02 0. -1.
</event>
<event>
 5   0  0.2309055E-02  0.6103616E+03  0.7818609E-02  0.9884139E-01
        1   -1    0    0  501    0  0.00000000000E+00  0.00000000000E+00  0.39903651257E+03  0.39903651260E+03  0.50400001928E-02 0. -1.
       -1   -1    0    0    0  501  0.00000000000E+00  0.00000000000E+00 -0.23340050639E+03  0.23340050644E+03  0.50400001928E-02 0.  1.
    10030    2    1    2    0    0  0.00000000000E+00  0.00000000000E+00  0.16563600618E+03  0.63243701904E+03  0.61036161127E+03 0.  0.
        4    1    3    3  502    0 -0.90097741203E+02  0.12751127614E+03 -0.18888127046E+03  0.24506014719E+03  0.12699999809E+01 0.  1.
       -4    1    3    3    0  502  0.90097741203E+02 -0.12751127614E+03  0.35451727663E+03  0.38737687185E+03  0.12699999809E+01 0. -1.
</event>
<event>
 5   0  0.2225808E-02  0.6118575E+03  0.7818609E-02  0.9881106E-01
        1   -1    0    0  501    0  0.00000000000E+00  0.00000000000E+00  0.33527449462E+03  0.33527449466E+03  0.50400001928E-02 0.  1.
       -1   -1    0    0    0  501  0.00000000000E+00  0.00000000000E+00 -0.27915155700E+03  0.27915155705E+03  0.50400001928E-02 0. -1.
    10030    2    1    2    0    0  0.00000000000E+00  0.00000000000E+00  0.56122937620E+02  0.61442605171E+03  0.61185749067E+03 0.  0.
        2    1    3    3  502    0 -0.10308913686E+03  0.83106115983E+02 -0.24888315222E+03  0.28191633531E+03  0.25500000920E-02 0. -1.
       -2    1    3    3    0  502  0.10308913686E+03 -0.83106115983E+02  0.30500608984E+03  0.33250971640E+03  0.25500000920E-02 0.  1.
</event>
<event>
 5   0  0.2295179E-02  0.6017873E+03  0.7818609E-02  0.9901705E-01
        1   -1    0    0  501    0  0.00000000000E+00  0.00000000000E+00  0.72476262084E+03  0.72476262086E+03  0.50400001928E-02 0.  1.
       -1   -1    0    0    0  501  0.00000000000E+00  0.00000000000E+00 -0.12491948872E+03  0.12491948882E+03  0.50400001928E-02 0. -1.
    10030    2    1    2    0    0  0.00000000000E+00  0.00000000000E+00  0.59984313212E+03  0.84968210968E+03  0.60178725839E+03 0.  0.
        3    1    3    3  502    0  0.25382024194E+02  0.28275233731E+03  0.15912552953E+03  0.32544442806E+03  0.10100000352E+00 0. -1.
       -3    1    3    3    0  502 -0.25382024194E+02 -0.28275233731E+03  0.44071760259E+03  0.52423768162E+03  0.10100000352E+00 0.  1.
</event>
<event>
 5   0  0.2309055E-02  0.6078640E+03  0.7818609E-02  0.9889224E-01
       -1   -1    0    0    0  501  0.00000000000E+00  0.00000000000E+00  0.50708530175E+03  0.50708530177E+03  0.50400001928E-02 0.  1.
        1   -1    0    0  501    0  0.00000000000E+00  0.00000000000E+00 -0.18216789412E+03  0.18216789419E+03  0.50400001928E-02 0. -1.
    10030    2    1    2    0    0  0.00000000000E+00  0.00000000000E+00  0.32491740763E+03  0.68925319596E+03  0.60786400318E+03 0.  0.
        4    1    3    3  502    0 -0.19016697361E+03 -0.79303453324E+02  0.41580348947E+03  0.46405459842E+03  0.12699999809E+01 0.  1.
       -4    1    3    3    0  502  0.19016697361E+03  0.79303453324E+02 -0.90886081838E+02  0.22519859754E+03  0.12699999809E+01 0. -1.
</event>
<event>
 5   0  0.3724066E-02  0.5997506E+03  0.7818609E-02  0.9905924E-01
       -2   -1    0    0    0  501  0.00000000000E+00  0.00000000000E+00  0.10883145831E+03  0.10883145834E+03  0.25500000920E-02 0.  1.
        2   -1    0    0  501    0  0.00000000000E+00  0.00000000000E+00 -0.82627939839E+03  0.82627939840E+03  0.25500000920E-02 0. -1.
    10030    2    1    2    0    0  0.00000000000E+00  0.00000000000E+00 -0.71744794008E+03  0.93511085673E+03  0.59975058787E+03 0.  0.
        4    1    3    3  502    0  0.83471823960E+01 -0.25594263543E+03 -0.60201021829E+03  0.65421267483E+03  0.12699999809E+01 0. -1.
       -4    1    3    3    0  502 -0.83471823960E+01  0.25594263543E+03 -0.11543772180E+03  0.28089818191E+03  0.12699999809E+01 0.  1.
</event>
<event>
 5   0  0.3798925E-02  0.6006916E+03  0.7818609E-02  0.9903972E-01
       -2   -1    0    0    0  501  0.00000000000E+00  0.00000000000E+00  0.71146479536E+03  0.71146479536E+03  0.25500000920E-02 0.  1.
        2   -1    0    0  501    0  0.00000000000E+00  0.00000000000E+00 -0.12679138852E+03  0.12679138855E+03  0.25500000920E-02 0. -1.
    10030    2    1    2    0    0  0.00000000000E+00  0.00000000000E+00  0.58467340684E+03  0.83825618391E+03  0.60069163237E+03 0.  0.
        2    1    3    3  502    0 -0.25197465727E+03 -0.82518644547E+02  0.48922898357E+03  0.55645804243E+03  0.25500000920E-02 0.  1.
       -2    1    3    3    0  502  0.25197465727E+03  0.82518644547E+02  0.95444423263E+02  0.28179814148E+03  0.25500000920E-02 0. -1.
</event>
<event>
 5   0  0.3737642E-02  0.5956894E+03  0.7818609E-02  0.9914390E-01
       -2   -1    0    0    0  501  0.00000000000E+00  0.00000000000E+00  0.12300585073E+03  0.12300585076E+03  0.25500000920E-02 0. -1.
        2   -1    0    0  501    0  0.00000000000E+00  0.00000000000E+00 -0.72119724084E+03  0.72119724084E+03  0.25500000920E-02 0.  1.
    10030    2    1    2    0    0  0.00000000000E+00  0.00000000000E+00 -0.59819139011E+03  0.84420309160E+03  0.59568944986E+03 0.  0.
        5    1    3    3  502    0 -0.27034440689E+03  0.10992647884E+03 -0.38317035384E+03  0.48167576143E+03  0.46999998093E+01 0.  1.
       -5    1    3    3    0  502  0.27034440689E+03 -0.10992647884E+03 -0.21502103627E+03  0.36252733017E+03  0.46999998093E+01 0. -1.
</event>
<event>
 5   0  0.3832191E-02  0.5994572E+03  0.7818609E-02  0.9906533E-01
       -2   -1    0    0    0  501  0.00000000000E+00  0.00000000000E+00  0.44684090411E+03  0.44684090412E+03  0.25500000920E-02 0.  1.
        2   -1    0    0  501    0  0.00000000000E+00  0.00000000000E+00 -0.20104971335E+03  0.20104971336E+03  0.25500000920E-02 0. -1.
    10030    2    1    2    0    0  0.00000000000E+00  0.00000000000E+00  0.24579119076E+03  0.64789061748E+03  0.59945720678E+03 0.  0.
        3    1    3    3  502    0  0.19272586365E+03  0.74850187424E+02  0.35743422410E+03  0.41292256397E+03  0.10100000352E+00 0.  1.
       -3    1    3    3    0  502 -0.19272586365E+03 -0.74850187424E+02 -0.11164303334E+03  0.23496805351E+03  0.10100000352E+00 0. -1.
</event>
<event>
 5   0  0.3934634E-02  0.5995051E+03  0.7818609E-02  0.9906433E-01
        2   -1    0    0  501    0  0.00000000000E+00  0.00000000000E+00  0.11627679884E+04  0.11627679884E+04  0.25500000920E-02 0. -1.
       -2   -1    0    0    0  501  0.00000000000E+00  0.00000000000E+00 -0.77273879496E+02  0.77273879538E+02  0.25500000920E-02 0.  1.
    10030    2    1    2    0    0  0.00000000000E+00  0.00000000000E+00  0.10854941089E+04  0.12400418679E+04  0.59950510738E+03 0.  0.
        1    1    3    3  502    0  0.19782765869E+03 -0.15957664868E+03  0.87143490184E+03  0.90774405948E+03  0.50400001928E-02 0. -1.
       -1    1    3    3    0  502 -0.19782765869E+03  0.15957664868E+03  0.21405920703E+03  0.33229780843E+03  0.50400001928E-02 0.  1.
</event>
<event>
 5   0  0.2295179E-02  0.5935942E+03  0.7818609E-02  0.9918786E-01
       -1   -1    0    0    0  501  0.00000000000E+00  0.00000000000E+00  0.58595629905E+03  0.58595629907E+03  0.50400001928E-02 0.  1.
        1   -1    0    0  501    0  0.00000000000E+00  0.00000000000E+00 -0.15033291272E+03  0.15033291281E+03  0.50400001928E-02 0. -1.
    10030    2    1    2    0    0  0.00000000000E+00  0.00000000000E+00  0.43562338633E+03  0.73628921188E+03  0.59359419540E+03 0.  0.
        3    1    3    3  502    0  0.25055714598E+03  0.47312508194E+02  0.40621712292E+03  0.47961413447E+03  0.10100000352E+00 0. -1.
       -3    1    3    3    0  502 -0.25055714598E+03 -0.47312508194E+02  0.29406263413E+02  0.25667507741E+03  0.10100000352E+00 0.  1.
</event>
<event>
 5   0  0.2276105E-02  0.6041707E+03  0.7818609E-02  0.9896791E-01
       -1   -1    0    0    0  501  0.00000000000E+00  0.00000000000E+00  0.19253706911E+03  0.19253706918E+03  0.50400001928E-02 0.  1.
        1   -1    0    0  501    0  0.00000000000E+00  0.00000000000E+00 -0.47396354134E+03  0.47396354137E+03  0.50400001928E-02 0. -1.
    10030    2    1    2    0    0  0.00000000000E+00  0.00000000000E+00 -0.28142647223E+03  0.66650061055E+03  0.60417067505E+03 0.  0.
        1    1    3    3  502    0  0.10769494115E+03  0.22256330658E+03  0.50751801945E+02  0.25240517271E+03  0.50400001928E-02 0.  1.
       -1    1    3    3    0  502 -0.10769494115E+03 -0.22256330658E+03 -0.33217827417E+03  0.41409543784E+03  0.50400001928E-02 0. -1.
</event>
<event>
 5   0  0.3737642E-02  0.6006339E+03  0.7818609E-02  0.9904092E-01
       -2   -1    0    0    0  501  0.00000000000E+00  0.00000000000E+00  0.12975988322E+03  0.12975988325E+03  0.25500000920E-02 0.  1.
        2   -1    0    0  501    0  0.00000000000E+00  0.00000000000E+00 -0.69505506677E+03  0.69505506677E+03  0.25500000920E-02 0. -1.
    10030    2    1    2    0    0  0.00000000000E+00  0.00000000000E+00 -0.56529518355E+03  0.82481495002E+03  0.60063387953E+03 0.  0.
        5    1    3    3  502    0  0.26191180239E+02 -0.29821752385E+03 -0.25048604420E+03  0.39036523640E+03  0.46999998093E+01 0.  1.
       -5    1    3    3    0  502 -0.26191180239E+02  0.29821752385E+03 -0.31480913935E+03  0.43444971362E+03  0.46999998093E+01 0. -1.
</event>
<event>
 5   0  0.2225808E-02  0.5975978E+03  0.7818609E-02  0.9910402E-01
        1   -1    0    0  501    0  0.00000000000E+00  0.00000000000E+00  0.53394974587E+03  0.53394974589E+03  0.50400001928E-02 0.  1.
       -1   -1    0    0    0  501  0.00000000000E+00  0.00000000000E+00 -0.16720820663E+03  0.16720820671E+03  0.50400001928E-02 0. -1.
    10030    2    1    2    0    0  0.00000000000E+00  0.00000000000E+00  0.36674153924E+03  0.70115795260E+03  0.59759778939E+03 0.  0.
        2    1    3    3  502    0 -0.29013829764E+03  0.71141637735E+02  0.17600466092E+03  0.34672612398E+03  0.25500000920E-02 0. -1.
       -2    1    3    3    0  502  0.29013829764E+03 -0.71141637735E+02  0.19073687832E+03  0.35443182862E+03  0.25500000920E-02 0.  1.
</event>
<event>
 5   0  0.3934634E-02  0.5983949E+03  0.7818609E-02  0.9908742E-01
       -2   -1    0    0    0  501  0.00000000000E+00  0.00000000000E+00  0.92773187259E+02  0.92773187294E+02  0.25500000920E-02 0. -1.
        2   -1    0    0  501    0  0.00000000000E+00  0.00000000000E+00 -0.96492442235E+03  0.96492442236E+03  0.25500000920E-02 0.  1.
    10030    2    1    2    0    0  0.00000000000E+00  0.00000000000E+00 -0.87215123509E+03  0.10576976097E+04  0.59839490020E+03 0.  0.
        1    1    3    3  502    0 -0.20809744512E+03  0.48073510629E+02 -0.65716333397E+02  0.22345971805E+03  0.50400001928E-02 0. -1.
       -1    1    3    3    0  502  0.20809744512E+03 -0.48073510629E+02 -0.80643490170E+03  0.83423789160E+03  0.50400001928E-02 0.  1.
</event>
<event>
 5   0  0.1521750E-02  0.6012254E+03  0.7818609E-02  0.9902867E-01
        3   -1    0    0  501    0  0.00000000000E+00  0.00000000000E+00  0.75891480504E+02  0.75891547712E+02  0.10100000352E+00 0.  1.
       -3   -1    0    0    0  501  0.00000000000E+00  0.00000000000E+00 -0.11907521642E+04  0.11907521684E+04  0.10100000352E+00 0. -1.
    10030    2    1    2    0    0  0.00000000000E+00  0.00000000000E+00 -0.11148606837E+04  0.12666437162E+04  0.60122538180E+03 0.  0.
        3    1    3    3  502    0 -0.23341016864E+03  0.15290319487E+03 -0.32180821827E+03  0.42593454119E+03  0.10100000352E+00 0.  1.
       -3    1    3    3    0  502  0.23341016864E+03 -0.15290319487E+03 -0.79305246539E+03  0.84070917497E+03  0.10100000352E+00 0. -1.
</event>
<event>
 5   0  0.3832191E-02  0.6199355E+03  0.7818609E-02  0.9864888E-01
        2   -1    0    0  501    0  0.00000000000E+00  0.00000000000E+00  0.67822594638E+03  0.67822594638E+03  0.25500000920E-02 0.  1.
       -2   -1    0    0    0  501  0.00000000000E+00  0.00000000000E+00 -0.14166371603E+03  0.14166371605E+03  0.25500000920E-02 0. -1.
    10030    2    1    2    0    0  0.00000000000E+00  0.00000000000E+00  0.53656223035E+03  0.81988966243E+03  0.61993550594E+03 0.  0.
        3    1    3    3  502    0  0.33003069042E+02  0.22300129020E+03 -0.13085150409E+02  0.22580967508E+03  0.10100000352E+00 0. -1.
       -3    1    3    3    0  502 -0.33003069042E+02 -0.22300129020E+03  0.54964738076E+03  0.59407998736E+03  0.10100000352E+00 0.  1.
</event>
<event>
 5   0  0.1521750E-02  0.6030448E+03  0.7818609E-02  0.9899109E-01
        3   -1    0    0  501    0  0.00000000000E+00  0.00000000000E+00  0.83760920530E+02  0.83760981423E+02  0.10100000352E+00 0.  1.
       -3   -1    0    0    0  501  0.00000000000E+00  0.00000000000E+00 -0.10854192667E+04  0.10854192714E+04  0.10100000352E+00 0. -1.
    10030    2    1    2    0    0  0.00000000000E+00  0.00000000000E+00 -0.10016583461E+04  0.11691802528E+04  0.60304479198E+03 0.  0.
        1    1    3    3  502    0 -0.17855993056E+03  0.23387117328E+03 -0.62850115639E+03  0.69396907576E+03  0.50400001928E-02 0.  1.
       -1    1    3    3    0  502  0.17855993056E+03 -0.23387117328E+03 -0.37315718975E+03  0.47521117704E+03  0.50400001928E-02 0. -1.
</event>
<event>
 5   0  0.2276105E-02  0.6046934E+03  0.7818609E-02  0.9895716E-01
        1   -1    0    0  501    0  0.00000000000E+00  0.00000000000E+00  0.45605692999E+03  0.45605693002E+03  0.50400001928E-02 0. -1.
       -1   -1    0    0    0  501  0.00000000000E+00  0.00000000000E+00 -0.20044324374E+03  0.20044324380E+03  0.50400001928E-02 0.  1.
    10030    2    1    2    0    0  0.00000000000E+00  0.00000000000E+00  0.25561368625E+03  0.65650017381E+03  0.60469341126E+03 0.  0.
        1    1    3    3  502    0  0.17953554548E+03  0.19442788780E+03 -0.30933144493E+02  0.26644338066E+03  0.50400001928E-02 0.  1.
       -1    1    3    3    0  502 -0.17953554548E+03 -0.19442788780E+03  0.28654683075E+03  0.39005679315E+03  0.50400001928E-02 0. -1.
</event>
<event>
 5   0  0.3832191E-02  0.6047888E+03  0.7818609E-02  0.9895520E-01
        2   -1    0    0  501    0  0.00000000000E+00  0.00000000000E+00  0.12006428297E+04  0.12006428297E+04  0.25500000920E-02 0.  1.
       -2   -1    0    0    0  501  0.00000000000E+00  0.00000000000E+00 -0.76161176312E+02  0.76161176354E+02  0.25500000920E-02 0. -1.
    10030    2    1    2    0    0  0.00000000000E+00  0.00000000000E+00  0.11244816533E+04  0.12768040060E+04  0.60478879046E+03 0.  0.
        3    1    3    3  502    0  0.16386719557E+02  0.30140170822E+03  0.52384064346E+03  0.60458295066E+03  0.10100000352E+00 0. -1.
       -3    1    3    3    0  502 -0.16386719557E+02 -0.30140170822E+03  0.60064100989E+03  0.67222105535E+03  0.10100000352E+00 0.  1.
</event>
<event>
 5   0  0.3934634E-02  0.6010144E+03  0.7818609E-02  0.9903304E-01
        2   -1    0    0  501    0  0.00000000000E+00  0.00000000000E+00  0.23647696808E+03  0.23647696809E+03  0.25500000920E-02 0. -1.
       -2   -1    0    0    0  501  0.00000000000E+00  0.00000000000E+00 -0.38187473280E+03  0.38187473281E+03  0.25500000920E-02 0.  1.
    10030    2    1    2    0    0  0.00000000000E+00  0.00000000000E+00 -0.14539776473E+03  0.61835170090E+03  0.60101440584E+03 0.  0.
        1    1    3    3  502    0  0.22571144815E+03 -0.14507648819E+03  0.66525535360E+02  0.27643894829E+03  0.50400001928E-02 0. -1.
       -1    1    3    3    0  502 -0.22571144815E+03  0.14507648819E+03 -0.21192330009E+03  0.34191275261E+03  0.50400001928E-02 0.  1.
</event>
<event>
 5   0  0.2225808E-02  0.6127073E+03  0.7818609E-02  0.9879388E-01
        1   -1    0    0  501    0  0.00000000000E+00  0.00000000000E+00  0.18323605151E+03  0.18323605158E+03  0.50400001928E-02 0. -1.
       -1   -1    0    0    0  501  0.00000000000E+00  0.00000000000E+00 -0.51219486544E+03  0.51219486546E+03  0.50400001928E-02 0.  1.
    10030    2    1    2    0    0  0.00000000000E+00  0.00000000000E+00 -0.32895881393E+03  0.69543091704E+03  0.61270731929E+03 0.  0.
        2    1    3    3  502    0  0.12358072704E+03  0.14392305691E+03  0.10855326396E+03  0.21856315684E+03  0.25500000920E-02 0. -1.
       -2    1    3    3    0  502 -0.12358072704E+03 -0.14392305691E+03 -0.43751207789E+03  0.47686776020E+03  0.25500000920E-02 0.  1.
</event>
<event>
 5   0  0.3724066E-02  0.6014754E+03  0.7818609E-02  0.9902350E-01
       -2   -1    0    0    0  501  0.00000000000E+00  0.00000000000E+00  0.13953111389E+03  0.13953111391E+03  0.25500000920E-02 0.  1.
        2   -1    0    0  501    0  0.00000000000E+00  0.00000000000E+00 -0.64819360290E+03  0.64819360290E+03  0.25500000920E-02 0. -1.
    10030    2    1    2    0    0  0.00000000000E+00  0.00000000000E+00 -0.50866248901E+03  0.78772471682E+03  0.60147543737E+03 0.  0.
        4    1    3    3  502    0 -0.11181467009E+03  0.17423719902E+03 -0.54000530360E+03  0.57833248464E+03  0.12699999809E+01 0. -1.
       -4    1    3    3    0  502  0.11181467009E+03 -0.17423719902E+03  0.31342814593E+02  0.20939223218E+03  0.12699999809E+01 0.  1.
</event>
<event>
 5   0  0.3798925E-02  0.5981208E+03  0.7818609E-02  0.9909312E-01
       -2   -1    0    0    0  501  0.00000000000E+00  0.00000000000E+00  0.11483144696E+03  0.11483144699E+03  0.25500000920E-02 0.  1.
        2   -1    0    0  501    0  0.00000000000E+00  0.00000000000E+00 -0.77885576861E+03  0.77885576861E+03  0.25500000920E-02 0. -1.
    10030    2    1    2    0    0  0.00000000000E+00  0.00000000000E+00 -0.66402432165E+03  0.89368721560E+03  0.59812084029E+03 0.  0.
        2    1    3    3  502    0 -0.20654332809E+03  0.48279212595E+02 -0.17010045601E+02  0.21279184760E+03  0.25500000920E-02 0.  1.
       -2    1    3    3    0  502  0.20654332809E+03 -0.48279212595E+02 -0.64701427605E+03  0.68089536800E+03  0.25500000920E-02 0. -1.
</event>
<event>
 5   0  0.2295179E-02  0.6053659E+03  0.7818609E-02  0.9894336E-01
        1   -1    0    0  501    0  0.00000000000E+00  0.00000000000E+00  0.61091229385E+03  0.61091229387E+03  0.50400001928E-02 0. -1.
       -1   -1    0    0    0  501  0.00000000000E+00  0.00000000000E+00 -0.14996747936E+03  0.14996747945E+03  0.50400001928E-02 0.  1.
    10030    2    1    2    0    0  0.00000000000E+00  0.00000000000E+00  0.46094481448E+03  0.76087977332E+03  0.60536592855E+03 0.  0.
        3    1    3    3  502    0  0.21476541060E+03  0.13068443406E+03  0.44234122009E+03  0.50879108491E+03  0.10100000352E+00 0. -1.
       -3    1    3    3    0  502 -0.21476541060E+03 -0.13068443406E+03  0.18603594398E+02  0.25208868841E+03  0.10100000352E+00 0.  1.
</event>
<event>
 5   0  0.2309055E-02  0.5961499E+03  0.7818609E-02  0.9913426E-01
       -1   -1    0    0    0  501  0.00000000000E+00  0.00000000000E+00  0.25889508175E+03  0.25889508180E+03  0.50400001928E-02 0.  1.
        1   -1    0    0  501    0  0.00000000000E+00  0.00000000000E+00 -0.34318412340E+03  0.34318412344E+03  0.50400001928E-02 0. -1.
    10030    2    1    2    0    0  0.00000000000E+00  0.00000000000E+00 -0.84289041654E+02  0.60207920524E+03  0.59614991976E+03 0.  0.
        4    1    3    3  502    0  0.16273141173E+03 -0.72641469224E+02 -0.28345350632E+03  0.33482204013E+03  0.12699999809E+01 0. -1.
       -4    1    3    3    0  502 -0.16273141173E+03  0.72641469224E+02  0.19916446466E+03  0.26725716510E+03  0.12699999809E+01 0.  1.
</event>
<event>
 5   0  0.2382531E-02  0.5981760E+03  0.7818609E-02  0.9909198E-01
       -1   -1    0    0    0  501  0.00000000000E+00  0.00000000000E+00  0.43801923350E+03  0.43801923353E+03  0.50400001928E-02 0. -1.
        1   -1    0    0  501    0  0.00000000000E+00  0.00000000000E+00 -0.20422306207E+03  0.20422306214E+03  0.50400001928E-02 0.  1.
    10030    2    1    2    0    0  0.00000000000E+00  0.00000000000E+00  0.23379617143E+03  0.64224229567E+03  0.59817599130E+03 0.  0.
        5    1    3    3  502    0 -0.76695564109E+02 -0.28775267327E+03  0.87539040550E+02  0.31043354223E+03  0.46999998093E+01 0. -1.
       -5    1    3    3    0  502  0.76695564109E+02  0.28775267327E+03  0.14625713088E+03  0.33180875344E+03  0.46999998093E+01 0.  1.
</event>
<event>
 5   0  0.2309055E-02  0.6010384E+03  0.7818609E-02  0.9903254E-01
       -1   -1    0    0    0  501  0.00000000000E+00  0.00000000000E+00  0.10238568224E+04  0.10238568224E+04  0.50400001928E-02 0. -1.
        1   -1    0    0  501    0  0.00000000000E+00  0.00000000000E+00 -0.88207438704E+02  0.88207438848E+02  0.50400001928E-02 0.  1.
    10030    2    1    2    0    0  0.00000000000E+00  0.00000000000E+00  0.93564938373E+03  0.11120642613E+04  0.60103839476E+03 0.  0.
        4    1    3    3  502    0  0.15403382207E+03 -0.14910232576E+03  0.85748440996E+03  0.88387728114E+03  0.12699999809E+01 0. -1.
       -4    1    3    3    0  502 -0.15403382207E+03  0.14910232576E+03  0.78164973768E+02  0.22818698016E+03  0.12699999809E+01 0.  1.
</event>
<event>
 5   0  0.2276105E-02  0.6007863E+03  0.7818609E-02  0.9903776E-01
        1   -1    0    0  501    0  0.00000000000E+00  0.00000000000E+00  0.26606175585E+03  0.26606175590E+03  0.50400001928E-02 0.  1.
       -1   -1    0    0    0  501  0.00000000000E+00  0.00000000000E+00 -0.33915451091E+03  0.33915451094E+03  0.50400001928E-02 0. -1.
    10030    2    1    2    0    0  0.00000000000E+00  0.00000000000E+00 -0.73092755057E+02  0.60521626684E+03  0.60078630045E+03 0.  0.
        1    1    3    3  502    0 -0.20335535391E+03  0.65308953904E+02 -0.24933217094E+03  0.32830655022E+03  0.50400001928E-02 0. -1.
       -1    1    3    3    0  502  0.20335535391E+03 -0.65308953904E+02  0.17623941588E+03  0.27690971662E+03  0.50400001928E-02 0.  1.
</event>
<event>
 5   0  0.3737642E-02  0.6020782E+03  0.7818609E-02  0.9901104E-01
       -2   -1    0    0    0  501  0.00000000000E+00  0.00000000000E+00  0.97646002238E+02  0.97646002271E+02  0.25500000920E-02 0.  1.
        2   -1    0    0  501    0  0.00000000000E+00  0.00000000000E+00 -0.92809282289E+03  0.92809282289E+03  0.25500000920E-02 0. -1.
    10030    2    1    2    0    0  0.00000000000E+00  0.00000000000E+00 -0.83044682065E+03  0.10257388252E+04  0.60207824701E+03 0.  0.
        5    1    3    3  502    0 -0.47388953918E+02  0.21385585473E+02 -0.92032278635E+03  0.92180213565E+03  0.46999998093E+01 0. -1.
       -5    1    3    3    0  502  0.47388953918E+02 -0.21385585473E+02  0.89875965695E+02  0.10393668952E+03  0.46999998093E+01 0.  1.
</event>
<event>
 5   0  0.2309055E-02  0.6005767E+03  0.7818609E-02  0.9904210E-01
       -1   -1    0    0    0  501  0.00000000000E+00  0.00000000000E+00  0.31764387062E+03  0.31764387066E+03  0.50400001928E-02 0. -1.
        1   -1    0    0  501    0  0.00000000000E+00  0.00000000000E+00 -0.28388108175E+03  0.28388108180E+03  0.50400001928E-02 0.  1.
    10030    2    1    2    0    0  0.00000000000E+00  0.00000000000E+00  0.33762788864E+02  0.60152495245E+03  0.60057667496E+03 0.  0.
        4    1    3    3  502    0 -0.12384744537E+03  0.24039079782E+03 -0.11388334769E+03  0.29342282662E+03  0.12699999809E+01 0.  1.
       -4    1    3    3    0  502  0.12384744537E+03 -0.24039079782E+03  0.14764613656E+03  0.30810212583E+03  0.12699999809E+01 0. -1.
</event>
<event>
 5   0  0.1521750E-02  0.6009716E+03  0.7818609E-02  0.9903392E-01
        4   -1    0    0  501    0  0.00000000000E+00  0.00000000000E+00  0.82666640250E+03  0.82666737805E+03  0.12699999809E+01 0. -1.
       -4   -1    0    0    0  501  0.00000000000E+00  0.00000000000E+00 -0.10921915590E+03  0.10922653943E+03  0.12699999809E+01 0.  1.
    10030    2    1    2    0    0  0.00000000000E+00  0.00000000000E+00  0.71744724660E+03  0.93589391748E+03  0.60097160758E+03 0.  0.
        2    1    3    3  502    0 -0.27745210820E+03  0.50101138688E+02  0.52057752952E+03  0.59202260150E+03  0.25500000920E-02 0. -1.
       -2    1    3    3    0  502  0.27745210820E+03 -0.50101138688E+02  0.19686971708E+03  0.34387131597E+03  0.25500000920E-02 0.  1.
</event>
<event>
 5   0  0.3832191E-02  0.6006908E+03  0.7818609E-02  0.9903974E-01
       -2   -1    0    0    0  501  0.00000000000E+00  0.00000000000E+00  0.33647672782E+03  0.33647672783E+03  0.25500000920E-02 0.  1.
        2   -1    0    0  501    0  0.00000000000E+00  0.00000000000E+00 -0.26809386047E+03  0.26809386048E+03  0.25500000920E-02 0. -1.
    10030    2    1    2    0    0  0.00000000000E+00  0.00000000000E+00  0.68382867352E+02  0.60457058830E+03  0.60069075213E+03 0.  0.
        3    1    3    3  502    0  0.29549882785E+03 -0.13573977017E+02  0.86522698700E+02  0.30820447385E+03  0.10100000352E+00 0.  1.
       -3    1    3    3    0  502 -0.29549882785E+03  0.13573977017E+02 -0.18139831348E+02  0.29636611445E+03  0.10100000352E+00 0. -1.
</event>
<event>
 5   0  0.3832191E-02  0.6054716E+03  0.7818609E-02  0.9894119E-01
       -2   -1    0    0    0  501  0.00000000000E+00  0.00000000000E+00  0.18723210611E+03  0.18723210613E+03  0.25500000920E-02 0. -1.
        2   -1    0    0  501    0  0.00000000000E+00  0.00000000000E+00 -0.48949391749E+03  0.48949391750E+03  0.25500000920E-02 0.  1.
    10030    2    1    2    0    0  0.00000000000E+00  0.00000000000E+00 -0.30226181138E+03  0.67672602363E+03  0.60547164132E+03 0.  0.
        3    1    3    3  502    0  0.29495007169E+03 -0.55751510040E+02 -0.10719595019E+03  0.31873932546E+03  0.10100000352E+00 0. -1.
       -3    1    3    3    0  502 -0.29495007169E+03  0.55751510040E+02 -0.19506586119E+03  0.35798669816E+03  0.10100000352E+00 0.  1.
</event>
<event>
 5   0  0.2382531E-02  0.5984441E+03  0.7818609E-02  0.9908639E-01
        1   -1    0    0  501    0  0.00000000000E+00  0.00000000000E+00  0.42860915297E+03  0.42860915300E+03  0.50400001928E-02 0. -1.
       -1   -1    0    0    0  501  0.00000000000E+00  0.00000000000E+00 -0.20889391927E+03  0.20889391933E+03  0.50400001928E-02 0.  1.
    10030    2    1    2    0    0  0.00000000000E+00  0.00000000000E+00  0.21971523370E+03  0.63750307233E+03  0.59844413549E+03 0.  0.
        5    1    3    3  502    0  0.81658554583E+02 -0.87512654621E+01  0.41632722223E+03  0.42437618942E+03  0.46999998093E+01 0. -1.
       -5    1    3    3    0  502 -0.81658554583E+02  0.87512654621E+01 -0.19661198853E+03  0.21312688290E+03  0.46999998093E+01 0.  1.
</event>
<event>
 5   0  0.3737642E-02  0.6035619E+03  0.7818609E-02  0.9898044E-01
        2   -1    0    0  501    0  0.00000000000E+00  0.00000000000E+00  0.74976877809E+03  0.74976877809E+03  0.25500000920E-02 0. -1.
       -2   -1    0    0    0  501  0.00000000000E+00  0.00000000000E+00 -0.12146641960E+03  0.12146641962E+03  0.25500000920E-02 0.  1.
    10030    2    1    2    0    0  0.00000000000E+00  0.00000000000E+00  0.62830235849E+03  0.87123519772E+03  0.60356185769E+03 0.  0.
        5    1    3    3  502    0  0.54614480595E+02  0.16133164944E+03 -0.45387822111E+02  0.17633146910E+03  0.46999998093E+01 0.  1.
       -5    1    3    3    0  502 -0.54614480595E+02 -0.16133164944E+03  0.67369018060E+03  0.69490372861E+03  0.46999998093E+01 0. -1.
</event>
<event>
 5   0  0.3832191E-02  0.6635343E+03  0.7818609E-02  0.9781709E-01
        2   -1    0    0  501    0  0.00000000000E+00  0.00000000000E+00  0.10458508945E+04  0.10458508945E+04  0.25500000920E-02 0. -1.
       -2   -1    0    0    0  501  0.00000000000E+00  0.00000000000E+00 -0.10524390747E+03  0.10524390751E+03  0.25500000920E-02 0.  1.
    10030    2    1    2    0    0  0.00000000000E+00  0.00000000000E+00  0.94060698704E+03  0.11510948020E+04  0.66353427883E+03 0.  0.
        3    1    3    3  502    0 -0.12430899778E+03 -0.10482899094E+03  0.97197853411E+03  0.98548674534E+03  0.10100000352E+00 0. -1.
       -3    1    3    3    0  502  0.12430899778E+03  0.10482899094E+03 -0.31371547074E+02  0.16560805668E+03  0.10100000352E+00 0.  1.
</event>
<event>
 5   0  0.2276105E-02  0.6031005E+03  0.7818609E-02  0.9898994E-01
       -1   -1    0    0    0  501  0.00000000000E+00  0.00000000000E+00  0.84845956212E+02  0.84845956362E+02  0.50400001928E-02 0.  1.
        1   -1    0    0  501    0  0.00000000000E+00  0.00000000000E+00 -0.10717371285E+04  0.10717371285E+04  0.50400001928E-02 0. -1.
    10030    2    1    2    0    0  0.00000000000E+00  0.00000000000E+00 -0.98689117228E+03  0.11565830849E+04  0.60310052750E+03 0.  0.
        1    1    3    3  502    0  0.76558214016E+02  0.25773043638E+01 -0.10527676685E+04  0.10555508355E+04  0.50400001928E-02 0. -1.
       -1    1    3    3    0  502 -0.76558214016E+02 -0.25773043638E+01  0.65876496175E+02  0.10103224933E+03  0.50400001928E-02 0.  1.
</event>
<event>
 5   0  0.2295179E-02  0.6164391E+03  0.7818609E-02  0.9871875E-01
        1   -1    0    0  501    0  0.00000000000E+00  0.00000000000E+00  0.51455196650E+03  0.51455196652E+03  0.50400001928E-02 0.  1.
       -1   -1    0    0    0  501  0.00000000000E+00  0.00000000000E+00 -0.18462525626E+03  0.18462525633E+03  0.50400001928E-02 0. -1.
    10030    2    1    2    0    0  0.00000000000E+00  0.00000000000E+00  0.32992671024E+03  0.69917722285E+03  0.61643909255E+03 0.  0.
        3    1    3    3  502    0 -0.19182430990E+03  0.14625979035E+03 -0.52649550054E+02  0.24690175670E+03  0.10100000352E+00 0. -1.
       -3    1    3    3    0  502  0.19182430990E+03 -0.14625979035E+03  0.38257626029E+03  0.45227546615E+03  0.10100000352E+00 0.  1.
</event>
<event>
 5   0  0.2225808E-02  0.5994673E+03  0.7818609E-02  0.9906512E-01
       -1   -1    0    0    0  501  0.00000000000E+00  0.00000000000E+00  0.21231006062E+03  0.21231006068E+03  0.50400001928E-02 0. -1.
        1   -1    0    0  501    0  0.00000000000E+00  0.00000000000E+00 -0.42315597644E+03  0.42315597647E+03  0.50400001928E-02 0.  1.
    10030    2    1    2    0    0  0.00000000000E+00  0.00000000000E+00 -0.21084591582E+03  0.63546603715E+03  0.59946733368E+03 0.  0.
        2    1    3    3  502    0  0.24087669265E+03 -0.98438181915E+02  0.52266961667E+02  0.26541192891E+03  0.25500000920E-02 0. -1.
       -2    1    3    3    0  502 -0.24087669265E+03  0.98438181915E+02 -0.26311287749E+03  0.37005410824E+03  0.25500000920E-02 0.  1.
</event>
<event>
 5   0  0.1521750E-02  0.6012234E+03  0.7818609E-02  0.9902871E-01
       -3   -1    0    0    0  501  0.00000000000E+00  0.00000000000E+00  0.17518859728E+04  0.17518859757E+04  0.10100000352E+00 0. -1.
        3   -1    0    0  501    0  0.00000000000E+00  0.00000000000E+00 -0.51582873621E+02  0.51582972501E+02  0.10100000352E+00 0.  1.
    10030    2    1    2    0    0  0.00000000000E+00  0.00000000000E+00  0.17003030992E+04  0.18034689482E+04  0.60122343441E+03 0.  0.
        4    1    3    3  502    0  0.13618377622E+03 -0.91480347636E+02  0.16057523407E+04  0.16141117890E+04  0.12699999809E+01 0. -1.
       -4    1    3    3    0  502 -0.13618377622E+03  0.91480347636E+02  0.94550758489E+02  0.18935715920E+03  0.12699999809E+01 0.  1.
</event>
<event>
 5   0  0.3934634E-02  0.5994467E+03  0.7818609E-02  0.9906555E-01
        2   -1    0    0  501    0  0.00000000000E+00  0.00000000000E+00  0.47214037879E+03  0.47214037879E+03  0.25500000920E-02 0.  1.
       -2   -1    0    0    0  501  0.00000000000E+00  0.00000000000E+00 -0.19026986393E+03  0.19026986395E+03  0.25500000920E-02 0. -1.
    10030    2    1    2    0    0  0.00000000000E+00  0.00000000000E+00  0.28187051485E+03  0.66241024274E+03  0.59944669700E+03 0.  0.
        1    1    3    3  502    0  0.24153803234E+03 -0.50914343148E+02  0.32879527641E+03  0.41114380114E+03  0.50400001928E-02 0.  1.
       -1    1    3    3    0  502 -0.24153803234E+03  0.50914343148E+02 -0.46924761551E+02  0.25126644160E+03  0.50400001928E-02 0. -1.
</event>
<event>
 5   0  0.1521750E-02  0.6010766E+03  0.7818609E-02  0.9903175E-01
        4   -1    0    0  501    0  0.00000000000E+00  0.00000000000E+00  0.37307010307E+03  0.37307226472E+03  0.12699999809E+01 0. -1.
       -4   -1    0    0    0  501  0.00000000000E+00  0.00000000000E+00 -0.24210351116E+03  0.24210684215E+03  0.12699999809E+01 0.  1.
    10030    2    1    2    0    0  0.00000000000E+00  0.00000000000E+00  0.13096659191E+03  0.61517910688E+03  0.60107660522E+03 0.  0.
        2    1    3    3  502    0  0.23025953651E+03  0.19314146541E+03  0.65931185960E+02  0.30768490555E+03  0.25500000920E-02 0.  1.
       -2    1    3    3    0  502 -0.23025953651E+03 -0.19314146541E+03  0.65035405949E+02  0.30749420132E+03  0.25500000920E-02 0. -1.
</event>
<event>
 5   0  0.3798925E-02  0.6028022E+03  0.7818609E-02  0.9899609E-01
       -2   -1    0    0    0  501  0.00000000000E+00  0.00000000000E+00  0.31336319522E+03  0.31336319523E+03  0.25500000920E-02 0. -1.
        2   -1    0    0  501    0  0.00000000000E+00  0.00000000000E+00 -0.28989563874E+03  0.28989563875E+03  0.25500000920E-02 0.  1.
    10030    2    1    2    0    0  0.00000000000E+00  0.00000000000E+00  0.23467556477E+02  0.60325883398E+03  0.60280220186E+03 0.  0.
        2    1    3    3  502    0 -0.99867982352E+00  0.29974487183E+03 -0.19827995503E+02  0.30040162277E+03  0.25500000920E-02 0.  1.
       -2    1    3    3    0  502  0.99867982352E+00 -0.29974487183E+03  0.43295551979E+02  0.30285721121E+03  0.25500000920E-02 0. -1.
</event>
<event>
 5   0  0.3832191E-02  0.5987530E+03  0.7818609E-02  0.9907997E-01
        2   -1    0    0  501    0  0.00000000000E+00  0.00000000000E+00  0.39794948265E+03  0.39794948265E+03  0.25500000920E-02 0.  1.
       -2   -1    0    0    0  501  0.00000000000E+00  0.00000000000E+00 -0.22522026108E+03  0.22522026110E+03  0.25500000920E-02 0. -1.
    10030    2    1    2    0    0  0.00000000000E+00  0.00000000000E+00  0.17272922156E+03  0.62316974375E+03  0.59875299210E+03 0.  0.
        3    1    3    3  502    0 -0.28085718167E+03 -0.79638294042E+02  0.15542768670E+03  0.33072766798E+03  0.10100000352E+00 0.  1.
       -3    1    3    3    0  502  0.28085718167E+03  0.79638294042E+02  0.17301534865E+02  0.29244207577E+03  0.10100000352E+00 0. -1.
</event>
<event>
 5   0  0.2225808E-02  0.5990916E+03  0.7818609E-02  0.9907293E-01
       -1   -1    0    0    0  501  0.00000000000E+00  0.00000000000E+00  0.55836669425E+02  0.55836669653E+02  0.50400001928E-02 0.  1.
        1   -1    0    0  501    0  0.00000000000E+00  0.00000000000E+00 -0.16069669698E+04  0.16069669698E+04  0.50400001928E-02 0. -1.
    10030    2    1    2    0    0  0.00000000000E+00  0.00000000000E+00 -0.15511303003E+04  0.16628036394E+04  0.59909159121E+03 0.  0.
        2    1    3    3  502    0 -0.18588402465E+03  0.12335772857E+03 -0.22075053158E+03  0.31384836628E+03  0.25500000920E-02 0.  1.
       -2    1    3    3    0  502  0.18588402465E+03 -0.12335772857E+03 -0.13303797687E+04  0.13489552731E+04  0.25500000920E-02 0. -1.
</event>
<event>
 5   0  0.2276105E-02  0.5993503E+03  0.7818609E-02  0.9906755E-01
        1   -1    0    0  501    0  0.00000000000E+00  0.00000000000E+00  0.58252060022E+03  0.58252060024E+03  0.50400001928E-02 0.  1.
       -1   -1    0    0    0  501  0.00000000000E+00  0.00000000000E+00 -0.15416657199E+03  0.15416657207E+03  0.50400001928E-02 0. -1.
    10030    2    1    2    0    0  0.00000000000E+00  0.00000000000E+00  0.42835402822E+03  0.73668717231E+03  0.59935032857E+03 0.  0.
        1    1    3    3  502    0 -0.16010925107E+03 -0.25198304029E+03  0.18224816972E+03  0.34977824441E+03  0.50400001928E-02 0. -1.
       -1    1    3    3    0  502  0.16010925107E+03  0.25198304029E+03  0.24610585851E+03  0.38690892790E+03  0.50400001928E-02 0.  1.
</event>
<event>
 5   0  0.3832191E-02  0.6010033E+03  0.7818609E-02  0.9903327E-01
       -2   -1    0    0    0  501  0.00000000000E+00  0.00000000000E+00  0.42213633488E+03  0.42213633489E+03  0.25500000920E-02 0.  1.
        2   -1    0    0  501    0  0.00000000000E+00  0.00000000000E+00 -0.21391488175E+03  0.21391488176E+03  0.25500000920E-02 0. -1.
    10030    2    1    2    0    0  0.00000000000E+00  0.00000000000E+00  0.20822145313E+03  0.63605121665E+03  0.60100330836E+03 0.  0.
        3    1    3    3  502    0  0.20429571689E+03 -0.15461977457E+03 -0.62072533425E+02  0.26362288261E+03  0.10100000352E+00 0. -1.
       -3    1    3    3    0  502 -0.20429571689E+03  0.15461977457E+03  0.27029398656E+03  0.37242833404E+03  0.10100000352E+00 0.  1.
</event>
<event>
 5   0  0.3737642E-02  0.5985140E+03  0.7818609E-02  0.9908494E-01
        2   -1    0    0  501    0  0.00000000000E+00  0.00000000000E+00  0.17932768164E+03  0.17932768166E+03  0.25500000920E-02 0. -1.
       -2   -1    0    0    0  501  0.00000000000E+00  0.00000000000E+00 -0.49939160576E+03  0.49939160577E+03  0.25500000920E-02 0.  1.
    10030    2    1    2    0    0  0.00000000000E+00  0.00000000000E+00 -0.32006392413E+03  0.67871928743E+03  0.59851395606E+03 0.  0.
        5    1    3    3  502    0  0.14406346132E+03 -0.61237734310E+02  0.12914729387E+03  0.20299126706E+03  0.46999998093E+01 0. -1.
       -5    1    3    3    0  502 -0.14406346132E+03  0.61237734310E+02 -0.44921121799E+03  0.47572802036E+03  0.46999998093E+01 0.  1.
</event>
<event>
 5   0  0.2295179E-02  0.5979037E+03  0.7818609E-02  0.9909765E-01
        1   -1    0    0  501    0  0.00000000000E+00  0.00000000000E+00  0.26628252362E+03  0.26628252367E+03  0.50400001928E-02 0. -1.
       -1   -1    0    0    0  501  0.00000000000E+00  0.00000000000E+00 -0.33562923337E+03  0.33562923340E+03  0.50400001928E-02 0.  1.
    10030    2    1    2    0    0  0.00000000000E+00  0.00000000000E+00 -0.69346709748E+02  0.60191175707E+03  0.59790366878E+03 0.  0.
        3    1    3    3  502    0  0.21960603755E+03 -0.10707391068E+03 -0.20810870324E+03  0.32093749647E+03  0.10100000352E+00 0.  1.
       -3    1    3    3    0  502 -0.21960603755E+03  0.10707391068E+03  0.13876199349E+03  0.28097426060E+03  0.10100000352E+00 0. -1.
</event>
<event>
 5   0  0.2225808E-02  0.5917337E+03  0.7818609E-02  0.9922706E-01
       -1   -1    0    0    0  501  0.00000000000E+00  0.00000000000E+00  0.61034885405E+02  0.61034885613E+02  0.50400001928E-02 0. -1.
        1   -1    0    0  501    0  0.00000000000E+00  0.00000000000E+00 -0.14342157185E+04  0.14342157185E+04  0.50400001928E-02 0.  1.
    10030    2    1    2    0    0  0.00000000000E+00  0.00000000000E+00 -0.13731808331E+04  0.14952506041E+04  0.59173369749E+03 0.  0.
        2    1    3    3  502    0 -0.22604885874E+03 -0.14523279519E+03 -0.37355539026E+03  0.46014593439E+03  0.25500000920E-02 0. -1.
       -2    1    3    3    0  502  0.22604885874E+03  0.14523279519E+03 -0.99962544283E+03  0.10351046697E+04  0.25500000920E-02 0.  1.
</event>
<event>
 5   0  0.2225808E-02  0.5889771E+03  0.7818609E-02  0.9928543E-01
        1   -1    0    0  501    0  0.00000000000E+00  0.00000000000E+00  0.12159519527E+03  0.12159519537E+03  0.50400001928E-02 0. -1.
       -1   -1    0    0    0  501  0.00000000000E+00  0.00000000000E+00 -0.71321487643E+03  0.71321487645E+03  0.50400001928E-02 0.  1.
    10030    2    1    2    0    0  0.00000000000E+00  0.00000000000E+00 -0.59161968116E+03  0.83481007182E+03  0.58897708688E+03 0.  0.
        2    1    3    3  502    0 -0.80089809959E+02  0.25344272782E+03 -0.47552182515E+03  0.54476471999E+03  0.25500000920E-02 0.  1.
       -2    1    3    3    0  502  0.80089809959E+02 -0.25344272782E+03 -0.11609785601E+03  0.29004535183E+03  0.25500000920E-02 0. -1.
</event>
<event>
 5   0  0.3724066E-02  0.6099627E+03  0.7818609E-02  0.9884949E-01
        2   -1    0    0  501    0  0.00000000000E+00  0.00000000000E+00  0.10372510269E+04  0.10372510269E+04  0.25500000920E-02 0. -1.
       -2   -1    0    0    0  501  0.00000000000E+00  0.00000000000E+00 -0.89673213936E+02  0.89673213972E+02  0.25500000920E-02 0.  1.
    10030    2    1    2    0    0  0.00000000000E+00  0.00000000000E+00  0.94757781299E+03  0.11269242409E+04  0.60996273088E+03 0.  0.
        4    1    3    3  502    0 -0.25981485552E+03  0.77671945498E+02  0.21595867738E+03  0.34666475665E+03  0.12699999809E+01 0.  1.
       -4    1    3    3    0  502  0.25981485552E+03 -0.77671945498E+02  0.73161913561E+03  0.78025948425E+03  0.12699999809E+01 0. -1.
</event>
<event>
 5   0  0.1521750E-02  0.6076011E+03  0.7818609E-02  0.9889761E-01
       -3   -1    0    0    0  501  0.00000000000E+00  0.00000000000E+00  0.59235010112E+03  0.59235010974E+03  0.10100000352E+00 0.  1.
        3   -1    0    0  501    0  0.00000000000E+00  0.00000000000E+00 -0.15581114674E+03  0.15581117947E+03  0.10100000352E+00 0. -1.
    10030    2    1    2    0    0  0.00000000000E+00  0.00000000000E+00  0.43653895439E+03  0.74816128921E+03  0.60760106647E+03 0.  0.
        3    1    3    3  502    0 -0.27087643379E+03 -0.46716402749E+02  0.37757551591E+03  0.46703291649E+03  0.10100000352E+00 0.  1.
       -3    1    3    3    0  502  0.27087643379E+03  0.46716402749E+02  0.58963438481E+02  0.28112837272E+03  0.10100000352E+00 0. -1.
</event>
<event>
 5   0  0.2382531E-02  0.6011372E+03  0.7818609E-02  0.9903049E-01
       -1   -1    0    0    0  501  0.00000000000E+00  0.00000000000E+00  0.15926495477E+03  0.15926495485E+03  0.50400001928E-02 0. -1.
        1   -1    0    0  501    0  0.00000000000E+00  0.00000000000E+00 -0.56724023711E+03  0.56724023713E+03  0.50400001928E-02 0.  1.
    10030    2    1    2    0    0  0.00000000000E+00  0.00000000000E+00 -0.40797528234E+03  0.72650519198E+03  0.60113722475E+03 0.  0.
        5    1    3    3  502    0 -0.29674660774E+03  0.47370231117E+02 -0.19901746104E+03  0.36046154829E+03  0.46999998093E+01 0. -1.
       -5    1    3    3    0  502  0.29674660774E+03 -0.47370231117E+02 -0.20895782130E+03  0.36604364369E+03  0.46999998093E+01 0.  1.
</event>
<event>
 5   0  0.3737642E-02  0.6038186E+03  0.7818609E-02  0.9897515E-01
       -2   -1    0    0    0  501  0.00000000000E+00  0.00000000000E+00  0.11018233778E+03  0.11018233781E+03  0.25500000920E-02 0. -1.
        2   -1    0    0  501    0  0.00000000000E+00  0.00000000000E+00 -0.82725793621E+03  0.82725793621E+03  0.25500000920E-02 0.  1.
    10030    2    1    2    0    0  0.00000000000E+00  0.00000000000E+00 -0.71707559842E+03  0.93744027403E+03  0.60381856009E+03 0.  0.
        5    1    3    3  502    0 -0.15665132107E+03  0.12020443234E+03 -0.40380584717E+01  0.19755287359E+03  0.46999998093E+01 0. -1.
       -5    1    3    3    0  502  0.15665132107E+03 -0.12020443234E+03 -0.71303753995E+03  0.73988740044E+03  0.46999998093E+01 0.  1.
</event>
<event>
 5   0  0.2225808E-02  0.5899711E+03  0.7818609E-02  0.9926434E-01
       -1   -1    0    0    0  501  0.00000000000E+00  0.00000000000E+00  0.17148563692E+03  0.17148563700E+03  0.50400001928E-02 0. -1.
        1   -1    0    0  501    0  0.00000000000E+00  0.00000000000E+00 -0.50742717001E+03  0.50742717004E+03  0.50400001928E-02 0.  1.
    10030    2    1    2    0    0  0.00000000000E+00  0.00000000000E+00 -0.33594153309E+03  0.67891280703E+03  0.58997108904E+03 0.  0.
        2    1    3    3  502    0 -0.10375602615E+03 -0.20758091936E+03  0.41584788952E+02  0.23576353773E+03  0.25500000920E-02 0. -1.
       -2    1    3    3    0  502  0.10375602615E+03  0.20758091936E+03 -0.37752632205E+03  0.44314926931E+03  0.25500000920E-02 0.  1.
</event>
<event>
 5   0  0.1521750E-02  0.6046441E+03  0.7818609E-02  0.9895818E-01
        3   -1    0    0  501    0  0.00000000000E+00  0.00000000000E+00  0.15957075640E+03  0.15957078836E+03  0.10100000352E+00 0.  1.
       -3   -1    0    0    0  501  0.00000000000E+00  0.00000000000E+00 -0.57277792192E+03  0.57277793082E+03  0.10100000352E+00 0. -1.
    10030    2    1    2    0    0  0.00000000000E+00  0.00000000000E+00 -0.41320716552E+03  0.73234871918E+03  0.60464409768E+03 0.  0.
        5    1    3    3  502    0  0.13760587377E+03  0.61765671829E+02  0.11069121141E+03  0.18714969675E+03  0.46999998093E+01 0.  1.
       -5    1    3    3    0  502 -0.13760587377E+03 -0.61765671829E+02 -0.52389837693E+03  0.54519902243E+03  0.46999998093E+01 0. -1.
</event>
<event>
 5   0  0.1521750E-02  0.6220966E+03  0.7818609E-02  0.9860594E-01
        3   -1    0    0  501    0  0.00000000000E+00  0.00000000000E+00  0.26568020907E+03  0.26568022827E+03  0.10100000352E+00 0.  1.
       -3   -1    0    0    0  501  0.00000000000E+00  0.00000000000E+00 -0.36416352469E+03  0.36416353869E+03  0.10100000352E+00 0. -1.
    10030    2    1    2    0    0  0.00000000000E+00  0.00000000000E+00 -0.98483315615E+02  0.62984376697E+03  0.62209662218E+03 0.  0.
        3    1    3    3  502    0  0.41370916446E+02 -0.14415126803E+03 -0.32514195931E+03  0.35806206823E+03  0.10100000352E+00 0. -1.
       -3    1    3    3    0  502 -0.41370916446E+02  0.14415126803E+03  0.22665864370E+03  0.27178169873E+03  0.10100000352E+00 0.  1.
</event>
<event>
 5   0  0.3934634E-02  0.6035568E+03  0.7818609E-02  0.9898054E-01
        2   -1    0    0  501    0  0.00000000000E+00  0.00000000000E+00  0.16675562005E+04  0.16675562005E+04  0.25500000920E-02 0. -1.
       -2   -1    0    0    0  501  0.00000000000E+00  0.00000000000E+00 -0.54612968356E+02  0.54612968415E+02  0.25500000920E-02 0.  1.
    10030    2    1    2    0    0  0.00000000000E+00  0.00000000000E+00  0.16129432321E+04  0.17221691689E+04  0.60355677135E+03 0.  0.
        1    1    3    3  502    0  0.73092147933E+02  0.27090316708E+03  0.48951392762E+03  0.56422945101E+03  0.50400001928E-02 0.  1.
       -1    1    3    3    0  502 -0.73092147933E+02 -0.27090316708E+03  0.11234293045E+04  0.11579397179E+04  0.50400001928E-02 0. -1.
</event>
<event>
 5   0  0.2295179E-02  0.6005007E+03  0.7818609E-02  0.9904368E-01
       -1   -1    0    0    0  501  0.00000000000E+00  0.00000000000E+00  0.49652514238E+03  0.49652514240E+03  0.50400001928E-02 0. -1.
        1   -1    0    0  501    0  0.00000000000E+00  0.00000000000E+00 -0.18156236149E+03  0.18156236156E+03  0.50400001928E-02 0.  1.
    10030    2    1    2    0    0  0.00000000000E+00  0.00000000000E+00  0.31496278088E+03  0.67808750397E+03  0.60050071582E+03 0.  0.
        3    1    3    3  502    0 -0.21854754423E+03  0.13857973543E+03  0.32941312568E+03  0.41890379532E+03  0.10100000352E+00 0.  1.
       -3    1    3    3    0  502  0.21854754423E+03 -0.13857973543E+03 -0.14450344800E+02  0.25918370865E+03  0.10100000352E+00 0. -1.
</event>
<event>
 5   0  0.1521750E-02  0.5969008E+03  0.7818609E-02  0.9911857E-01
       -4   -1    0    0    0  501  0.00000000000E+00  0.00000000000E+00  0.94045116347E+03  0.94045202099E+03  0.12699999809E+01 0.  1.
        4   -1    0    0  501    0  0.00000000000E+00  0.00000000000E+00 -0.94707513194E+02  0.94716027975E+02  0.12699999809E+01 0. -1.
    10030    2    1    2    0    0  0.00000000000E+00  0.00000000000E+00  0.84574365028E+03  0.10351680490E+04  0.59690080215E+03 0.  0.
        1    1    3    3  502    0 -0.97807632759E+00  0.27460342184E+03  0.62559709547E+03  0.68321279394E+03  0.50400001928E-02 0.  1.
       -1    1    3    3    0  502  0.97807632759E+00 -0.27460342184E+03  0.22014655481E+03  0.35195525502E+03  0.50400001928E-02 0. -1.
</event>
<event>
 5   0  0.3798925E-02  0.6003889E+03  0.7818609E-02  0.9904600E-01
       -2   -1    0    0    0  501  0.00000000000E+00  0.00000000000E+00  0.76363921405E+02  0.76363921447E+02  0.25500000920E-02 0.  1.
        2   -1    0    0  501    0  0.00000000000E+00  0.00000000000E+00 -0.11800953993E+04  0.11800953993E+04  0.25500000920E-02 0. -1.
    10030    2    1    2    0    0  0.00000000000E+00  0.00000000000E+00 -0.11037314779E+04  0.12564593208E+04  0.60038891512E+03 0.  0.
        2    1    3    3  502    0  0.28146222277E+03  0.10405492195E+03 -0.53457017378E+03  0.61303644291E+03  0.25500000920E-02 0. -1.
       -2    1    3    3    0  502 -0.28146222277E+03 -0.10405492195E+03 -0.56916130412E+03  0.64342287785E+03  0.25500000920E-02 0.  1.
</event>
<event>
 5   0  0.3798925E-02  0.6019530E+03  0.7818609E-02  0.9901362E-01
        2   -1    0    0  501    0  0.00000000000E+00  0.00000000000E+00  0.44395066728E+03  0.44395066728E+03  0.25500000920E-02 0.  1.
       -2   -1    0    0    0  501  0.00000000000E+00  0.00000000000E+00 -0.20404711352E+03  0.20404711354E+03  0.25500000920E-02 0. -1.
    10030    2    1    2    0    0  0.00000000000E+00  0.00000000000E+00  0.23990355376E+03  0.64799778082E+03  0.60195299554E+03 0.  0.
        2    1    3    3  502    0 -0.27242801785E+03  0.92984203756E+02  0.25344298199E+02  0.28897304461E+03  0.25500000920E-02 0. -1.
       -2    1    3    3    0  502  0.27242801785E+03 -0.92984203756E+02  0.21455925556E+03  0.35902473621E+03  0.25500000920E-02 0.  1.
</event>
<event>
 5   0  0.3724066E-02  0.6003899E+03  0.7818609E-02  0.9904598E-01
       -2   -1    0    0    0  501  0.00000000000E+00  0.00000000000E+00  0.11760668385E+03  0.11760668388E+03  0.25500000920E-02 0. -1.
        2   -1    0    0  501    0  0.00000000000E+00  0.00000000000E+00 -0.76625744301E+03  0.76625744301E+03  0.25500000920E-02 0.  1.
    10030    2    1    2    0    0  0.00000000000E+00  0.00000000000E+00 -0.64865075916E+03  0.88386412689E+03  0.60038986288E+03 0.  0.
        4    1    3    3  502    0 -0.12992527869E+03 -0.26670001112E+03 -0.25676811465E+03  0.39235309553E+03  0.12699999809E+01 0.  1.
       -4    1    3    3    0  502  0.12992527869E+03  0.26670001112E+03 -0.39188264451E+03  0.49151103136E+03  0.12699999809E+01 0. -1.
</event>
<event>
 5   0  0.3798925E-02  0.5967891E+03  0.7818609E-02  0.9912090E-01
       -2   -1    0    0    0  501  0.00000000000E+00  0.00000000000E+00  0.56411749707E+02  0.56411749765E+02  0.25500000920E-02 0.  1.
        2   -1    0    0  501    0  0.00000000000E+00  0.00000000000E+00 -0.15783825666E+04  0.15783825666E+04  0.25500000920E-02 0. -1.
    10030    2    1    2    0    0  0.00000000000E+00  0.00000000000E+00 -0.15219708169E+04  0.16347943164E+04  0.59678914983E+03 0.  0.
        2    1    3    3  502    0  0.25867216196E+03 -0.63523300310E+02 -0.39252112621E+03  0.47436202587E+03  0.25500000920E-02 0.  1.
       -2    1    3    3    0  502 -0.25867216196E+03  0.63523300310E+02 -0.11294496907E+04  0.11604322905E+04  0.25500000920E-02 0. -1.
</event>
<event>
 5   0  0.3798925E-02  0.6015983E+03  0.7818609E-02  0.9902096E-01
        2   -1    0    0  501    0  0.00000000000E+00  0.00000000000E+00  0.32070457848E+03  0.32070457849E+03  0.25500000920E-02 0. -1.
       -2   -1    0    0    0  501  0.00000000000E+00  0.00000000000E+00 -0.28212922653E+03  0.28212922654E+03  0.25500000920E-02 0.  1.
    10030    2    1    2    0    0  0.00000000000E+00  0.00000000000E+00  0.38575351948E+02  0.60283380502E+03  0.60159832006E+03 0.  0.
        2    1    3    3  502    0  0.20802583234E+03 -0.10425111622E+03  0.21030205927E+03  0.31363991821E+03  0.25500000920E-02 0. -1.
       -2    1    3    3    0  502 -0.20802583234E+03  0.10425111622E+03 -0.17172670733E+03  0.28919388681E+03  0.25500000920E-02 0.  1.
</event>
<event>
 5   0  0.3832191E-02  0.6009318E+03  0.7818609E-02  0.9903475E-01
        2   -1    0    0  501    0  0.00000000000E+00  0.00000000000E+00  0.73262576607E+03  0.73262576608E+03  0.25500000920E-02 0. -1.
       -2   -1    0    0    0  501  0.00000000000E+00  0.00000000000E+00 -0.12322765690E+03  0.12322765692E+03  0.25500000920E-02 0.  1.
    10030    2    1    2    0    0  0.00000000000E+00  0.00000000000E+00  0.60939810918E+03  0.85585342300E+03  0.60093179829E+03 0.  0.
        3    1    3    3  502    0 -0.17083172468E+03  0.22704134163E+03  0.44386780360E+03  0.52701981579E+03  0.10100000352E+00 0. -1.
       -3    1    3    3    0  502  0.17083172468E+03 -0.22704134163E+03  0.16553030558E+03  0.32883360721E+03  0.10100000352E+00 0.  1.
</event>
<event>
 5   0  0.2225808E-02  0.6016699E+03  0.7818609E-02  0.9901948E-01
        1   -1    0    0  501    0  0.00000000000E+00  0.00000000000E+00  0.10821845495E+04  0.10821845495E+04  0.50400001928E-02 0.  1.
       -1   -1    0    0    0  501  0.00000000000E+00  0.00000000000E+00 -0.83628685074E+02  0.83628685226E+02  0.50400001928E-02 0. -1.
    10030    2    1    2    0    0  0.00000000000E+00  0.00000000000E+00  0.99855586444E+03  0.11658132348E+04  0.60166991276E+03 0.  0.
        2    1    3    3  502    0  0.85964414305E+02 -0.22466606037E+03  0.14923164029E+03  0.28308091013E+03  0.25500000920E-02 0. -1.
       -2    1    3    3    0  502 -0.85964414305E+02  0.22466606037E+03  0.84932422415E+03  0.88273232462E+03  0.25500000920E-02 0.  1.
</event>
<event>
 5   0  0.2276105E-02  0.6004198E+03  0.7818609E-02  0.9904536E-01
        1   -1    0    0  501    0  0.00000000000E+00  0.00000000000E+00  0.98973372071E+03  0.98973372072E+03  0.50400001928E-02 0. -1.
       -1   -1    0    0    0  501  0.00000000000E+00  0.00000000000E+00 -0.91060827283E+02  0.91060827423E+02  0.50400001928E-02 0.  1.
    10030    2    1    2    0    0  0.00000000000E+00  0.00000000000E+00  0.89867289343E+03  0.10807945481E+04  0.60041975810E+03 0.  0.
        1    1    3    3  502    0 -0.27905392576E+03  0.91203113078E+02  0.56228058979E+03  0.63430951672E+03  0.50400001928E-02 0. -1.
       -1    1    3    3    0  502  0.27905392576E+03 -0.91203113078E+02  0.33639230364E+03  0.44648503143E+03  0.50400001928E-02 0.  1.
</event>
<event>
 5   0  0.2295179E-02  0.6011197E+03  0.7818609E-02  0.9903086E-01
        1   -1    0    0  501    0  0.00000000000E+00  0.00000000000E+00  0.91794524194E+03  0.91794524196E+03  0.50400001928E-02 0.  1.
       -1   -1    0    0    0  501  0.00000000000E+00  0.00000000000E+00 -0.98411344806E+02  0.98411344935E+02  0.50400001928E-02 0. -1.
    10030    2    1    2    0    0  0.00000000000E+00  0.00000000000E+00  0.81953389714E+03  0.10163565869E+04  0.60111970785E+03 0.  0.
        3    1    3    3  502    0  0.12927126648E+03 -0.17608199404E+03  0.75882151385E+03  0.78963664368E+03  0.10100000352E+00 0.  1.
       -3    1    3    3    0  502 -0.12927126648E+03  0.17608199404E+03  0.60712383286E+02  0.22671994321E+03  0.10100000352E+00 0. -1.
</event>
<event>
 5   0  0.1521750E-02  0.5998226E+03  0.7818609E-02  0.9905774E-01
        3   -1    0    0  501    0  0.00000000000E+00  0.00000000000E+00  0.71594719482E+02  0.71594790723E+02  0.10100000352E+00 0.  1.
       -3   -1    0    0    0  501  0.00000000000E+00  0.00000000000E+00 -0.12563321047E+04  0.12563321087E+04  0.10100000352E+00 0. -1.
    10030    2    1    2    0    0  0.00000000000E+00  0.00000000000E+00 -0.11847373852E+04  0.13279268995E+04  0.59982262247E+03 0.  0.
        4    1    3    3  502    0 -0.14703714249E+03 -0.65259547276E+02 -0.32009290053E+02  0.16402724570E+03  0.12699999809E+01 0.  1.
       -4    1    3    3    0  502  0.14703714249E+03  0.65259547276E+02 -0.11527280952E+04  0.11638996538E+04  0.12699999809E+01 0. -1.
</event>
<event>
 5   0  0.2225808E-02  0.6019791E+03  0.7818609E-02  0.9901308E-01
       -1   -1    0    0    0  501  0.00000000000E+00  0.00000000000E+00  0.16052443461E+03  0.16052443469E+03  0.50400001928E-02 0. -1.
        1   -1    0    0  501    0  0.00000000000E+00  0.00000000000E+00 -0.56436718853E+03  0.56436718855E+03  0.50400001928E-02 0.  1.
    10030    2    1    2    0    0  0.00000000000E+00  0.00000000000E+00 -0.40384275391E+03  0.72489162324E+03  0.60197914877E+03 0.  0.
        2    1    3    3  502    0  0.18343229977E+02 -0.17503818705E+03  0.92105608884E+02  0.19864109395E+03  0.25500000920E-02 0. -1.
       -2    1    3    3    0  502 -0.18343229977E+02  0.17503818705E+03 -0.49594836280E+03  0.52625052929E+03  0.25500000920E-02 0.  1.
</event>
<event>
 5   0  0.2276105E-02  0.6026641E+03  0.7818609E-02  0.9899894E-01
        1   -1    0    0  501    0  0.00000000000E+00  0.00000000000E+00  0.32178961172E+03  0.32178961175E+03  0.50400001928E-02 0. -1.
       -1   -1    0    0    0  501  0.00000000000E+00  0.00000000000E+00 -0.28217501745E+03  0.28217501750E+03  0.50400001928E-02 0.  1.
    10030    2    1    2    0    0  0.00000000000E+00  0.00000000000E+00  0.39614594265E+02  0.60396462925E+03  0.60266405012E+03 0.  0.
        1    1    3    3  502    0 -0.28462265719E+03  0.70774319008E+02  0.89108015976E+02  0.30652781237E+03  0.50400001928E-02 0.  1.
       -1    1    3    3    0  502  0.28462265719E+03 -0.70774319008E+02 -0.49493421711E+02  0.29743681688E+03  0.50400001928E-02 0. -1.
</event>
<event>
 5   0  0.3724066E-02  0.5989729E+03  0.7818609E-02  0.9907539E-01
       -2   -1    0    0    0  501  0.00000000000E+00  0.00000000000E+00  0.40146292130E+03  0.40146292131E+03  0.25500000920E-02 0.  1.
        2   -1    0    0  501    0  0.00000000000E+00  0.00000000000E+00 -0.22341322746E+03  0.22341322748E+03  0.25500000920E-02 0. -1.
    10030    2    1    2    0    0  0.00000000000E+00  0.00000000000E+00  0.17804969384E+03  0.62487614879E+03  0.59897287739E+03 0.  0.
        4    1    3    3  502    0  0.20536111325E+03  0.28420748511E+01  0.31641721137E+03  0.37723033915E+03  0.12699999809E+01 0.  1.
       -4    1    3    3    0  502 -0.20536111325E+03 -0.28420748511E+01 -0.13836751753E+03  0.24764580964E+03  0.12699999809E+01 0. -1.
</event>
<event>
 5   0  0.3724066E-02  0.5992254E+03  0.7818609E-02  0.9907014E-01
       -2   -1    0    0    0  501  0.00000000000E+00  0.00000000000E+00  0.17336664818E+03  0.17336664820E+03  0.25500000920E-02 0. -1.
        2   -1    0    0  501    0  0.00000000000E+00  0.00000000000E+00 -0.51779153305E+03  0.51779153305E+03  0.25500000920E-02 0.  1.
    10030    2    1    2    0    0  0.00000000000E+00  0.00000000000E+00 -0.34442488487E+03  0.69115818125E+03  0.59922544188E+03 0.  0.
        4    1    3    3  502    0  0.25551146808E+03 -0.70288957921E+02 -0.10983066354E+02  0.26523364902E+03  0.12699999809E+01 0. -1.
       -4    1    3    3    0  502 -0.25551146808E+03  0.70288957921E+02 -0.33344181852E+03  0.42592453223E+03  0.12699999809E+01 0.  1.
</event>
<event>
 5   0  0.3798925E-02  0.6069262E+03  0.7818609E-02  0.9891140E-01
        2   -1    0    0  501    0  0.00000000000E+00  0.00000000000E+00  0.82454339539E+03  0.82454339540E+03  0.25500000920E-02 0. -1.
       -2   -1    0    0    0  501  0.00000000000E+00  0.00000000000E+00 -0.11168588258E+03  0.11168588260E+03  0.25500000920E-02 0.  1.
    10030    2    1    2    0    0  0.00000000000E+00  0.00000000000E+00  0.71285751282E+03  0.93622927800E+03  0.60692621249E+03 0.  0.
        2    1    3    3  502    0  0.12348579085E+03 -0.15998684154E+03  0.70562813118E+03  0.73399972039E+03  0.25500000920E-02 0. -1.
       -2    1    3    3    0  502 -0.12348579085E+03  0.15998684154E+03  0.72293816325E+01  0.20222955761E+03  0.25500000920E-02 0.  1.
</event>
<event>
 5   0  0.2382531E-02  0.6014217E+03  0.7818609E-02  0.9902461E-01
       -1   -1    0    0    0  501  0.00000000000E+00  0.00000000000E+00  0.15889531526E+03  0.15889531534E+03  0.50400001928E-02 0. -1.
        1   -1    0    0  501    0  0.00000000000E+00  0.00000000000E+00 -0.56909813818E+03  0.56909813820E+03  0.50400001928E-02 0.  1.
    10030    2    1    2    0    0  0.00000000000E+00  0.00000000000E+00 -0.41020282292E+03  0.72799345354E+03  0.60142174259E+03 0.  0.
        5    1    3    3  502    0  0.10497890100E+03  0.28002719072E+03 -0.16741872870E+03  0.34276364731E+03  0.46999998093E+01 0. -1.
       -5    1    3    3    0  502 -0.10497890100E+03 -0.28002719072E+03 -0.24278409422E+03  0.38522980623E+03  0.46999998093E+01 0.  1.
</event>
<event>
 5   0  0.2309055E-02  0.6117462E+03  0.7818609E-02  0.9881332E-01
       -1   -1    0    0    0  501  0.00000000000E+00  0.00000000000E+00  0.10861353386E+03  0.10861353397E+03  0.50400001928E-02 0.  1.
        1   -1    0    0  501    0  0.00000000000E+00  0.00000000000E+00 -0.86138762804E+03  0.86138762806E+03  0.50400001928E-02 0. -1.
    10030    2    1    2    0    0  0.00000000000E+00  0.00000000000E+00 -0.75277409418E+03  0.97000116203E+03  0.61174620347E+03 0.  0.
        4    1    3    3  502    0  0.17667090224E+02 -0.27807723982E+03 -0.57643800694E+03  0.64025109615E+03  0.12699999809E+01 0. -1.
       -4    1    3    3    0  502 -0.17667090224E+02  0.27807723982E+03 -0.17633608725E+03  0.32975006588E+03  0.12699999809E+01 0.  1.
</event>
<event>
 5   0  0.2295179E-02  0.6056893E+03  0.7818609E-02  0.9893672E-01
       -1   -1    0    0    0  501  0.00000000000E+00  0.00000000000E+00  0.49546007508E+02  0.49546007764E+02  0.50400001928E-02 0. -1.
        1   -1    0    0  501    0  0.00000000000E+00  0.00000000000E+00 -0.18511056221E+04  0.18511056221E+04  0.50400001928E-02 0.  1.
    10030    2    1    2    0    0  0.00000000000E+00  0.00000000000E+00 -0.18015596146E+04  0.19006516299E+04  0.60568933720E+03 0.  0.
        3    1    3    3  502    0  0.20362185700E+03 -0.21235010966E+03 -0.67535769051E+03  0.73665626316E+03  0.10100000352E+00 0. -1.
       -3    1    3    3    0  502 -0.20362185700E+03  0.21235010966E+03 -0.11262019241E+04  0.11639953667E+04  0.10100000352E+00 0.  1.
</event>
<event>
 5   0  0.1521750E-02  0.6157936E+03  0.7818609E-02  0.9873170E-01
        3   -1    0    0  501    0  0.00000000000E+00  0.00000000000E+00  0.14258509736E+03  0.14258513314E+03  0.10100000352E+00 0. -1.
       -3   -1    0    0    0  501  0.00000000000E+00  0.00000000000E+00 -0.66486917635E+03  0.66486918402E+03  0.10100000352E+00 0.  1.
    10030    2    1    2    0    0  0.00000000000E+00  0.00000000000E+00 -0.52228407898E+03  0.80745431716E+03  0.61579364655E+03 0.  0.
        4    1    3    3  502    0  0.29670112758E+03  0.59017343573E+02 -0.18599707815E+03  0.35512129186E+03  0.12699999809E+01 0. -1.
       -4    1    3    3    0  502 -0.29670112758E+03 -0.59017343573E+02 -0.33628700083E+03  0.45233302530E+03  0.12699999809E+01 0.  1.
</event>
<event>
 5   0  0.2309055E-02  0.6017990E+03  0.7818609E-02  0.9901681E-01
        1   -1    0    0  501    0  0.00000000000E+00  0.00000000000E+00  0.76632717559E+03  0.76632717560E+03  0.50400001928E-02 0. -1.
       -1   -1    0    0    0  501  0.00000000000E+00  0.00000000000E+00 -0.11814863566E+03  0.11814863577E+03  0.50400001928E-02 0.  1.
    10030    2    1    2    0    0  0.00000000000E+00  0.00000000000E+00  0.64817853993E+03  0.88447581137E+03  0.60179900406E+03 0.  0.
        4    1    3    3  502    0 -0.22328926802E+03  0.13136618837E+03  0.54902708581E+03  0.60708115315E+03  0.12699999809E+01 0. -1.
       -4    1    3    3    0  502  0.22328926802E+03 -0.13136618837E+03  0.99151454114E+02  0.27739465822E+03  0.12699999809E+01 0.  1.
</event>
<event>
 5   0  0.2225808E-02  0.6012937E+03  0.7818609E-02  0.9902726E-01
       -1   -1    0    0    0  501  0.00000000000E+00  0.00000000000E+00  0.81883939527E+03  0.81883939529E+03  0.50400001928E-02 0.  1.
        1   -1    0    0  501    0  0.00000000000E+00  0.00000000000E+00 -0.11038613418E+03  0.11038613429E+03  0.50400001928E-02 0. -1.
    10030    2    1    2    0    0  0.00000000000E+00  0.00000000000E+00  0.70845326110E+03  0.92922552959E+03  0.60129365677E+03 0.  0.
        2    1    3    3  502    0  0.89121845743E+02 -0.19587784793E+03  0.67867371667E+03  0.71197531446E+03  0.25500000920E-02 0.  1.
       -2    1    3    3    0  502 -0.89121845743E+02  0.19587784793E+03  0.29779544423E+02  0.21725021512E+03  0.25500000920E-02 0. -1.
</event>
<event>
 5   0  0.3934634E-02  0.5860605E+03  0.7818609E-02  0.9934756E-01
       -2   -1    0    0    0  501  0.00000000000E+00  0.00000000000E+00  0.69099643013E+03  0.69099643013E+03  0.25500000920E-02 0.  1.
        2   -1    0    0  501    0  0.00000000000E+00  0.00000000000E+00 -0.12426508625E+03  0.12426508628E+03  0.25500000920E-02 0. -1.
    10030    2    1    2    0    0  0.00000000000E+00  0.00000000000E+00  0.56673134388E+03  0.81526151641E+03  0.58606051224E+03 0.  0.
        1    1    3    3  502    0 -0.61262815229E+02 -0.28595010674E+03  0.25748490274E+03  0.38963966846E+03  0.50400001928E-02 0.  1.
       -1    1    3    3    0  502  0.61262815229E+02  0.28595010674E+03  0.30924644114E+03  0.42562184795E+03  0.50400001928E-02 0. -1.
</event>
<event>
 5   0  0.3798925E-02  0.6020160E+03  0.7818609E-02  0.9901232E-01
       -2   -1    0    0    0  501  0.00000000000E+00  0.00000000000E+00  0.77643383253E+02  0.77643383295E+02  0.25500000920E-02 0. -1.
        2   -1    0    0  501    0  0.00000000000E+00  0.00000000000E+00 -0.11669482708E+04  0.11669482708E+04  0.25500000920E-02 0.  1.
    10030    2    1    2    0    0  0.00000000000E+00  0.00000000000E+00 -0.10893048876E+04  0.12445916541E+04  0.60201598602E+03 0.  0.
        2    1    3    3  502    0  0.21244382959E+03 -0.93337052248E+02 -0.94103653482E+03  0.96922337256E+03  0.25500000920E-02 0.  1.
       -2    1    3    3    0  502 -0.21244382959E+03  0.93337052248E+02 -0.14826835274E+03  0.27536828155E+03  0.25500000920E-02 0. -1.
</event>
<event>
 5   0  0.3832191E-02  0.6019560E+03  0.7818609E-02  0.9901356E-01
       -2   -1    0    0    0  501  0.00000000000E+00  0.00000000000E+00  0.21217679227E+03  0.21217679229E+03  0.25500000920E-02 0.  1.
        2   -1    0    0  501    0  0.00000000000E+00  0.00000000000E+00 -0.42694473752E+03  0.42694473753E+03  0.25500000920E-02 0. -1.
    10030    2    1    2    0    0  0.00000000000E+00  0.00000000000E+00 -0.21476794525E+03  0.63912152982E+03  0.60195602794E+03 0.  0.
        3    1    3    3  502    0 -0.62637098603E+02  0.34658401205E+02 -0.41777425222E+03  0.42386312285E+03  0.10100000352E+00 0. -1.
       -3    1    3    3    0  502  0.62637098603E+02 -0.34658401205E+02  0.20300630698E+03  0.21525840696E+03  0.10100000352E+00 0.  1.
</event>
<event>
 5   0  0.3737642E-02  0.5975119E+03  0.7818609E-02  0.9910582E-01
        2   -1    0    0  501    0  0.00000000000E+00  0.00000000000E+00  0.32796118608E+03  0.32796118609E+03  0.25500000920E-02 0.  1.
       -2   -1    0    0    0  501  0.00000000000E+00  0.00000000000E+00 -0.27215144527E+03  0.27215144528E+03  0.25500000920E-02 0. -1.
    10030    2    1    2    0    0  0.00000000000E+00  0.00000000000E+00  0.55809740820E+02  0.60011263137E+03  0.59751187700E+03 0.  0.
        5    1    3    3  502    0 -0.15757273633E+02 -0.41651435465E+02  0.32457147590E+03  0.32764594719E+03  0.46999998093E+01 0.  1.
       -5    1    3    3    0  502  0.15757273633E+02  0.41651435465E+02 -0.26876173508E+03  0.27246668418E+03  0.46999998093E+01 0. -1.
</event>
<event>
 5   0  0.1521750E-02  0.5939562E+03  0.7818609E-02  0.9918025E-01
        3   -1    0    0  501    0  0.00000000000E+00  0.00000000000E+00  0.31542398490E+03  0.31542400107E+03  0.10100000352E+00 0.  1.
       -3   -1    0    0    0  501  0.00000000000E+00  0.00000000000E+00 -0.27961093330E+03  0.27961095154E+03  0.10100000352E+00 0. -1.
    10030    2    1    2    0    0  0.00000000000E+00  0.00000000000E+00  0.35813051598E+02  0.59503495262E+03  0.59395624432E+03 0.  0.
        1    1    3    3  502    0 -0.14192515340E+02  0.18290703935E+02  0.31451860032E+03  0.31536950917E+03  0.50400001928E-02 0.  1.
       -1    1    3    3    0  502  0.14192515340E+02 -0.18290703935E+02 -0.27870554872E+03  0.27966544344E+03  0.50400001928E-02 0. -1.
</event>
<event>
 5   0  0.2295179E-02  0.5972218E+03  0.7818609E-02  0.9911187E-01
       -1   -1    0    0    0  501  0.00000000000E+00  0.00000000000E+00  0.72564384769E+02  0.72564384944E+02  0.50400001928E-02 0.  1.
        1   -1    0    0  501    0  0.00000000000E+00  0.00000000000E+00 -0.12288185562E+04  0.12288185562E+04  0.50400001928E-02 0. -1.
    10030    2    1    2    0    0  0.00000000000E+00  0.00000000000E+00 -0.11562541714E+04  0.13013829411E+04  0.59722177670E+03 0.  0.
        3    1    3    3  502    0  0.25275808878E+03 -0.12934717721E+03 -0.37662446949E+03  0.47166020069E+03  0.10100000352E+00 0. -1.
       -3    1    3    3    0  502 -0.25275808878E+03  0.12934717721E+03 -0.77962970192E+03  0.82972274044E+03  0.10100000352E+00 0.  1.
</event>
<event>
 5   0  0.2225808E-02  0.5991181E+03  0.7818609E-02  0.9907237E-01
        1   -1    0    0  501    0  0.00000000000E+00  0.00000000000E+00  0.12204036764E+03  0.12204036774E+03  0.50400001928E-02 0.  1.
       -1   -1    0    0    0  501  0.00000000000E+00  0.00000000000E+00 -0.73529469745E+03  0.73529469747E+03  0.50400001928E-02 0. -1.
    10030    2    1    2    0    0  0.00000000000E+00  0.00000000000E+00 -0.61325432981E+03  0.85733506521E+03  0.59911813610E+03 0.  0.
        2    1    3    3  502    0 -0.16265690802E+03 -0.24181375466E+03 -0.40581559691E+03  0.49961731392E+03  0.25500000920E-02 0. -1.
       -2    1    3    3    0  502  0.16265690802E+03  0.24181375466E+03 -0.20743873291E+03  0.35771775129E+03  0.25500000920E-02 0.  1.
</event>
<event>
 5   0  0.2295179E-02  0.6036564E+03  0.7818609E-02  0.9897849E-01
       -1   -1    0    0    0  501  0.00000000000E+00  0.00000000000E+00  0.24136575964E+03  0.24136575969E+03  0.50400001928E-02 0. -1.
        1   -1    0    0  501    0  0.00000000000E+00  0.00000000000E+00 -0.37743652081E+03  0.37743652085E+03  0.50400001928E-02 0.  1.
    10030    2    1    2    0    0  0.00000000000E+00  0.00000000000E+00 -0.13607076117E+03  0.61880228054E+03  0.60365636778E+03 0.  0.
        3    1    3    3  502    0  0.49034502632E+02  0.15066291553E+03  0.19530819151E+03  0.25149353160E+03  0.10100000352E+00 0. -1.
       -3    1    3    3    0  502 -0.49034502632E+02 -0.15066291553E+03 -0.33137895268E+03  0.36730874894E+03  0.10100000352E+00 0.  1.
</event>
<event>
 5   0  0.3798925E-02  0.5970186E+03  0.7818609E-02  0.9911611E-01
       -2   -1    0    0    0  501  0.00000000000E+00  0.00000000000E+00  0.75886246426E+02  0.75886246469E+02  0.25500000920E-02 0. -1.
        2   -1    0    0  501    0  0.00000000000E+00  0.00000000000E+00 -0.11742287399E+04  0.11742287399E+04  0.25500000920E-02 0.  1.
    10030    2    1    2    0    0  0.00000000000E+00  0.00000000000E+00 -0.10983424934E+04  0.12501149863E+04  0.59701863134E+03 0.  0.
        2    1    3    3  502    0 -0.21589856697E+03  0.16039382109E+03 -0.82032860176E+03  0.86329449433E+03  0.25500000920E-02 0.  1.
       -2    1    3    3    0  502  0.21589856697E+03 -0.16039382109E+03 -0.27801389168E+03  0.38682049201E+03  0.25500000920E-02 0. -1.
</event>
<event>
 5   0  0.3934634E-02  0.5841907E+03  0.7818609E-02  0.9938759E-01
        2   -1    0    0  501    0  0.00000000000E+00  0.00000000000E+00  0.82058915408E+03  0.82058915409E+03  0.25500000920E-02 0. -1.
       -2   -1    0    0    0  501  0.00000000000E+00  0.00000000000E+00 -0.10397372115E+03  0.10397372118E+03  0.25500000920E-02 0.  1.
    10030    2    1    2    0    0  0.00000000000E+00  0.00000000000E+00  0.71661543294E+03  0.92456287527E+03  0.58419074932E+03 0.  0.
        1    1    3    3  502    0 -0.23067187323E+02 -0.28949545920E+03  0.40785193772E+03  0.50068245341E+03  0.50400001928E-02 0.  1.
       -1    1    3    3    0  502  0.23067187323E+02  0.28949545920E+03  0.30876349522E+03  0.42388042186E+03  0.50400001928E-02 0. -1.
</event>
<event>
 5   0  0.3934634E-02  0.6012724E+03  0.7818609E-02  0.9902770E-01
       -2   -1    0    0    0  501  0.00000000000E+00  0.00000000000E+00  0.11093927693E+03  0.11093927696E+03  0.25500000920E-02 0.  1.
        2   -1    0    0  501    0  0.00000000000E+00  0.00000000000E+00 -0.81469895611E+03  0.81469895612E+03  0.25500000920E-02 0. -1.
    10030    2    1    2    0    0  0.00000000000E+00  0.00000000000E+00 -0.70375967918E+03  0.92563823308E+03  0.60127236133E+03 0.  0.
        1    1    3    3  502    0 -0.22453164691E+03 -0.17700988187E+02 -0.45319944399E+02  0.22974264478E+03  0.50400001928E-02 0.  1.
       -1    1    3    3    0  502  0.22453164691E+03  0.17700988187E+02 -0.65843973478E+03  0.69589558830E+03  0.50400001928E-02 0. -1.
</event>
<event>
 5   0  0.3832191E-02  0.6009910E+03  0.7818609E-02  0.9903352E-01
        2   -1    0    0  501    0  0.00000000000E+00  0.00000000000E+00  0.36796097873E+03  0.36796097873E+03  0.25500000920E-02 0.  1.
       -2   -1    0    0    0  501  0.00000000000E+00  0.00000000000E+00 -0.24539980229E+03  0.24539980230E+03  0.25500000920E-02 0. -1.
    10030    2    1    2    0    0  0.00000000000E+00  0.00000000000E+00  0.12256117643E+03  0.61336078104E+03  0.60099101969E+03 0.  0.
        3    1    3    3  502    0 -0.10580598647E+03  0.17822879987E+03  0.28332966892E+03  0.35105002972E+03  0.10100000352E+00 0.  1.
       -3    1    3    3    0  502  0.10580598647E+03 -0.17822879987E+03 -0.16076849249E+03  0.26231075131E+03  0.10100000352E+00 0. -1.
</event>
<event>
 5   0  0.2309055E-02  0.6005645E+03  0.7818609E-02  0.9904236E-01
        1   -1    0    0  501    0  0.00000000000E+00  0.00000000000E+00  0.76864033551E+03  0.76864033553E+03  0.50400001928E-02 0.  1.
       -1   -1    0    0    0  501  0.00000000000E+00  0.00000000000E+00 -0.11731030763E+03  0.11731030774E+03  0.50400001928E-02 0. -1.
    10030    2    1    2    0    0  0.00000000000E+00  0.00000000000E+00  0.65133002788E+03  0.88595064327E+03  0.60056451534E+03 0.  0.
        4    1    3    3  502    0  0.19093392132E+03  0.20666721918E+03  0.17094004409E+03  0.32922517122E+03  0.12699999809E+01 0. -1.
       -4    1    3    3    0  502 -0.19093392132E+03 -0.20666721918E+03  0.48038998380E+03  0.55672547205E+03  0.12699999809E+01 0.  1.
</event>
<event>
 5   0  0.3832191E-02  0.6014446E+03  0.7818609E-02  0.9902413E-01
       -2   -1    0    0    0  501  0.00000000000E+00  0.00000000000E+00  0.11110575601E+03  0.11110575604E+03  0.25500000920E-02 0. -1.
        2   -1    0    0  501    0  0.00000000000E+00  0.00000000000E+00 -0.81394440470E+03  0.81394440471E+03  0.25500000920E-02 0.  1.
    10030    2    1    2    0    0  0.00000000000E+00  0.00000000000E+00 -0.70283864870E+03  0.92505016074E+03  0.60144462238E+03 0.  0.
        3    1    3    3  502    0  0.17343922238E+03 -0.21078479198E+02 -0.72787479578E+03  0.74855006157E+03  0.10100000352E+00 0.  1.
       -3    1    3    3    0  502 -0.17343922238E+03  0.21078479198E+02  0.25036147086E+02  0.17650009917E+03  0.10100000352E+00 0. -1.
</event>
<event>
 5   0  0.2225808E-02  0.6027296E+03  0.7818609E-02  0.9899759E-01
       -1   -1    0    0    0  501  0.00000000000E+00  0.00000000000E+00  0.15132923352E+03  0.15132923360E+03  0.50400001928E-02 0. -1.
        1   -1    0    0  501    0  0.00000000000E+00  0.00000000000E+00 -0.60015340584E+03  0.60015340586E+03  0.50400001928E-02 0.  1.
    10030    2    1    2    0    0  0.00000000000E+00  0.00000000000E+00 -0.44882417232E+03  0.75148263946E+03  0.60272964068E+03 0.  0.
        2    1    3    3  502    0  0.26125460630E+03  0.14230774491E+03 -0.28440489942E+03  0.41157212052E+03  0.25500000920E-02 0.  1.
       -2    1    3    3    0  502 -0.26125460630E+03 -0.14230774491E+03 -0.16441927291E+03  0.33991051894E+03  0.25500000920E-02 0. -1.
</event>
<event>
 5   0  0.3737642E-02  0.6208827E+03  0.7818609E-02  0.9863004E-01
        2   -1    0    0  501    0  0.00000000000E+00  0.00000000000E+00  0.65952533564E+03  0.65952533565E+03  0.25500000920E-02 0. -1.
       -2   -1    0    0    0  501  0.00000000000E+00  0.00000000000E+00 -0.14612602954E+03  0.14612602956E+03  0.25500000920E-02 0.  1.
    10030    2    1    2    0    0  0.00000000000E+00  0.00000000000E+00  0.51339930611E+03  0.80565136521E+03  0.62088265779E+03 0.  0.
        5    1    3    3  502    0 -0.87776688019E+02  0.28067152934E+03  0.38561559609E+03  0.48497704306E+03  0.46999998093E+01 0. -1.
       -5    1    3    3    0  502  0.87776688019E+02 -0.28067152934E+03  0.12778371002E+03  0.32067432215E+03  0.46999998093E+01 0.  1.
</event>
<event>
 5   0  0.3832191E-02  0.6005210E+03  0.7818609E-02  0.9904326E-01
        2   -1    0    0  501    0  0.00000000000E+00  0.00000000000E+00  0.10115481019E+03  0.10115481022E+03  0.25500000920E-02 0. -1.
       -2   -1    0    0    0  501  0.00000000000E+00  0.00000000000E+00 -0.89127117005E+03  0.89127117006E+03  0.25500000920E-02 0.  1.
    10030    2    1    2    0    0  0.00000000000E+00  0.00000000000E+00 -0.79011635986E+03  0.99242598028E+03  0.60052099398E+03 0.  0.
        3    1    3    3  502    0 -0.18268913465E+03  0.16413136526E+03 -0.10957311697E+03  0.26892508835E+03  0.10100000352E+00 0. -1.
       -3    1    3    3    0  502  0.18268913465E+03 -0.16413136526E+03 -0.68054324290E+03  0.72350089194E+03  0.10100000352E+00 0.  1.
</event>
<event>
 5   0  0.2225808E-02  0.6214557E+03  0.7818609E-02  0.9861866E-01
       -1   -1    0    0    0  501  0.00000000000E+00  0.00000000000E+00  0.13527218909E+03  0.13527218919E+03  0.50400001928E-02 0.  1.
        1   -1    0    0  501    0  0.00000000000E+00  0.00000000000E+00 -0.71375934828E+03  0.71375934830E+03  0.50400001928E-02 0. -1.
    10030    2    1    2    0    0  0.00000000000E+00  0.00000000000E+00 -0.57848715919E+03  0.84903153749E+03  0.62145567686E+03 0.  0.
        2    1    3    3  502    0  0.26458282099E+02  0.35997948385E+02 -0.70934869666E+03  0.71075415331E+03  0.25500000920E-02 0. -1.
       -2    1    3    3    0  502 -0.26458282099E+02 -0.35997948385E+02  0.13086153747E+03  0.13827738418E+03  0.25500000920E-02 0.  1.
</event>
<event>
 5   0  0.2225808E-02  0.5974420E+03  0.7818609E-02  0.9910727E-01
       -1   -1    0    0    0  501  0.00000000000E+00  0.00000000000E+00  0.56894491260E+02  0.56894491483E+02  0.50400001928E-02 0. -1.
        1   -1    0    0  501    0  0.00000000000E+00  0.00000000000E+00 -0.15684162648E+04  0.15684162648E+04  0.50400001928E-02 0.  1.
    10030    2    1    2    0    0  0.00000000000E+00  0.00000000000E+00 -0.15115217735E+04  0.16253107563E+04  0.59744203285E+03 0.  0.
        2    1    3    3  502    0  0.73499290263E+01  0.18544060360E+03 -0.13925552915E+04  0.14048674239E+04  0.25500000920E-02 0.  1.
       -2    1    3    3    0  502 -0.73499290263E+01 -0.18544060360E+03 -0.11896648200E+03  0.22044333232E+03  0.25500000920E-02 0. -1.
</event>
<event>
 5   0  0.1521750E-02  0.5937040E+03  0.7818609E-02  0.9918555E-01
        3   -1    0    0  501    0  0.00000000000E+00  0.00000000000E+00  0.12828671859E+03  0.12828675835E+03  0.10100000352E+00 0. -1.
       -3   -1    0    0    0  501  0.00000000000E+00  0.00000000000E+00 -0.68690744744E+03  0.68690745487E+03  0.10100000352E+00 0.  1.
    10030    2    1    2    0    0  0.00000000000E+00  0.00000000000E+00 -0.55862072885E+03  0.81519421322E+03  0.59370403954E+03 0.  0.
        1    1    3    3  502    0  0.19380542615E+03  0.33758741100E+02  0.25933204479E+02  0.19842562064E+03  0.50400001928E-02 0. -1.
       -1    1    3    3    0  502 -0.19380542615E+03 -0.33758741100E+02 -0.58455393333E+03  0.61676859259E+03  0.50400001928E-02 0.  1.
</event>
<event>
 5   0  0.2382531E-02  0.5949479E+03  0.7818609E-02  0.9915943E-01
        1   -1    0    0  501    0  0.00000000000E+00  0.00000000000E+00  0.15387839905E+03  0.15387839914E+03  0.50400001928E-02 0.  1.
       -1   -1    0    0    0  501  0.00000000000E+00  0.00000000000E+00 -0.57506941408E+03  0.57506941410E+03  0.50400001928E-02 0. -1.
    10030    2    1    2    0    0  0.00000000000E+00  0.00000000000E+00 -0.42119101503E+03  0.72894781324E+03  0.59494793326E+03 0.  0.
        5    1    3    3  502    0  0.13315718417E+02  0.16916233146E+02 -0.57406808699E+03  0.57449084049E+03  0.46999998093E+01 0. -1.
       -5    1    3    3    0  502 -0.13315718417E+02 -0.16916233146E+02  0.15287707197E+03  0.15445697275E+03  0.46999998093E+01 0.  1.
</event>
<event>
 5   0  0.3798925E-02  0.5976305E+03  0.7818609E-02  0.9910334E-01
        2   -1    0    0  501    0  0.00000000000E+00  0.00000000000E+00  0.12399857884E+04  0.12399857884E+04  0.25500000920E-02 0.  1.
       -2   -1    0    0    0  501  0.00000000000E+00  0.00000000000E+00 -0.72009331831E+02  0.72009331876E+02  0.25500000920E-02 0. -1.
    10030    2    1    2    0    0  0.00000000000E+00  0.00000000000E+00  0.11679764566E+04  0.13119951203E+04  0.59763048160E+03 0.  0.
        2    1    3    3  502    0 -0.13999101553E+03  0.41119318854E+02  0.11564693499E+04  0.11656370104E+04  0.25500000920E-02 0.  1.
       -2    1    3    3    0  502  0.13999101553E+03 -0.41119318854E+02  0.11507106685E+02  0.14635810987E+03  0.25500000920E-02 0. -1.
</event>
<event>
 5   0  0.3798925E-02  0.5951029E+03  0.7818609E-02  0.9915618E-01
       -2   -1    0    0    0  501  0.00000000000E+00  0.00000000000E+00  0.15677771359E+03  0.15677771361E+03  0.25500000920E-02 0. -1.
        2   -1    0    0  501    0  0.00000000000E+00  0.00000000000E+00 -0.56472864968E+03  0.56472864969E+03  0.25500000920E-02 0.  1.
    10030    2    1    2    0    0  0.00000000000E+00  0.00000000000E+00 -0.40795093609E+03  0.72150636330E+03  0.59510290373E+03 0.  0.
        2    1    3    3  502    0  0.38808005181E+02  0.38723208328E+02  0.15060162849E+03  0.16026976833E+03  0.25500000920E-02 0. -1.
       -2    1    3    3    0  502 -0.38808005181E+02 -0.38723208328E+02 -0.55855256458E+03  0.56123659497E+03  0.25500000920E-02 0.  1.
</event>
<event>
 5   0  0.2295179E-02  0.6021025E+03  0.7818609E-02  0.9901054E-01
       -1   -1    0    0    0  501  0.00000000000E+00  0.00000000000E+00  0.32452559039E+03  0.32452559043E+03  0.50400001928E-02 0. -1.
        1   -1    0    0  501    0  0.00000000000E+00  0.00000000000E+00 -0.27927489772E+03  0.27927489776E+03  0.50400001928E-02 0.  1.
    10030    2    1    2    0    0  0.00000000000E+00  0.00000000000E+00  0.45250692671E+02  0.60380048819E+03  0.60210248659E+03 0.  0.
        3    1    3    3  502    0 -0.27736313120E+03  0.42367240977E+02  0.13205021436E+03  0.31010088515E+03  0.10100000352E+00 0. -1.
       -3    1    3    3    0  502  0.27736313120E+03 -0.42367240977E+02 -0.86799521691E+02  0.29369960304E+03  0.10100000352E+00 0.  1.
</event>
<event>
 5   0  0.3724066E-02  0.6039050E+03  0.7818609E-02  0.9897337E-01
       -2   -1    0    0    0  501  0.00000000000E+00  0.00000000000E+00  0.11890748899E+03  0.11890748902E+03  0.25500000920E-02 0.  1.
        2   -1    0    0  501    0  0.00000000000E+00  0.00000000000E+00 -0.76677513952E+03  0.76677513952E+03  0.25500000920E-02 0. -1.
    10030    2    1    2    0    0  0.00000000000E+00  0.00000000000E+00 -0.64786765052E+03  0.88568262854E+03  0.60390498085E+03 0.  0.
        4    1    3    3  502    0  0.43998295112E+02  0.72775842030E+02  0.10097713224E+03  0.13202335889E+03  0.12699999809E+01 0.  1.
       -4    1    3    3    0  502 -0.43998295112E+02 -0.72775842030E+02 -0.74884478277E+03  0.75365926965E+03  0.12699999809E+01 0. -1.
</event>
<event>
 5   0  0.2276105E-02  0.6032789E+03  0.7818609E-02  0.9898627E-01
       -1   -1    0    0    0  501  0.00000000000E+00  0.00000000000E+00  0.85841453661E+03  0.85841453662E+03  0.50400001928E-02 0.  1.
        1   -1    0    0  501    0  0.00000000000E+00  0.00000000000E+00 -0.10599351135E+03  0.10599351147E+03  0.50400001928E-02 0. -1.
    10030    2    1    2    0    0  0.00000000000E+00  0.00000000000E+00  0.75242102525E+03  0.96440804809E+03  0.60327894375E+03 0.  0.
        1    1    3    3  502    0 -0.24376652616E+03 -0.10709157616E+03  0.14959290811E+03  0.30539935026E+03  0.50400001928E-02 0. -1.
       -1    1    3    3    0  502  0.24376652616E+03  0.10709157616E+03  0.60282811715E+03  0.65900869783E+03  0.50400001928E-02 0.  1.
</event>
<event>
 5   0  0.3798925E-02  0.6072711E+03  0.7818609E-02  0.9890435E-01
        2   -1    0    0  501    0  0.00000000000E+00  0.00000000000E+00  0.16299794484E+04  0.16299794485E+04  0.25500000920E-02 0.  1.
       -2   -1    0    0    0  501  0.00000000000E+00  0.00000000000E+00 -0.56561780204E+02  0.56561780261E+02  0.25500000920E-02 0. -1.
    10030    2    1    2    0    0  0.00000000000E+00  0.00000000000E+00  0.15734176682E+04  0.16865412287E+04  0.60727107407E+03 0.  0.
        2    1    3    3  502    0  0.19250517403E+03  0.23461859552E+03  0.81311633445E+03  0.86790685027E+03  0.25500000920E-02 0. -1.
       -2    1    3    3    0  502 -0.19250517403E+03 -0.23461859552E+03  0.76030133380E+03  0.81863437844E+03  0.25500000920E-02 0.  1.
</event>
<event>
 5   0  0.2295179E-02  0.6157164E+03  0.7818609E-02  0.9873325E-01
       -1   -1    0    0    0  501  0.00000000000E+00  0.00000000000E+00  0.34602087542E+03  0.34602087545E+03  0.50400001928E-02 0. -1.
        1   -1    0    0  501    0  0.00000000000E+00  0.00000000000E+00 -0.27390450924E+03  0.27390450929E+03  0.50400001928E-02 0.  1.
    10030    2    1    2    0    0  0.00000000000E+00  0.00000000000E+00  0.72116366172E+02  0.61992538474E+03  0.61571642205E+03 0.  0.
        3    1    3    3  502    0  0.15784501604E+03 -0.21332671850E+03 -0.12106412851E+03  0.29168454078E+03  0.10100000352E+00 0.  1.
       -3    1    3    3    0  502 -0.15784501604E+03  0.21332671850E+03  0.19318049469E+03  0.32824084396E+03  0.10100000352E+00 0. -1.
</event>
<event>
 5   0  0.1521750E-02  0.5986348E+03  0.7818609E-02  0.9908243E-01
       -3   -1    0    0    0  501  0.00000000000E+00  0.00000000000E+00  0.74589971940E+02  0.74590040320E+02  0.10100000352E+00 0. -1.
        3   -1    0    0  501    0  0.00000000000E+00  0.00000000000E+00 -0.12011111226E+04  0.12011111268E+04  0.10100000352E+00 0.  1.
    10030    2    1    2    0    0  0.00000000000E+00  0.00000000000E+00 -0.11265211506E+04  0.12757011671E+04  0.59863475093E+03 0.  0.
        1    1    3    3  502    0 -0.65594221103E+02 -0.14325059167E+03 -0.11055932714E+04  0.11167630974E+04  0.50400001928E-02 0.  1.
       -1    1    3    3    0  502  0.65594221103E+02  0.14325059167E+03 -0.20927879187E+02  0.15893806973E+03  0.50400001928E-02 0. -1.
</event>
<event>
 5   0  0.3934634E-02  0.6005566E+03  0.7818609E-02  0.9904252E-01
       -2   -1    0    0    0  501  0.00000000000E+00  0.00000000000E+00  0.23864479826E+03  0.23864479828E+03  0.25500000920E-02 0.  1.
        2   -1    0    0  501    0  0.00000000000E+00  0.00000000000E+00 -0.37782953480E+03  0.37782953481E+03  0.25500000920E-02 0. -1.
    10030    2    1    2    0    0  0.00000000000E+00  0.00000000000E+00 -0.13918473653E+03  0.61647433308E+03  0.60055658557E+03 0.  0.
        1    1    3    3  502    0  0.43248547109E+02 -0.14689779176E+03  0.19555141725E+03  0.24837422343E+03  0.50400001928E-02 0.  1.
       -1    1    3    3    0  502 -0.43248547109E+02  0.14689779176E+03 -0.33473615378E+03  0.36810010965E+03  0.50400001928E-02 0. -1.
</event>
<event>
 5   0  0.1521750E-02  0.5981298E+03  0.7818609E-02  0.9909294E-01
        4   -1    0    0  501    0  0.00000000000E+00  0.00000000000E+00  0.22378850041E+03  0.22379210400E+03  0.12699999809E+01 0. -1.
       -4   -1    0    0    0  501  0.00000000000E+00  0.00000000000E+00 -0.39965437350E+03  0.39965639137E+03  0.12699999809E+01 0.  1.
    10030    2    1    2    0    0  0.00000000000E+00  0.00000000000E+00 -0.17586587310E+03  0.62344849537E+03  0.59812976941E+03 0.  0.
        2    1    3    3  502    0  0.22268084669E+03 -0.78154453813E+02  0.10354088721E+03  0.25771222995E+03  0.25500000920E-02 0. -1.
       -2    1    3    3    0  502 -0.22268084669E+03  0.78154453813E+02 -0.27940676030E+03  0.36573626542E+03  0.25500000920E-02 0.  1.
</event>
<event>
 5   0  0.2276105E-02  0.5759209E+03  0.7818609E-02  0.9956662E-01
        1   -1    0    0  501    0  0.00000000000E+00  0.00000000000E+00  0.11920255580E+04  0.11920255580E+04  0.50400001928E-02 0.  1.
       -1   -1    0    0    0  501  0.00000000000E+00  0.00000000000E+00 -0.69563284747E+02  0.69563284930E+02  0.50400001928E-02 0. -1.
    10030    2    1    2    0    0  0.00000000000E+00  0.00000000000E+00  0.11224622733E+04  0.12615888430E+04  0.57592087457E+03 0.  0.
        1    1    3    3  502    0  0.15869077126E+03  0.76307074251E+02  0.10603503697E+04  0.10748713584E+04  0.50400001928E-02 0.  1.
       -1    1    3    3    0  502 -0.15869077126E+03 -0.76307074251E+02  0.62111903566E+02  0.18671748460E+03  0.50400001928E-02 0. -1.
</event>
<event>
 5   0  0.2225808E-02  0.6003220E+03  0.7818609E-02  0.9904738E-01
       -1   -1    0    0    0  501  0.00000000000E+00  0.00000000000E+00  0.35689773742E+03  0.35689773745E+03  0.50400001928E-02 0. -1.
        1   -1    0    0  501    0  0.00000000000E+00  0.00000000000E+00 -0.25244385372E+03  0.25244385377E+03  0.50400001928E-02 0.  1.
    10030    2    1    2    0    0  0.00000000000E+00  0.00000000000E+00  0.10445388370E+03  0.60934159122E+03  0.60032204772E+03 0.  0.
        2    1    3    3  502    0 -0.11689569649E+03 -0.15287130793E+03 -0.18158676731E+03  0.26459023926E+03  0.25500000920E-02 0.  1.
       -2    1    3    3    0  502  0.11689569649E+03  0.15287130793E+03  0.28604065101E+03  0.34475135196E+03  0.25500000920E-02 0. -1.
</event>
<event>
 5   0  0.2309055E-02  0.5997277E+03  0.7818609E-02  0.9905971E-01
       -1   -1    0    0    0  501  0.00000000000E+00  0.00000000000E+00  0.64893118995E+02  0.64893119191E+02  0.50400001928E-02 0.  1.
        1   -1    0    0  501    0  0.00000000000E+00  0.00000000000E+00 -0.13856374840E+04  0.13856374840E+04  0.50400001928E-02 0. -1.
    10030    2    1    2    0    0  0.00000000000E+00  0.00000000000E+00 -0.13207443650E+04  0.14505306032E+04  0.59972773251E+03 0.  0.
        4    1    3    3  502    0  0.98850048752E+02 -0.20672292262E+03 -0.11281854952E+04  0.11512210142E+04  0.12699999809E+01 0. -1.
       -4    1    3    3    0  502 -0.98850048752E+02  0.20672292262E+03 -0.19255886980E+03  0.29930958908E+03  0.12699999809E+01 0.  1.
</event>
<event>
 5   0  0.3798925E-02  0.5792503E+03  0.7818609E-02  0.9949415E-01
       -2   -1    0    0    0  501  0.00000000000E+00  0.00000000000E+00  0.98862990554E+02  0.98862990587E+02  0.25500000920E-02 0.  1.
        2   -1    0    0  501    0  0.00000000000E+00  0.00000000000E+00 -0.84847447496E+03  0.84847447496E+03  0.25500000920E-02 0. -1.
    10030    2    1    2    0    0  0.00000000000E+00  0.00000000000E+00 -0.74961148441E+03  0.94733746555E+03  0.57925028794E+03 0.  0.
        2    1    3    3  502    0  0.18665856900E+03  0.49052693546E+02 -0.21626574987E+02  0.19420426586E+03  0.25500000920E-02 0.  1.
       -2    1    3    3    0  502 -0.18665856900E+03 -0.49052693546E+02 -0.72798490942E+03  0.75313319969E+03  0.25500000920E-02 0. -1.
</event>
<event>
 5   0  0.3798925E-02  0.6008939E+03  0.7818609E-02  0.9903553E-01
       -2   -1    0    0    0  501  0.00000000000E+00  0.00000000000E+00  0.73622066638E+03  0.73622066638E+03  0.25500000920E-02 0. -1.
        2   -1    0    0  501    0  0.00000000000E+00  0.00000000000E+00 -0.12261048658E+03  0.12261048660E+03  0.25500000920E-02 0.  1.
    10030    2    1    2    0    0  0.00000000000E+00  0.00000000000E+00  0.61361017980E+03  0.85883115299E+03  0.60089391458E+03 0.  0.
        2    1    3    3  502    0  0.22717627734E+03 -0.11286426558E+03  0.53691515451E+03  0.59382260531E+03  0.25500000920E-02 0. -1.
       -2    1    3    3    0  502 -0.22717627734E+03  0.11286426558E+03  0.76695025298E+02  0.26500854768E+03  0.25500000920E-02 0.  1.
</event>
<event>
 5   0  0.3724066E-02  0.6070871E+03  0.7818609E-02  0.9890811E-01
        2   -1    0    0  501    0  0.00000000000E+00  0.00000000000E+00  0.20558320951E+03  0.20558320953E+03  0.25500000920E-02 0. -1.
       -2   -1    0    0    0  501  0.00000000000E+00  0.00000000000E+00 -0.44818192196E+03  0.44818192196E+03  0.25500000920E-02 0.  1.
    10030    2    1    2    0    0  0.00000000000E+00  0.00000000000E+00 -0.24259871245E+03  0.65376513149E+03  0.60708707108E+03 0.  0.
        4    1    3    3  502    0  0.14212547011E+03 -0.11132086184E+03 -0.38408020858E+03  0.42439510253E+03  0.12699999809E+01 0.  1.
       -4    1    3    3    0  502 -0.14212547011E+03  0.11132086184E+03  0.14148149613E+03  0.22937002895E+03  0.12699999809E+01 0. -1.
</event>
<event>
 5   0  0.1521750E-02  0.6062135E+03  0.7818609E-02  0.9892598E-01
       -3   -1    0    0    0  501  0.00000000000E+00  0.00000000000E+00  0.29950812066E+03  0.29950813769E+03  0.10100000352E+00 0.  1.
        3   -1    0    0  501    0  0.00000000000E+00  0.00000000000E+00 -0.30674855707E+03  0.30674857370E+03  0.10100000352E+00 0. -1.
    10030    2    1    2    0    0  0.00000000000E+00  0.00000000000E+00 -0.72404364136E+01  0.60625671139E+03  0.60621347410E+03 0.  0.
        3    1    3    3  502    0  0.14274835329E+03  0.89263159207E+02 -0.25568715850E+03  0.30613875479E+03  0.10100000352E+00 0. -1.
       -3    1    3    3    0  502 -0.14274835329E+03 -0.89263159207E+02  0.24844672209E+03  0.30011795660E+03  0.10100000352E+00 0.  1.
</event>
<event>
 5   0  0.3737642E-02  0.5995638E+03  0.7818609E-02  0.9906311E-01
       -2   -1    0    0    0  501  0.00000000000E+00  0.00000000000E+00  0.25596092379E+03  0.25596092380E+03  0.25500000920E-02 0. -1.
        2   -1    0    0  501    0  0.00000000000E+00  0.00000000000E+00 -0.35110515538E+03  0.35110515539E+03  0.25500000920E-02 0.  1.
    10030    2    1    2    0    0  0.00000000000E+00  0.00000000000E+00 -0.95144231590E+02  0.60706607919E+03  0.59956384122E+03 0.  0.
        5    1    3    3  502    0  0.63441966171E+01  0.23960250475E+03  0.13467316368E+03  0.27497010770E+03  0.46999998093E+01 0. -1.
       -5    1    3    3    0  502 -0.63441966171E+01 -0.23960250475E+03 -0.22981739527E+03  0.33209597149E+03  0.46999998093E+01 0.  1.
</event>
<event>
 5   0  0.3798925E-02  0.5920129E+03  0.7818609E-02  0.9922117E-01
        2   -1    0    0  501    0  0.00000000000E+00  0.00000000000E+00  0.12442869641E+04  0.12442869641E+04  0.25500000920E-02 0.  1.
       -2   -1    0    0    0  501  0.00000000000E+00  0.00000000000E+00 -0.70417690953E+02  0.70417690999E+02  0.25500000920E-02 0. -1.
    10030    2    1    2    0    0  0.00000000000E+00  0.00000000000E+00  0.11738692732E+04  0.13147046551E+04  0.59201288813E+03 0.  0.
        2    1    3    3  502    0 -0.10253607633E+03 -0.25633042213E+03  0.82405359427E+03  0.86907034151E+03  0.25500000920E-02 0. -1.
       -2    1    3    3    0  502  0.10253607633E+03  0.25633042213E+03  0.34981567890E+03  0.44563431361E+03  0.25500000920E-02 0.  1.
</event>
<event>
 5   0  0.3934634E-02  0.5973166E+03  0.7818609E-02  0.9910989E-01
        2   -1    0    0  501    0  0.00000000000E+00  0.00000000000E+00  0.75526690660E+03  0.75526690660E+03  0.25500000920E-02 0. -1.
       -2   -1    0    0    0  501  0.00000000000E+00  0.00000000000E+00 -0.11809968531E+03  0.11809968534E+03  0.25500000920E-02 0.  1.
    10030    2    1    2    0    0  0.00000000000E+00  0.00000000000E+00  0.63716722129E+03  0.87336659194E+03  0.59731661289E+03 0.  0.
        1    1    3    3  502    0 -0.22777082994E+03  0.14327775376E+03  0.50803629031E+03  0.57489906765E+03  0.50400001928E-02 0. -1.
       -1    1    3    3    0  502  0.22777082994E+03 -0.14327775376E+03  0.12913093098E+03  0.29846752429E+03  0.50400001928E-02 0.  1.
</event>
<event>
 5   0  0.3724066E-02  0.5977904E+03  0.7818609E-02  0.9910001E-01
        2   -1    0    0  501    0  0.00000000000E+00  0.00000000000E+00  0.89957400384E+03  0.89957400385E+03  0.25500000920E-02 0.  1.
       -2   -1    0    0    0  501  0.00000000000E+00  0.00000000000E+00 -0.99311817057E+02  0.99311817090E+02  0.25500000920E-02 0. -1.
    10030    2    1    2    0    0  0.00000000000E+00  0.00000000000E+00  0.80026218679E+03  0.99888582094E+03  0.59779036097E+03 0.  0.
        4    1    3    3  502    0 -0.16410986285E+03  0.15111187288E+03  0.73252209378E+03  0.76573956146E+03  0.12699999809E+01 0.  1.
       -4    1    3    3    0  502  0.16410986285E+03 -0.15111187288E+03  0.67740093006E+02  0.23314625948E+03  0.12699999809E+01 0. -1.
</event>
<event>
 5   0  0.3724066E-02  0.6049181E+03  0.7818609E-02  0.9895255E-01
       -2   -1    0    0    0  501  0.00000000000E+00  0.00000000000E+00  0.25527274028E+03  0.25527274030E+03  0.25500000920E-02 0. -1.
        2   -1    0    0  501    0  0.00000000000E+00  0.00000000000E+00 -0.35836758448E+03  0.35836758449E+03  0.25500000920E-02 0.  1.
    10030    2    1    2    0    0  0.00000000000E+00  0.00000000000E+00 -0.10309484419E+03  0.61364032478E+03  0.60491809470E+03 0.  0.
        4    1    3    3  502    0  0.94461078465E+02  0.10574878955E+02 -0.34282016317E+03  0.35575553487E+03  0.12699999809E+01 0.  1.
       -4    1    3    3    0  502 -0.94461078465E+02 -0.10574878955E+02  0.23972531898E+03  0.25788478992E+03  0.12699999809E+01 0. -1.
</event>
<event>
 5   0  0.3737642E-02  0.6019939E+03  0.7818609E-02  0.9901278E-01
       -2   -1    0    0    0  501  0.00000000000E+00  0.00000000000E+00  0.11350630771E+03  0.11350630774E+03  0.25500000920E-02 0.  1.
        2   -1    0    0  501    0  0.00000000000E+00  0.00000000000E+00 -0.79818604443E+03  0.79818604444E+03  0.25500000920E-02 0. -1.
    10030    2    1    2    0    0  0.00000000000E+00  0.00000000000E+00 -0.68467973673E+03  0.91169235217E+03  0.60199385639E+03 0.  0.
        5    1    3    3  502    0 -0.40735192799E+02 -0.31716977406E+02 -0.79137434387E+03  0.79307046642E+03  0.46999998093E+01 0. -1.
       -5    1    3    3    0  502  0.40735192799E+02  0.31716977406E+02  0.10669460714E+03  0.11862188575E+03  0.46999998093E+01 0.  1.
</event>
<event>
 5   0  0.2225808E-02  0.5982616E+03  0.7818609E-02  0.9909019E-01
        1   -1    0    0  501    0  0.00000000000E+00  0.00000000000E+00  0.71956270540E+03  0.71956270542E+03  0.50400001928E-02 0.  1.
       -1   -1    0    0    0  501  0.00000000000E+00  0.00000000000E+00 -0.12435222286E+03  0.12435222296E+03  0.50400001928E-02 0. -1.
    10030    2    1    2    0    0  0.00000000000E+00  0.00000000000E+00  0.59521048254E+03  0.84391492838E+03  0.59826155468E+03 0.  0.
        2    1    3    3  502    0  0.45912774145E+02 -0.90777012681E+02 -0.99202630045E+02  0.14209014982E+03  0.25500000920E-02 0. -1.
       -2    1    3    3    0  502 -0.45912774145E+02  0.90777012681E+02  0.69441311259E+03  0.70182477856E+03  0.25500000920E-02 0.  1.
</event>
<event>
 5   0  0.3737642E-02  0.5997608E+03  0.7818609E-02  0.9905903E-01
        2   -1    0    0  501    0  0.00000000000E+00  0.00000000000E+00  0.21051470568E+04  0.21051470568E+04  0.25500000920E-02 0.  1.
       -2   -1    0    0    0  501  0.00000000000E+00  0.00000000000E+00 -0.42718270448E+02  0.42718270524E+02  0.25500000920E-02 0. -1.
    10030    2    1    2    0    0  0.00000000000E+00  0.00000000000E+00  0.20624287864E+04  0.21478653273E+04  0.59976075693E+03 0.  0.
        5    1    3    3  502    0  0.13717622953E+00  0.14623434795E+02 -0.41308453201E+02  0.44072008879E+02  0.46999998093E+01 0. -1.
       -5    1    3    3    0  502 -0.13717622953E+00 -0.14623434795E+02  0.21037372396E+04  0.21037933184E+04  0.46999998093E+01 0.  1.
</event>
<event>
 5   0  0.3832191E-02  0.5956085E+03  0.7818609E-02  0.9914559E-01
       -2   -1    0    0    0  501  0.00000000000E+00  0.00000000000E+00  0.15126816806E+03  0.15126816808E+03  0.25500000920E-02 0.  1.
        2   -1    0    0  501    0  0.00000000000E+00  0.00000000000E+00 -0.58629240581E+03  0.58629240581E+03  0.25500000920E-02 0. -1.
    10030    2    1    2    0    0  0.00000000000E+00  0.00000000000E+00 -0.43502423775E+03  0.73756057389E+03  0.59560852305E+03 0.  0.
        3    1    3    3  502    0 -0.10737647335E+01 -0.12959403515E+03  0.11451676660E+03  0.17294469333E+03  0.10100000352E+00 0.  1.
       -3    1    3    3    0  502  0.10737647335E+01  0.12959403515E+03 -0.54954100435E+03  0.56461588056E+03  0.10100000352E+00 0. -1.
</event>
<event>
 5   0  0.1521750E-02  0.5946523E+03  0.7818609E-02  0.9916563E-01
       -4   -1    0    0    0  501  0.00000000000E+00  0.00000000000E+00  0.92604996690E+03  0.92605083775E+03  0.12699999809E+01 0. -1.
        4   -1    0    0  501    0  0.00000000000E+00  0.00000000000E+00 -0.95457127625E+02  0.95465575546E+02  0.12699999809E+01 0.  1.
    10030    2    1    2    0    0  0.00000000000E+00  0.00000000000E+00  0.83059283928E+03  0.10215164133E+04  0.59465226644E+03 0.  0.
        2    1    3    3  502    0 -0.63575215887E+02 -0.28646167369E+03  0.49769413787E+03  0.57775561741E+03  0.25500000920E-02 0.  1.
       -2    1    3    3    0  502  0.63575215887E+02  0.28646167369E+03  0.33289870141E+03  0.44376079589E+03  0.25500000920E-02 0. -1.
</event>
<event>
 5   0  0.2309055E-02  0.6160908E+03  0.7818609E-02  0.9872574E-01
        1   -1    0    0  501    0  0.00000000000E+00  0.00000000000E+00  0.33695245031E+03  0.33695245034E+03  0.50400001928E-02 0. -1.
       -1   -1    0    0    0  501  0.00000000000E+00  0.00000000000E+00 -0.28161824426E+03  0.28161824430E+03  0.50400001928E-02 0.  1.
    10030    2    1    2    0    0  0.00000000000E+00  0.00000000000E+00  0.55334206051E+02  0.61857069464E+03  0.61609076435E+03 0.  0.
        4    1    3    3  502    0  0.22594198227E+03  0.20256523837E+03  0.80869921940E+02  0.31404460244E+03  0.12699999809E+01 0.  1.
       -4    1    3    3    0  502 -0.22594198227E+03 -0.20256523837E+03 -0.25535715890E+02  0.30452609220E+03  0.12699999809E+01 0. -1.
</event>
<event>
 5   0  0.2382531E-02  0.5994109E+03  0.7818609E-02  0.9906629E-01
        1   -1    0    0  501    0  0.00000000000E+00  0.00000000000E+00  0.67526476005E+03  0.67526476007E+03  0.50400001928E-02 0. -1.
       -1   -1    0    0    0  501  0.00000000000E+00  0.00000000000E+00 -0.13301947053E+03  0.13301947063E+03  0.50400001928E-02 0.  1.
    10030    2    1    2    0    0  0.00000000000E+00  0.00000000000E+00  0.54224528952E+03  0.80828423070E+03  0.59941091381E+03 0.  0.
        5    1    3    3  502    0 -0.14914038881E+03  0.12133593240E+03 -0.38836499841E+02  0.19620302695E+03  0.46999998093E+01 0.  1.
       -5    1    3    3    0  502  0.14914038881E+03 -0.12133593240E+03  0.58108178936E+03  0.61208120375E+03  0.46999998093E+01 0. -1.
</event>
<event>
 5   0  0.2382531E-02  0.6013984E+03  0.7818609E-02  0.9902509E-01
       -1   -1    0    0    0  501  0.00000000000E+00  0.00000000000E+00  0.55066359889E+03  0.55066359891E+03  0.50400001928E-02 0. -1.
        1   -1    0    0  501    0  0.00000000000E+00  0.00000000000E+00 -0.16420191593E+03  0.16420191601E+03  0.50400001928E-02 0.  1.
    10030    2    1    2    0    0  0.00000000000E+00  0.00000000000E+00  0.38646168296E+03  0.71486551492E+03  0.60139843035E+03 0.  0.
        5    1    3    3  502    0  0.69473839588E+02  0.24694232748E+03  0.68297760398E+01  0.25666293719E+03  0.46999998093E+01 0.  1.
       -5    1    3    3    0  502 -0.69473839588E+02 -0.24694232748E+03  0.37963190692E+03  0.45820257773E+03  0.46999998093E+01 0. -1.
</event>
<event>
 5   0  0.1521750E-02  0.5987572E+03  0.7818609E-02  0.9907988E-01
       -3   -1    0    0    0  501  0.00000000000E+00  0.00000000000E+00  0.12055956352E+04  0.12055956394E+04  0.10100000352E+00 0.  1.
        3   -1    0    0  501    0  0.00000000000E+00  0.00000000000E+00 -0.74342929962E+02  0.74342998570E+02  0.10100000352E+00 0. -1.
    10030    2    1    2    0    0  0.00000000000E+00  0.00000000000E+00  0.11312527052E+04  0.12799386380E+04  0.59875724123E+03 0.  0.
        5    1    3    3  502    0 -0.56969152079E+02  0.28941341105E+03  0.67462308884E+03  0.73630429089E+03  0.46999998093E+01 0. -1.
       -5    1    3    3    0  502  0.56969152079E+02 -0.28941341105E+03  0.45662961636E+03  0.54363434707E+03  0.46999998093E+01 0.  1.
</event>
<event>
 5   0  0.1521750E-02  0.5988047E+03  0.7818609E-02  0.9907889E-01
        3   -1    0    0  501    0  0.00000000000E+00  0.00000000000E+00  0.10238159781E+03  0.10238164763E+03  0.10100000352E+00 0. -1.
       -3   -1    0    0    0  501  0.00000000000E+00  0.00000000000E+00 -0.87556498743E+03  0.87556499325E+03  0.10100000352E+00 0.  1.
    10030    2    1    2    0    0  0.00000000000E+00  0.00000000000E+00 -0.77318338962E+03  0.97794664088E+03  0.59880470809E+03 0.  0.
        4    1    3    3  502    0  0.42083276372E+02 -0.26448269415E+03 -0.16797897131E+03  0.31613390416E+03  0.12699999809E+01 0.  1.
       -4    1    3    3    0  502 -0.42083276372E+02  0.26448269415E+03 -0.60520441830E+03  0.66181273672E+03  0.12699999809E+01 0. -1.
</event>
<event>
 5   0  0.3934634E-02  0.5990028E+03  0.7818609E-02  0.9907477E-01
       -2   -1    0    0    0  501  0.00000000000E+00  0.00000000000E+00  0.15285551705E+03  0.15285551707E+03  0.25500000920E-02 0. -1.
        2   -1    0    0  501    0  0.00000000000E+00  0.00000000000E+00 -0.58683585823E+03  0.58683585824E+03  0.25500000920E-02 0.  1.
    10030    2    1    2    0    0  0.00000000000E+00  0.00000000000E+00 -0.43398034119E+03  0.73969137531E+03  0.59900283319E+03 0.  0.
        1    1    3    3  502    0  0.28760282109E+02 -0.12518875430E+03 -0.55109466870E+03  0.56586633751E+03  0.50400001928E-02 0.  1.
       -1    1    3    3    0  502 -0.28760282109E+02  0.12518875430E+03  0.11711432752E+03  0.17382503780E+03  0.50400001928E-02 0. -1.
</event>
<event>
 5   0  0.3934634E-02  0.5971666E+03  0.7818609E-02  0.9911302E-01
       -2   -1    0    0    0  501  0.00000000000E+00  0.00000000000E+00  0.61544760794E+02  0.61544760847E+02  0.25500000920E-02 0.  1.
        2   -1    0    0  501    0  0.00000000000E+00  0.00000000000E+00 -0.14485713838E+04  0.14485713838E+04  0.25500000920E-02 0. -1.
    10030    2    1    2    0    0  0.00000000000E+00  0.00000000000E+00 -0.13870266230E+04  0.15101161447E+04  0.59716657426E+03 0.  0.
        1    1    3    3  502    0 -0.83906279431E+02 -0.15013774554E+03 -0.13107191415E+04  0.13219554736E+04  0.50400001928E-02 0. -1.
       -1    1    3    3    0  502  0.83906279431E+02  0.15013774554E+03 -0.76307481547E+02  0.18816067105E+03  0.50400001928E-02 0.  1.
</event>
<event>
 5   0  0.2309055E-02  0.6030473E+03  0.7818609E-02  0.9899104E-01
        1   -1    0    0  501    0  0.00000000000E+00  0.00000000000E+00  0.25496801148E+03  0.25496801153E+03  0.50400001928E-02 0. -1.
       -1   -1    0    0    0  501  0.00000000000E+00  0.00000000000E+00 -0.35658012015E+03  0.35658012019E+03  0.50400001928E-02 0.  1.
    10030    2    1    2    0    0  0.00000000000E+00  0.00000000000E+00 -0.10161210868E+03  0.61154813172E+03  0.60304734207E+03 0.  0.
        4    1    3    3  502    0  0.94672538539E+02  0.27884118831E+03 -0.11652398726E+03  0.31669346434E+03  0.12699999809E+01 0.  1.
       -4    1    3    3    0  502 -0.94672538539E+02 -0.27884118831E+03  0.14911878589E+02  0.29485466738E+03  0.12699999809E+01 0. -1.
</event>
<event>
 5   0  0.3798925E-02  0.6006543E+03  0.7818609E-02  0.9904050E-01
       -2   -1    0    0    0  501  0.00000000000E+00  0.00000000000E+00  0.29822286247E+03  0.29822286248E+03  0.25500000920E-02 0. -1.
        2   -1    0    0  501    0  0.00000000000E+00  0.00000000000E+00 -0.30244626396E+03  0.30244626397E+03  0.25500000920E-02 0.  1.
    10030    2    1    2    0    0  0.00000000000E+00  0.00000000000E+00 -0.42234014900E+01  0.60066912646E+03  0.60065427856E+03 0.  0.
        2    1    3    3  502    0  0.79973892482E+02 -0.28034344426E+03  0.70057391342E+02  0.29982713070E+03  0.25500000920E-02 0. -1.
       -2    1    3    3    0  502 -0.79973892482E+02  0.28034344426E+03 -0.74280792832E+02  0.30084199575E+03  0.25500000920E-02 0.  1.
</event>
<event>
 5   0  0.2382531E-02  0.6002519E+03  0.7818609E-02  0.9904884E-01
       -1   -1    0    0    0  501  0.00000000000E+00  0.00000000000E+00  0.29041898220E+03  0.29041898224E+03  0.50400001928E-02 0. -1.
        1   -1    0    0  501    0  0.00000000000E+00  0.00000000000E+00 -0.31015734883E+03  0.31015734887E+03  0.50400001928E-02 0.  1.
    10030    2    1    2    0    0  0.00000000000E+00  0.00000000000E+00 -0.19738366632E+02  0.60057633111E+03  0.60025188577E+03 0.  0.
        5    1    3    3  502    0  0.19600055534E+03  0.14029378038E+03  0.16898685567E+03  0.29440993511E+03  0.46999998093E+01 0. -1.
       -5    1    3    3    0  502 -0.19600055534E+03 -0.14029378038E+03 -0.18872522230E+03  0.30616639599E+03  0.46999998093E+01 0.  1.
</event>
<event>
 5   0  0.3737642E-02  0.5962838E+03  0.7818609E-02  0.9913146E-01
       -2   -1    0    0    0  501  0.00000000000E+00  0.00000000000E+00  0.83966486615E+02  0.83966486654E+02  0.25500000920E-02 0. -1.
        2   -1    0    0  501    0  0.00000000000E+00  0.00000000000E+00 -0.10586199502E+04  0.10586199502E+04  0.25500000920E-02 0.  1.
    10030    2    1    2    0    0  0.00000000000E+00  0.00000000000E+00 -0.97465346354E+03  0.11425864368E+04  0.59628381799E+03 0.  0.
        5    1    3    3  502    0 -0.34183683893E+02 -0.27567263419E+03 -0.28003742700E+03  0.39447050081E+03  0.46999998093E+01 0.  1.
       -5    1    3    3    0  502  0.34183683893E+02  0.27567263419E+03 -0.69461603653E+03  0.74811593600E+03  0.46999998093E+01 0. -1.
</event>
<event>
 5   0  0.3737642E-02  0.6003028E+03  0.7818609E-02  0.9904778E-01
       -2   -1    0    0    0  501  0.00000000000E+00  0.00000000000E+00  0.14534021538E+03  0.14534021540E+03  0.25500000920E-02 0.  1.
        2   -1    0    0  501    0  0.00000000000E+00  0.00000000000E+00 -0.61986180402E+03  0.61986180402E+03  0.25500000920E-02 0. -1.
    10030    2    1    2    0    0  0.00000000000E+00  0.00000000000E+00 -0.47452158864E+03  0.76520201942E+03  0.60030275066E+03 0.  0.
        5    1    3    3  502    0  0.13251634151E+03 -0.21464528829E+03 -0.44451348416E+03  0.51112376990E+03  0.46999998093E+01 0.  1.
       -5    1    3    3    0  502 -0.13251634151E+03  0.21464528829E+03 -0.30008104478E+02  0.25407824953E+03  0.46999998093E+01 0. -1.
</event>
<event>
 5   0  0.2276105E-02  0.5623782E+03  0.7818609E-02  0.9986688E-01
       -1   -1    0    0    0  501  0.00000000000E+00  0.00000000000E+00  0.18348231327E+03  0.18348231334E+03  0.50400001928E-02 0.  1.
        1   -1    0    0  501    0  0.00000000000E+00  0.00000000000E+00 -0.43092612969E+03  0.43092612972E+03  0.50400001928E-02 0. -1.
    10030    2    1    2    0    0  0.00000000000E+00  0.00000000000E+00 -0.24744381642E+03  0.61440844306E+03  0.56237824693E+03 0.  0.
        1    1    3    3  502    0  0.20218722747E+03  0.60040145746E+02  0.79447782999E+02  0.22538066532E+03  0.50400001928E-02 0.  1.
       -1    1    3    3    0  502 -0.20218722747E+03 -0.60040145746E+02 -0.32689159942E+03  0.38902777774E+03  0.50400001928E-02 0. -1.
</event>
<event>
 5   0  0.2309055E-02  0.6012971E+03  0.7818609E-02  0.9902719E-01
       -1   -1    0    0    0  501  0.00000000000E+00  0.00000000000E+00  0.25810401545E+03  0.25810401550E+03  0.50400001928E-02 0. -1.
        1   -1    0    0  501    0  0.00000000000E+00  0.00000000000E+00 -0.35020592673E+03  0.35020592677E+03  0.50400001928E-02 0.  1.
    10030    2    1    2    0    0  0.00000000000E+00  0.00000000000E+00 -0.92101911280E+02  0.60830994226E+03  0.60129711773E+03 0.  0.
        4    1    3    3  502    0  0.24422493718E+03 -0.14975350842E+03  0.46204761557E+02  0.29018688136E+03  0.12699999809E+01 0. -1.
       -4    1    3    3    0  502 -0.24422493718E+03  0.14975350842E+03 -0.13830667284E+03  0.31812306090E+03  0.12699999809E+01 0.  1.
</event>
<event>
 5   0  0.3832191E-02  0.5867224E+03  0.7818609E-02  0.9933342E-01
       -2   -1    0    0    0  501  0.00000000000E+00  0.00000000000E+00  0.16471861614E+03  0.16471861616E+03  0.25500000920E-02 0. -1.
        2   -1    0    0  501    0  0.00000000000E+00  0.00000000000E+00 -0.52247164288E+03  0.52247164289E+03  0.25500000920E-02 0.  1.
    10030    2    1    2    0    0  0.00000000000E+00  0.00000000000E+00 -0.35775302674E+03  0.68719025905E+03  0.58672244203E+03 0.  0.
        3    1    3    3  502    0 -0.20917766605E+03  0.16161718246E+02  0.61281924955E+02  0.21856802520E+03  0.10100000352E+00 0. -1.
       -3    1    3    3    0  502  0.20917766605E+03 -0.16161718246E+02 -0.41903495170E+03  0.46862223385E+03  0.10100000352E+00 0.  1.
</event>
<event>
 5   0  0.3934634E-02  0.5995894E+03  0.7818609E-02  0.9906258E-01
       -2   -1    0    0    0  501  0.00000000000E+00  0.00000000000E+00  0.72821821727E+02  0.72821821772E+02  0.25500000920E-02 0. -1.
        2   -1    0    0  501    0  0.00000000000E+00  0.00000000000E+00 -0.12342022523E+04  0.12342022523E+04  0.25500000920E-02 0.  1.
    10030    2    1    2    0    0  0.00000000000E+00  0.00000000000E+00 -0.11613804305E+04  0.13070240740E+04  0.59958938089E+03 0.  0.
        1    1    3    3  502    0  0.26546473821E+03 -0.75573770970E+02 -0.32560001529E+03  0.42684691879E+03  0.50400001928E-02 0. -1.
       -1    1    3    3    0  502 -0.26546473821E+03  0.75573770970E+02 -0.83578041523E+03  0.88017715524E+03  0.50400001928E-02 0.  1.
</event>
<event>
 5   0  0.3737642E-02  0.6015483E+03  0.7818609E-02  0.9902199E-01
        2   -1    0    0  501    0  0.00000000000E+00  0.00000000000E+00  0.37800558288E+03  0.37800558289E+03  0.25500000920E-02 0.  1.
       -2   -1    0    0    0  501  0.00000000000E+00  0.00000000000E+00 -0.23932212666E+03  0.23932212667E+03  0.25500000920E-02 0. -1.
    10030    2    1    2    0    0  0.00000000000E+00  0.00000000000E+00  0.13868345622E+03  0.61732770955E+03  0.60154833551E+03 0.  0.
        5    1    3    3  502    0 -0.49385323431E+01  0.29247702264E+03 -0.23169385423E+01  0.29256564404E+03  0.46999998093E+01 0. -1.
       -5    1    3    3    0  502  0.49385323431E+01 -0.29247702264E+03  0.14100039476E+03  0.32476206551E+03  0.46999998093E+01 0.  1.
</event>
<event>
 5   0  0.1521750E-02  0.5982079E+03  0.7818609E-02  0.9909131E-01
       -4   -1    0    0    0  501  0.00000000000E+00  0.00000000000E+00  0.23076506722E+03  0.23076856187E+03  0.12699999809E+01 0. -1.
        4   -1    0    0  501    0  0.00000000000E+00  0.00000000000E+00 -0.38767321946E+03  0.38767529969E+03  0.12699999809E+01 0.  1.
    10030    2    1    2    0    0  0.00000000000E+00  0.00000000000E+00 -0.15690815225E+03  0.61844386156E+03  0.59820785824E+03 0.  0.
        4    1    3    3  502    0 -0.13885906949E+03 -0.18781966746E+03 -0.27159865688E+03  0.35822550437E+03  0.12699999809E+01 0.  1.
       -4    1    3    3    0  502  0.13885906949E+03  0.18781966746E+03  0.11469050463E+03  0.26021835719E+03  0.12699999809E+01 0. -1.
</event>
<event>
 5   0  0.3832191E-02  0.6029387E+03  0.7818609E-02  0.9899328E-01
       -2   -1    0    0    0  501  0.00000000000E+00  0.00000000000E+00  0.16393264104E+03  0.16393264106E+03  0.25500000920E-02 0. -1.
        2   -1    0    0  501    0  0.00000000000E+00  0.00000000000E+00 -0.55439697776E+03  0.55439697777E+03  0.25500000920E-02 0.  1.
    10030    2    1    2    0    0  0.00000000000E+00  0.00000000000E+00 -0.39046433672E+03  0.71832961883E+03  0.60293867269E+03 0.  0.
        3    1    3    3  502    0  0.45538459703E+02 -0.26319863518E+03 -0.36175499196E+03  0.44968206244E+03  0.10100000352E+00 0.  1.
       -3    1    3    3    0  502 -0.45538459703E+02  0.26319863518E+03 -0.28709344762E+02  0.26864755638E+03  0.10100000352E+00 0. -1.
</event>
<event>
 5   0  0.3724066E-02  0.6005276E+03  0.7818609E-02  0.9904312E-01
        2   -1    0    0  501    0  0.00000000000E+00  0.00000000000E+00  0.13101852926E+04  0.13101852926E+04  0.25500000920E-02 0.  1.
       -2   -1    0    0    0  501  0.00000000000E+00  0.00000000000E+00 -0.68813434801E+02  0.68813434848E+02  0.25500000920E-02 0. -1.
    10030    2    1    2    0    0  0.00000000000E+00  0.00000000000E+00  0.12413718578E+04  0.13789987275E+04  0.60052760218E+03 0.  0.
        4    1    3    3  502    0 -0.29247630199E+03 -0.67493920144E+02  0.63831240314E+03  0.70536668009E+03  0.12699999809E+01 0. -1.
       -4    1    3    3    0  502  0.29247630199E+03  0.67493920144E+02  0.60305945470E+03  0.67363204740E+03  0.12699999809E+01 0.  1.
</event>
<event>
 5   0  0.2382531E-02  0.6380244E+03  0.7818609E-02  0.9829514E-01
       -1   -1    0    0    0  501  0.00000000000E+00  0.00000000000E+00  0.45193833586E+03  0.45193833588E+03  0.50400001928E-02 0. -1.
        1   -1    0    0  501    0  0.00000000000E+00  0.00000000000E+00 -0.22518290575E+03  0.22518290581E+03  0.50400001928E-02 0.  1.
    10030    2    1    2    0    0  0.00000000000E+00  0.00000000000E+00  0.22675543011E+03  0.67712124169E+03  0.63802441244E+03 0.  0.
        5    1    3    3  502    0 -0.16755146371E+02 -0.15334856343E+03  0.40968184546E+03  0.43778741569E+03  0.46999998093E+01 0. -1.
       -5    1    3    3    0  502  0.16755146371E+02  0.15334856343E+03 -0.18292641535E+03  0.23933382600E+03  0.46999998093E+01 0.  1.
</event>
<event>
 5   0  0.3832191E-02  0.5970235E+03  0.7818609E-02  0.9911601E-01
       -2   -1    0    0    0  501  0.00000000000E+00  0.00000000000E+00  0.71052487532E+02  0.71052487577E+02  0.25500000920E-02 0. -1.
        2   -1    0    0  501    0  0.00000000000E+00  0.00000000000E+00 -0.12541328789E+04  0.12541328789E+04  0.25500000920E-02 0.  1.
    10030    2    1    2    0    0  0.00000000000E+00  0.00000000000E+00 -0.11830803914E+04  0.13251853665E+04  0.59702348622E+03 0.  0.
        3    1    3    3  502    0  0.96010790767E+02  0.23790237265E+02 -0.12166996625E+04  0.12207137774E+04  0.10100000352E+00 0.  1.
       -3    1    3    3    0  502 -0.96010790767E+02 -0.23790237265E+02  0.33619271153E+02  0.10447158909E+03  0.10100000352E+00 0. -1.
</event>
<event>
 5   0  0.3724066E-02  0.5997466E+03  0.7818609E-02  0.9905932E-01
        2   -1    0    0  501    0  0.00000000000E+00  0.00000000000E+00  0.15250907167E+04  0.15250907167E+04  0.25500000920E-02 0. -1.
       -2   -1    0    0    0  501  0.00000000000E+00  0.00000000000E+00 -0.58963048246E+02  0.58963048301E+02  0.25500000920E-02 0.  1.
    10030    2    1    2    0    0  0.00000000000E+00  0.00000000000E+00  0.14661276685E+04  0.15840537650E+04  0.59974660501E+03 0.  0.
        4    1    3    3  502    0  0.39196445847E+02  0.10895212998E+03  0.24688150128E+01  0.11582156942E+03  0.12699999809E+01 0.  1.
       -4    1    3    3    0  502 -0.39196445847E+02 -0.10895212998E+03  0.14636588534E+04  0.14682321956E+04  0.12699999809E+01 0. -1.
</event>
<event>
 5   0  0.3934634E-02  0.5712543E+03  0.7818609E-02  0.9966907E-01
        2   -1    0    0  501    0  0.00000000000E+00  0.00000000000E+00  0.86715439092E+02  0.86715439130E+02  0.25500000920E-02 0. -1.
       -2   -1    0    0    0  501  0.00000000000E+00  0.00000000000E+00 -0.94081142824E+03  0.94081142824E+03  0.25500000920E-02 0.  1.
    10030    2    1    2    0    0  0.00000000000E+00  0.00000000000E+00 -0.85409598914E+03  0.10275268674E+04  0.57125432558E+03 0.  0.
        1    1    3    3  502    0  0.14335871238E+03 -0.35262018475E+02 -0.86686272854E+03  0.87934414226E+03  0.50400001928E-02 0.  1.
       -1    1    3    3    0  502 -0.14335871238E+03  0.35262018475E+02  0.12766739396E+02  0.14818272511E+03  0.50400001928E-02 0. -1.
</event>
<event>
 5   0  0.2309055E-02  0.5949713E+03  0.7818609E-02  0.9915894E-01
       -1   -1    0    0    0  501  0.00000000000E+00  0.00000000000E+00  0.48339728092E+03  0.48339728095E+03  0.50400001928E-02 0. -1.
        1   -1    0    0  501    0  0.00000000000E+00  0.00000000000E+00 -0.18307450762E+03  0.18307450769E+03  0.50400001928E-02 0.  1.
    10030    2    1    2    0    0  0.00000000000E+00  0.00000000000E+00  0.30032277330E+03  0.66647178864E+03  0.59497132442E+03 0.  0.
        4    1    3    3  502    0  0.20466960286E+03  0.84855260603E+02 -0.72203986177E+02  0.23303452557E+03  0.12699999809E+01 0.  1.
       -4    1    3    3    0  502 -0.20466960286E+03 -0.84855260603E+02  0.37252675948E+03  0.43343726307E+03  0.12699999809E+01 0. -1.
</event>
<event>
 5   0  0.3832191E-02  0.5943565E+03  0.7818609E-02  0.9917184E-01
        2   -1    0    0  501    0  0.00000000000E+00  0.00000000000E+00  0.88715141037E+03  0.88715141038E+03  0.25500000920E-02 0.  1.
       -2   -1    0    0    0  501  0.00000000000E+00  0.00000000000E+00 -0.99548855203E+02  0.99548855236E+02  0.25500000920E-02 0. -1.
    10030    2    1    2    0    0  0.00000000000E+00  0.00000000000E+00  0.78760255517E+03  0.98670026561E+03  0.59435648331E+03 0.  0.
        3    1    3    3  502    0  0.20448717606E+03  0.20083697850E+03  0.26345949786E+03  0.38930889320E+03  0.10100000352E+00 0. -1.
       -3    1    3    3    0  502 -0.20448717606E+03 -0.20083697850E+03  0.52414305731E+03  0.59739137241E+03  0.10100000352E+00 0.  1.
</event>
<event>
 5   0  0.3737642E-02  0.6021142E+03  0.7818609E-02  0.9901029E-01
       -2   -1    0    0    0  501  0.00000000000E+00  0.00000000000E+00  0.47060445312E+02  0.47060445381E+02  0.25500000920E-02 0.  1.
        2   -1    0    0  501    0  0.00000000000E+00  0.00000000000E+00 -0.19259354688E+04  0.19259354688E+04  0.25500000920E-02 0. -1.
    10030    2    1    2    0    0  0.00000000000E+00  0.00000000000E+00 -0.18788750235E+04  0.19729959142E+04  0.60211421134E+03 0.  0.
        5    1    3    3  502    0 -0.12644141353E+03 -0.13829478199E+03 -0.17113986112E+04  0.17216329964E+04  0.46999998093E+01 0. -1.
       -5    1    3    3    0  502  0.12644141353E+03  0.13829478199E+03 -0.16747641231E+03  0.25136291783E+03  0.46999998093E+01 0.  1.
</event>
<event>
 5   0  0.2276105E-02  0.5998598E+03  0.7818609E-02  0.9905697E-01
       -1   -1    0    0    0  501  0.00000000000E+00  0.00000000000E+00  0.47756161570E+02  0.47756161836E+02  0.50400001928E-02 0. -1.
        1   -1    0    0  501    0  0.00000000000E+00  0.00000000000E+00 -0.18836926835E+04  0.18836926835E+04  0.50400001928E-02 0.  1.
    10030    2    1    2    0    0  0.00000000000E+00  0.00000000000E+00 -0.18359365219E+04  0.19314488453E+04  0.59985975829E+03 0.  0.
        1    1    3    3  502    0 -0.51466150599E+02  0.17767462732E+02 -0.18676472873E+04  0.18684407502E+04  0.50400001928E-02 0.  1.
       -1    1    3    3    0  502  0.51466150599E+02 -0.17767462732E+02  0.31710765332E+02  0.63008095137E+02  0.50400001928E-02 0. -1.
</event>
<event>
 5   0  0.1521750E-02  0.6018293E+03  0.7818609E-02  0.9901618E-01
        3   -1    0    0  501    0  0.00000000000E+00  0.00000000000E+00  0.15070492901E+03  0.15070496285E+03  0.10100000352E+00 0. -1.
       -3   -1    0    0    0  501  0.00000000000E+00  0.00000000000E+00 -0.60084039400E+03  0.60084040249E+03  0.10100000352E+00 0.  1.
    10030    2    1    2    0    0  0.00000000000E+00  0.00000000000E+00 -0.45013546500E+03  0.75154536535E+03  0.60182929417E+03 0.  0.
        2    1    3    3  502    0  0.89280852663E+01 -0.23272395372E+03 -0.46302110546E+03  0.51829402220E+03  0.25500000920E-02 0.  1.
       -2    1    3    3    0  502 -0.89280852663E+01  0.23272395372E+03  0.12885640464E+02  0.23325134314E+03  0.25500000920E-02 0. -1.
</event>
<event>
 5   0  0.2309055E-02  0.6083962E+03  0.7818609E-02  0.9888138E-01
        1   -1    0    0  501    0  0.00000000000E+00  0.00000000000E+00  0.56829905598E+03  0.56829905600E+03  0.50400001928E-02 0. -1.
       -1   -1    0    0    0  501  0.00000000000E+00  0.00000000000E+00 -0.16283060320E+03  0.16283060328E+03  0.50400001928E-02 0.  1.
    10030    2    1    2    0    0  0.00000000000E+00  0.00000000000E+00  0.40546845278E+03  0.73112965928E+03  0.60839618052E+03 0.  0.
        4    1    3    3  502    0 -0.16082387212E+03 -0.25295183965E+03  0.14045345395E+03  0.33102528098E+03  0.12699999809E+01 0.  1.
       -4    1    3    3    0  502  0.16082387212E+03  0.25295183965E+03  0.26501499883E+03  0.40010437830E+03  0.12699999809E+01 0. -1.
</event>
<event>
 5   0  0.3724066E-02  0.6039723E+03  0.7818609E-02  0.9897199E-01
       -2   -1    0    0    0  501  0.00000000000E+00  0.00000000000E+00  0.16533842671E+03  0.16533842673E+03  0.25500000920E-02 0.  1.
        2   -1    0    0  501    0  0.00000000000E+00  0.00000000000E+00 -0.55156947488E+03  0.55156947488E+03  0.25500000920E-02 0. -1.
    10030    2    1    2    0    0  0.00000000000E+00  0.00000000000E+00 -0.38623104816E+03  0.71690790162E+03  0.60397228151E+03 0.  0.
        4    1    3    3  502    0  0.29417993620E+03  0.13898483135E+02 -0.11385339052E+03  0.31575181730E+03  0.12699999809E+01 0.  1.
       -4    1    3    3    0  502 -0.29417993620E+03 -0.13898483135E+02 -0.27237765765E+03  0.40115608432E+03  0.12699999809E+01 0. -1.
</event>
<event>
 5   0  0.2295179E-02  0.6250458E+03  0.7818609E-02  0.9854765E-01
       -1   -1    0    0    0  501  0.00000000000E+00  0.00000000000E+00  0.45970748060E+03  0.45970748063E+03  0.50400001928E-02 0.  1.
        1   -1    0    0  501    0  0.00000000000E+00  0.00000000000E+00 -0.21246241203E+03  0.21246241209E+03  0.50400001928E-02 0. -1.
    10030    2    1    2    0    0  0.00000000000E+00  0.00000000000E+00  0.24724506857E+03  0.67216989272E+03  0.62504579092E+03 0.  0.
        3    1    3    3  502    0 -0.25029787199E+03 -0.12398574155E+02  0.32442983485E+03  0.40994813978E+03  0.10100000352E+00 0.  1.
       -3    1    3    3    0  502  0.25029787199E+03  0.12398574155E+02 -0.77184766287E+02  0.26222175294E+03  0.10100000352E+00 0. -1.
</event>
<event>
 5   0  0.3737642E-02  0.5980658E+03  0.7818609E-02  0.9909427E-01
       -2   -1    0    0    0  501  0.00000000000E+00  0.00000000000E+00  0.15331139708E+03  0.15331139710E+03  0.25500000920E-02 0.  1.
        2   -1    0    0  501    0  0.00000000000E+00  0.00000000000E+00 -0.58326172788E+03  0.58326172788E+03  0.25500000920E-02 0. -1.
    10030    2    1    2    0    0  0.00000000000E+00  0.00000000000E+00 -0.42995033080E+03  0.73657312498E+03  0.59806578358E+03 0.  0.
        5    1    3    3  502    0  0.42195703027E+02 -0.14002642046E+03 -0.53616038356E+03  0.55576786762E+03  0.46999998093E+01 0. -1.
       -5    1    3    3    0  502 -0.42195703027E+02  0.14002642046E+03  0.10621005276E+03  0.18080525735E+03  0.46999998093E+01 0.  1.
</event>
<event>
 5   0  0.3798925E-02  0.5944078E+03  0.7818609E-02  0.9917077E-01
        2   -1    0    0  501    0  0.00000000000E+00  0.00000000000E+00  0.26737027847E+03  0.26737027848E+03  0.25500000920E-02 0. -1.
       -2   -1    0    0    0  501  0.00000000000E+00  0.00000000000E+00 -0.33036635535E+03  0.33036635536E+03  0.25500000920E-02 0.  1.
    10030    2    1    2    0    0  0.00000000000E+00  0.00000000000E+00 -0.62996076884E+02  0.59773663384E+03  0.59440775376E+03 0.  0.
        2    1    3    3  502    0  0.77162949014E+02 -0.13000977129E+03 -0.28880890669E+03  0.32598657323E+03  0.25500000920E-02 0.  1.
       -2    1    3    3    0  502 -0.77162949014E+02  0.13000977129E+03  0.22581282981E+03  0.27175006062E+03  0.25500000920E-02 0. -1.
</event>
<event>
 5   0  0.3737642E-02  0.5942204E+03  0.7818609E-02  0.9917470E-01
        2   -1    0    0  501    0  0.00000000000E+00  0.00000000000E+00  0.60551915192E+03  0.60551915193E+03  0.25500000920E-02 0. -1.
       -2   -1    0    0    0  501  0.00000000000E+00  0.00000000000E+00 -0.14578311619E+03  0.14578311622E+03  0.25500000920E-02 0.  1.
    10030    2    1    2    0    0  0.00000000000E+00  0.00000000000E+00  0.45973603573E+03  0.75130226814E+03  0.59422039309E+03 0.  0.
        5    1    3    3  502    0 -0.22184611944E+03 -0.18848271428E+03  0.30478480360E+03  0.42149412902E+03  0.46999998093E+01 0. -1.
       -5    1    3    3    0  502  0.22184611944E+03  0.18848271428E+03  0.15495123212E+03  0.32980813912E+03  0.46999998093E+01 0.  1.
</event>
<event>
 5   0  0.2295179E-02  0.5999250E+03  0.7818609E-02  0.9905562E-01
       -1   -1    0    0    0  501  0.00000000000E+00  0.00000000000E+00  0.14555798268E+03  0.14555798276E+03  0.50400001928E-02 0. -1.
        1   -1    0    0  501    0  0.00000000000E+00  0.00000000000E+00 -0.61815564290E+03  0.61815564292E+03  0.50400001928E-02 0.  1.
    10030    2    1    2    0    0  0.00000000000E+00  0.00000000000E+00 -0.47259766022E+03  0.76371362568E+03  0.59992495665E+03 0.  0.
        3    1    3    3  502    0 -0.49500220037E+02 -0.18481193876E+03 -0.53039498531E+03  0.56384800713E+03  0.10100000352E+00 0.  1.
       -3    1    3    3    0  502  0.49500220037E+02  0.18481193876E+03  0.57797325091E+02  0.19986561856E+03  0.10100000352E+00 0. -1.
</event>
<event>
 5   0  0.2225808E-02  0.6043372E+03  0.7818609E-02  0.9896448E-01
        1   -1    0    0  501    0  0.00000000000E+00  0.00000000000E+00  0.27060749584E+03  0.27060749589E+03  0.50400001928E-02 0. -1.
       -1   -1    0    0    0  501  0.00000000000E+00  0.00000000000E+00 -0.33741072134E+03  0.33741072138E+03  0.50400001928E-02 0.  1.
    10030    2    1    2    0    0  0.00000000000E+00  0.00000000000E+00 -0.66803225498E+02  0.60801821727E+03  0.60433722506E+03 0.  0.
        2    1    3    3  502    0 -0.27045321321E+03 -0.80067696041E+01 -0.16874542243E+03  0.31887939176E+03  0.25500000920E-02 0.  1.
       -2    1    3    3    0  502  0.27045321321E+03  0.80067696041E+01  0.10194219693E+03  0.28913882551E+03  0.25500000920E-02 0. -1.
</event>
<event>
 5   0  0.3832191E-02  0.6005561E+03  0.7818609E-02  0.9904253E-01
        2   -1    0    0  501    0  0.00000000000E+00  0.00000000000E+00  0.54491075084E+03  0.54491075085E+03  0.25500000920E-02 0. -1.
       -2   -1    0    0    0  501  0.00000000000E+00  0.00000000000E+00 -0.16547095779E+03  0.16547095781E+03  0.25500000920E-02 0.  1.
    10030    2    1    2    0    0  0.00000000000E+00  0.00000000000E+00  0.37943979305E+03  0.71038170866E+03  0.60055608852E+03 0.  0.
        3    1    3    3  502    0  0.10835148658E+03  0.35154505380E+02  0.51836075566E+03  0.53072946696E+03  0.10100000352E+00 0. -1.
       -3    1    3    3    0  502 -0.10835148658E+03 -0.35154505380E+02 -0.13892096261E+03  0.17965224170E+03  0.10100000352E+00 0.  1.
</event>
<event>
 5   0  0.2225808E-02  0.6002656E+03  0.7818609E-02  0.9904855E-01
       -1   -1    0    0    0  501  0.00000000000E+00  0.00000000000E+00  0.65765025012E+02  0.65765025205E+02  0.50400001928E-02 0.  1.
        1   -1    0    0  501    0  0.00000000000E+00  0.00000000000E+00 -0.13697205719E+04  0.13697205719E+04  0.50400001928E-02 0. -1.
    10030    2    1    2    0    0  0.00000000000E+00  0.00000000000E+00 -0.13039555469E+04  0.14354855971E+04  0.60026563392E+03 0.  0.
        2    1    3    3  502    0 -0.26792501931E+03  0.11403718972E+03 -0.47802109152E+03  0.55972534386E+03  0.25500000920E-02 0.  1.
       -2    1    3    3    0  502  0.26792501931E+03 -0.11403718972E+03 -0.82593445539E+03  0.87576025328E+03  0.25500000920E-02 0. -1.
</event>
<event>
 5   0  0.3724066E-02  0.5976045E+03  0.7818609E-02  0.9910388E-01
       -2   -1    0    0    0  501  0.00000000000E+00  0.00000000000E+00  0.41567213289E+03  0.41567213290E+03  0.25500000920E-02 0. -1.
        2   -1    0    0  501    0  0.00000000000E+00  0.00000000000E+00 -0.21479134870E+03  0.21479134872E+03  0.25500000920E-02 0.  1.
    10030    2    1    2    0    0  0.00000000000E+00  0.00000000000E+00  0.20088078419E+03  0.63046348162E+03  0.59760447806E+03 0.  0.
        4    1    3    3  502    0  0.22180195382E+02  0.25471604112E+03  0.26356755251E+03  0.36720796602E+03  0.12699999809E+01 0. -1.
       -4    1    3    3    0  502 -0.22180195382E+02 -0.25471604112E+03 -0.62686768320E+02  0.26325551560E+03  0.12699999809E+01 0.  1.
</event>
<event>
 5   0  0.2309055E-02  0.5987280E+03  0.7818609E-02  0.9908049E-01
       -1   -1    0    0    0  501  0.00000000000E+00  0.00000000000E+00  0.67179308099E+02  0.67179308288E+02  0.50400001928E-02 0. -1.
        1   -1    0    0  501    0  0.00000000000E+00  0.00000000000E+00 -0.13340237363E+04  0.13340237363E+04  0.50400001928E-02 0.  1.
    10030    2    1    2    0    0  0.00000000000E+00  0.00000000000E+00 -0.12668444282E+04  0.14012030446E+04  0.59872795737E+03 0.  0.
        4    1    3    3  502    0 -0.13669203729E+03 -0.21282132459E+03 -0.10081593475E+04  0.10394058457E+04  0.12699999809E+01 0.  1.
       -4    1    3    3    0  502  0.13669203729E+03  0.21282132459E+03 -0.25868508077E+03  0.36179719895E+03  0.12699999809E+01 0. -1.
</event>
<event>
 5   0  0.2276105E-02  0.5952673E+03  0.7818609E-02  0.9915274E-01
       -1   -1    0    0    0  501  0.00000000000E+00  0.00000000000E+00  0.37270049932E+02  0.37270050273E+02  0.50400001928E-02 0. -1.
        1   -1    0    0  501    0  0.00000000000E+00  0.00000000000E+00 -0.23768625191E+04  0.23768625191E+04  0.50400001928E-02 0.  1.
    10030    2    1    2    0    0  0.00000000000E+00  0.00000000000E+00 -0.23395924692E+04  0.24141325694E+04  0.59526728513E+03 0.  0.
        1    1    3    3  502    0 -0.19867068653E+03  0.22094689460E+03 -0.10997616494E+04  0.11391941263E+04  0.50400001928E-02 0. -1.
       -1    1    3    3    0  502  0.19867068653E+03 -0.22094689460E+03 -0.12398308198E+04  0.12749384431E+04  0.50400001928E-02 0.  1.
</event>
<event>
 5   0  0.2295179E-02  0.5769860E+03  0.7818609E-02  0.9954338E-01
        1   -1    0    0  501    0  0.00000000000E+00  0.00000000000E+00  0.57826442029E+03  0.57826442031E+03  0.50400001928E-02 0.  1.
       -1   -1    0    0    0  501  0.00000000000E+00  0.00000000000E+00 -0.14392759892E+03  0.14392759901E+03  0.50400001928E-02 0. -1.
    10030    2    1    2    0    0  0.00000000000E+00  0.00000000000E+00  0.43433682137E+03  0.72219201933E+03  0.57698599496E+03 0.  0.
        3    1    3    3  502    0 -0.17681945287E+03 -0.72448651238E+02  0.48769640475E+03  0.52379549385E+03  0.10100000352E+00 0.  1.
       -3    1    3    3    0  502  0.17681945287E+03  0.72448651238E+02 -0.53359583375E+02  0.19839652547E+03  0.10100000352E+00 0. -1.
</event>
<event>
 5   0  0.2276105E-02  0.6011998E+03  0.7818609E-02  0.9902920E-01
        1   -1    0    0  501    0  0.00000000000E+00  0.00000000000E+00  0.14524438252E+03  0.14524438261E+03  0.50400001928E-02 0. -1.
       -1   -1    0    0    0  501  0.00000000000E+00  0.00000000000E+00 -0.62212593887E+03  0.62212593889E+03  0.50400001928E-02 0.  1.
    10030    2    1    2    0    0  0.00000000000E+00  0.00000000000E+00 -0.47688155634E+03  0.76737032150E+03  0.60119979336E+03 0.  0.
        1    1    3    3  502    0 -0.89317130892E+02  0.18612883004E+03 -0.51732372261E+03  0.55699670129E+03  0.50400001928E-02 0.  1.
       -1    1    3    3    0  502  0.89317130892E+02 -0.18612883004E+03  0.40442166265E+02  0.21037362021E+03  0.50400001928E-02 0. -1.
</event>
<event>
 5   0  0.3798925E-02  0.6088975E+03  0.7818609E-02  0.9887117E-01
       -2   -1    0    0    0  501  0.00000000000E+00  0.00000000000E+00  0.43648795807E+03  0.43648795808E+03  0.25500000920E-02 0. -1.
        2   -1    0    0  501    0  0.00000000000E+00  0.00000000000E+00 -0.21235188119E+03  0.21235188120E+03  0.25500000920E-02 0.  1.
    10030    2    1    2    0    0  0.00000000000E+00  0.00000000000E+00  0.22413607688E+03  0.64883983928E+03  0.60889749226E+03 0.  0.
        2    1    3    3  502    0 -0.29719330759E+03  0.44507942904E+02  0.16409955468E+03  0.34239375420E+03  0.25500000920E-02 0. -1.
       -2    1    3    3    0  502  0.29719330759E+03 -0.44507942904E+02  0.60036522197E+02  0.30644608508E+03  0.25500000920E-02 0.  1.
</event>
<event>
 5   0  0.2309055E-02  0.6021661E+03  0.7818609E-02  0.9900922E-01
       -1   -1    0    0    0  501  0.00000000000E+00  0.00000000000E+00  0.62006475820E+02  0.62006476024E+02  0.50400001928E-02 0. -1.
        1   -1    0    0  501    0  0.00000000000E+00  0.00000000000E+00 -0.14619601647E+04  0.14619601647E+04  0.50400001928E-02 0.  1.
    10030    2    1    2    0    0  0.00000000000E+00  0.00000000000E+00 -0.13999536889E+04  0.15239666407E+04  0.60216608261E+03 0.  0.
        4    1    3    3  502    0 -0.69624612935E+02 -0.37450155202E+02 -0.14352158716E+04  0.14373921913E+04  0.12699999809E+01 0.  1.
       -4    1    3    3    0  502  0.69624612935E+02  0.37450155202E+02  0.35262182718E+02  0.86574449354E+02  0.12699999809E+01 0. -1.
</event>
<event>
 5   0  0.3737642E-02  0.5983437E+03  0.7818609E-02  0.9908848E-01
        2   -1    0    0  501    0  0.00000000000E+00  0.00000000000E+00  0.17556831494E+04  0.17556831494E+04  0.25500000920E-02 0. -1.
       -2   -1    0    0    0  501  0.00000000000E+00  0.00000000000E+00 -0.50979470071E+02  0.50979470135E+02  0.25500000920E-02 0.  1.
    10030    2    1    2    0    0  0.00000000000E+00  0.00000000000E+00  0.17047036793E+04  0.18066626195E+04  0.59834370266E+03 0.  0.
        5    1    3    3  502    0  0.12446266663E+03  0.25684247239E+03  0.11228015322E+04  0.11585181836E+04  0.46999998093E+01 0. -1.
       -5    1    3    3    0  502 -0.12446266663E+03 -0.25684247239E+03  0.58190214709E+03  0.64814443591E+03  0.46999998093E+01 0.  1.
</event>
<event>
 5   0  0.1521750E-02  0.5991204E+03  0.7818609E-02  0.9907233E-01
        3   -1    0    0  501    0  0.00000000000E+00  0.00000000000E+00  0.96230560013E+02  0.96230613016E+02  0.10100000352E+00 0.  1.
       -3   -1    0    0    0  501  0.00000000000E+00  0.00000000000E+00 -0.93251345567E+03  0.93251346114E+03  0.10100000352E+00 0. -1.
    10030    2    1    2    0    0  0.00000000000E+00  0.00000000000E+00 -0.83628289566E+03  0.10287440742E+04  0.59912042908E+03 0.  0.
        2    1    3    3  502    0 -0.23116805298E+02  0.29240257387E+03 -0.52262567516E+03  0.59930897560E+03  0.25500000920E-02 0. -1.
       -2    1    3    3    0  502  0.23116805298E+02 -0.29240257387E+03 -0.31365722050E+03  0.42943509855E+03  0.25500000920E-02 0.  1.
</event>
<event>
 5   0  0.3724066E-02  0.5974372E+03  0.7818609E-02  0.9910737E-01
       -2   -1    0    0    0  501  0.00000000000E+00  0.00000000000E+00  0.14656156433E+03  0.14656156435E+03  0.25500000920E-02 0. -1.
        2   -1    0    0  501    0  0.00000000000E+00  0.00000000000E+00 -0.60884172640E+03  0.60884172641E+03  0.25500000920E-02 0.  1.
    10030    2    1    2    0    0  0.00000000000E+00  0.00000000000E+00 -0.46228016207E+03  0.75540329076E+03  0.59743717950E+03 0.  0.
        4    1    3    3  502    0 -0.13700853337E+03 -0.18622837353E+03  0.80260841816E+01  0.23134039045E+03  0.12699999809E+01 0. -1.
       -4    1    3    3    0  502  0.13700853337E+03  0.18622837353E+03 -0.47030624625E+03  0.52406290032E+03  0.12699999809E+01 0.  1.
</event>
<event>
 5   0  0.2276105E-02  0.5978422E+03  0.7818609E-02  0.9909893E-01
        1   -1    0    0  501    0  0.00000000000E+00  0.00000000000E+00  0.45211017720E+03  0.45211017723E+03  0.50400001928E-02 0. -1.
       -1   -1    0    0    0  501  0.00000000000E+00  0.00000000000E+00 -0.19763729561E+03  0.19763729567E+03  0.50400001928E-02 0.  1.
    10030    2    1    2    0    0  0.00000000000E+00  0.00000000000E+00  0.25447288159E+03  0.64974747290E+03  0.59784222925E+03 0.  0.
        1    1    3    3  502    0 -0.62405439267E+02 -0.28983723481E+03  0.16867513315E+03  0.34110315463E+03  0.50400001928E-02 0. -1.
       -1    1    3    3    0  502  0.62405439267E+02  0.28983723481E+03  0.85797748444E+02  0.30864431826E+03  0.50400001928E-02 0.  1.
</event>
<event>
 5   0  0.3737642E-02  0.5965212E+03  0.7818609E-02  0.9912650E-01
        2   -1    0    0  501    0  0.00000000000E+00  0.00000000000E+00  0.84140425344E+03  0.84140425344E+03  0.25500000920E-02 0. -1.
       -2   -1    0    0    0  501  0.00000000000E+00  0.00000000000E+00 -0.10572726890E+03  0.10572726893E+03  0.25500000920E-02 0.  1.
    10030    2    1    2    0    0  0.00000000000E+00  0.00000000000E+00  0.73567698454E+03  0.94713152237E+03  0.59652116064E+03 0.  0.
        5    1    3    3  502    0 -0.13340411481E+03  0.16860715908E+03  0.69597962359E+03  0.72844681233E+03  0.46999998093E+01 0. -1.
       -5    1    3    3    0  502  0.13340411481E+03 -0.16860715908E+03  0.39697360944E+02  0.21868471004E+03  0.46999998093E+01 0.  1.
</event>
<event>
 5   0  0.1521750E-02  0.6001539E+03  0.7818609E-02  0.9905087E-01
        3   -1    0    0  501    0  0.00000000000E+00  0.00000000000E+00  0.48272959635E+03  0.48272960692E+03  0.10100000352E+00 0. -1.
       -3   -1    0    0    0  501  0.00000000000E+00  0.00000000000E+00 -0.18653543329E+03  0.18653546064E+03  0.10100000352E+00 0.  1.
    10030    2    1    2    0    0  0.00000000000E+00  0.00000000000E+00  0.29619416306E+03  0.66926506755E+03  0.60015393727E+03 0.  0.
        2    1    3    3  502    0  0.12484784440E+03  0.26340904735E+03  0.68655434034E+02  0.29947433797E+03  0.25500000920E-02 0.  1.
       -2    1    3    3    0  502 -0.12484784440E+03 -0.26340904735E+03  0.22753872902E+03  0.36979072958E+03  0.25500000920E-02 0. -1.
</event>
<event>
 5   0  0.3934634E-02  0.5950760E+03  0.7818609E-02  0.9915675E-01
       -2   -1    0    0    0  501  0.00000000000E+00  0.00000000000E+00  0.11177573269E+03  0.11177573272E+03  0.25500000920E-02 0.  1.
        2   -1    0    0  501    0  0.00000000000E+00  0.00000000000E+00 -0.79202229179E+03  0.79202229179E+03  0.25500000920E-02 0. -1.
    10030    2    1    2    0    0  0.00000000000E+00  0.00000000000E+00 -0.68024655910E+03  0.90379802451E+03  0.59507603543E+03 0.  0.
        1    1    3    3  502    0  0.22198946919E+03  0.33558967080E+00 -0.64101873675E+03  0.67836896888E+03  0.50400001928E-02 0. -1.
       -1    1    3    3    0  502 -0.22198946919E+03 -0.33558967080E+00 -0.39227822348E+02  0.22542905563E+03  0.50400001928E-02 0.  1.
</event>
<event>
 5   0  0.3832191E-02  0.5986231E+03  0.7818609E-02  0.9908267E-01
       -2   -1    0    0    0  501  0.00000000000E+00  0.00000000000E+00  0.66870744544E+02  0.66870744592E+02  0.25500000920E-02 0.  1.
        2   -1    0    0  501    0  0.00000000000E+00  0.00000000000E+00 -0.13397099848E+04  0.13397099848E+04  0.25500000920E-02 0. -1.
    10030    2    1    2    0    0  0.00000000000E+00  0.00000000000E+00 -0.12728392402E+04  0.14065807294E+04  0.59862310076E+03 0.  0.
        3    1    3    3  502    0 -0.94067998435E+02 -0.14276490479E+03 -0.59155918945E+02  0.18091445304E+03  0.10100000352E+00 0.  1.
       -3    1    3    3    0  502  0.94067998435E+02  0.14276490479E+03 -0.12136833213E+04  0.12256662763E+04  0.10100000352E+00 0. -1.
</event>
<event>
 5   0  0.2309055E-02  0.5989497E+03  0.7818609E-02  0.9907588E-01
        1   -1    0    0  501    0  0.00000000000E+00  0.00000000000E+00  0.16693202980E+04  0.16693202980E+04  0.50400001928E-02 0.  1.
       -1   -1    0    0    0  501  0.00000000000E+00  0.00000000000E+00 -0.53725566974E+02  0.53725567210E+02  0.50400001928E-02 0. -1.
    10030    2    1    2    0    0  0.00000000000E+00  0.00000000000E+00  0.16155947311E+04  0.17230458653E+04  0.59894967963E+03 0.  0.
        4    1    3    3  502    0  0.21776910565E+03 -0.13095440474E+03  0.12636658884E+04  0.12889629668E+04  0.12699999809E+01 0.  1.
       -4    1    3    3    0  502 -0.21776910565E+03  0.13095440474E+03  0.35192884271E+03  0.43408289846E+03  0.12699999809E+01 0. -1.
</event>
<event>
 5   0  0.1521750E-02  0.5988531E+03  0.7818609E-02  0.9907788E-01
       -4   -1    0    0    0  501  0.00000000000E+00  0.00000000000E+00  0.12016524973E+04  0.12016531684E+04  0.12699999809E+01 0.  1.
        4   -1    0    0  501    0  0.00000000000E+00  0.00000000000E+00 -0.74604714614E+02  0.74615523469E+02  0.12699999809E+01 0. -1.
    10030    2    1    2    0    0  0.00000000000E+00  0.00000000000E+00  0.11270477827E+04  0.12762686919E+04  0.59885312844E+03 0.  0.
        3    1    3    3  502    0  0.11769391593E+03  0.55986506520E+02 -0.10988110018E+02  0.13079409590E+03  0.10100000352E+00 0. -1.
       -3    1    3    3    0  502 -0.11769391593E+03 -0.55986506520E+02  0.11380358927E+04  0.11454745960E+04  0.10100000352E+00 0.  1.
</event>
<event>
 5   0  0.3934634E-02  0.5553440E+03  0.7818609E-02  0.1000265E+00
        2   -1    0    0  501    0  0.00000000000E+00  0.00000000000E+00  0.13900553840E+04  0.13900553840E+04  0.25500000920E-02 0.  1.
       -2   -1    0    0    0  501  0.00000000000E+00  0.00000000000E+00 -0.55466665441E+02  0.55466665500E+02  0.25500000920E-02 0. -1.
    10030    2    1    2    0    0  0.00000000000E+00  0.00000000000E+00  0.13345887185E+04  0.14455220495E+04  0.55534399059E+03 0.  0.
        1    1    3    3  502    0 -0.21339443174E+03 -0.74907865261E+02  0.10866277855E+04  0.11099136525E+04  0.50400001928E-02 0.  1.
       -1    1    3    3    0  502  0.21339443174E+03  0.74907865261E+02  0.24796093301E+03  0.33560839695E+03  0.50400001928E-02 0. -1.
</event>
<event>
 5   0  0.3832191E-02  0.5956552E+03  0.7818609E-02  0.9914461E-01
        2   -1    0    0  501    0  0.00000000000E+00  0.00000000000E+00  0.33633639904E+03  0.33633639905E+03  0.25500000920E-02 0.  1.
       -2   -1    0    0    0  501  0.00000000000E+00  0.00000000000E+00 -0.26372787057E+03  0.26372787058E+03  0.25500000920E-02 0. -1.
    10030    2    1    2    0    0  0.00000000000E+00  0.00000000000E+00  0.72608528473E+02  0.60006426963E+03  0.59565521007E+03 0.  0.
        3    1    3    3  502    0  0.21934840176E+02  0.11593938540E+03  0.31178441280E+03  0.33336557795E+03  0.10100000352E+00 0.  1.
       -3    1    3    3    0  502 -0.21934840176E+02 -0.11593938540E+03 -0.23917588433E+03  0.26669869168E+03  0.10100000352E+00 0. -1.
</event>
<event>
 5   0  0.2382531E-02  0.6188994E+03  0.7818609E-02  0.9866954E-01
       -1   -1    0    0    0  501  0.00000000000E+00  0.00000000000E+00  0.37424009128E+03  0.37424009131E+03  0.50400001928E-02 0.  1.
        1   -1    0    0  501    0  0.00000000000E+00  0.00000000000E+00 -0.25587613078E+03  0.25587613083E+03  0.50400001928E-02 0. -1.
    10030    2    1    2    0    0  0.00000000000E+00  0.00000000000E+00  0.11836396049E+03  0.63011622214E+03  0.61889936683E+03 0.  0.
        5    1    3    3  502    0  0.12275133625E+03  0.25697734012E+02  0.34716665128E+03  0.36915449048E+03  0.46999998093E+01 0.  1.
       -5    1    3    3    0  502 -0.12275133625E+03 -0.25697734012E+02 -0.22880269078E+03  0.26096173166E+03  0.46999998093E+01 0. -1.
</event>
<event>
 5   0  0.3832191E-02  0.6033060E+03  0.7818609E-02  0.9898571E-01
        2   -1    0    0  501    0  0.00000000000E+00  0.00000000000E+00  0.80152317465E+03  0.80152317465E+03  0.25500000920E-02 0.  1.
       -2   -1    0    0    0  501  0.00000000000E+00  0.00000000000E+00 -0.11352702022E+03  0.11352702024E+03  0.25500000920E-02 0. -1.
    10030    2    1    2    0    0  0.00000000000E+00  0.00000000000E+00  0.68799615443E+03  0.91505019490E+03  0.60330601743E+03 0.  0.
        3    1    3    3  502    0 -0.21269680981E+03  0.15688647262E+03  0.12346568988E+03  0.29171404658E+03  0.10100000352E+00 0. -1.
       -3    1    3    3    0  502  0.21269680981E+03 -0.15688647262E+03  0.56453046455E+03  0.62333614832E+03  0.10100000352E+00 0.  1.
</event>
<event>
 5   0  0.2225808E-02  0.5877138E+03  0.7818609E-02  0.9931229E-01
        1   -1    0    0  501    0  0.00000000000E+00  0.00000000000E+00  0.28609839685E+03  0.28609839690E+03  0.50400001928E-02 0.  1.
       -1   -1    0    0    0  501  0.00000000000E+00  0.00000000000E+00 -0.30182579717E+03  0.30182579722E+03  0.50400001928E-02 0. -1.
    10030    2    1    2    0    0  0.00000000000E+00  0.00000000000E+00 -0.15727400321E+02  0.58792419411E+03  0.58771379676E+03 0.  0.
        2    1    3    3  502    0 -0.41851164727E+02 -0.24811165620E+03  0.14398313959E+03  0.28990008352E+03  0.25500000920E-02 0.  1.
       -2    1    3    3    0  502  0.41851164727E+02  0.24811165620E+03 -0.15971053991E+03  0.29802411060E+03  0.25500000920E-02 0. -1.
</event>
<event>
 5   0  0.2309055E-02  0.6169639E+03  0.7818609E-02  0.9870823E-01
        1   -1    0    0  501    0  0.00000000000E+00  0.00000000000E+00  0.83048678834E+03  0.83048678836E+03  0.50400001928E-02 0.  1.
       -1   -1    0    0    0  501  0.00000000000E+00  0.00000000000E+00 -0.11458473251E+03  0.11458473262E+03  0.50400001928E-02 0. -1.
    10030    2    1    2    0    0  0.00000000000E+00  0.00000000000E+00  0.71590205583E+03  0.94507152098E+03  0.61696387757E+03 0.  0.
        4    1    3    3  502    0 -0.54829685621E+02  0.28257705637E+03  0.52786051329E+03  0.60124406159E+03  0.12699999809E+01 0.  1.
       -4    1    3    3    0  502  0.54829685621E+02 -0.28257705637E+03  0.18804154254E+03  0.34382745939E+03  0.12699999809E+01 0. -1.
</event>
<event>
 5   0  0.3832191E-02  0.5864842E+03  0.7818609E-02  0.9933851E-01
        2   -1    0    0  501    0  0.00000000000E+00  0.00000000000E+00  0.18469229297E+03  0.18469229299E+03  0.25500000920E-02 0.  1.
       -2   -1    0    0    0  501  0.00000000000E+00  0.00000000000E+00 -0.46559021920E+03  0.46559021921E+03  0.25500000920E-02 0. -1.
    10030    2    1    2    0    0  0.00000000000E+00  0.00000000000E+00 -0.28089792623E+03  0.65028251219E+03  0.58648418624E+03 0.  0.
        3    1    3    3  502    0 -0.18237625558E+03  0.27586878644E+01  0.11414174870E+03  0.21516751139E+03  0.10100000352E+00 0.  1.
       -3    1    3    3    0  502  0.18237625558E+03 -0.27586878644E+01 -0.39503967493E+03  0.43511500081E+03  0.10100000352E+00 0. -1.
</event>
<event>
 5   0  0.2295179E-02  0.5964159E+03  0.7818609E-02  0.9912870E-01
       -1   -1    0    0    0  501  0.00000000000E+00  0.00000000000E+00  0.10915759598E+03  0.10915759610E+03  0.50400001928E-02 0.  1.
        1   -1    0    0  501    0  0.00000000000E+00  0.00000000000E+00 -0.81467520796E+03  0.81467520798E+03  0.50400001928E-02 0. -1.
    10030    2    1    2    0    0  0.00000000000E+00  0.00000000000E+00 -0.70551761198E+03  0.92383280408E+03  0.59641591953E+03 0.  0.
        3    1    3    3  502    0 -0.99006809411E+02  0.21311986475E+03 -0.63713607181E+03  0.67909116418E+03  0.10100000352E+00 0. -1.
       -3    1    3    3    0  502  0.99006809411E+02 -0.21311986475E+03 -0.68381540169E+02  0.24474163990E+03  0.10100000352E+00 0.  1.
</event>
<event>
 5   0  0.2276105E-02  0.5992632E+03  0.7818609E-02  0.9906936E-01
        1   -1    0    0  501    0  0.00000000000E+00  0.00000000000E+00  0.17509484524E+03  0.17509484531E+03  0.50400001928E-02 0. -1.
       -1   -1    0    0    0  501  0.00000000000E+00  0.00000000000E+00 -0.51274555930E+03  0.51274555932E+03  0.50400001928E-02 0.  1.
    10030    2    1    2    0    0  0.00000000000E+00  0.00000000000E+00 -0.33765071406E+03  0.68784040463E+03  0.59926322892E+03 0.  0.
        1    1    3    3  502    0 -0.73909582514E+02  0.27781557373E+03 -0.26577954746E+03  0.39151358504E+03  0.50400001928E-02 0.  1.
       -1    1    3    3    0  502  0.73909582514E+02 -0.27781557373E+03 -0.71871166599E+02  0.29632681959E+03  0.50400001928E-02 0. -1.
</event>
<event>
 5   0  0.2309055E-02  0.5983667E+03  0.7818609E-02  0.9908800E-01
        1   -1    0    0  501    0  0.00000000000E+00  0.00000000000E+00  0.27355163221E+03  0.27355163225E+03  0.50400001928E-02 0. -1.
       -1   -1    0    0    0  501  0.00000000000E+00  0.00000000000E+00 -0.32721678770E+03  0.32721678774E+03  0.50400001928E-02 0.  1.
    10030    2    1    2    0    0  0.00000000000E+00  0.00000000000E+00 -0.53665155493E+02  0.60076841999E+03  0.59836673165E+03 0.  0.
        4    1    3    3  502    0 -0.18342690470E+03  0.13134133534E+03 -0.22412344338E+03  0.31800771454E+03  0.12699999809E+01 0.  1.
       -4    1    3    3    0  502  0.18342690470E+03 -0.13134133534E+03  0.17045828788E+03  0.28276070545E+03  0.12699999809E+01 0. -1.
</event>
<event>
 5   0  0.3798925E-02  0.6005870E+03  0.7818609E-02  0.9904189E-01
        2   -1    0    0  501    0  0.00000000000E+00  0.00000000000E+00  0.42993223340E+03  0.42993223340E+03  0.25500000920E-02 0. -1.
       -2   -1    0    0    0  501  0.00000000000E+00  0.00000000000E+00 -0.20974513102E+03  0.20974513104E+03  0.25500000920E-02 0.  1.
    10030    2    1    2    0    0  0.00000000000E+00  0.00000000000E+00  0.22018710237E+03  0.63967736444E+03  0.60058702161E+03 0.  0.
        2    1    3    3  502    0 -0.26196420782E+03 -0.34543553116E+02  0.26206054830E+03  0.37214813478E+03  0.25500000920E-02 0.  1.
       -2    1    3    3    0  502  0.26196420782E+03  0.34543553116E+02 -0.41873445924E+02  0.26752922966E+03  0.25500000920E-02 0. -1.
</event>
<event>
 5   0  0.3798925E-02  0.5957950E+03  0.7818609E-02  0.9914169E-01
       -2   -1    0    0    0  501  0.00000000000E+00  0.00000000000E+00  0.52599184740E+02  0.52599184802E+02  0.25500000920E-02 0. -1.
        2   -1    0    0  501    0  0.00000000000E+00  0.00000000000E+00 -0.16871539356E+04  0.16871539356E+04  0.25500000920E-02 0.  1.
    10030    2    1    2    0    0  0.00000000000E+00  0.00000000000E+00 -0.16345547508E+04  0.17397531204E+04  0.59579500366E+03 0.  0.
        2    1    3    3  502    0 -0.23848981070E+03  0.32952424942E+02 -0.13295754730E+04  0.13511973174E+04  0.25500000920E-02 0.  1.
       -2    1    3    3    0  502  0.23848981070E+03 -0.32952424942E+02 -0.30497927782E+03  0.38855580297E+03  0.25500000920E-02 0. -1.
</event>
<event>
 5   0  0.3798925E-02  0.5942737E+03  0.7818609E-02  0.9917358E-01
       -2   -1    0    0    0  501  0.00000000000E+00  0.00000000000E+00  0.55004260808E+02  0.55004260867E+02  0.25500000920E-02 0.  1.
        2   -1    0    0  501    0  0.00000000000E+00  0.00000000000E+00 -0.16051539897E+04  0.16051539897E+04  0.25500000920E-02 0. -1.
    10030    2    1    2    0    0  0.00000000000E+00  0.00000000000E+00 -0.15501497289E+04  0.16601582505E+04  0.59427370373E+03 0.  0.
        2    1    3    3  502    0  0.29607126010E+03 -0.19478071552E+02 -0.81948528040E+03  0.87154673491E+03  0.25500000920E-02 0.  1.
       -2    1    3    3    0  502 -0.29607126010E+03  0.19478071552E+02 -0.73066444845E+03  0.78861151562E+03  0.25500000920E-02 0. -1.
</event>
<event>
 5   0  0.1521750E-02  0.5984051E+03  0.7818609E-02  0.9908720E-01
        4   -1    0    0  501    0  0.00000000000E+00  0.00000000000E+00  0.49399504017E+03  0.49399667267E+03  0.12699999809E+01 0. -1.
       -4   -1    0    0    0  501  0.00000000000E+00  0.00000000000E+00 -0.18121663366E+03  0.18122108380E+03  0.12699999809E+01 0.  1.
    10030    2    1    2    0    0  0.00000000000E+00  0.00000000000E+00  0.31277840651E+03  0.67521775648E+03  0.59840511953E+03 0.  0.
        5    1    3    3  502    0 -0.58672056876E+02  0.20633454276E+03  0.39168379191E+03  0.44660344450E+03  0.46999998093E+01 0. -1.
       -5    1    3    3    0  502  0.58672056876E+02 -0.20633454276E+03 -0.78905385406E+02  0.22861431197E+03  0.46999998093E+01 0.  1.
</event>
<event>
 5   0  0.2309055E-02  0.5988422E+03  0.7818609E-02  0.9907811E-01
        1   -1    0    0  501    0  0.00000000000E+00  0.00000000000E+00  0.57679390880E+03  0.57679390883E+03  0.50400001928E-02 0.  1.
       -1   -1    0    0    0  501  0.00000000000E+00  0.00000000000E+00 -0.15543330000E+03  0.15543330008E+03  0.50400001928E-02 0. -1.
    10030    2    1    2    0    0  0.00000000000E+00  0.00000000000E+00  0.42136060881E+03  0.73222720891E+03  0.59884215183E+03 0.  0.
        4    1    3    3  502    0 -0.20319712272E+03  0.57655051965E+02  0.47017230546E+03  0.51543843999E+03  0.12699999809E+01 0.  1.
       -4    1    3    3    0  502  0.20319712272E+03 -0.57655051965E+02 -0.48811696655E+02  0.21678876892E+03  0.12699999809E+01 0. -1.
</event>
<event>
 5   0  0.2295179E-02  0.6032476E+03  0.7818609E-02  0.9898691E-01
       -1   -1    0    0    0  501  0.00000000000E+00  0.00000000000E+00  0.17316336906E+03  0.17316336913E+03  0.50400001928E-02 0.  1.
        1   -1    0    0  501    0  0.00000000000E+00  0.00000000000E+00 -0.52538200697E+03  0.52538200699E+03  0.50400001928E-02 0. -1.
    10030    2    1    2    0    0  0.00000000000E+00  0.00000000000E+00 -0.35221863791E+03  0.69854537613E+03  0.60324760556E+03 0.  0.
        3    1    3    3  502    0  0.23984863933E+03  0.16596928497E+03 -0.26508318012E+03  0.39413484486E+03  0.10100000352E+00 0. -1.
       -3    1    3    3    0  502 -0.23984863933E+03 -0.16596928497E+03 -0.87135457787E+02  0.30441053127E+03  0.10100000352E+00 0.  1.
</event>
<event>
 5   0  0.3737642E-02  0.6008379E+03  0.7818609E-02  0.9903669E-01
        2   -1    0    0  501    0  0.00000000000E+00  0.00000000000E+00  0.44288186084E+03  0.44288186084E+03  0.25500000920E-02 0. -1.
       -2   -1    0    0    0  501  0.00000000000E+00  0.00000000000E+00 -0.20378244387E+03  0.20378244388E+03  0.25500000920E-02 0.  1.
    10030    2    1    2    0    0  0.00000000000E+00  0.00000000000E+00  0.23909941697E+03  0.64666430473E+03  0.60083790810E+03 0.  0.
        5    1    3    3  502    0 -0.14185100816E+03 -0.19453201530E+03  0.31287456544E+03  0.39481261022E+03  0.46999998093E+01 0. -1.
       -5    1    3    3    0  502  0.14185100816E+03  0.19453201530E+03 -0.73775148470E+02  0.25185169450E+03  0.46999998093E+01 0.  1.
</event>
<event>
 5   0  0.2225808E-02  0.5990433E+03  0.7818609E-02  0.9907393E-01
       -1   -1    0    0    0  501  0.00000000000E+00  0.00000000000E+00  0.73831001783E+03  0.73831001785E+03  0.50400001928E-02 0.  1.
        1   -1    0    0  501    0  0.00000000000E+00  0.00000000000E+00 -0.12151157877E+03  0.12151157887E+03  0.50400001928E-02 0. -1.
    10030    2    1    2    0    0  0.00000000000E+00  0.00000000000E+00  0.61679843906E+03  0.85982159673E+03  0.59904329039E+03 0.  0.
        2    1    3    3  502    0  0.64072347745E+02  0.18376878624E+03 -0.18391715742E+02  0.19548526225E+03  0.25500000920E-02 0. -1.
       -2    1    3    3    0  502 -0.64072347745E+02 -0.18376878624E+03  0.63519015481E+03  0.66433633448E+03  0.25500000920E-02 0.  1.
</event>
<event>
 5   0  0.3737642E-02  0.5914944E+03  0.7818609E-02  0.9923211E-01
       -2   -1    0    0    0  501  0.00000000000E+00  0.00000000000E+00  0.43963703829E+02  0.43963703902E+02  0.25500000920E-02 0.  1.
        2   -1    0    0  501    0  0.00000000000E+00  0.00000000000E+00 -0.19895141786E+04  0.19895141786E+04  0.25500000920E-02 0. -1.
    10030    2    1    2    0    0  0.00000000000E+00  0.00000000000E+00 -0.19455504748E+04  0.20334778825E+04  0.59149441988E+03 0.  0.
        5    1    3    3  502    0 -0.22609159922E+03 -0.11537756095E+03 -0.14943224450E+04  0.15157344927E+04  0.46999998093E+01 0. -1.
       -5    1    3    3    0  502  0.22609159922E+03  0.11537756095E+03 -0.45122802978E+03  0.51774338978E+03  0.46999998093E+01 0.  1.
</event>
<event>
 5   0  0.2309055E-02  0.6086160E+03  0.7818609E-02  0.9887690E-01
        1   -1    0    0  501    0  0.00000000000E+00  0.00000000000E+00  0.10332129943E+04  0.10332129943E+04  0.50400001928E-02 0. -1.
       -1   -1    0    0    0  501  0.00000000000E+00  0.00000000000E+00 -0.89626596153E+02  0.89626596295E+02  0.50400001928E-02 0.  1.
    10030    2    1    2    0    0  0.00000000000E+00  0.00000000000E+00  0.94358639814E+03  0.11228395906E+04  0.60861601644E+03 0.  0.
        4    1    3    3  502    0  0.25928258103E+03 -0.14072710408E+03  0.60948523174E+03  0.67713029415E+03  0.12699999809E+01 0.  1.
       -4    1    3    3    0  502 -0.25928258103E+03  0.14072710408E+03  0.33410116640E+03  0.44570929645E+03  0.12699999809E+01 0. -1.
</event>
<event>
 5   0  0.2382531E-02  0.6011827E+03  0.7818609E-02  0.9902955E-01
        1   -1    0    0  501    0  0.00000000000E+00  0.00000000000E+00  0.64678306839E+03  0.64678306841E+03  0.50400001928E-02 0. -1.
       -1   -1    0    0    0  501  0.00000000000E+00  0.00000000000E+00 -0.13969933091E+03  0.13969933100E+03  0.50400001928E-02 0.  1.
    10030    2    1    2    0    0  0.00000000000E+00  0.00000000000E+00  0.50708373748E+03  0.78648239940E+03  0.60118270747E+03 0.  0.
        5    1    3    3  502    0 -0.30333799894E+02  0.21767364491E+03 -0.14663824921E+02  0.22031584796E+03  0.46999998093E+01 0. -1.
       -5    1    3    3    0  502  0.30333799894E+02 -0.21767364491E+03  0.52174756240E+03  0.56616655144E+03  0.46999998093E+01 0.  1.
</event>
<event>
 5   0  0.2295179E-02  0.5999933E+03  0.7818609E-02  0.9905420E-01
        1   -1    0    0  501    0  0.00000000000E+00  0.00000000000E+00  0.39941536110E+03  0.39941536113E+03  0.50400001928E-02 0. -1.
       -1   -1    0    0    0  501  0.00000000000E+00  0.00000000000E+00 -0.22532433700E+03  0.22532433706E+03  0.50400001928E-02 0.  1.
    10030    2    1    2    0    0  0.00000000000E+00  0.00000000000E+00  0.17409102409E+03  0.62473969819E+03  0.59999333815E+03 0.  0.
        3    1    3    3  502    0 -0.19237371263E+03  0.20607959281E+03 -0.19759708845E+02  0.28260732506E+03  0.10100000352E+00 0.  1.
       -3    1    3    3    0  502  0.19237371263E+03 -0.20607959281E+03  0.19385073294E+03  0.34213237313E+03  0.10100000352E+00 0. -1.
</event>
<event>
 5   0  0.2276105E-02  0.6033573E+03  0.7818609E-02  0.9898465E-01
       -1   -1    0    0    0  501  0.00000000000E+00  0.00000000000E+00  0.51011986691E+03  0.51011986694E+03  0.50400001928E-02 0. -1.
        1   -1    0    0  501    0  0.00000000000E+00  0.00000000000E+00 -0.17840906987E+03  0.17840906994E+03  0.50400001928E-02 0.  1.
    10030    2    1    2    0    0  0.00000000000E+00  0.00000000000E+00  0.33171079704E+03  0.68852893688E+03  0.60335731043E+03 0.  0.
        1    1    3    3  502    0  0.17376000965E+03  0.24021627653E+03  0.10217881395E+03  0.31358716573E+03  0.50400001928E-02 0.  1.
       -1    1    3    3    0  502 -0.17376000965E+03 -0.24021627653E+03  0.22953198310E+03  0.37494177115E+03  0.50400001928E-02 0. -1.
</event>
<event>
 5   0  0.3724066E-02  0.5985394E+03  0.7818609E-02  0.9908441E-01
       -2   -1    0    0    0  501  0.00000000000E+00  0.00000000000E+00  0.12974090187E+03  0.12974090190E+03  0.25500000920E-02 0. -1.
        2   -1    0    0  501    0  0.00000000000E+00  0.00000000000E+00 -0.69031696783E+03  0.69031696783E+03  0.25500000920E-02 0.  1.
    10030    2    1    2    0    0  0.00000000000E+00  0.00000000000E+00 -0.56057606596E+03  0.82005786973E+03  0.59853937546E+03 0.  0.
        4    1    3    3  502    0 -0.88882342381E+02 -0.13254107437E+03  0.66575670193E+02  0.17291946086E+03  0.12699999809E+01 0. -1.
       -4    1    3    3    0  502  0.88882342381E+02  0.13254107437E+03 -0.62715173615E+03  0.64713840887E+03  0.12699999809E+01 0.  1.
</event>
<event>
 5   0  0.3798925E-02  0.6017587E+03  0.7818609E-02  0.9901764E-01
       -2   -1    0    0    0  501  0.00000000000E+00  0.00000000000E+00  0.27961356453E+03  0.27961356454E+03  0.25500000920E-02 0. -1.
        2   -1    0    0  501    0  0.00000000000E+00  0.00000000000E+00 -0.32376246665E+03  0.32376246666E+03  0.25500000920E-02 0.  1.
    10030    2    1    2    0    0  0.00000000000E+00  0.00000000000E+00 -0.44148902122E+02  0.60337603119E+03  0.60175868042E+03 0.  0.
        2    1    3    3  502    0  0.10849152313E+03  0.14823890588E+03  0.21685825258E+03  0.28420535802E+03  0.25500000920E-02 0. -1.
       -2    1    3    3    0  502 -0.10849152313E+03 -0.14823890588E+03 -0.26100715470E+03  0.31917067318E+03  0.25500000920E-02 0.  1.
</event>
<event>
 5   0  0.2295179E-02  0.6011089E+03  0.7818609E-02  0.9903108E-01
       -1   -1    0    0    0  501  0.00000000000E+00  0.00000000000E+00  0.95202659228E+02  0.95202659362E+02  0.50400001928E-02 0. -1.
        1   -1    0    0  501    0  0.00000000000E+00  0.00000000000E+00 -0.94884939949E+03  0.94884939951E+03  0.50400001928E-02 0.  1.
    10030    2    1    2    0    0  0.00000000000E+00  0.00000000000E+00 -0.85364674027E+03  0.10440520589E+04  0.60110892895E+03 0.  0.
        3    1    3    3  502    0 -0.47988379303E+02 -0.29580984869E+03 -0.38696499212E+03  0.48943668279E+03  0.10100000352E+00 0. -1.
       -3    1    3    3    0  502  0.47988379303E+02  0.29580984869E+03 -0.46668174814E+03  0.55461537608E+03  0.10100000352E+00 0.  1.
</event>
<event>
 5   0  0.3832191E-02  0.5998191E+03  0.7818609E-02  0.9905782E-01
       -2   -1    0    0    0  501  0.00000000000E+00  0.00000000000E+00  0.39702025871E+03  0.39702025872E+03  0.25500000920E-02 0. -1.
        2   -1    0    0  501    0  0.00000000000E+00  0.00000000000E+00 -0.22655198606E+03  0.22655198608E+03  0.25500000920E-02 0.  1.
    10030    2    1    2    0    0  0.00000000000E+00  0.00000000000E+00  0.17046827265E+03  0.62357224480E+03  0.59981906647E+03 0.  0.
        3    1    3    3  502    0 -0.58638562707E+02 -0.39976100163E+02  0.38816515986E+03  0.39459950729E+03  0.10100000352E+00 0. -1.
       -3    1    3    3    0  502  0.58638562707E+02  0.39976100163E+02 -0.21769688721E+03  0.22897273751E+03  0.10100000352E+00 0.  1.
</event>
<event>
 5   0  0.2276105E-02  0.5869402E+03  0.7818609E-02  0.9932878E-01
        1   -1    0    0  501    0  0.00000000000E+00  0.00000000000E+00  0.34796434025E+03  0.34796434029E+03  0.50400001928E-02 0.  1.
       -1   -1    0    0    0  501  0.00000000000E+00  0.00000000000E+00 -0.24751015990E+03  0.24751015995E+03  0.50400001928E-02 0. -1.
    10030    2    1    2    0    0  0.00000000000E+00  0.00000000000E+00  0.10045418035E+03  0.59547450024E+03  0.58694023383E+03 0.  0.
        1    1    3    3  502    0 -0.21465988473E+03 -0.88484368108E+02 -0.13187189377E+03  0.26701787563E+03  0.50400001928E-02 0. -1.
       -1    1    3    3    0  502  0.21465988473E+03  0.88484368108E+02  0.23232607412E+03  0.32845662462E+03  0.50400001928E-02 0.  1.
</event>
<event>
 5   0  0.2309055E-02  0.5993426E+03  0.7818609E-02  0.9906771E-01
       -1   -1    0    0    0  501  0.00000000000E+00  0.00000000000E+00  0.26847118580E+03  0.26847118585E+03  0.50400001928E-02 0.  1.
        1   -1    0    0  501    0  0.00000000000E+00  0.00000000000E+00 -0.33449735512E+03  0.33449735515E+03  0.50400001928E-02 0. -1.
    10030    2    1    2    0    0  0.00000000000E+00  0.00000000000E+00 -0.66026169318E+02  0.60296854100E+03  0.59934264524E+03 0.  0.
        4    1    3    3  502    0 -0.13656285882E+03 -0.26931921039E+02  0.23397241088E+03  0.27224886544E+03  0.12699999809E+01 0.  1.
       -4    1    3    3    0  502  0.13656285882E+03  0.26931921039E+02 -0.29999858020E+03  0.33071967556E+03  0.12699999809E+01 0. -1.
</event>
<event>
 5   0  0.2382531E-02  0.5922006E+03  0.7818609E-02  0.9921721E-01
       -1   -1    0    0    0  501  0.00000000000E+00  0.00000000000E+00  0.19939892594E+03  0.19939892600E+03  0.50400001928E-02 0. -1.
        1   -1    0    0  501    0  0.00000000000E+00  0.00000000000E+00 -0.43969836921E+03  0.43969836924E+03  0.50400001928E-02 0.  1.
    10030    2    1    2    0    0  0.00000000000E+00  0.00000000000E+00 -0.24029944327E+03  0.63909729524E+03  0.59220058287E+03 0.  0.
        5    1    3    3  502    0  0.91784411863E+02  0.16195135317E+03 -0.36859963142E+03  0.41296537062E+03  0.46999998093E+01 0.  1.
       -5    1    3    3    0  502 -0.91784411863E+02 -0.16195135317E+03  0.12830018815E+03  0.22613192462E+03  0.46999998093E+01 0. -1.
</event>
<event>
 5   0  0.3832191E-02  0.5994646E+03  0.7818609E-02  0.9906517E-01
       -2   -1    0    0    0  501  0.00000000000E+00  0.00000000000E+00  0.11343595476E+03  0.11343595479E+03  0.25500000920E-02 0. -1.
        2   -1    0    0  501    0  0.00000000000E+00  0.00000000000E+00 -0.79198399408E+03  0.79198399408E+03  0.25500000920E-02 0.  1.
    10030    2    1    2    0    0  0.00000000000E+00  0.00000000000E+00 -0.67854803932E+03  0.90541994887E+03  0.59946462961E+03 0.  0.
        3    1    3    3  502    0  0.17757374423E+03 -0.17274177127E+03 -0.84438708719E+02  0.26172898180E+03  0.10100000352E+00 0. -1.
       -3    1    3    3    0  502 -0.17757374423E+03  0.17274177127E+03 -0.59410933060E+03  0.64369096707E+03  0.10100000352E+00 0.  1.
</event>
<event>
 5   0  0.2309055E-02  0.6046747E+03  0.7818609E-02  0.9895755E-01
        1   -1    0    0  501    0  0.00000000000E+00  0.00000000000E+00  0.12838523744E+04  0.12838523744E+04  0.50400001928E-02 0.  1.
       -1   -1    0    0    0  501  0.00000000000E+00  0.00000000000E+00 -0.71198116831E+02  0.71198117009E+02  0.50400001928E-02 0. -1.
    10030    2    1    2    0    0  0.00000000000E+00  0.00000000000E+00  0.12126542576E+04  0.13550504914E+04  0.60467469427E+03 0.  0.
        4    1    3    3  502    0  0.13216814703E+03  0.17601922050E+03  0.14187504297E+03  0.26188036542E+03  0.12699999809E+01 0. -1.
       -4    1    3    3    0  502 -0.13216814703E+03 -0.17601922050E+03  0.10707792146E+04  0.10931701260E+04  0.12699999809E+01 0.  1.
</event>
<event>
 5   0  0.3934634E-02  0.6010743E+03  0.7818609E-02  0.9903180E-01
        2   -1    0    0  501    0  0.00000000000E+00  0.00000000000E+00  0.22303810554E+03  0.22303810555E+03  0.25500000920E-02 0.  1.
       -2   -1    0    0    0  501  0.00000000000E+00  0.00000000000E+00 -0.40496482099E+03  0.40496482100E+03  0.25500000920E-02 0. -1.
    10030    2    1    2    0    0  0.00000000000E+00  0.00000000000E+00 -0.18192671545E+03  0.62800292655E+03  0.60107432648E+03 0.  0.
        1    1    3    3  502    0 -0.11609147716E+03 -0.35008234647E+02  0.19634693905E+03  0.23077029285E+03  0.50400001928E-02 0.  1.
       -1    1    3    3    0  502  0.11609147716E+03  0.35008234647E+02 -0.37827365450E+03  0.39723263370E+03  0.50400001928E-02 0. -1.
</event>
<event>
 5   0  0.2309055E-02  0.6020859E+03  0.7818609E-02  0.9901088E-01
       -1   -1    0    0    0  501  0.00000000000E+00  0.00000000000E+00  0.72770269965E+03  0.72770269967E+03  0.50400001928E-02 0.  1.
        1   -1    0    0  501    0  0.00000000000E+00  0.00000000000E+00 -0.12453828454E+03  0.12453828464E+03  0.50400001928E-02 0. -1.
    10030    2    1    2    0    0  0.00000000000E+00  0.00000000000E+00  0.60316441511E+03  0.85224098431E+03  0.60208586072E+03 0.  0.
        4    1    3    3  502    0  0.13781080179E+03 -0.38874916879E+02  0.67640985733E+03  0.69140074071E+03  0.12699999809E+01 0.  1.
       -4    1    3    3    0  502 -0.13781080179E+03  0.38874916879E+02 -0.73245442227E+02  0.16084024360E+03  0.12699999809E+01 0. -1.
</event>
<event>
 5   0  0.2382531E-02  0.6020221E+03  0.7818609E-02  0.9901220E-01
        1   -1    0    0  501    0  0.00000000000E+00  0.00000000000E+00  0.11473482311E+04  0.11473482311E+04  0.50400001928E-02 0. -1.
       -1   -1    0    0    0  501  0.00000000000E+00  0.00000000000E+00 -0.78971369169E+02  0.78971369330E+02  0.50400001928E-02 0.  1.
    10030    2    1    2    0    0  0.00000000000E+00  0.00000000000E+00  0.10683768619E+04  0.12263196004E+04  0.60202212858E+03 0.  0.
        5    1    3    3  502    0  0.15052594528E+03  0.24460522369E+03  0.35090594342E+03  0.45348301709E+03  0.46999998093E+01 0. -1.
       -5    1    3    3    0  502 -0.15052594528E+03 -0.24460522369E+03  0.71747091847E+03  0.77283658331E+03  0.46999998093E+01 0.  1.
</event>
<event>
 5   0  0.1521750E-02  0.6016204E+03  0.7818609E-02  0.9902050E-01
        3   -1    0    0  501    0  0.00000000000E+00  0.00000000000E+00  0.12376581730E+03  0.12376585851E+03  0.10100000352E+00 0. -1.
       -3   -1    0    0    0  501  0.00000000000E+00  0.00000000000E+00 -0.73111269339E+03  0.73111270037E+03  0.10100000352E+00 0.  1.
    10030    2    1    2    0    0  0.00000000000E+00  0.00000000000E+00 -0.60734687609E+03  0.85487855888E+03  0.60162041399E+03 0.  0.
        1    1    3    3  502    0 -0.27382142751E+03 -0.12448293528E+03 -0.29862847556E+03  0.42385509526E+03  0.50400001928E-02 0.  1.
       -1    1    3    3    0  502  0.27382142751E+03  0.12448293528E+03 -0.30871840053E+03  0.43102346362E+03  0.50400001928E-02 0. -1.
</event>
<event>
 5   0  0.1521750E-02  0.5903755E+03  0.7818609E-02  0.9925577E-01
        3   -1    0    0  501    0  0.00000000000E+00  0.00000000000E+00  0.67699868190E+03  0.67699868944E+03  0.10100000352E+00 0.  1.
       -3   -1    0    0    0  501  0.00000000000E+00  0.00000000000E+00 -0.12870895016E+03  0.12870898979E+03  0.10100000352E+00 0. -1.
    10030    2    1    2    0    0  0.00000000000E+00  0.00000000000E+00  0.54828973174E+03  0.80570767922E+03  0.59037550290E+03 0.  0.
        5    1    3    3  502    0 -0.56899185227E+02  0.67183544430E+02  0.65861007271E+03  0.66448511179E+03  0.46999998093E+01 0.  1.
       -5    1    3    3    0  502  0.56899185227E+02 -0.67183544430E+02 -0.11032034097E+03  0.14122256743E+03  0.46999998093E+01 0. -1.
</event>
<event>
 5   0  0.2225808E-02  0.5958744E+03  0.7818609E-02  0.9914002E-01
       -1   -1    0    0    0  501  0.00000000000E+00  0.00000000000E+00  0.37993729737E+03  0.37993729741E+03  0.50400001928E-02 0.  1.
        1   -1    0    0  501    0  0.00000000000E+00  0.00000000000E+00 -0.23363481088E+03  0.23363481094E+03  0.50400001928E-02 0. -1.
    10030    2    1    2    0    0  0.00000000000E+00  0.00000000000E+00  0.14630248649E+03  0.61357210835E+03  0.59587441176E+03 0.  0.
        2    1    3    3  502    0 -0.29268669189E+03  0.19375207246E+02  0.12690989111E+03  0.31960447233E+03  0.25500000920E-02 0.  1.
       -2    1    3    3    0  502  0.29268669189E+03 -0.19375207246E+02  0.19392595380E+02  0.29396763602E+03  0.25500000920E-02 0. -1.
</event>
<event>
 5   0  0.1521750E-02  0.6019684E+03  0.7818609E-02  0.9901331E-01
        3   -1    0    0  501    0  0.00000000000E+00  0.00000000000E+00  0.24337369086E+03  0.24337371182E+03  0.10100000352E+00 0. -1.
       -3   -1    0    0    0  501  0.00000000000E+00  0.00000000000E+00 -0.37223203251E+03  0.37223204621E+03  0.10100000352E+00 0.  1.
    10030    2    1    2    0    0  0.00000000000E+00  0.00000000000E+00 -0.12885834165E+03  0.61560575803E+03  0.60196841869E+03 0.  0.
        3    1    3    3  502    0  0.45585153584E+02 -0.24431991834E+03  0.10918509680E+03  0.27146201260E+03  0.10100000352E+00 0. -1.
       -3    1    3    3    0  502 -0.45585153584E+02  0.24431991834E+03 -0.23804343845E+03  0.34414374542E+03  0.10100000352E+00 0.  1.
</event>
<event>
 5   0  0.2225808E-02  0.6682208E+03  0.7818609E-02  0.9773177E-01
        1   -1    0    0  501    0  0.00000000000E+00  0.00000000000E+00  0.31752175765E+03  0.31752175769E+03  0.50400001928E-02 0.  1.
       -1   -1    0    0    0  501  0.00000000000E+00  0.00000000000E+00 -0.35156567607E+03  0.35156567611E+03  0.50400001928E-02 0. -1.
    10030    2    1    2    0    0  0.00000000000E+00  0.00000000000E+00 -0.34043918416E+02  0.66908743380E+03  0.66822077616E+03 0.  0.
        2    1    3    3  502    0 -0.25738671505E+03  0.19405175949E+03 -0.10503217439E+03  0.33902177527E+03  0.25500000920E-02 0. -1.
       -2    1    3    3    0  502  0.25738671505E+03 -0.19405175949E+03  0.70988255974E+02  0.33006565853E+03  0.25500000920E-02 0.  1.
</event>
<event>
 5   0  0.1521750E-02  0.5999228E+03  0.7818609E-02  0.9905566E-01
       -3   -1    0    0    0  501  0.00000000000E+00  0.00000000000E+00  0.37047481103E+03  0.37047482480E+03  0.10100000352E+00 0. -1.
        3   -1    0    0  501    0  0.00000000000E+00  0.00000000000E+00 -0.24286892091E+03  0.24286894191E+03  0.10100000352E+00 0.  1.
    10030    2    1    2    0    0  0.00000000000E+00  0.00000000000E+00  0.12760589012E+03  0.61334376670E+03  0.59992275583E+03 0.  0.
        1    1    3    3  502    0  0.25032963215E+03 -0.11154768586E+03  0.18846944113E+03  0.33260869084E+03  0.50400001928E-02 0. -1.
       -1    1    3    3    0  502 -0.25032963215E+03  0.11154768586E+03 -0.60863551010E+02  0.28073507587E+03  0.50400001928E-02 0.  1.
</event>
<event>
 5   0  0.2382531E-02  0.6131803E+03  0.7818609E-02  0.9878432E-01
        1   -1    0    0  501    0  0.00000000000E+00  0.00000000000E+00  0.96876651177E+03  0.96876651178E+03  0.50400001928E-02 0.  1.
       -1   -1    0    0    0  501  0.00000000000E+00  0.00000000000E+00 -0.97028050137E+02  0.97028050268E+02  0.50400001928E-02 0. -1.
    10030    2    1    2    0    0  0.00000000000E+00  0.00000000000E+00  0.87173846163E+03  0.10657945621E+04  0.61318031851E+03 0.  0.
        5    1    3    3  502    0 -0.17153876332E+03  0.35320041188E+02  0.87318518680E+03  0.89058829606E+03  0.46999998093E+01 0.  1.
       -5    1    3    3    0  502  0.17153876332E+03 -0.35320041188E+02 -0.14467251640E+01  0.17520626600E+03  0.46999998093E+01 0. -1.
</event>
<event>
 5   0  0.3798925E-02  0.6081175E+03  0.7818609E-02  0.9888706E-01
       -2   -1    0    0    0  501  0.00000000000E+00  0.00000000000E+00  0.93369125442E+02  0.93369125477E+02  0.25500000920E-02 0. -1.
        2   -1    0    0  501    0  0.00000000000E+00  0.00000000000E+00 -0.99017461047E+03  0.99017461047E+03  0.25500000920E-02 0.  1.
    10030    2    1    2    0    0  0.00000000000E+00  0.00000000000E+00 -0.89680548503E+03  0.10835437359E+04  0.60811754599E+03 0.  0.
        2    1    3    3  502    0  0.19500146040E+03  0.20740782296E+03 -0.25809048215E+03  0.38425807938E+03  0.25500000920E-02 0. -1.
       -2    1    3    3    0  502 -0.19500146040E+03 -0.20740782296E+03 -0.63871500287E+03  0.69928565657E+03  0.25500000920E-02 0.  1.
</event>
<event>
 5   0  0.2309055E-02  0.6010787E+03  0.7818609E-02  0.9903171E-01
       -1   -1    0    0    0  501  0.00000000000E+00  0.00000000000E+00  0.35349527545E+03  0.35349527549E+03  0.50400001928E-02 0.  1.
        1   -1    0    0  501    0  0.00000000000E+00  0.00000000000E+00 -0.25551655024E+03  0.25551655029E+03  0.50400001928E-02 0. -1.
    10030    2    1    2    0    0  0.00000000000E+00  0.00000000000E+00  0.97978725213E+02  0.60901182578E+03  0.60107867484E+03 0.  0.
        4    1    3    3  502    0  0.61263971364E+01  0.26846847565E+03  0.18571266037E+03  0.32650215969E+03  0.12699999809E+01 0.  1.
       -4    1    3    3    0  502 -0.61263971364E+01 -0.26846847565E+03 -0.87733935155E+02  0.28250966609E+03  0.12699999809E+01 0. -1.
</event>
<event>
 5   0  0.2276105E-02  0.6022979E+03  0.7818609E-02  0.9900650E-01
        1   -1    0    0  501    0  0.00000000000E+00  0.00000000000E+00  0.35897843106E+03  0.35897843109E+03  0.50400001928E-02 0. -1.
       -1   -1    0    0    0  501  0.00000000000E+00  0.00000000000E+00 -0.25263544942E+03  0.25263544947E+03  0.50400001928E-02 0.  1.
    10030    2    1    2    0    0  0.00000000000E+00  0.00000000000E+00  0.10634298164E+03  0.61161388057E+03  0.60229785751E+03 0.  0.
        1    1    3    3  502    0 -0.15461211192E+03 -0.20923869979E+03  0.20719129053E+03  0.33258678498E+03  0.50400001928E-02 0. -1.
       -1    1    3    3    0  502  0.15461211192E+03  0.20923869979E+03 -0.10084830890E+03  0.27902709559E+03  0.50400001928E-02 0.  1.
</event>
<event>
 5   0  0.2276105E-02  0.6023220E+03  0.7818609E-02  0.9900600E-01
       -1   -1    0    0    0  501  0.00000000000E+00  0.00000000000E+00  0.85899237157E+02  0.85899237304E+02  0.50400001928E-02 0.  1.
        1   -1    0    0  501    0  0.00000000000E+00  0.00000000000E+00 -0.10558642613E+04  0.10558642614E+04  0.50400001928E-02 0. -1.
    10030    2    1    2    0    0  0.00000000000E+00  0.00000000000E+00 -0.96996502419E+03  0.11417634987E+04  0.60232195604E+03 0.  0.
        1    1    3    3  502    0  0.23780318488E+03 -0.18254895819E+03 -0.53937865778E+03  0.61709303462E+03  0.50400001928E-02 0. -1.
       -1    1    3    3    0  502 -0.23780318488E+03  0.18254895819E+03 -0.43058636641E+03  0.52467046404E+03  0.50400001928E-02 0.  1.
</event>
<event>
 5   0  0.1521750E-02  0.5755232E+03  0.7818609E-02  0.9957531E-01
        3   -1    0    0  501    0  0.00000000000E+00  0.00000000000E+00  0.23337144426E+03  0.23337146611E+03  0.10100000352E+00 0.  1.
       -3   -1    0    0    0  501  0.00000000000E+00  0.00000000000E+00 -0.35482801054E+03  0.35482802492E+03  0.10100000352E+00 0. -1.
    10030    2    1    2    0    0  0.00000000000E+00  0.00000000000E+00 -0.12145656629E+03  0.58819949103E+03  0.57552319133E+03 0.  0.
        4    1    3    3  502    0  0.23074778630E+02  0.14147268436E+03  0.19428332300E+03  0.24144272266E+03  0.12699999809E+01 0.  1.
       -4    1    3    3    0  502 -0.23074778630E+02 -0.14147268436E+03 -0.31573988928E+03  0.34675676837E+03  0.12699999809E+01 0. -1.
</event>
<event>
 5   0  0.3724066E-02  0.6066432E+03  0.7818609E-02  0.9891719E-01
        2   -1    0    0  501    0  0.00000000000E+00  0.00000000000E+00  0.18172564865E+03  0.18172564867E+03  0.25500000920E-02 0. -1.
       -2   -1    0    0    0  501  0.00000000000E+00  0.00000000000E+00 -0.50627960801E+03  0.50627960801E+03  0.25500000920E-02 0.  1.
    10030    2    1    2    0    0  0.00000000000E+00  0.00000000000E+00 -0.32455395936E+03  0.68800525668E+03  0.60664319058E+03 0.  0.
        4    1    3    3  502    0  0.17994287016E+03  0.17023706555E+03 -0.36080370716E+03  0.43765399919E+03  0.12699999809E+01 0.  1.
       -4    1    3    3    0  502 -0.17994287016E+03 -0.17023706555E+03  0.36249747803E+02  0.25035125748E+03  0.12699999809E+01 0. -1.
</event>
<event>
 5   0  0.2276105E-02  0.5999532E+03  0.7818609E-02  0.9905503E-01
       -1   -1    0    0    0  501  0.00000000000E+00  0.00000000000E+00  0.46885840768E+03  0.46885840770E+03  0.50400001928E-02 0. -1.
        1   -1    0    0  501    0  0.00000000000E+00  0.00000000000E+00 -0.19192566224E+03  0.19192566230E+03  0.50400001928E-02 0.  1.
    10030    2    1    2    0    0  0.00000000000E+00  0.00000000000E+00  0.27693274544E+03  0.66078407001E+03  0.59995319957E+03 0.  0.
        1    1    3    3  502    0 -0.26803357090E+02  0.24370258019E+03  0.32884041221E+03  0.41017725957E+03  0.50400001928E-02 0. -1.
       -1    1    3    3    0  502  0.26803357090E+02 -0.24370258019E+03 -0.51907666775E+02  0.25060681043E+03  0.50400001928E-02 0.  1.
</event>
<event>
 5   0  0.3724066E-02  0.5850097E+03  0.7818609E-02  0.9937004E-01
        2   -1    0    0  501    0  0.00000000000E+00  0.00000000000E+00  0.72548875050E+03  0.72548875050E+03  0.25500000920E-02 0.  1.
       -2   -1    0    0    0  501  0.00000000000E+00  0.00000000000E+00 -0.11793303358E+03  0.11793303361E+03  0.25500000920E-02 0. -1.
    10030    2    1    2    0    0  0.00000000000E+00  0.00000000000E+00  0.60755571692E+03  0.84342178412E+03  0.58500970655E+03 0.  0.
        4    1    3    3  502    0  0.11122122241E+03  0.21062833781E+03  0.59011640088E+02  0.24539446524E+03  0.12699999809E+01 0. -1.
       -4    1    3    3    0  502 -0.11122122241E+03 -0.21062833781E+03  0.54854407683E+03  0.59802731888E+03  0.12699999809E+01 0.  1.
</event>
<event>
 5   0  0.3832191E-02  0.6016875E+03  0.7818609E-02  0.9901911E-01
       -2   -1    0    0    0  501  0.00000000000E+00  0.00000000000E+00  0.51427147279E+02  0.51427147343E+02  0.25500000920E-02 0. -1.
        2   -1    0    0  501    0  0.00000000000E+00  0.00000000000E+00 -0.17599062453E+04  0.17599062453E+04  0.25500000920E-02 0.  1.
    10030    2    1    2    0    0  0.00000000000E+00  0.00000000000E+00 -0.17084790980E+04  0.18113333927E+04  0.60168748611E+03 0.  0.
        3    1    3    3  502    0  0.10282880812E+03  0.28146261469E+03 -0.93456652158E+03  0.98143240252E+03  0.10100000352E+00 0.  1.
       -3    1    3    3    0  502 -0.10282880812E+03 -0.28146261469E+03 -0.77391257645E+03  0.82990099014E+03  0.10100000352E+00 0. -1.
</event>
<event>
 5   0  0.3934634E-02  0.5950252E+03  0.7818609E-02  0.9915781E-01
       -2   -1    0    0    0  501  0.00000000000E+00  0.00000000000E+00  0.30232552801E+03  0.30232552802E+03  0.25500000920E-02 0.  1.
        2   -1    0    0  501    0  0.00000000000E+00  0.00000000000E+00 -0.29277629882E+03  0.29277629883E+03  0.25500000920E-02 0. -1.
    10030    2    1    2    0    0  0.00000000000E+00  0.00000000000E+00  0.95492291934E+01  0.59510182685E+03  0.59502520664E+03 0.  0.
        1    1    3    3  502    0 -0.68184804478E+02  0.23027363524E+03 -0.17085732165E+03  0.29473265689E+03  0.50400001928E-02 0. -1.
       -1    1    3    3    0  502  0.68184804478E+02 -0.23027363524E+03  0.18040655085E+03  0.30036916996E+03  0.50400001928E-02 0.  1.
</event>
<event>
 5   0  0.3724066E-02  0.6147063E+03  0.7818609E-02  0.9875356E-01
        2   -1    0    0  501    0  0.00000000000E+00  0.00000000000E+00  0.28257953505E+03  0.28257953506E+03  0.25500000920E-02 0. -1.
       -2   -1    0    0    0  501  0.00000000000E+00  0.00000000000E+00 -0.33429867157E+03  0.33429867158E+03  0.25500000920E-02 0.  1.
    10030    2    1    2    0    0  0.00000000000E+00  0.00000000000E+00 -0.51719136523E+02  0.61687820665E+03  0.61470631423E+03 0.  0.
        4    1    3    3  502    0  0.14274076643E+03 -0.26091550790E+03  0.51954850738E+02  0.30191513390E+03  0.12699999809E+01 0. -1.
       -4    1    3    3    0  502 -0.14274076643E+03  0.26091550790E+03 -0.10367398726E+03  0.31496307275E+03  0.12699999809E+01 0.  1.
</event>
<event>
 5   0  0.2276105E-02  0.5975343E+03  0.7818609E-02  0.9910535E-01
       -1   -1    0    0    0  501  0.00000000000E+00  0.00000000000E+00  0.38615104260E+03  0.38615104264E+03  0.50400001928E-02 0. -1.
        1   -1    0    0  501    0  0.00000000000E+00  0.00000000000E+00 -0.23115774228E+03  0.23115774234E+03  0.50400001928E-02 0.  1.
    10030    2    1    2    0    0  0.00000000000E+00  0.00000000000E+00  0.15499330032E+03  0.61730878498E+03  0.59753427756E+03 0.  0.
        1    1    3    3  502    0 -0.15863718081E+03 -0.14832109098E+03  0.28946191700E+03  0.36187442930E+03  0.50400001928E-02 0. -1.
       -1    1    3    3    0  502  0.15863718081E+03  0.14832109098E+03 -0.13446861667E+03  0.25543435568E+03  0.50400001928E-02 0.  1.
</event>
<event>
 5   0  0.3832191E-02  0.6022816E+03  0.7818609E-02  0.9900684E-01
       -2   -1    0    0    0  501  0.00000000000E+00  0.00000000000E+00  0.10575670109E+03  0.10575670112E+03  0.25500000920E-02 0.  1.
        2   -1    0    0  501    0  0.00000000000E+00  0.00000000000E+00 -0.85749442938E+03  0.85749442939E+03  0.25500000920E-02 0. -1.
    10030    2    1    2    0    0  0.00000000000E+00  0.00000000000E+00 -0.75173772830E+03  0.96325113050E+03  0.60228160214E+03 0.  0.
        3    1    3    3  502    0 -0.84824888283E+02  0.13629700226E+03  0.31612642159E+02  0.16361999830E+03  0.10100000352E+00 0.  1.
       -3    1    3    3    0  502  0.84824888283E+02 -0.13629700226E+03 -0.78335037045E+03  0.79963113220E+03  0.10100000352E+00 0. -1.
</event>
<event>
 5   0  0.2276105E-02  0.6165484E+03  0.7818609E-02  0.9871656E-01
       -1   -1    0    0    0  501  0.00000000000E+00  0.00000000000E+00  0.96779655407E+02  0.96779655538E+02  0.50400001928E-02 0.  1.
        1   -1    0    0  501    0  0.00000000000E+00  0.00000000000E+00 -0.98195200688E+03  0.98195200689E+03  0.50400001928E-02 0. -1.
    10030    2    1    2    0    0  0.00000000000E+00  0.00000000000E+00 -0.88517235147E+03  0.10787316624E+04  0.61654838230E+03 0.  0.
        1    1    3    3  502    0 -0.30139113210E+03 -0.59638042988E+02 -0.48683716388E+03  0.57567676246E+03  0.50400001928E-02 0.  1.
       -1    1    3    3    0  502  0.30139113210E+03  0.59638042988E+02 -0.39833518760E+03  0.50305489997E+03  0.50400001928E-02 0. -1.
</event>
<event>
 5   0  0.3724066E-02  0.5987356E+03  0.7818609E-02  0.9908033E-01
        2   -1    0    0  501    0  0.00000000000E+00  0.00000000000E+00  0.14725596859E+04  0.14725596859E+04  0.25500000920E-02 0.  1.
       -2   -1    0    0    0  501  0.00000000000E+00  0.00000000000E+00 -0.60860747549E+02  0.60860747602E+02  0.25500000920E-02 0. -1.
    10030    2    1    2    0    0  0.00000000000E+00  0.00000000000E+00  0.14116989383E+04  0.15334204335E+04  0.59873561222E+03 0.  0.
        4    1    3    3  502    0 -0.16127352039E+03  0.14445104396E+03  0.12353481027E+04  0.12541777386E+04  0.12699999809E+01 0.  1.
       -4    1    3    3    0  502  0.16127352039E+03 -0.14445104396E+03  0.17635083568E+03  0.27924269484E+03  0.12699999809E+01 0. -1.
</event>
<event>
 5   0  0.3798925E-02  0.6041528E+03  0.7818609E-02  0.9896828E-01
        2   -1    0    0  501    0  0.00000000000E+00  0.00000000000E+00  0.13464918675E+04  0.13464918675E+04  0.25500000920E-02 0.  1.
       -2   -1    0    0    0  501  0.00000000000E+00  0.00000000000E+00 -0.67768809448E+02  0.67768809496E+02  0.25500000920E-02 0. -1.
    10030    2    1    2    0    0  0.00000000000E+00  0.00000000000E+00  0.12787230580E+04  0.14142606770E+04  0.60415279798E+03 0.  0.
        2    1    3    3  502    0 -0.22255251931E+03  0.20400902728E+03  0.66286906908E+03  0.72838500109E+03  0.25500000920E-02 0. -1.
       -2    1    3    3    0  502  0.22255251931E+03 -0.20400902728E+03  0.61585398897E+03  0.68587567590E+03  0.25500000920E-02 0.  1.
</event>
<event>
 5   0  0.3934634E-02  0.6016775E+03  0.7818609E-02  0.9901932E-01
        2   -1    0    0  501    0  0.00000000000E+00  0.00000000000E+00  0.16463507170E+04  0.16463507170E+04  0.25500000920E-02 0.  1.
       -2   -1    0    0    0  501  0.00000000000E+00  0.00000000000E+00 -0.54972455162E+02  0.54972455221E+02  0.25500000920E-02 0. -1.
    10030    2    1    2    0    0  0.00000000000E+00  0.00000000000E+00  0.15913782618E+04  0.17013231722E+04  0.60167745852E+03 0.  0.
        1    1    3    3  502    0 -0.86798278317E+02  0.16285984693E+03  0.12388566564E+03  0.22227219583E+03  0.50400001928E-02 0. -1.
       -1    1    3    3    0  502  0.86798278317E+02 -0.16285984693E+03  0.14674925962E+04  0.14790509764E+04  0.50400001928E-02 0.  1.
</event>
<event>
 5   0  0.3832191E-02  0.6000600E+03  0.7818609E-02  0.9905282E-01
       -2   -1    0    0    0  501  0.00000000000E+00  0.00000000000E+00  0.82960269009E+02  0.82960269048E+02  0.25500000920E-02 0.  1.
        2   -1    0    0  501    0  0.00000000000E+00  0.00000000000E+00 -0.10850734929E+04  0.10850734929E+04  0.25500000920E-02 0. -1.
    10030    2    1    2    0    0  0.00000000000E+00  0.00000000000E+00 -0.10021132239E+04  0.11680337620E+04  0.60005995998E+03 0.  0.
        3    1    3    3  502    0  0.25458283568E+03  0.12561539332E+03 -0.31206953834E+03  0.42187563834E+03  0.10100000352E+00 0.  1.
       -3    1    3    3    0  502 -0.25458283568E+03 -0.12561539332E+03 -0.69004368559E+03  0.74615812365E+03  0.10100000352E+00 0. -1.
</event>
<event>
 5   0  0.1521750E-02  0.5788099E+03  0.7818609E-02  0.9950371E-01
       -3   -1    0    0    0  501  0.00000000000E+00  0.00000000000E+00  0.11271505568E+04  0.11271505613E+04  0.10100000352E+00 0. -1.
        3   -1    0    0  501    0  0.00000000000E+00  0.00000000000E+00 -0.74307016859E+02  0.74307085500E+02  0.10100000352E+00 0.  1.
    10030    2    1    2    0    0  0.00000000000E+00  0.00000000000E+00  0.10528435399E+04  0.12014576468E+04  0.57880994938E+03 0.  0.
        4    1    3    3  502    0 -0.18890050653E+03  0.93044888686E+02  0.11433228839E+03  0.23961268277E+03  0.12699999809E+01 0.  1.
       -4    1    3    3    0  502  0.18890050653E+03 -0.93044888686E+02  0.93851125151E+03  0.96184496401E+03  0.12699999809E+01 0. -1.
</event>
<event>
 5   0  0.3798925E-02  0.5993615E+03  0.7818609E-02  0.9906732E-01
        2   -1    0    0  501    0  0.00000000000E+00  0.00000000000E+00  0.13479179982E+04  0.13479179982E+04  0.25500000920E-02 0. -1.
       -2   -1    0    0    0  501  0.00000000000E+00  0.00000000000E+00 -0.66627603525E+02  0.66627603574E+02  0.25500000920E-02 0.  1.
    10030    2    1    2    0    0  0.00000000000E+00  0.00000000000E+00  0.12812903947E+04  0.14145456018E+04  0.59936148026E+03 0.  0.
        2    1    3    3  502    0 -0.15225893765E+02  0.29872801594E+03  0.59723686281E+03  0.66795368526E+03  0.25500000920E-02 0. -1.
       -2    1    3    3    0  502  0.15225893765E+02 -0.29872801594E+03  0.68405353189E+03  0.74659191654E+03  0.25500000920E-02 0.  1.
</event>
<event>
 5   0  0.2225808E-02  0.5982084E+03  0.7818609E-02  0.9909130E-01
       -1   -1    0    0    0  501  0.00000000000E+00  0.00000000000E+00  0.11552543002E+03  0.11552543013E+03  0.50400001928E-02 0.  1.
        1   -1    0    0  501    0  0.00000000000E+00  0.00000000000E+00 -0.77440363680E+03  0.77440363681E+03  0.50400001928E-02 0. -1.
    10030    2    1    2    0    0  0.00000000000E+00  0.00000000000E+00 -0.65887820678E+03  0.88992906694E+03  0.59820836907E+03 0.  0.
        2    1    3    3  502    0 -0.11319119013E+03 -0.13253383262E+03 -0.69105261915E+03  0.71269291056E+03  0.25500000920E-02 0. -1.
       -2    1    3    3    0  502  0.11319119013E+03  0.13253383262E+03  0.32174412378E+02  0.17723615639E+03  0.25500000920E-02 0.  1.
</event>
<event>
 5   0  0.2225808E-02  0.5988895E+03  0.7818609E-02  0.9907713E-01
        1   -1    0    0  501    0  0.00000000000E+00  0.00000000000E+00  0.23879858236E+03  0.23879858241E+03  0.50400001928E-02 0.  1.
       -1   -1    0    0    0  501  0.00000000000E+00  0.00000000000E+00 -0.37549281595E+03  0.37549281598E+03  0.50400001928E-02 0. -1.
    10030    2    1    2    0    0  0.00000000000E+00  0.00000000000E+00 -0.13669423359E+03  0.61429139839E+03  0.59888947949E+03 0.  0.
        2    1    3    3  502    0 -0.86122418339E+02 -0.16290802924E+03 -0.31044915315E+03  0.36101907655E+03  0.25500000920E-02 0. -1.
       -2    1    3    3    0  502  0.86122418339E+02  0.16290802924E+03  0.17375491956E+03  0.25327232184E+03  0.25500000920E-02 0.  1.
</event>
<event>
 5   0  0.2309055E-02  0.5996191E+03  0.7818609E-02  0.9906197E-01
        1   -1    0    0  501    0  0.00000000000E+00  0.00000000000E+00  0.31861673199E+03  0.31861673203E+03  0.50400001928E-02 0. -1.
       -1   -1    0    0    0  501  0.00000000000E+00  0.00000000000E+00 -0.28211255735E+03  0.28211255739E+03  0.50400001928E-02 0.  1.
    10030    2    1    2    0    0  0.00000000000E+00  0.00000000000E+00  0.36504174641E+02  0.60072928942E+03  0.59961914947E+03 0.  0.
        4    1    3    3  502    0  0.42531795347E+02  0.41171222762E+02 -0.27619704402E+03  0.28247202202E+03  0.12699999809E+01 0.  1.
       -4    1    3    3    0  502 -0.42531795347E+02 -0.41171222762E+02  0.31270121866E+03  0.31825726740E+03  0.12699999809E+01 0. -1.
</event>
<event>
 5   0  0.2382531E-02  0.5844815E+03  0.7818609E-02  0.9938136E-01
       -1   -1    0    0    0  501  0.00000000000E+00  0.00000000000E+00  0.17473225706E+03  0.17473225714E+03  0.50400001928E-02 0.  1.
        1   -1    0    0  501    0  0.00000000000E+00  0.00000000000E+00 -0.48877434523E+03  0.48877434525E+03  0.50400001928E-02 0. -1.
    10030    2    1    2    0    0  0.00000000000E+00  0.00000000000E+00 -0.31404208816E+03  0.66350660239E+03  0.58448146102E+03 0.  0.
        5    1    3    3  502    0 -0.22073353716E+03 -0.19896584190E+02  0.59155557492E+02  0.22943547779E+03  0.46999998093E+01 0.  1.
       -5    1    3    3    0  502  0.22073353716E+03  0.19896584190E+02 -0.37319764565E+03  0.43407112460E+03  0.46999998093E+01 0. -1.
</event>
<event>
 5   0  0.2382531E-02  0.5886321E+03  0.7818609E-02  0.9929276E-01
       -1   -1    0    0    0  501  0.00000000000E+00  0.00000000000E+00  0.51069896264E+03  0.51069896267E+03  0.50400001928E-02 0. -1.
        1   -1    0    0  501    0  0.00000000000E+00  0.00000000000E+00 -0.16961445850E+03  0.16961445857E+03  0.50400001928E-02 0.  1.
    10030    2    1    2    0    0  0.00000000000E+00  0.00000000000E+00  0.34108450414E+03  0.68031342124E+03  0.58863206857E+03 0.  0.
        5    1    3    3  502    0 -0.18432229245E+03  0.93091242730E+02 -0.71778031494E+02  0.21866609881E+03  0.46999998093E+01 0.  1.
       -5    1    3    3    0  502  0.18432229245E+03 -0.93091242730E+02  0.41286253564E+03  0.46164732242E+03  0.46999998093E+01 0. -1.
</event>
<event>
 5   0  0.3832191E-02  0.5996029E+03  0.7818609E-02  0.9906230E-01
        2   -1    0    0  501    0  0.00000000000E+00  0.00000000000E+00  0.37057630794E+03  0.37057630795E+03  0.25500000920E-02 0. -1.
       -2   -1    0    0    0  501  0.00000000000E+00  0.00000000000E+00 -0.24254359820E+03  0.24254359821E+03  0.25500000920E-02 0.  1.
    10030    2    1    2    0    0  0.00000000000E+00  0.00000000000E+00  0.12803270974E+03  0.61311990617E+03  0.59960290574E+03 0.  0.
        3    1    3    3  502    0  0.28993918010E+03 -0.13745611580E+02  0.14072230564E+03  0.32257781620E+03  0.10100000352E+00 0.  1.
       -3    1    3    3    0  502 -0.28993918010E+03  0.13745611580E+02 -0.12689595900E+02  0.29054208997E+03  0.10100000352E+00 0. -1.
</event>
<event>
 5   0  0.3832191E-02  0.5954774E+03  0.7818609E-02  0.9914834E-01
       -2   -1    0    0    0  501  0.00000000000E+00  0.00000000000E+00  0.10560638148E+03  0.10560638151E+03  0.25500000920E-02 0.  1.
        2   -1    0    0  501    0  0.00000000000E+00  0.00000000000E+00 -0.83942218674E+03  0.83942218675E+03  0.25500000920E-02 0. -1.
    10030    2    1    2    0    0  0.00000000000E+00  0.00000000000E+00 -0.73381580526E+03  0.94502856826E+03  0.59547742087E+03 0.  0.
        3    1    3    3  502    0 -0.11958569127E+02  0.29675920438E+03 -0.33364511638E+03  0.44668569111E+03  0.10100000352E+00 0.  1.
       -3    1    3    3    0  502  0.11958569127E+02 -0.29675920438E+03 -0.40017068888E+03  0.49834287714E+03  0.10100000352E+00 0. -1.
</event>
<event>
 5   0  0.2382531E-02  0.5929275E+03  0.7818609E-02  0.9920189E-01
       -1   -1    0    0    0  501  0.00000000000E+00  0.00000000000E+00  0.28795082995E+03  0.28795082999E+03  0.50400001928E-02 0. -1.
        1   -1    0    0  501    0  0.00000000000E+00  0.00000000000E+00 -0.30522834897E+03  0.30522834901E+03  0.50400001928E-02 0.  1.
    10030    2    1    2    0    0  0.00000000000E+00  0.00000000000E+00 -0.17277519021E+02  0.59317917901E+03  0.59292750463E+03 0.  0.
        5    1    3    3  502    0  0.23165936360E+03  0.17241498075E+03  0.58290161111E+02  0.29464015207E+03  0.46999998093E+01 0. -1.
       -5    1    3    3    0  502 -0.23165936360E+03 -0.17241498075E+03 -0.75567680132E+02  0.29853902694E+03  0.46999998093E+01 0.  1.
</event>
<event>
 5   0  0.3934634E-02  0.5947018E+03  0.7818609E-02  0.9916460E-01
       -2   -1    0    0    0  501  0.00000000000E+00  0.00000000000E+00  0.51650661323E+03  0.51650661324E+03  0.25500000920E-02 0. -1.
        2   -1    0    0  501    0  0.00000000000E+00  0.00000000000E+00 -0.17118376312E+03  0.17118376314E+03  0.25500000920E-02 0.  1.
    10030    2    1    2    0    0  0.00000000000E+00  0.00000000000E+00  0.34532285011E+03  0.68769037637E+03  0.59470175966E+03 0.  0.
        1    1    3    3  502    0 -0.13281567014E+03 -0.13491644546E+03  0.43780662017E+03  0.47698751156E+03  0.50400001928E-02 0. -1.
       -1    1    3    3    0  502  0.13281567014E+03  0.13491644546E+03 -0.92483770061E+02  0.21070286481E+03  0.50400001928E-02 0.  1.
</event>
<event>
 5   0  0.2225808E-02  0.6023271E+03  0.7818609E-02  0.9900590E-01
       -1   -1    0    0    0  501  0.00000000000E+00  0.00000000000E+00  0.45659554704E+03  0.45659554707E+03  0.50400001928E-02 0. -1.
        1   -1    0    0  501    0  0.00000000000E+00  0.00000000000E+00 -0.19864295147E+03  0.19864295153E+03  0.50400001928E-02 0.  1.
    10030    2    1    2    0    0  0.00000000000E+00  0.00000000000E+00  0.25795259558E+03  0.65523849860E+03  0.60232711087E+03 0.  0.
        2    1    3    3  502    0  0.56721050737E+02 -0.68367622492E+02  0.44201882918E+03  0.45085702253E+03  0.25500000920E-02 0. -1.
       -2    1    3    3    0  502 -0.56721050737E+02  0.68367622492E+02 -0.18406623361E+03  0.20438147608E+03  0.25500000920E-02 0.  1.
</event>
<event>
 5   0  0.3832191E-02  0.5992849E+03  0.7818609E-02  0.9906891E-01
       -2   -1    0    0    0  501  0.00000000000E+00  0.00000000000E+00  0.32384949477E+03  0.32384949478E+03  0.25500000920E-02 0.  1.
        2   -1    0    0  501    0  0.00000000000E+00  0.00000000000E+00 -0.27724485121E+03  0.27724485122E+03  0.25500000920E-02 0. -1.
    10030    2    1    2    0    0  0.00000000000E+00  0.00000000000E+00  0.46604643563E+02  0.60109434601E+03  0.59928492389E+03 0.  0.
        3    1    3    3  502    0  0.10570629209E+03 -0.99459065385E+02  0.28623818134E+03  0.32093337709E+03  0.10100000352E+00 0.  1.
       -3    1    3    3    0  502 -0.10570629209E+03  0.99459065385E+02 -0.23963353778E+03  0.28016096891E+03  0.10100000352E+00 0. -1.
</event>
<event>
 5   0  0.3724066E-02  0.6022141E+03  0.7818609E-02  0.9900823E-01
        2   -1    0    0  501    0  0.00000000000E+00  0.00000000000E+00  0.35870651541E+03  0.35870651542E+03  0.25500000920E-02 0.  1.
       -2   -1    0    0    0  501  0.00000000000E+00  0.00000000000E+00 -0.25275666398E+03  0.25275666399E+03  0.25500000920E-02 0. -1.
    10030    2    1    2    0    0  0.00000000000E+00  0.00000000000E+00  0.10594985143E+03  0.61146317941E+03  0.60221412201E+03 0.  0.
        4    1    3    3  502    0 -0.18972049203E+03  0.33522040080E+02 -0.18197966431E+03  0.26502038297E+03  0.12699999809E+01 0. -1.
       -4    1    3    3    0  502  0.18972049203E+03 -0.33522040080E+02  0.28792951574E+03  0.34644279644E+03  0.12699999809E+01 0.  1.
</event>
<event>
 5   0  0.3737642E-02  0.5985335E+03  0.7818609E-02  0.9908453E-01
        2   -1    0    0  501    0  0.00000000000E+00  0.00000000000E+00  0.30751475164E+03  0.30751475165E+03  0.25500000920E-02 0.  1.
       -2   -1    0    0    0  501  0.00000000000E+00  0.00000000000E+00 -0.29124000297E+03  0.29124000298E+03  0.25500000920E-02 0. -1.
    10030    2    1    2    0    0  0.00000000000E+00  0.00000000000E+00  0.16274748676E+02  0.59875475463E+03  0.59853353185E+03 0.  0.
        5    1    3    3  502    0 -0.26630824863E+02 -0.27865550295E+03 -0.97639198226E+02  0.29650226506E+03  0.46999998093E+01 0. -1.
       -5    1    3    3    0  502  0.26630824863E+02  0.27865550295E+03  0.11391394690E+03  0.30225248957E+03  0.46999998093E+01 0.  1.
</event>
<event>
 5   0  0.2276105E-02  0.5990032E+03  0.7818609E-02  0.9907476E-01
        1   -1    0    0  501    0  0.00000000000E+00  0.00000000000E+00  0.34875531836E+03  0.34875531840E+03  0.50400001928E-02 0.  1.
       -1   -1    0    0    0  501  0.00000000000E+00  0.00000000000E+00 -0.25720387290E+03  0.25720387295E+03  0.50400001928E-02 0. -1.
    10030    2    1    2    0    0  0.00000000000E+00  0.00000000000E+00  0.91551445465E+02  0.60595919135E+03  0.59900323406E+03 0.  0.
        1    1    3    3  502    0 -0.15728560912E+03 -0.20314987457E+03  0.20148712887E+03  0.32650527943E+03  0.50400001928E-02 0.  1.
       -1    1    3    3    0  502  0.15728560912E+03  0.20314987457E+03 -0.10993568340E+03  0.27945391191E+03  0.50400001928E-02 0. -1.
</event>
<event>
 5   0  0.1521750E-02  0.5971165E+03  0.7818609E-02  0.9911406E-01
        3   -1    0    0  501    0  0.00000000000E+00  0.00000000000E+00  0.83328661044E+03  0.83328661656E+03  0.10100000352E+00 0. -1.
       -3   -1    0    0    0  501  0.00000000000E+00  0.00000000000E+00 -0.10697040666E+03  0.10697045434E+03  0.10100000352E+00 0.  1.
    10030    2    1    2    0    0  0.00000000000E+00  0.00000000000E+00  0.72631620378E+03  0.94025707090E+03  0.59711651418E+03 0.  0.
        3    1    3    3  502    0 -0.27882739493E+03  0.10642020478E+03  0.37605174568E+03  0.48008843121E+03  0.10100000352E+00 0. -1.
       -3    1    3    3    0  502  0.27882739493E+03 -0.10642020478E+03  0.35026445810E+03  0.46016863969E+03  0.10100000352E+00 0.  1.
</event>
<event>
 5   0  0.2276105E-02  0.5998254E+03  0.7818609E-02  0.9905768E-01
        1   -1    0    0  501    0  0.00000000000E+00  0.00000000000E+00  0.37762570371E+03  0.37762570375E+03  0.50400001928E-02 0.  1.
       -1   -1    0    0    0  501  0.00000000000E+00  0.00000000000E+00 -0.23819250795E+03  0.23819250800E+03  0.50400001928E-02 0. -1.
    10030    2    1    2    0    0  0.00000000000E+00  0.00000000000E+00  0.13943319577E+03  0.61581821175E+03  0.59982535278E+03 0.  0.
        1    1    3    3  502    0 -0.15153867989E+03 -0.25105375913E+03  0.51457117429E+01  0.29328900397E+03  0.50400001928E-02 0. -1.
       -1    1    3    3    0  502  0.15153867989E+03  0.25105375913E+03  0.13428748402E+03  0.32252920777E+03  0.50400001928E-02 0.  1.
</event>
<event>
 5   0  0.2309055E-02  0.5837440E+03  0.7818609E-02  0.9939718E-01
        1   -1    0    0  501    0  0.00000000000E+00  0.00000000000E+00  0.74317465462E+03  0.74317465463E+03  0.50400001928E-02 0. -1.
       -1   -1    0    0    0  501  0.00000000000E+00  0.00000000000E+00 -0.11462885716E+03  0.11462885727E+03  0.50400001928E-02 0.  1.
    10030    2    1    2    0    0  0.00000000000E+00  0.00000000000E+00  0.62854579746E+03  0.85780351190E+03  0.58374398971E+03 0.  0.
        4    1    3    3  502    0 -0.21379666181E+01  0.15012889622E+03  0.68206847170E+03  0.69839979193E+03  0.12699999809E+01 0. -1.
       -4    1    3    3    0  502  0.21379666181E+01 -0.15012889622E+03 -0.53522674245E+02  0.15940371997E+03  0.12699999809E+01 0.  1.
</event>
<event>
 5   0  0.2295179E-02  0.6066304E+03  0.7818609E-02  0.9891745E-01
       -1   -1    0    0    0  501  0.00000000000E+00  0.00000000000E+00  0.13289528266E+03  0.13289528275E+03  0.50400001928E-02 0. -1.
        1   -1    0    0  501    0  0.00000000000E+00  0.00000000000E+00 -0.69227515110E+03  0.69227515112E+03  0.50400001928E-02 0.  1.
    10030    2    1    2    0    0  0.00000000000E+00  0.00000000000E+00 -0.55937986844E+03  0.82517043387E+03  0.60663037157E+03 0.  0.
        3    1    3    3  502    0 -0.15992363821E+03  0.21640432192E+03 -0.47009462242E+03  0.54165982391E+03  0.10100000352E+00 0.  1.
       -3    1    3    3    0  502  0.15992363821E+03 -0.21640432192E+03 -0.89285246024E+02  0.28351060997E+03  0.10100000352E+00 0. -1.
</event>
<event>
 5   0  0.3832191E-02  0.5998662E+03  0.7818609E-02  0.9905684E-01
       -2   -1    0    0    0  501  0.00000000000E+00  0.00000000000E+00  0.75926092597E+02  0.75926092640E+02  0.25500000920E-02 0.  1.
        2   -1    0    0  501    0  0.00000000000E+00  0.00000000000E+00 -0.11848347443E+04  0.11848347443E+04  0.25500000920E-02 0. -1.
    10030    2    1    2    0    0  0.00000000000E+00  0.00000000000E+00 -0.11089086517E+04  0.12607608370E+04  0.59986622688E+03 0.  0.
        3    1    3    3  502    0  0.63313638693E+02 -0.32628325271E+02 -0.11668018481E+04  0.11689738181E+04  0.10100000352E+00 0. -1.
       -3    1    3    3    0  502 -0.63313638693E+02  0.32628325271E+02  0.57893196347E+02  0.91787018901E+02  0.10100000352E+00 0.  1.
</event>
<event>
 5   0  0.2225808E-02  0.5973805E+03  0.7818609E-02  0.9910856E-01
        1   -1    0    0  501    0  0.00000000000E+00  0.00000000000E+00  0.77710123452E+03  0.77710123453E+03  0.50400001928E-02 0.  1.
       -1   -1    0    0    0  501  0.00000000000E+00  0.00000000000E+00 -0.11480597293E+03  0.11480597304E+03  0.50400001928E-02 0. -1.
    10030    2    1    2    0    0  0.00000000000E+00  0.00000000000E+00  0.66229526159E+03  0.89190720757E+03  0.59738049298E+03 0.  0.
        2    1    3    3  502    0  0.16852754900E+02 -0.46224150978E+02 -0.10871435473E+03  0.11932936945E+03  0.25500000920E-02 0. -1.
       -2    1    3    3    0  502 -0.16852754900E+02  0.46224150978E+02  0.77100961632E+03  0.77257783812E+03  0.25500000920E-02 0.  1.
</event>
<event>
 5   0  0.2309055E-02  0.5996732E+03  0.7818609E-02  0.9906084E-01
        1   -1    0    0  501    0  0.00000000000E+00  0.00000000000E+00  0.38466371544E+03  0.38466371547E+03  0.50400001928E-02 0. -1.
       -1   -1    0    0    0  501  0.00000000000E+00  0.00000000000E+00 -0.23371582344E+03  0.23371582349E+03  0.50400001928E-02 0.  1.
    10030    2    1    2    0    0  0.00000000000E+00  0.00000000000E+00  0.15094789200E+03  0.61837953896E+03  0.59967323444E+03 0.  0.
        4    1    3    3  502    0 -0.20519711445E+03 -0.16853073446E+03 -0.68124867052E+02  0.27413696330E+03  0.12699999809E+01 0.  1.
       -4    1    3    3    0  502  0.20519711445E+03  0.16853073446E+03  0.21907275905E+03  0.34424257566E+03  0.12699999809E+01 0. -1.
</event>
<event>
 5   0  0.2295179E-02  0.6380205E+03  0.7818609E-02  0.9829521E-01
        1   -1    0    0  501    0  0.00000000000E+00  0.00000000000E+00  0.49046551314E+03  0.49046551316E+03  0.50400001928E-02 0.  1.
       -1   -1    0    0    0  501  0.00000000000E+00  0.00000000000E+00 -0.20749173493E+03  0.20749173499E+03  0.50400001928E-02 0. -1.
    10030    2    1    2    0    0  0.00000000000E+00  0.00000000000E+00  0.28297377821E+03  0.69795724815E+03  0.63802050210E+03 0.  0.
        3    1    3    3  502    0 -0.64280619471E+02  0.11319781072E+03  0.46008844900E+03  0.47814969778E+03  0.10100000352E+00 0.  1.
       -3    1    3    3    0  502  0.64280619471E+02 -0.11319781072E+03 -0.17711467079E+03  0.21980755037E+03  0.10100000352E+00 0. -1.
</event>
<event>
 5   0  0.2309055E-02  0.6155833E+03  0.7818609E-02  0.9873593E-01
        1   -1    0    0  501    0  0.00000000000E+00  0.00000000000E+00  0.23666493246E+03  0.23666493251E+03  0.50400001928E-02 0. -1.
       -1   -1    0    0    0  501  0.00000000000E+00  0.00000000000E+00 -0.40029465852E+03  0.40029465855E+03  0.50400001928E-02 0.  1.
    10030    2    1    2    0    0  0.00000000000E+00  0.00000000000E+00 -0.16362972606E+03  0.63695959106E+03  0.61558332774E+03 0.  0.
        4    1    3    3  502    0 -0.21529366741E+02  0.27349954406E+03  0.62560199055E+02  0.28139101911E+03  0.12699999809E+01 0. -1.
       -4    1    3    3    0  502  0.21529366741E+02 -0.27349954406E+03 -0.22618992511E+03  0.35556857194E+03  0.12699999809E+01 0.  1.
</event>
<event>
 5   0  0.3798925E-02  0.5995973E+03  0.7818609E-02  0.9906242E-01
       -2   -1    0    0    0  501  0.00000000000E+00  0.00000000000E+00  0.11145936995E+03  0.11145936998E+03  0.25500000920E-02 0.  1.
        2   -1    0    0  501    0  0.00000000000E+00  0.00000000000E+00 -0.80638553317E+03  0.80638553318E+03  0.25500000920E-02 0. -1.
    10030    2    1    2    0    0  0.00000000000E+00  0.00000000000E+00 -0.69492616322E+03  0.91784490316E+03  0.59959727645E+03 0.  0.
        2    1    3    3  502    0  0.19578374985E+03  0.22589578638E+03 -0.31258839940E+03  0.43251784986E+03  0.25500000920E-02 0. -1.
       -2    1    3    3    0  502 -0.19578374985E+03 -0.22589578638E+03 -0.38233776382E+03  0.48532705330E+03  0.25500000920E-02 0.  1.
</event>
<event>
 5   0  0.3737642E-02  0.5964868E+03  0.7818609E-02  0.9912722E-01
        2   -1    0    0  501    0  0.00000000000E+00  0.00000000000E+00  0.17171811380E+04  0.17171811380E+04  0.25500000920E-02 0. -1.
       -2   -1    0    0    0  501  0.00000000000E+00  0.00000000000E+00 -0.51799507101E+02  0.51799507164E+02  0.25500000920E-02 0.  1.
    10030    2    1    2    0    0  0.00000000000E+00  0.00000000000E+00  0.16653816309E+04  0.17689806451E+04  0.59648683676E+03 0.  0.
        5    1    3    3  502    0 -0.87494682024E+02 -0.26734126903E+03  0.11262823452E+04  0.11608878863E+04  0.46999998093E+01 0. -1.
       -5    1    3    3    0  502  0.87494682024E+02  0.26734126903E+03  0.53909928564E+03  0.60809275878E+03  0.46999998093E+01 0.  1.
</event>
<event>
 5   0  0.3832191E-02  0.6017906E+03  0.7818609E-02  0.9901698E-01
        2   -1    0    0  501    0  0.00000000000E+00  0.00000000000E+00  0.17554621693E+03  0.17554621695E+03  0.25500000920E-02 0. -1.
       -2   -1    0    0    0  501  0.00000000000E+00  0.00000000000E+00 -0.51575007405E+03  0.51575007406E+03  0.25500000920E-02 0.  1.
    10030    2    1    2    0    0  0.00000000000E+00  0.00000000000E+00 -0.34020385712E+03  0.69129629101E+03  0.60179057617E+03 0.  0.
        3    1    3    3  502    0 -0.11910223884E+03 -0.12162242827E+03 -0.45511861505E+03  0.48591184625E+03  0.10100000352E+00 0.  1.
       -3    1    3    3    0  502  0.11910223884E+03  0.12162242827E+03  0.11491475794E+03  0.20538444476E+03  0.10100000352E+00 0. -1.
</event>
<event>
 5   0  0.3737642E-02  0.6041182E+03  0.7818609E-02  0.9896899E-01
       -2   -1    0    0    0  501  0.00000000000E+00  0.00000000000E+00  0.11626190399E+03  0.11626190402E+03  0.25500000920E-02 0.  1.
        2   -1    0    0  501    0  0.00000000000E+00  0.00000000000E+00 -0.78477736534E+03  0.78477736534E+03  0.25500000920E-02 0. -1.
    10030    2    1    2    0    0  0.00000000000E+00  0.00000000000E+00 -0.66851546135E+03  0.90103926936E+03  0.60411823584E+03 0.  0.
        5    1    3    3  502    0 -0.29146511986E+03  0.83006856209E+01 -0.45166787635E+03  0.53763070783E+03  0.46999998093E+01 0. -1.
       -5    1    3    3    0  502  0.29146511986E+03 -0.83006856209E+01 -0.21684758500E+03  0.36340856153E+03  0.46999998093E+01 0.  1.
</event>
<event>
 5   0  0.2309055E-02  0.5983903E+03  0.7818609E-02  0.9908751E-01
        1   -1    0    0  501    0  0.00000000000E+00  0.00000000000E+00  0.28817552047E+03  0.28817552051E+03  0.50400001928E-02 0.  1.
       -1   -1    0    0    0  501  0.00000000000E+00  0.00000000000E+00 -0.31063613160E+03  0.31063613164E+03  0.50400001928E-02 0. -1.
    10030    2    1    2    0    0  0.00000000000E+00  0.00000000000E+00 -0.22460611133E+02  0.59881165216E+03  0.59839027040E+03 0.  0.
        4    1    3    3  502    0 -0.19881823470E+03 -0.77631024305E+02 -0.22104638030E+03  0.30727574185E+03  0.12699999809E+01 0. -1.
       -4    1    3    3    0  502  0.19881823470E+03  0.77631024305E+02  0.19858576917E+03  0.29153591031E+03  0.12699999809E+01 0.  1.
</event>
<event>
 5   0  0.2295179E-02  0.5964693E+03  0.7818609E-02  0.9912758E-01
       -1   -1    0    0    0  501  0.00000000000E+00  0.00000000000E+00  0.54564597460E+02  0.54564597693E+02  0.50400001928E-02 0. -1.
        1   -1    0    0  501    0  0.00000000000E+00  0.00000000000E+00 -0.16300662798E+04  0.16300662798E+04  0.50400001928E-02 0.  1.
    10030    2    1    2    0    0  0.00000000000E+00  0.00000000000E+00 -0.15755016823E+04  0.16846308775E+04  0.59646931385E+03 0.  0.
        3    1    3    3  502    0  0.20506103591E+03  0.18504930236E+03 -0.47008341279E+03  0.54522628140E+03  0.10100000352E+00 0. -1.
       -3    1    3    3    0  502 -0.20506103591E+03 -0.18504930236E+03 -0.11054182695E+04  0.11394045961E+04  0.10100000352E+00 0.  1.
</event>
<event>
 5   0  0.2295179E-02  0.6020926E+03  0.7818609E-02  0.9901074E-01
        1   -1    0    0  501    0  0.00000000000E+00  0.00000000000E+00  0.10186114729E+04  0.10186114730E+04  0.50400001928E-02 0.  1.
       -1   -1    0    0    0  501  0.00000000000E+00  0.00000000000E+00 -0.88972942193E+02  0.88972942336E+02  0.50400001928E-02 0. -1.
    10030    2    1    2    0    0  0.00000000000E+00  0.00000000000E+00  0.92963853075E+03  0.11075844153E+04  0.60209255031E+03 0.  0.
        3    1    3    3  502    0  0.19895974468E+03  0.17191205649E+02  0.87922377116E+03  0.90161797205E+03  0.10100000352E+00 0.  1.
       -3    1    3    3    0  502 -0.19895974468E+03 -0.17191205649E+02  0.50414759588E+02  0.20596644324E+03  0.10100000352E+00 0. -1.
</event>
<event>
 5   0  0.2382531E-02  0.5991269E+03  0.7818609E-02  0.9907219E-01
       -1   -1    0    0    0  501  0.00000000000E+00  0.00000000000E+00  0.22641341861E+03  0.22641341867E+03  0.50400001928E-02 0. -1.
        1   -1    0    0  501    0  0.00000000000E+00  0.00000000000E+00 -0.39634692291E+03  0.39634692294E+03  0.50400001928E-02 0.  1.
    10030    2    1    2    0    0  0.00000000000E+00  0.00000000000E+00 -0.16993350430E+03  0.62276034161E+03  0.59912690409E+03 0.  0.
        5    1    3    3  502    0  0.24001071840E+03 -0.10849858257E+03  0.63274073632E+02  0.27092948485E+03  0.46999998093E+01 0. -1.
       -5    1    3    3    0  502 -0.24001071840E+03  0.10849858257E+03 -0.23320757793E+03  0.35183085676E+03  0.46999998093E+01 0.  1.
</event>
<event>
 5   0  0.3798925E-02  0.6010269E+03  0.7818609E-02  0.9903278E-01
       -2   -1    0    0    0  501  0.00000000000E+00  0.00000000000E+00  0.22216010891E+03  0.22216010893E+03  0.25500000920E-02 0. -1.
        2   -1    0    0  501    0  0.00000000000E+00  0.00000000000E+00 -0.40650112616E+03  0.40650112617E+03  0.25500000920E-02 0.  1.
    10030    2    1    2    0    0  0.00000000000E+00  0.00000000000E+00 -0.18434101725E+03  0.62866123510E+03  0.60102690279E+03 0.  0.
        2    1    3    3  502    0  0.26530803955E+03 -0.84513214659E+01  0.55192066989E+02  0.27111979815E+03  0.25500000920E-02 0. -1.
       -2    1    3    3    0  502 -0.26530803955E+03  0.84513214659E+01 -0.23953308424E+03  0.35754143695E+03  0.25500000920E-02 0.  1.
</event>
<event>
 5   0  0.3832191E-02  0.5994601E+03  0.7818609E-02  0.9906527E-01
        2   -1    0    0  501    0  0.00000000000E+00  0.00000000000E+00  0.36132854318E+03  0.36132854319E+03  0.25500000920E-02 0. -1.
       -2   -1    0    0    0  501  0.00000000000E+00  0.00000000000E+00 -0.24863275834E+03  0.24863275835E+03  0.25500000920E-02 0.  1.
    10030    2    1    2    0    0  0.00000000000E+00  0.00000000000E+00  0.11269578484E+03  0.60996130154E+03  0.59946013167E+03 0.  0.
        3    1    3    3  502    0  0.50679579095E+01  0.29797248651E+03  0.23774366844E+02  0.29896240171E+03  0.10100000352E+00 0. -1.
       -3    1    3    3    0  502 -0.50679579095E+01 -0.29797248651E+03  0.88921418000E+02  0.31099889983E+03  0.10100000352E+00 0.  1.
</event>
<event>
 5   0  0.3832191E-02  0.5975558E+03  0.7818609E-02  0.9910490E-01
       -2   -1    0    0    0  501  0.00000000000E+00  0.00000000000E+00  0.75666175080E+03  0.75666175080E+03  0.25500000920E-02 0. -1.
        2   -1    0    0  501    0  0.00000000000E+00  0.00000000000E+00 -0.11797641136E+03  0.11797641139E+03  0.25500000920E-02 0.  1.
    10030    2    1    2    0    0  0.00000000000E+00  0.00000000000E+00  0.63868533944E+03  0.87463816219E+03  0.59755581492E+03 0.  0.
        3    1    3    3  502    0  0.12394049787E+03  0.13533084678E+03  0.66445320291E+03  0.68932848060E+03  0.10100000352E+00 0. -1.
       -3    1    3    3    0  502 -0.12394049787E+03 -0.13533084678E+03 -0.25767863474E+02  0.18530968159E+03  0.10100000352E+00 0.  1.
</event>
<event>
 5   0  0.2225808E-02  0.6014056E+03  0.7818609E-02  0.9902494E-01
        1   -1    0    0  501    0  0.00000000000E+00  0.00000000000E+00  0.19476968937E+03  0.19476968944E+03  0.50400001928E-02 0.  1.
       -1   -1    0    0    0  501  0.00000000000E+00  0.00000000000E+00 -0.46425178677E+03  0.46425178680E+03  0.50400001928E-02 0. -1.
    10030    2    1    2    0    0  0.00000000000E+00  0.00000000000E+00 -0.26948209740E+03  0.65902147624E+03  0.60140560799E+03 0.  0.
        2    1    3    3  502    0 -0.17649070536E+03 -0.24242759482E+03 -0.15929455899E+03  0.33955097458E+03  0.25500000920E-02 0. -1.
       -2    1    3    3    0  502  0.17649070536E+03  0.24242759482E+03 -0.11018753841E+03  0.31947050166E+03  0.25500000920E-02 0.  1.
</event>
<event>
 5   0  0.3724066E-02  0.6023642E+03  0.7818609E-02  0.9900513E-01
       -2   -1    0    0    0  501  0.00000000000E+00  0.00000000000E+00  0.21534619833E+03  0.21534619834E+03  0.25500000920E-02 0. -1.
        2   -1    0    0  501    0  0.00000000000E+00  0.00000000000E+00 -0.42123178906E+03  0.42123178907E+03  0.25500000920E-02 0.  1.
    10030    2    1    2    0    0  0.00000000000E+00  0.00000000000E+00 -0.20588559073E+03  0.63657798741E+03  0.60236422336E+03 0.  0.
        4    1    3    3  502    0 -0.19779339426E+03  0.22712025951E+03 -0.10483691448E+03  0.31890160023E+03  0.12699999809E+01 0.  1.
       -4    1    3    3    0  502  0.19779339426E+03 -0.22712025951E+03 -0.10104867625E+03  0.31767638717E+03  0.12699999809E+01 0. -1.
</event>
<event>
 5   0  0.3832191E-02  0.5998460E+03  0.7818609E-02  0.9905726E-01
        2   -1    0    0  501    0  0.00000000000E+00  0.00000000000E+00  0.24700543232E+03  0.24700543233E+03  0.25500000920E-02 0.  1.
       -2   -1    0    0    0  501  0.00000000000E+00  0.00000000000E+00 -0.36417749203E+03  0.36417749204E+03  0.25500000920E-02 0. -1.
    10030    2    1    2    0    0  0.00000000000E+00  0.00000000000E+00 -0.11717205971E+03  0.61118292437E+03  0.59984604313E+03 0.  0.
        3    1    3    3  502    0 -0.98932279232E+02  0.24372255398E+03  0.88239953540E+02  0.27744292889E+03  0.10100000352E+00 0.  1.
       -3    1    3    3    0  502  0.98932279232E+02 -0.24372255398E+03 -0.20541201325E+03  0.33373999547E+03  0.10100000352E+00 0. -1.
</event>
<event>
 5   0  0.3832191E-02  0.6233634E+03  0.7818609E-02  0.9858086E-01
       -2   -1    0    0    0  501  0.00000000000E+00  0.00000000000E+00  0.38895990236E+02  0.38895990320E+02  0.25500000920E-02 0.  1.
        2   -1    0    0  501    0  0.00000000000E+00  0.00000000000E+00 -0.24975708310E+04  0.24975708310E+04  0.25500000920E-02 0. -1.
    10030    2    1    2    0    0  0.00000000000E+00  0.00000000000E+00 -0.24586748407E+04  0.25364668213E+04  0.62336342775E+03 0.  0.
        3    1    3    3  502    0  0.11010053603E+03  0.27206930023E+02 -0.48042847412E+02  0.12316846375E+03  0.10100000352E+00 0.  1.
       -3    1    3    3    0  502 -0.11010053603E+03 -0.27206930023E+02 -0.24106319933E+04  0.24132983575E+04  0.10100000352E+00 0. -1.
</event>
<event>
 5   0  0.1521750E-02  0.5975456E+03  0.7818609E-02  0.9910511E-01
       -3   -1    0    0    0  501  0.00000000000E+00  0.00000000000E+00  0.18534489528E+03  0.18534492280E+03  0.10100000352E+00 0.  1.
        3   -1    0    0  501    0  0.00000000000E+00  0.00000000000E+00 -0.48161662399E+03  0.48161663458E+03  0.10100000352E+00 0. -1.
    10030    2    1    2    0    0  0.00000000000E+00  0.00000000000E+00 -0.29627172871E+03  0.66696155738E+03  0.59754563155E+03 0.  0.
        4    1    3    3  502    0  0.75901682139E+02  0.10697295006E+03  0.15148686914E+03  0.20038503392E+03  0.12699999809E+01 0.  1.
       -4    1    3    3    0  502 -0.75901682139E+02 -0.10697295006E+03 -0.44775859785E+03  0.46657652347E+03  0.12699999809E+01 0. -1.
</event>
<event>
 5   0  0.3832191E-02  0.6014415E+03  0.7818609E-02  0.9902420E-01
       -2   -1    0    0    0  501  0.00000000000E+00  0.00000000000E+00  0.14872199890E+03  0.14872199892E+03  0.25500000920E-02 0. -1.
        2   -1    0    0  501    0  0.00000000000E+00  0.00000000000E+00 -0.60806722484E+03  0.60806722485E+03  0.25500000920E-02 0.  1.
    10030    2    1    2    0    0  0.00000000000E+00  0.00000000000E+00 -0.45934522595E+03  0.75678922377E+03  0.60144151221E+03 0.  0.
        3    1    3    3  502    0  0.10067248974E+03 -0.13036043422E+03  0.86917755520E+02  0.18623506497E+03  0.10100000352E+00 0. -1.
       -3    1    3    3    0  502 -0.10067248974E+03  0.13036043422E+03 -0.54626298147E+03  0.57055415880E+03  0.10100000352E+00 0.  1.
</event>
<event>
 5   0  0.3737642E-02  0.6008452E+03  0.7818609E-02  0.9903654E-01
       -2   -1    0    0    0  501  0.00000000000E+00  0.00000000000E+00  0.21321550441E+03  0.21321550443E+03  0.25500000920E-02 0.  1.
        2   -1    0    0  501    0  0.00000000000E+00  0.00000000000E+00 -0.42329820195E+03  0.42329820196E+03  0.25500000920E-02 0. -1.
    10030    2    1    2    0    0  0.00000000000E+00  0.00000000000E+00 -0.21008269754E+03  0.63651370639E+03  0.60084520354E+03 0.  0.
        5    1    3    3  502    0  0.27221930220E+03 -0.88256469309E+02 -0.83016638155E+01  0.28632771519E+03  0.46999998093E+01 0. -1.
       -5    1    3    3    0  502 -0.27221930220E+03  0.88256469309E+02 -0.20178103372E+03  0.35018599120E+03  0.46999998093E+01 0.  1.
</event>
<event>
 5   0  0.2295179E-02  0.5990607E+03  0.7818609E-02  0.9907357E-01
       -1   -1    0    0    0  501  0.00000000000E+00  0.00000000000E+00  0.31292827663E+03  0.31292827667E+03  0.50400001928E-02 0. -1.
        1   -1    0    0  501    0  0.00000000000E+00  0.00000000000E+00 -0.28670609592E+03  0.28670609596E+03  0.50400001928E-02 0.  1.
    10030    2    1    2    0    0  0.00000000000E+00  0.00000000000E+00  0.26222180716E+02  0.59963437264E+03  0.59906074658E+03 0.  0.
        3    1    3    3  502    0 -0.15631824518E+03 -0.20035479826E+03 -0.14559985932E+03  0.29287671160E+03  0.10100000352E+00 0.  1.
       -3    1    3    3    0  502  0.15631824518E+03  0.20035479826E+03  0.17182204003E+03  0.30675766104E+03  0.10100000352E+00 0. -1.
</event>
<event>
 5   0  0.1521750E-02  0.6040439E+03  0.7818609E-02  0.9897052E-01
       -3   -1    0    0    0  501  0.00000000000E+00  0.00000000000E+00  0.69862808786E+02  0.69862881793E+02  0.10100000352E+00 0.  1.
        3   -1    0    0  501    0  0.00000000000E+00  0.00000000000E+00 -0.13056620430E+04  0.13056620469E+04  0.10100000352E+00 0. -1.
    10030    2    1    2    0    0  0.00000000000E+00  0.00000000000E+00 -0.12357992342E+04  0.13755249287E+04  0.60404394061E+03 0.  0.
        4    1    3    3  502    0  0.18775908679E+03 -0.60941729897E+02 -0.97381358778E+02  0.22011840235E+03  0.12699999809E+01 0.  1.
       -4    1    3    3    0  502 -0.18775908679E+03  0.60941729897E+02 -0.11384178754E+04  0.11554065263E+04  0.12699999809E+01 0. -1.
</event>
<event>
 5   0  0.2225808E-02  0.6055814E+03  0.7818609E-02  0.9893894E-01
        1   -1    0    0  501    0  0.00000000000E+00  0.00000000000E+00  0.32280088586E+03  0.32280088590E+03  0.50400001928E-02 0.  1.
       -1   -1    0    0    0  501  0.00000000000E+00  0.00000000000E+00 -0.28402089381E+03  0.28402089385E+03  0.50400001928E-02 0. -1.
    10030    2    1    2    0    0  0.00000000000E+00  0.00000000000E+00  0.38779992049E+02  0.60682177975E+03  0.60558136084E+03 0.  0.
        2    1    3    3  502    0 -0.76036165465E+02 -0.18147833505E+03 -0.21122552115E+03  0.28867300765E+03  0.25500000920E-02 0. -1.
       -2    1    3    3    0  502  0.76036165465E+02  0.18147833505E+03  0.25000551320E+03  0.31814877210E+03  0.25500000920E-02 0.  1.
</event>
<event>
 5   0  0.2309055E-02  0.5750598E+03  0.7818609E-02  0.9958544E-01
        1   -1    0    0  501    0  0.00000000000E+00  0.00000000000E+00  0.14777329024E+03  0.14777329033E+03  0.50400001928E-02 0. -1.
       -1   -1    0    0    0  501  0.00000000000E+00  0.00000000000E+00 -0.55946126544E+03  0.55946126547E+03  0.50400001928E-02 0.  1.
    10030    2    1    2    0    0  0.00000000000E+00  0.00000000000E+00 -0.41168797520E+03  0.70723455579E+03  0.57505976035E+03 0.  0.
        4    1    3    3  502    0 -0.18769865677E+03 -0.31230593006E+02 -0.47094821787E+03  0.50793697690E+03  0.12699999809E+01 0.  1.
       -4    1    3    3    0  502  0.18769865677E+03  0.31230593006E+02  0.59260242664E+02  0.19929757889E+03  0.12699999809E+01 0. -1.
</event>
<event>
 5   0  0.3832191E-02  0.5978896E+03  0.7818609E-02  0.9909794E-01
        2   -1    0    0  501    0  0.00000000000E+00  0.00000000000E+00  0.10787585297E+04  0.10787585297E+04  0.25500000920E-02 0.  1.
       -2   -1    0    0    0  501  0.00000000000E+00  0.00000000000E+00 -0.82843371612E+02  0.82843371651E+02  0.25500000920E-02 0. -1.
    10030    2    1    2    0    0  0.00000000000E+00  0.00000000000E+00  0.99591515806E+03  0.11616019013E+04  0.59788960111E+03 0.  0.
        3    1    3    3  502    0 -0.98154130139E+02 -0.16041332527E+03  0.46477613087E+02  0.19371847333E+03  0.10100000352E+00 0. -1.
       -3    1    3    3    0  502  0.98154130139E+02  0.16041332527E+03  0.94943754497E+03  0.96788342800E+03  0.10100000352E+00 0.  1.
</event>
<event>
 5   0  0.3832191E-02  0.5961792E+03  0.7818609E-02  0.9913365E-01
       -2   -1    0    0    0  501  0.00000000000E+00  0.00000000000E+00  0.93354553412E+02  0.93354553446E+02  0.25500000920E-02 0. -1.
        2   -1    0    0  501    0  0.00000000000E+00  0.00000000000E+00 -0.95182715247E+03  0.95182715247E+03  0.25500000920E-02 0.  1.
    10030    2    1    2    0    0  0.00000000000E+00  0.00000000000E+00 -0.85847259906E+03  0.10451817059E+04  0.59617916355E+03 0.  0.
        3    1    3    3  502    0  0.90836896840E+02 -0.28207152284E+03 -0.37265317712E+03  0.47611562298E+03  0.10100000352E+00 0. -1.
       -3    1    3    3    0  502 -0.90836896840E+02  0.28207152284E+03 -0.48581942193E+03  0.56906608294E+03  0.10100000352E+00 0.  1.
</event>
<event>
 5   0  0.3934634E-02  0.6024717E+03  0.7818609E-02  0.9900291E-01
        2   -1    0    0  501    0  0.00000000000E+00  0.00000000000E+00  0.17965722689E+03  0.17965722691E+03  0.25500000920E-02 0. -1.
       -2   -1    0    0    0  501  0.00000000000E+00  0.00000000000E+00 -0.50508987341E+03  0.50508987341E+03  0.25500000920E-02 0.  1.
    10030    2    1    2    0    0  0.00000000000E+00  0.00000000000E+00 -0.32543264652E+03  0.68474710032E+03  0.60247172878E+03 0.  0.
        1    1    3    3  502    0  0.10731026076E+03  0.12230414502E+03 -0.45085074601E+03  0.47931220635E+03  0.50400001928E-02 0.  1.
       -1    1    3    3    0  502 -0.10731026076E+03 -0.12230414502E+03  0.12541809949E+03  0.20543489397E+03  0.50400001928E-02 0. -1.
</event>
<event>
 5   0  0.2276105E-02  0.6087799E+03  0.7818609E-02  0.9887356E-01
        1   -1    0    0  501    0  0.00000000000E+00  0.00000000000E+00  0.18359763469E+04  0.18359763469E+04  0.50400001928E-02 0. -1.
       -1   -1    0    0    0  501  0.00000000000E+00  0.00000000000E+00 -0.50465386823E+02  0.50465387074E+02  0.50400001928E-02 0.  1.
    10030    2    1    2    0    0  0.00000000000E+00  0.00000000000E+00  0.17855109601E+04  0.18864417340E+04  0.60877994969E+03 0.  0.
        1    1    3    3  502    0  0.23910622132E+03 -0.10476810233E+03  0.40767763396E+03  0.48409626481E+03  0.50400001928E-02 0.  1.
       -1    1    3    3    0  502 -0.23910622132E+03  0.10476810233E+03  0.13778333261E+04  0.14023454692E+04  0.50400001928E-02 0. -1.
</event>
<event>
 5   0  0.3798925E-02  0.6003204E+03  0.7818609E-02  0.9904742E-01
        2   -1    0    0  501    0  0.00000000000E+00  0.00000000000E+00  0.94895616812E+02  0.94895616846E+02  0.25500000920E-02 0. -1.
       -2   -1    0    0    0  501  0.00000000000E+00  0.00000000000E+00 -0.94942374484E+03  0.94942374484E+03  0.25500000920E-02 0.  1.
    10030    2    1    2    0    0  0.00000000000E+00  0.00000000000E+00 -0.85452812803E+03  0.10443193617E+04  0.60032042078E+03 0.  0.
        2    1    3    3  502    0 -0.17905050457E+03  0.18416730686E+03 -0.69743218948E+03  0.74322832228E+03  0.25500000920E-02 0.  1.
       -2    1    3    3    0  502  0.17905050457E+03 -0.18416730686E+03 -0.15709593855E+03  0.30109103941E+03  0.25500000920E-02 0. -1.
</event>
<event>
 5   0  0.3832191E-02  0.6021699E+03  0.7818609E-02  0.9900914E-01
       -2   -1    0    0    0  501  0.00000000000E+00  0.00000000000E+00  0.30734044849E+03  0.30734044850E+03  0.25500000920E-02 0. -1.
        2   -1    0    0  501    0  0.00000000000E+00  0.00000000000E+00 -0.29495673014E+03  0.29495673015E+03  0.25500000920E-02 0.  1.
    10030    2    1    2    0    0  0.00000000000E+00  0.00000000000E+00  0.12383718346E+02  0.60229717865E+03  0.60216985555E+03 0.  0.
        3    1    3    3  502    0  0.25797445717E+03  0.15007469172E+03  0.45935508206E+02  0.30196575098E+03  0.10100000352E+00 0.  1.
       -3    1    3    3    0  502 -0.25797445717E+03 -0.15007469172E+03 -0.33551789860E+02  0.30033142768E+03  0.10100000352E+00 0. -1.
</event>
<event>
 5   0  0.2276105E-02  0.6143421E+03  0.7818609E-02  0.9876090E-01
       -1   -1    0    0    0  501  0.00000000000E+00  0.00000000000E+00  0.36858072803E+02  0.36858073147E+02  0.50400001928E-02 0.  1.
        1   -1    0    0  501    0  0.00000000000E+00  0.00000000000E+00 -0.25599287655E+04  0.25599287655E+04  0.50400001928E-02 0. -1.
    10030    2    1    2    0    0  0.00000000000E+00  0.00000000000E+00 -0.25230706927E+04  0.25967868386E+04  0.61434205867E+03 0.  0.
        1    1    3    3  502    0  0.38515334736E+02  0.68928397608E+02 -0.67714017796E+01  0.79249018379E+02  0.50400001928E-02 0.  1.
       -1    1    3    3    0  502 -0.38515334736E+02 -0.68928397608E+02 -0.25162992909E+04  0.25175378203E+04  0.50400001928E-02 0. -1.
</event>
<event>
 5   0  0.3724066E-02  0.6034708E+03  0.7818609E-02  0.9898231E-01
        2   -1    0    0  501    0  0.00000000000E+00  0.00000000000E+00  0.15544045683E+04  0.15544045683E+04  0.25500000920E-02 0. -1.
       -2   -1    0    0    0  501  0.00000000000E+00  0.00000000000E+00 -0.58571777751E+02  0.58571777807E+02  0.25500000920E-02 0.  1.
    10030    2    1    2    0    0  0.00000000000E+00  0.00000000000E+00  0.14958327905E+04  0.16129763461E+04  0.60347075805E+03 0.  0.
        4    1    3    3  502    0 -0.19298238385E+03 -0.12691143904E+03  0.12668447187E+04  0.12877289575E+04  0.12699999809E+01 0. -1.
       -4    1    3    3    0  502  0.19298238385E+03  0.12691143904E+03  0.22898807184E+03  0.32524738858E+03  0.12699999809E+01 0.  1.
</event>
<event>
 5   0  0.2382531E-02  0.5982531E+03  0.7818609E-02  0.9909037E-01
        1   -1    0    0  501    0  0.00000000000E+00  0.00000000000E+00  0.41446502729E+03  0.41446502732E+03  0.50400001928E-02 0. -1.
       -1   -1    0    0    0  501  0.00000000000E+00  0.00000000000E+00 -0.21588478474E+03  0.21588478479E+03  0.50400001928E-02 0.  1.
    10030    2    1    2    0    0  0.00000000000E+00  0.00000000000E+00  0.19858024255E+03  0.63034981211E+03  0.59825310104E+03 0.  0.
        5    1    3    3  502    0  0.39066543940E+02 -0.22537228372E+03  0.30233531921E+03  0.37914060237E+03  0.46999998093E+01 0. -1.
       -5    1    3    3    0  502 -0.39066543940E+02  0.22537228372E+03 -0.10375507666E+03  0.25120920974E+03  0.46999998093E+01 0.  1.
</event>
<event>
 5   0  0.3737642E-02  0.5961519E+03  0.7818609E-02  0.9913422E-01
       -2   -1    0    0    0  501  0.00000000000E+00  0.00000000000E+00  0.86843659577E+02  0.86843659615E+02  0.25500000920E-02 0. -1.
        2   -1    0    0  501    0  0.00000000000E+00  0.00000000000E+00 -0.10230945242E+04  0.10230945242E+04  0.25500000920E-02 0.  1.
    10030    2    1    2    0    0  0.00000000000E+00  0.00000000000E+00 -0.93625086460E+03  0.11099381838E+04  0.59615190210E+03 0.  0.
        5    1    3    3  502    0  0.27247238426E+03 -0.38658377316E+02 -0.68115346997E+03  0.73466169763E+03  0.46999998093E+01 0.  1.
       -5    1    3    3    0  502 -0.27247238426E+03  0.38658377316E+02 -0.25509739463E+03  0.37527648616E+03  0.46999998093E+01 0. -1.
</event>
<event>
 5   0  0.3724066E-02  0.5980713E+03  0.7818609E-02  0.9909416E-01
        2   -1    0    0  501    0  0.00000000000E+00  0.00000000000E+00  0.29537785138E+03  0.29537785139E+03  0.25500000920E-02 0.  1.
       -2   -1    0    0    0  501  0.00000000000E+00  0.00000000000E+00 -0.30273873162E+03  0.30273873163E+03  0.25500000920E-02 0. -1.
    10030    2    1    2    0    0  0.00000000000E+00  0.00000000000E+00 -0.73608802450E+01  0.59811658302E+03  0.59807128699E+03 0.  0.
        4    1    3    3  502    0 -0.12970324494E+03  0.20309269667E+03 -0.18075634770E+03  0.30123752310E+03  0.12699999809E+01 0. -1.
       -4    1    3    3    0  502  0.12970324494E+03 -0.20309269667E+03  0.17339546746E+03  0.29687905992E+03  0.12699999809E+01 0.  1.
</event>
<event>
 5   0  0.3832191E-02  0.6012598E+03  0.7818609E-02  0.9902796E-01
       -2   -1    0    0    0  501  0.00000000000E+00  0.00000000000E+00  0.46537503316E+02  0.46537503386E+02  0.25500000920E-02 0. -1.
        2   -1    0    0  501    0  0.00000000000E+00  0.00000000000E+00 -0.19420538651E+04  0.19420538651E+04  0.25500000920E-02 0.  1.
    10030    2    1    2    0    0  0.00000000000E+00  0.00000000000E+00 -0.18955163617E+04  0.19885913684E+04  0.60125980493E+03 0.  0.
        3    1    3    3  502    0 -0.22241382021E+02  0.19327767146E+03 -0.18974581207E+03  0.27176169848E+03  0.10100000352E+00 0. -1.
       -3    1    3    3    0  502  0.22241382021E+02 -0.19327767146E+03 -0.17057705497E+04  0.17168296700E+04  0.10100000352E+00 0.  1.
</event>
<event>
 5   0  0.3832191E-02  0.5991909E+03  0.7818609E-02  0.9907086E-01
       -2   -1    0    0    0  501  0.00000000000E+00  0.00000000000E+00  0.97001195241E+02  0.97001195275E+02  0.25500000920E-02 0.  1.
        2   -1    0    0  501    0  0.00000000000E+00  0.00000000000E+00 -0.92532295942E+03  0.92532295942E+03  0.25500000920E-02 0. -1.
    10030    2    1    2    0    0  0.00000000000E+00  0.00000000000E+00 -0.82832176417E+03  0.10223241547E+04  0.59919089802E+03 0.  0.
        3    1    3    3  502    0 -0.16970526517E+03  0.17329545444E+03 -0.71420624161E+03  0.75426902185E+03  0.10100000352E+00 0. -1.
       -3    1    3    3    0  502  0.16970526517E+03 -0.17329545444E+03 -0.11411552256E+03  0.26805513285E+03  0.10100000352E+00 0.  1.
</event>
<event>
 5   0  0.1521750E-02  0.6027468E+03  0.7818609E-02  0.9899724E-01
       -3   -1    0    0    0  501  0.00000000000E+00  0.00000000000E+00  0.14840124280E+03  0.14840127717E+03  0.10100000352E+00 0.  1.
        3   -1    0    0  501    0  0.00000000000E+00  0.00000000000E+00 -0.61202925280E+03  0.61202926113E+03  0.10100000352E+00 0. -1.
    10030    2    1    2    0    0  0.00000000000E+00  0.00000000000E+00 -0.46362801000E+03  0.76043053830E+03  0.60274677263E+03 0.  0.
        5    1    3    3  502    0  0.19255378466E+03 -0.20933662208E+03 -0.10625353912E+03  0.30366212458E+03  0.46999998093E+01 0.  1.
       -5    1    3    3    0  502 -0.19255378466E+03  0.20933662208E+03 -0.35737447088E+03  0.45676841371E+03  0.46999998093E+01 0. -1.
</event>
<event>
 5   0  0.3724066E-02  0.6121429E+03  0.7818609E-02  0.9880529E-01
       -2   -1    0    0    0  501  0.00000000000E+00  0.00000000000E+00  0.14413461373E+03  0.14413461375E+03  0.25500000920E-02 0.  1.
        2   -1    0    0  501    0  0.00000000000E+00  0.00000000000E+00 -0.64994621642E+03  0.64994621642E+03  0.25500000920E-02 0. -1.
    10030    2    1    2    0    0  0.00000000000E+00  0.00000000000E+00 -0.50581160269E+03  0.79408083017E+03  0.61214294689E+03 0.  0.
        4    1    3    3  502    0 -0.26850870815E+03 -0.14293075969E+03 -0.29693483409E+03  0.42508591722E+03  0.12699999809E+01 0.  1.
       -4    1    3    3    0  502  0.26850870815E+03  0.14293075969E+03 -0.20887676860E+03  0.36899491295E+03  0.12699999809E+01 0. -1.
</event>
<event>
 5   0  0.3832191E-02  0.5773329E+03  0.7818609E-02  0.9953582E-01
       -2   -1    0    0    0  501  0.00000000000E+00  0.00000000000E+00  0.12059864094E+03  0.12059864097E+03  0.25500000920E-02 0. -1.
        2   -1    0    0  501    0  0.00000000000E+00  0.00000000000E+00 -0.69095578958E+03  0.69095578959E+03  0.25500000920E-02 0.  1.
    10030    2    1    2    0    0  0.00000000000E+00  0.00000000000E+00 -0.57035714864E+03  0.81155443056E+03  0.57733293406E+03 0.  0.
        3    1    3    3  502    0  0.15827679237E+03 -0.24111683002E+03 -0.30177830297E+03  0.41744343697E+03  0.10100000352E+00 0. -1.
       -3    1    3    3    0  502 -0.15827679237E+03  0.24111683002E+03 -0.26857884568E+03  0.39411099359E+03  0.10100000352E+00 0.  1.
</event>
<event>
 5   0  0.1521750E-02  0.6081760E+03  0.7818609E-02  0.9888587E-01
        3   -1    0    0  501    0  0.00000000000E+00  0.00000000000E+00  0.44936611873E+03  0.44936613008E+03  0.10100000352E+00 0. -1.
       -3   -1    0    0    0  501  0.00000000000E+00  0.00000000000E+00 -0.20577761940E+03  0.20577764419E+03  0.10100000352E+00 0.  1.
    10030    2    1    2    0    0  0.00000000000E+00  0.00000000000E+00  0.24358849933E+03  0.65514377427E+03  0.60817596792E+03 0.  0.
        4    1    3    3  502    0 -0.25258720156E+03  0.14001506988E+03  0.19240313043E+02  0.28944138738E+03  0.12699999809E+01 0.  1.
       -4    1    3    3    0  502  0.25258720156E+03 -0.14001506988E+03  0.22434818629E+03  0.36570238689E+03  0.12699999809E+01 0. -1.
</event>
<event>
 5   0  0.2295179E-02  0.6008450E+03  0.7818609E-02  0.9903654E-01
        1   -1    0    0  501    0  0.00000000000E+00  0.00000000000E+00  0.28688541848E+03  0.28688541852E+03  0.50400001928E-02 0. -1.
       -1   -1    0    0    0  501  0.00000000000E+00  0.00000000000E+00 -0.31459839679E+03  0.31459839683E+03  0.50400001928E-02 0.  1.
    10030    2    1    2    0    0  0.00000000000E+00  0.00000000000E+00 -0.27712978312E+02  0.60148381535E+03  0.60084504738E+03 0.  0.
        3    1    3    3  502    0  0.17051064219E+03 -0.70633900705E+02  0.22344120022E+03  0.28980856990E+03  0.10100000352E+00 0. -1.
       -3    1    3    3    0  502 -0.17051064219E+03  0.70633900705E+02 -0.25115417853E+03  0.31167524545E+03  0.10100000352E+00 0.  1.
</event>
<event>
 5   0  0.3934634E-02  0.6008989E+03  0.7818609E-02  0.9903543E-01
       -2   -1    0    0    0  501  0.00000000000E+00  0.00000000000E+00  0.54434476483E+03  0.54434476484E+03  0.25500000920E-02 0. -1.
        2   -1    0    0  501    0  0.00000000000E+00  0.00000000000E+00 -0.16583218441E+03  0.16583218443E+03  0.25500000920E-02 0.  1.
    10030    2    1    2    0    0  0.00000000000E+00  0.00000000000E+00  0.37851258042E+03  0.71017694927E+03  0.60089893139E+03 0.  0.
        1    1    3    3  502    0  0.14891956836E+03  0.22536883880E+03  0.33799424839E+02  0.27223253385E+03  0.50400001928E-02 0.  1.
       -1    1    3    3    0  502 -0.14891956836E+03 -0.22536883880E+03  0.34471315558E+03  0.43794441542E+03  0.50400001928E-02 0. -1.
</event>
<event>
 5   0  0.2276105E-02  0.6013186E+03  0.7818609E-02  0.9902674E-01
        1   -1    0    0  501    0  0.00000000000E+00  0.00000000000E+00  0.56377585119E+03  0.56377585121E+03  0.50400001928E-02 0.  1.
       -1   -1    0    0    0  501  0.00000000000E+00  0.00000000000E+00 -0.16034034306E+03  0.16034034314E+03  0.50400001928E-02 0. -1.
    10030    2    1    2    0    0  0.00000000000E+00  0.00000000000E+00  0.40343550813E+03  0.72411619436E+03  0.60131859585E+03 0.  0.
        1    1    3    3  502    0  0.17529946317E+03  0.17575670948E+02 -0.91668901069E+02  0.19860008421E+03  0.50400001928E-02 0. -1.
       -1    1    3    3    0  502 -0.17529946317E+03 -0.17575670948E+02  0.49510440919E+03  0.52551611015E+03  0.50400001928E-02 0.  1.
</event>
<event>
 5   0  0.3724066E-02  0.6050247E+03  0.7818609E-02  0.9895036E-01
        2   -1    0    0  501    0  0.00000000000E+00  0.00000000000E+00  0.12550672997E+04  0.12550672997E+04  0.25500000920E-02 0. -1.
       -2   -1    0    0    0  501  0.00000000000E+00  0.00000000000E+00 -0.72915391848E+02  0.72915391892E+02  0.25500000920E-02 0.  1.
    10030    2    1    2    0    0  0.00000000000E+00  0.00000000000E+00  0.11821519078E+04  0.13279826916E+04  0.60502470688E+03 0.  0.
        4    1    3    3  502    0 -0.22531083898E+03  0.12476660578E+03  0.24277803106E+03  0.35394133037E+03  0.12699999809E+01 0.  1.
       -4    1    3    3    0  502  0.22531083898E+03 -0.12476660578E+03  0.93937387678E+03  0.97404136122E+03  0.12699999809E+01 0. -1.
</event>
<event>
 5   0  0.3724066E-02  0.6148506E+03  0.7818609E-02  0.9875066E-01
        2   -1    0    0  501    0  0.00000000000E+00  0.00000000000E+00  0.19112636303E+03  0.19112636305E+03  0.25500000920E-02 0.  1.
       -2   -1    0    0    0  501  0.00000000000E+00  0.00000000000E+00 -0.49449133118E+03  0.49449133119E+03  0.25500000920E-02 0. -1.
    10030    2    1    2    0    0  0.00000000000E+00  0.00000000000E+00 -0.30336496815E+03  0.68561769424E+03  0.61485064751E+03 0.  0.
        4    1    3    3  502    0  0.13191215230E+03  0.25730022686E+03 -0.35239012755E+02  0.29128615413E+03  0.12699999809E+01 0. -1.
       -4    1    3    3    0  502 -0.13191215230E+03 -0.25730022686E+03 -0.26812595539E+03  0.39433154011E+03  0.12699999809E+01 0.  1.
</event>
<event>
 5   0  0.2382531E-02  0.5971263E+03  0.7818609E-02  0.9911386E-01
       -1   -1    0    0    0  501  0.00000000000E+00  0.00000000000E+00  0.10094527473E+03  0.10094527486E+03  0.50400001928E-02 0.  1.
        1   -1    0    0  501    0  0.00000000000E+00  0.00000000000E+00 -0.88305218714E+03  0.88305218715E+03  0.50400001928E-02 0. -1.
    10030    2    1    2    0    0  0.00000000000E+00  0.00000000000E+00 -0.78210691241E+03  0.98399746201E+03  0.59712627040E+03 0.  0.
        5    1    3    3  502    0 -0.18042873361E+02 -0.29557845852E+03 -0.32883207709E+03  0.44254355192E+03  0.46999998093E+01 0. -1.
       -5    1    3    3    0  502  0.18042873361E+02  0.29557845852E+03 -0.45327483532E+03  0.54145391009E+03  0.46999998093E+01 0.  1.
</event>
<event>
 5   0  0.3724066E-02  0.5924257E+03  0.7818609E-02  0.9921246E-01
        2   -1    0    0  501    0  0.00000000000E+00  0.00000000000E+00  0.25647963569E+03  0.25647963570E+03  0.25500000920E-02 0.  1.
       -2   -1    0    0    0  501  0.00000000000E+00  0.00000000000E+00 -0.34210142023E+03  0.34210142024E+03  0.25500000920E-02 0. -1.
    10030    2    1    2    0    0  0.00000000000E+00  0.00000000000E+00 -0.85621784541E+02  0.59858105594E+03  0.59242568356E+03 0.  0.
        4    1    3    3  502    0 -0.11352295453E+03 -0.26622260993E+03 -0.10654156824E+03  0.30840664375E+03  0.12699999809E+01 0.  1.
       -4    1    3    3    0  502  0.11352295453E+03  0.26622260993E+03  0.20919783698E+02  0.29017441220E+03  0.12699999809E+01 0. -1.
</event>
<event>
 5   0  0.3934634E-02  0.5997286E+03  0.7818609E-02  0.9905969E-01
       -2   -1    0    0    0  501  0.00000000000E+00  0.00000000000E+00  0.15604854954E+03  0.15604854956E+03  0.25500000920E-02 0.  1.
        2   -1    0    0  501    0  0.00000000000E+00  0.00000000000E+00 -0.57622199416E+03  0.57622199417E+03  0.25500000920E-02 0. -1.
    10030    2    1    2    0    0  0.00000000000E+00  0.00000000000E+00 -0.42017344463E+03  0.73227054373E+03  0.59972862666E+03 0.  0.
        1    1    3    3  502    0 -0.54921183267E+01  0.28677567291E+03 -0.31686801320E+03  0.42740588175E+03  0.50400001928E-02 0. -1.
       -1    1    3    3    0  502  0.54921183267E+01 -0.28677567291E+03 -0.10330543143E+03  0.30486466198E+03  0.50400001928E-02 0.  1.
</event>
<event>
 5   0  0.2309055E-02  0.6127930E+03  0.7818609E-02  0.9879214E-01
       -1   -1    0    0    0  501  0.00000000000E+00  0.00000000000E+00  0.30101930368E+03  0.30101930372E+03  0.50400001928E-02 0.  1.
        1   -1    0    0  501    0  0.00000000000E+00  0.00000000000E+00 -0.31186978377E+03  0.31186978381E+03  0.50400001928E-02 0. -1.
    10030    2    1    2    0    0  0.00000000000E+00  0.00000000000E+00 -0.10850480092E+02  0.61288908753E+03  0.61279303251E+03 0.  0.
        4    1    3    3  502    0 -0.47379417088E+02 -0.11543363132E+03  0.27445336063E+03  0.30148962248E+03  0.12699999809E+01 0.  1.
       -4    1    3    3    0  502  0.47379417088E+02  0.11543363132E+03 -0.28530384072E+03  0.31139946505E+03  0.12699999809E+01 0. -1.
</event>
<event>
 5   0  0.2382531E-02  0.5977776E+03  0.7818609E-02  0.9910028E-01
       -1   -1    0    0    0  501  0.00000000000E+00  0.00000000000E+00  0.52833791943E+02  0.52833792183E+02  0.50400001928E-02 0.  1.
        1   -1    0    0  501    0  0.00000000000E+00  0.00000000000E+00 -0.16908594444E+04  0.16908594444E+04  0.50400001928E-02 0. -1.
    10030    2    1    2    0    0  0.00000000000E+00  0.00000000000E+00 -0.16380256525E+04  0.17436932366E+04  0.59777760516E+03 0.  0.
        5    1    3    3  502    0 -0.13710787846E+03  0.18212878584E+03 -0.25532997873E+03  0.34232287829E+03  0.46999998093E+01 0.  1.
       -5    1    3    3    0  502  0.13710787846E+03 -0.18212878584E+03 -0.13826956737E+04  0.14013703583E+04  0.46999998093E+01 0. -1.
</event>
<event>
 5   0  0.2295179E-02  0.6005023E+03  0.7818609E-02  0.9904365E-01
       -1   -1    0    0    0  501  0.00000000000E+00  0.00000000000E+00  0.12573722629E+03  0.12573722639E+03  0.50400001928E-02 0.  1.
        1   -1    0    0  501    0  0.00000000000E+00  0.00000000000E+00 -0.71697736778E+03  0.71697736780E+03  0.50400001928E-02 0. -1.
    10030    2    1    2    0    0  0.00000000000E+00  0.00000000000E+00 -0.59124014149E+03  0.84271459419E+03  0.60050227507E+03 0.  0.
        3    1    3    3  502    0  0.20894436605E+03  0.46290406941E+02 -0.81901701109E-01  0.21401066980E+03  0.10100000352E+00 0.  1.
       -3    1    3    3    0  502 -0.20894436605E+03 -0.46290406941E+02 -0.59115823979E+03  0.62870392439E+03  0.10100000352E+00 0. -1.
</event>
<event>
 5   0  0.3724066E-02  0.5932673E+03  0.7818609E-02  0.9919473E-01
        2   -1    0    0  501    0  0.00000000000E+00  0.00000000000E+00  0.13236219792E+04  0.13236219792E+04  0.25500000920E-02 0. -1.
       -2   -1    0    0    0  501  0.00000000000E+00  0.00000000000E+00 -0.66477844297E+02  0.66477844346E+02  0.25500000920E-02 0.  1.
    10030    2    1    2    0    0  0.00000000000E+00  0.00000000000E+00  0.12571441349E+04  0.13900998236E+04  0.59326734573E+03 0.  0.
        4    1    3    3  502    0 -0.18941344383E+02  0.17423766311E+03  0.67823492459E+02  0.18793396926E+03  0.12699999809E+01 0.  1.
       -4    1    3    3    0  502  0.18941344383E+02 -0.17423766311E+03  0.11893206424E+04  0.12021658543E+04  0.12699999809E+01 0. -1.
</event>
<event>
 5   0  0.3934634E-02  0.5924960E+03  0.7818609E-02  0.9921098E-01
        2   -1    0    0  501    0  0.00000000000E+00  0.00000000000E+00  0.57494651664E+03  0.57494651665E+03  0.25500000920E-02 0.  1.
       -2   -1    0    0    0  501  0.00000000000E+00  0.00000000000E+00 -0.15264528369E+03  0.15264528371E+03  0.25500000920E-02 0. -1.
    10030    2    1    2    0    0  0.00000000000E+00  0.00000000000E+00  0.42230123295E+03  0.72759180036E+03  0.59249598868E+03 0.  0.
        1    1    3    3  502    0 -0.20210888297E+03  0.98823059875E+02  0.44783806224E+03  0.50117155521E+03  0.50400001928E-02 0.  1.
       -1    1    3    3    0  502  0.20210888297E+03 -0.98823059875E+02 -0.25536829293E+02  0.22642024515E+03  0.50400001928E-02 0. -1.
</event>
<event>
 5   0  0.3798925E-02  0.6031301E+03  0.7818609E-02  0.9898933E-01
       -2   -1    0    0    0  501  0.00000000000E+00  0.00000000000E+00  0.11043563501E+03  0.11043563504E+03  0.25500000920E-02 0.  1.
        2   -1    0    0  501    0  0.00000000000E+00  0.00000000000E+00 -0.82347954990E+03  0.82347954991E+03  0.25500000920E-02 0. -1.
    10030    2    1    2    0    0  0.00000000000E+00  0.00000000000E+00 -0.71304391489E+03  0.93391518495E+03  0.60313012536E+03 0.  0.
        2    1    3    3  502    0 -0.85713411080E+01  0.45222863256E+02 -0.81800836983E+03  0.81930230585E+03  0.25500000920E-02 0. -1.
       -2    1    3    3    0  502  0.85713411080E+01 -0.45222863256E+02  0.10496445494E+03  0.11461287910E+03  0.25500000920E-02 0.  1.
</event>
<event>
 5   0  0.3737642E-02  0.5941827E+03  0.7818609E-02  0.9917549E-01
       -2   -1    0    0    0  501  0.00000000000E+00  0.00000000000E+00  0.27719893478E+03  0.27719893479E+03  0.25500000920E-02 0.  1.
        2   -1    0    0  501    0  0.00000000000E+00  0.00000000000E+00 -0.31841129264E+03  0.31841129265E+03  0.25500000920E-02 0. -1.
    10030    2    1    2    0    0  0.00000000000E+00  0.00000000000E+00 -0.41212357862E+02  0.59561022745E+03  0.59418270304E+03 0.  0.
        5    1    3    3  502    0 -0.26370626449E+03 -0.77948640733E+02 -0.13323356803E+03  0.30559819727E+03  0.46999998093E+01 0. -1.
       -5    1    3    3    0  502  0.26370626449E+03  0.77948640733E+02  0.92021210172E+02  0.29001203017E+03  0.46999998093E+01 0.  1.
</event>
<event>
 5   0  0.3798925E-02  0.6029179E+03  0.7818609E-02  0.9899371E-01
       -2   -1    0    0    0  501  0.00000000000E+00  0.00000000000E+00  0.37152415919E+03  0.37152415920E+03  0.25500000920E-02 0. -1.
        2   -1    0    0  501    0  0.00000000000E+00  0.00000000000E+00 -0.24460725543E+03  0.24460725544E+03  0.25500000920E-02 0.  1.
    10030    2    1    2    0    0  0.00000000000E+00  0.00000000000E+00  0.12691690376E+03  0.61613141464E+03  0.60291792115E+03 0.  0.
        2    1    3    3  502    0  0.15844454506E+03 -0.24385628661E+03 -0.17698288676E+02  0.29134823117E+03  0.25500000920E-02 0.  1.
       -2    1    3    3    0  502 -0.15844454506E+03  0.24385628661E+03  0.14461519244E+03  0.32478318347E+03  0.25500000920E-02 0. -1.
</event>
<event>
 5   0  0.2295179E-02  0.5933437E+03  0.7818609E-02  0.9919313E-01
       -1   -1    0    0    0  501  0.00000000000E+00  0.00000000000E+00  0.45047657335E+03  0.45047657338E+03  0.50400001928E-02 0.  1.
        1   -1    0    0  501    0  0.00000000000E+00  0.00000000000E+00 -0.19538018364E+03  0.19538018371E+03  0.50400001928E-02 0. -1.
    10030    2    1    2    0    0  0.00000000000E+00  0.00000000000E+00  0.25509638971E+03  0.64585675709E+03  0.59334373059E+03 0.  0.
        3    1    3    3  502    0 -0.12118943961E+03 -0.13308984011E+03 -0.12915039117E+03  0.22153920545E+03  0.10100000352E+00 0. -1.
       -3    1    3    3    0  502  0.12118943961E+03  0.13308984011E+03  0.38424678088E+03  0.42431755164E+03  0.10100000352E+00 0.  1.
</event>
<event>
 5   0  0.3934634E-02  0.5986326E+03  0.7818609E-02  0.9908247E-01
        2   -1    0    0  501    0  0.00000000000E+00  0.00000000000E+00  0.16348079101E+04  0.16348079101E+04  0.25500000920E-02 0.  1.
       -2   -1    0    0    0  501  0.00000000000E+00  0.00000000000E+00 -0.54801705615E+02  0.54801705674E+02  0.25500000920E-02 0. -1.
    10030    2    1    2    0    0  0.00000000000E+00  0.00000000000E+00  0.15800062045E+04  0.16896096158E+04  0.59863264821E+03 0.  0.
        1    1    3    3  502    0  0.21054770656E+03 -0.10745542737E+03  0.13082376058E+04  0.13294219191E+04  0.50400001928E-02 0.  1.
       -1    1    3    3    0  502 -0.21054770656E+03  0.10745542737E+03  0.27176859867E+03  0.36018769670E+03  0.50400001928E-02 0. -1.
</event>
<event>
 5   0  0.2225808E-02  0.5951092E+03  0.7818609E-02  0.9915605E-01
       -1   -1    0    0    0  501  0.00000000000E+00  0.00000000000E+00  0.12106478957E+03  0.12106478968E+03  0.50400001928E-02 0. -1.
        1   -1    0    0  501    0  0.00000000000E+00  0.00000000000E+00 -0.73133344765E+03  0.73133344766E+03  0.50400001928E-02 0.  1.
    10030    2    1    2    0    0  0.00000000000E+00  0.00000000000E+00 -0.61026865808E+03  0.85239823734E+03  0.59510916645E+03 0.  0.
        2    1    3    3  502    0  0.77945746400E+02  0.58517990496E+02  0.97551335794E+02  0.13789908526E+03  0.25500000920E-02 0. -1.
       -2    1    3    3    0  502 -0.77945746400E+02 -0.58517990496E+02 -0.70781999387E+03  0.71449915208E+03  0.25500000920E-02 0.  1.
</event>
<event>
 5   0  0.2309055E-02  0.6022067E+03  0.7818609E-02  0.9900838E-01
        1   -1    0    0  501    0  0.00000000000E+00  0.00000000000E+00  0.29845309300E+03  0.29845309304E+03  0.50400001928E-02 0.  1.
       -1   -1    0    0    0  501  0.00000000000E+00  0.00000000000E+00 -0.30377711227E+03  0.30377711232E+03  0.50400001928E-02 0. -1.
    10030    2    1    2    0    0  0.00000000000E+00  0.00000000000E+00 -0.53240192770E+01  0.60223020535E+03  0.60220667139E+03 0.  0.
        4    1    3    3  502    0  0.28308818210E+02  0.29283196021E+03  0.61447123642E+02  0.30054834555E+03  0.12699999809E+01 0.  1.
       -4    1    3    3    0  502 -0.28308818210E+02 -0.29283196021E+03 -0.66771142919E+02  0.30168185981E+03  0.12699999809E+01 0. -1.
</event>
<event>
 5   0  0.3832191E-02  0.5995753E+03  0.7818609E-02  0.9906288E-01
       -2   -1    0    0    0  501  0.00000000000E+00  0.00000000000E+00  0.70515246078E+02  0.70515246124E+02  0.25500000920E-02 0.  1.
        2   -1    0    0  501    0  0.00000000000E+00  0.00000000000E+00 -0.12745134884E+04  0.12745134884E+04  0.25500000920E-02 0. -1.
    10030    2    1    2    0    0  0.00000000000E+00  0.00000000000E+00 -0.12039982423E+04  0.13450287345E+04  0.59957529067E+03 0.  0.
        3    1    3    3  502    0 -0.23777364173E+03  0.11093724758E+03 -0.27668743031E+03  0.38131263013E+03  0.10100000352E+00 0.  1.
       -3    1    3    3    0  502  0.23777364173E+03 -0.11093724758E+03 -0.92731081200E+03  0.96371610438E+03  0.10100000352E+00 0. -1.
</event>
<event>
 5   0  0.3737642E-02  0.5982394E+03  0.7818609E-02  0.9909065E-01
       -2   -1    0    0    0  501  0.00000000000E+00  0.00000000000E+00  0.31512013479E+03  0.31512013480E+03  0.25500000920E-02 0.  1.
        2   -1    0    0  501    0  0.00000000000E+00  0.00000000000E+00 -0.28393169571E+03  0.28393169573E+03  0.25500000920E-02 0. -1.
    10030    2    1    2    0    0  0.00000000000E+00  0.00000000000E+00  0.31188439073E+02  0.59905183052E+03  0.59823939767E+03 0.  0.
        5    1    3    3  502    0  0.17054324067E+03  0.85977666372E+02  0.24606618247E+03  0.31152497846E+03  0.46999998093E+01 0.  1.
       -5    1    3    3    0  502 -0.17054324067E+03 -0.85977666372E+02 -0.21487774340E+03  0.28752685206E+03  0.46999998093E+01 0. -1.
</event>
<event>
 5   0  0.1521750E-02  0.6533120E+03  0.7818609E-02  0.9800584E-01
       -3   -1    0    0    0  501  0.00000000000E+00  0.00000000000E+00  0.20236328044E+03  0.20236330564E+03  0.10100000352E+00 0.  1.
        3   -1    0    0  501    0  0.00000000000E+00  0.00000000000E+00 -0.52729000868E+03  0.52729001835E+03  0.10100000352E+00 0. -1.
    10030    2    1    2    0    0  0.00000000000E+00  0.00000000000E+00 -0.32492672824E+03  0.72965332399E+03  0.65331201925E+03 0.  0.
        4    1    3    3  502    0  0.17973995873E+03  0.17899618585E+03 -0.39231927999E+03  0.46718531405E+03  0.12699999809E+01 0. -1.
       -4    1    3    3    0  502 -0.17973995873E+03 -0.17899618585E+03  0.67392551752E+02  0.26246800994E+03  0.12699999809E+01 0.  1.
</event>
<event>
 5   0  0.2382531E-02  0.5968610E+03  0.7818609E-02  0.9911940E-01
        1   -1    0    0  501    0  0.00000000000E+00  0.00000000000E+00  0.12308644074E+04  0.12308644074E+04  0.50400001928E-02 0. -1.
       -1   -1    0    0    0  501  0.00000000000E+00  0.00000000000E+00 -0.72356280124E+02  0.72356280299E+02  0.50400001928E-02 0.  1.
    10030    2    1    2    0    0  0.00000000000E+00  0.00000000000E+00  0.11585081273E+04  0.13032206877E+04  0.59686102227E+03 0.  0.
        5    1    3    3  502    0 -0.56702443671E+02 -0.28149475847E+03  0.40208140190E+03  0.49411133352E+03  0.46999998093E+01 0.  1.
       -5    1    3    3    0  502  0.56702443671E+02  0.28149475847E+03  0.75642672536E+03  0.80910935416E+03  0.46999998093E+01 0. -1.
</event>
<event>
 5   0  0.3737642E-02  0.6003604E+03  0.7818609E-02  0.9904659E-01
        2   -1    0    0  501    0  0.00000000000E+00  0.00000000000E+00  0.80905013112E+03  0.80905013112E+03  0.25500000920E-02 0. -1.
       -2   -1    0    0    0  501  0.00000000000E+00  0.00000000000E+00 -0.11137523577E+03  0.11137523580E+03  0.25500000920E-02 0.  1.
    10030    2    1    2    0    0  0.00000000000E+00  0.00000000000E+00  0.69767489534E+03  0.92042536692E+03  0.60036038884E+03 0.  0.
        5    1    3    3  502    0 -0.13324320508E+02  0.23597553676E+03  0.63246104560E+03  0.67519704951E+03  0.46999998093E+01 0. -1.
       -5    1    3    3    0  502  0.13324320508E+02 -0.23597553676E+03  0.65213849741E+02  0.24522831742E+03  0.46999998093E+01 0.  1.
</event>
<event>
 5   0  0.3934634E-02  0.5951905E+03  0.7818609E-02  0.9915435E-01
        2   -1    0    0  501    0  0.00000000000E+00  0.00000000000E+00  0.13856751470E+03  0.13856751472E+03  0.25500000920E-02 0. -1.
       -2   -1    0    0    0  501  0.00000000000E+00  0.00000000000E+00 -0.63913203030E+03  0.63913203030E+03  0.25500000920E-02 0.  1.
    10030    2    1    2    0    0  0.00000000000E+00  0.00000000000E+00 -0.50056451560E+03  0.77769954503E+03  0.59519051409E+03 0.  0.
        1    1    3    3  502    0 -0.12521381284E+03 -0.20012179282E+03 -0.48705353880E+03  0.54124706057E+03  0.50400001928E-02 0.  1.
       -1    1    3    3    0  502  0.12521381284E+03  0.20012179282E+03 -0.13510976798E+02  0.23645248446E+03  0.50400001928E-02 0. -1.
</event>
<event>
 5   0  0.2309055E-02  0.6171083E+03  0.7818609E-02  0.9870534E-01
       -1   -1    0    0    0  501  0.00000000000E+00  0.00000000000E+00  0.10677065812E+03  0.10677065824E+03  0.50400001928E-02 0.  1.
        1   -1    0    0  501    0  0.00000000000E+00  0.00000000000E+00 -0.89168375900E+03  0.89168375901E+03  0.50400001928E-02 0. -1.
    10030    2    1    2    0    0  0.00000000000E+00  0.00000000000E+00 -0.78491310088E+03  0.99845441725E+03  0.61710829471E+03 0.  0.
        4    1    3    3  502    0 -0.24855072050E+03  0.16668574274E+03 -0.27092171580E+03  0.40368525671E+03  0.12699999809E+01 0. -1.
       -4    1    3    3    0  502  0.24855072050E+03 -0.16668574274E+03 -0.51399138508E+03  0.59476916054E+03  0.12699999809E+01 0.  1.
</event>
<event>
 5   0  0.1521750E-02  0.5916131E+03  0.7818609E-02  0.9922961E-01
        3   -1    0    0  501    0  0.00000000000E+00  0.00000000000E+00  0.77146980159E+03  0.77146980820E+03  0.10100000352E+00 0.  1.
       -3   -1    0    0    0  501  0.00000000000E+00  0.00000000000E+00 -0.11342179635E+03  0.11342184132E+03  0.10100000352E+00 0. -1.
    10030    2    1    2    0    0  0.00000000000E+00  0.00000000000E+00  0.65804800525E+03  0.88489164952E+03  0.59161309501E+03 0.  0.
        3    1    3    3  502    0  0.16743531743E+02  0.28762261495E+03  0.22875016390E+03  0.36787737382E+03  0.10100000352E+00 0. -1.
       -3    1    3    3    0  502 -0.16743531743E+02 -0.28762261495E+03  0.42929784135E+03  0.51701427570E+03  0.10100000352E+00 0.  1.
</event>
<event>
 5   0  0.2382531E-02  0.6025460E+03  0.7818609E-02  0.9900138E-01
        1   -1    0    0  501    0  0.00000000000E+00  0.00000000000E+00  0.10322693184E+04  0.10322693184E+04  0.50400001928E-02 0.  1.
       -1   -1    0    0    0  501  0.00000000000E+00  0.00000000000E+00 -0.87928029880E+02  0.87928030025E+02  0.50400001928E-02 0. -1.
    10030    2    1    2    0    0  0.00000000000E+00  0.00000000000E+00  0.94434128853E+03  0.11201973484E+04  0.60254595696E+03 0.  0.
        5    1    3    3  502    0  0.31104171546E+02 -0.20246314256E+03  0.61545632382E+02  0.21393631867E+03  0.46999998093E+01 0. -1.
       -5    1    3    3    0  502 -0.31104171546E+02  0.20246314256E+03  0.88279565614E+03  0.90626102977E+03  0.46999998093E+01 0.  1.
</event>
<event>
 5   0  0.3737642E-02  0.5986929E+03  0.7818609E-02  0.9908122E-01
        2   -1    0    0  501    0  0.00000000000E+00  0.00000000000E+00  0.14342979653E+03  0.14342979655E+03  0.25500000920E-02 0.  1.
       -2   -1    0    0    0  501  0.00000000000E+00  0.00000000000E+00 -0.62475365486E+03  0.62475365487E+03  0.25500000920E-02 0. -1.
    10030    2    1    2    0    0  0.00000000000E+00  0.00000000000E+00 -0.48132385833E+03  0.76818345142E+03  0.59869287488E+03 0.  0.
        5    1    3    3  502    0  0.18520233588E+02  0.23640169020E+03 -0.47500775572E+03  0.53092675218E+03  0.46999998093E+01 0. -1.
       -5    1    3    3    0  502 -0.18520233588E+02 -0.23640169020E+03 -0.63161026126E+01  0.23725669924E+03  0.46999998093E+01 0.  1.
</event>
<event>
 5   0  0.3798925E-02  0.5994029E+03  0.7818609E-02  0.9906646E-01
        2   -1    0    0  501    0  0.00000000000E+00  0.00000000000E+00  0.82461780303E+03  0.82461780303E+03  0.25500000920E-02 0.  1.
       -2   -1    0    0    0  501  0.00000000000E+00  0.00000000000E+00 -0.10892435052E+03  0.10892435055E+03  0.25500000920E-02 0. -1.
    10030    2    1    2    0    0  0.00000000000E+00  0.00000000000E+00  0.71569345251E+03  0.93354215358E+03  0.59940289835E+03 0.  0.
        2    1    3    3  502    0 -0.29645899832E+03 -0.39023005948E+02  0.32630200752E+03  0.44258754253E+03  0.25500000920E-02 0. -1.
       -2    1    3    3    0  502  0.29645899832E+03  0.39023005948E+02  0.38939144499E+03  0.49095461105E+03  0.25500000920E-02 0.  1.
</event>
<event>
 5   0  0.3832191E-02  0.6004515E+03  0.7818609E-02  0.9904470E-01
        2   -1    0    0  501    0  0.00000000000E+00  0.00000000000E+00  0.90267106097E+03  0.90267106097E+03  0.25500000920E-02 0. -1.
       -2   -1    0    0    0  501  0.00000000000E+00  0.00000000000E+00 -0.99854218625E+02  0.99854218658E+02  0.25500000920E-02 0.  1.
    10030    2    1    2    0    0  0.00000000000E+00  0.00000000000E+00  0.80281684234E+03  0.10025252796E+04  0.60045154171E+03 0.  0.
        3    1    3    3  502    0  0.71015305635E+02 -0.22669224104E+03  0.70792316862E+03  0.74671799808E+03  0.10100000352E+00 0. -1.
       -3    1    3    3    0  502 -0.71015305635E+02  0.22669224104E+03  0.94893673719E+02  0.25580728155E+03  0.10100000352E+00 0.  1.
</event>
<event>
 5   0  0.2276105E-02  0.5997237E+03  0.7818609E-02  0.9905979E-01
        1   -1    0    0  501    0  0.00000000000E+00  0.00000000000E+00  0.81705182554E+03  0.81705182555E+03  0.50400001928E-02 0.  1.
       -1   -1    0    0    0  501  0.00000000000E+00  0.00000000000E+00 -0.11005071387E+03  0.11005071398E+03  0.50400001928E-02 0. -1.
    10030    2    1    2    0    0  0.00000000000E+00  0.00000000000E+00  0.70700111167E+03  0.92710253954E+03  0.59972372549E+03 0.  0.
        1    1    3    3  502    0 -0.12788968445E+03 -0.97881428183E+02  0.74452208104E+03  0.76174121232E+03  0.50400001928E-02 0.  1.
       -1    1    3    3    0  502  0.12788968445E+03  0.97881428183E+02 -0.37520969369E+02  0.16536132722E+03  0.50400001928E-02 0. -1.
</event>
<event>
 5   0  0.3832191E-02  0.6027401E+03  0.7818609E-02  0.9899738E-01
        2   -1    0    0  501    0  0.00000000000E+00  0.00000000000E+00  0.87522428315E+03  0.87522428316E+03  0.25500000920E-02 0. -1.
       -2   -1    0    0    0  501  0.00000000000E+00  0.00000000000E+00 -0.10377213934E+03  0.10377213937E+03  0.25500000920E-02 0.  1.
    10030    2    1    2    0    0  0.00000000000E+00  0.00000000000E+00  0.77145214382E+03  0.97899642252E+03  0.60274006430E+03 0.  0.
        3    1    3    3  502    0 -0.29019905926E+03 -0.82045406898E+01  0.25436227426E+03  0.38598314115E+03  0.10100000352E+00 0.  1.
       -3    1    3    3    0  502  0.29019905926E+03  0.82045406898E+01  0.51708986956E+03  0.59301328137E+03  0.10100000352E+00 0. -1.
</event>
<event>
 5   0  0.3737642E-02  0.6049788E+03  0.7818609E-02  0.9895130E-01
        2   -1    0    0  501    0  0.00000000000E+00  0.00000000000E+00  0.99734104019E+03  0.99734104019E+03  0.25500000920E-02 0.  1.
       -2   -1    0    0    0  501  0.00000000000E+00  0.00000000000E+00 -0.91743793816E+02  0.91743793851E+02  0.25500000920E-02 0. -1.
    10030    2    1    2    0    0  0.00000000000E+00  0.00000000000E+00  0.90559724637E+03  0.10890848340E+04  0.60497884517E+03 0.  0.
        5    1    3    3  502    0 -0.93747532629E+02 -0.14589179410E+03  0.89888862445E+03  0.91547575863E+03  0.46999998093E+01 0.  1.
       -5    1    3    3    0  502  0.93747532629E+02  0.14589179410E+03  0.67086219185E+01  0.17360907542E+03  0.46999998093E+01 0. -1.
</event>
<event>
 5   0  0.2309055E-02  0.5974365E+03  0.7818609E-02  0.9910739E-01
        1   -1    0    0  501    0  0.00000000000E+00  0.00000000000E+00  0.17865753087E+03  0.17865753094E+03  0.50400001928E-02 0.  1.
       -1   -1    0    0    0  501  0.00000000000E+00  0.00000000000E+00 -0.49946169103E+03  0.49946169106E+03  0.50400001928E-02 0. -1.
    10030    2    1    2    0    0  0.00000000000E+00  0.00000000000E+00 -0.32080416016E+03  0.67811922199E+03  0.59743649877E+03 0.  0.
        4    1    3    3  502    0  0.12137932435E+02  0.16923395786E+03  0.11865250955E+03  0.20704466383E+03  0.12699999809E+01 0.  1.
       -4    1    3    3    0  502 -0.12137932435E+02 -0.16923395786E+03 -0.43945666971E+03  0.47107455817E+03  0.12699999809E+01 0. -1.
</event>
<event>
 5   0  0.2225808E-02  0.5984852E+03  0.7818609E-02  0.9908554E-01
       -1   -1    0    0    0  501  0.00000000000E+00  0.00000000000E+00  0.70073723972E+02  0.70073724154E+02  0.50400001928E-02 0.  1.
        1   -1    0    0  501    0  0.00000000000E+00  0.00000000000E+00 -0.12778845102E+04  0.12778845102E+04  0.50400001928E-02 0. -1.
    10030    2    1    2    0    0  0.00000000000E+00  0.00000000000E+00 -0.12078107862E+04  0.13479582343E+04  0.59848517630E+03 0.  0.
        2    1    3    3  502    0  0.80766577042E+02 -0.18016443219E+02  0.43790755022E+02  0.93624048328E+02  0.25500000920E-02 0.  1.
       -2    1    3    3    0  502 -0.80766577042E+02  0.18016443219E+02 -0.12516015412E+04  0.12543341860E+04  0.25500000920E-02 0. -1.
</event>
<event>
 5   0  0.3724066E-02  0.6110007E+03  0.7818609E-02  0.9882842E-01
       -2   -1    0    0    0  501  0.00000000000E+00  0.00000000000E+00  0.20724281446E+03  0.20724281448E+03  0.25500000920E-02 0. -1.
        2   -1    0    0  501    0  0.00000000000E+00  0.00000000000E+00 -0.45034358401E+03  0.45034358402E+03  0.25500000920E-02 0.  1.
    10030    2    1    2    0    0  0.00000000000E+00  0.00000000000E+00 -0.24310076955E+03  0.65758639850E+03  0.61100072613E+03 0.  0.
        4    1    3    3  502    0  0.21806987741E+02  0.53620924413E+02  0.20128381077E+03  0.20944577729E+03  0.12699999809E+01 0. -1.
       -4    1    3    3    0  502 -0.21806987741E+02 -0.53620924413E+02 -0.44438458032E+03  0.44814062120E+03  0.12699999809E+01 0.  1.
</event>
<event>
 5   0  0.3724066E-02  0.6047774E+03  0.7818609E-02  0.9895544E-01
       -2   -1    0    0    0  501  0.00000000000E+00  0.00000000000E+00  0.35395319987E+03  0.35395319988E+03  0.25500000920E-02 0.  1.
        2   -1    0    0  501    0  0.00000000000E+00  0.00000000000E+00 -0.25833620909E+03  0.25833620910E+03  0.25500000920E-02 0. -1.
    10030    2    1    2    0    0  0.00000000000E+00  0.00000000000E+00  0.95616990779E+02  0.61228940898E+03  0.60477740650E+03 0.  0.
        4    1    3    3  502    0  0.26952022876E+03 -0.43659716196E+02 -0.83767265669E+02  0.28559743036E+03  0.12699999809E+01 0. -1.
       -4    1    3    3    0  502 -0.26952022876E+03  0.43659716196E+02  0.17938425645E+03  0.32669197862E+03  0.12699999809E+01 0.  1.
</event>
<event>
 5   0  0.3798925E-02  0.6003538E+03  0.7818609E-02  0.9904672E-01
       -2   -1    0    0    0  501  0.00000000000E+00  0.00000000000E+00  0.68712258959E+02  0.68712259006E+02  0.25500000920E-02 0. -1.
        2   -1    0    0  501    0  0.00000000000E+00  0.00000000000E+00 -0.13113552031E+04  0.13113552031E+04  0.25500000920E-02 0.  1.
    10030    2    1    2    0    0  0.00000000000E+00  0.00000000000E+00 -0.12426429442E+04  0.13800674621E+04  0.60035382347E+03 0.  0.
        2    1    3    3  502    0  0.15504727399E+03  0.59625930851E+02 -0.46580450925E+02  0.17252433804E+03  0.25500000920E-02 0. -1.
       -2    1    3    3    0  502 -0.15504727399E+03 -0.59625930851E+02 -0.11960624932E+04  0.12075431241E+04  0.25500000920E-02 0.  1.
</event>
<event>
 5   0  0.3934634E-02  0.6022210E+03  0.7818609E-02  0.9900809E-01
        2   -1    0    0  501    0  0.00000000000E+00  0.00000000000E+00  0.52141350315E+03  0.52141350315E+03  0.25500000920E-02 0.  1.
       -2   -1    0    0    0  501  0.00000000000E+00  0.00000000000E+00 -0.17388794592E+03  0.17388794594E+03  0.25500000920E-02 0. -1.
    10030    2    1    2    0    0  0.00000000000E+00  0.00000000000E+00  0.34752555723E+03  0.69530144910E+03  0.60222096625E+03 0.  0.
        1    1    3    3  502    0  0.13889148175E+03  0.20214475112E+03  0.37544522809E+03  0.44845564266E+03  0.50400001928E-02 0. -1.
       -1    1    3    3    0  502 -0.13889148175E+03 -0.20214475112E+03 -0.27919670868E+02  0.24684580644E+03  0.50400001928E-02 0.  1.
</event>
<event>
 5   0  0.3724066E-02  0.6007361E+03  0.7818609E-02  0.9903880E-01
       -2   -1    0    0    0  501  0.00000000000E+00  0.00000000000E+00  0.21040126497E+03  0.21040126498E+03  0.25500000920E-02 0.  1.
        2   -1    0    0  501    0  0.00000000000E+00  0.00000000000E+00 -0.42880428894E+03  0.42880428895E+03  0.25500000920E-02 0. -1.
    10030    2    1    2    0    0  0.00000000000E+00  0.00000000000E+00 -0.21840302397E+03  0.63920555394E+03  0.60073609788E+03 0.  0.
        4    1    3    3  502    0  0.14506529829E+03  0.25671613005E+03 -0.48334866532E+02  0.29880593103E+03  0.12699999809E+01 0. -1.
       -4    1    3    3    0  502 -0.14506529829E+03 -0.25671613005E+03 -0.17006815744E+03  0.34039962290E+03  0.12699999809E+01 0.  1.
</event>
<event>
 5   0  0.3737642E-02  0.5991746E+03  0.7818609E-02  0.9907120E-01
       -2   -1    0    0    0  501  0.00000000000E+00  0.00000000000E+00  0.58036967516E+02  0.58036967572E+02  0.25500000920E-02 0. -1.
        2   -1    0    0  501    0  0.00000000000E+00  0.00000000000E+00 -0.15464722171E+04  0.15464722171E+04  0.25500000920E-02 0.  1.
    10030    2    1    2    0    0  0.00000000000E+00  0.00000000000E+00 -0.14884352496E+04  0.16045091847E+04  0.59917462521E+03 0.  0.
        5    1    3    3  502    0 -0.15522201116E+03 -0.24828809695E+03 -0.57507450174E+03  0.64534767713E+03  0.46999998093E+01 0. -1.
       -5    1    3    3    0  502  0.15522201116E+03  0.24828809695E+03 -0.91336074783E+03  0.95916150752E+03  0.46999998093E+01 0.  1.
</event>
<event>
 5   0  0.1521750E-02  0.6002225E+03  0.7818609E-02  0.9904944E-01
        3   -1    0    0  501    0  0.00000000000E+00  0.00000000000E+00  0.22702395692E+03  0.22702397939E+03  0.10100000352E+00 0.  1.
       -3   -1    0    0    0  501  0.00000000000E+00  0.00000000000E+00 -0.39672800408E+03  0.39672801694E+03  0.10100000352E+00 0. -1.
    10030    2    1    2    0    0  0.00000000000E+00  0.00000000000E+00 -0.16970404716E+03  0.62375199632E+03  0.60022253314E+03 0.  0.
        3    1    3    3  502    0 -0.14335410669E+03 -0.23299699348E+03 -0.21309452210E+03  0.34676690215E+03  0.10100000352E+00 0. -1.
       -3    1    3    3    0  502  0.14335410669E+03  0.23299699348E+03  0.43390474937E+02  0.27698509417E+03  0.10100000352E+00 0.  1.
</event>
<event>
 5   0  0.2276105E-02  0.6060413E+03  0.7818609E-02  0.9892951E-01
       -1   -1    0    0    0  501  0.00000000000E+00  0.00000000000E+00  0.10273041452E+03  0.10273041465E+03  0.50400001928E-02 0.  1.
        1   -1    0    0  501    0  0.00000000000E+00  0.00000000000E+00 -0.89381046302E+03  0.89381046304E+03  0.50400001928E-02 0. -1.
    10030    2    1    2    0    0  0.00000000000E+00  0.00000000000E+00 -0.79108004850E+03  0.99654087768E+03  0.60604131688E+03 0.  0.
        1    1    3    3  502    0 -0.20225995666E+03  0.90804198398E+02 -0.73519585596E+03  0.76789806560E+03  0.50400001928E-02 0. -1.
       -1    1    3    3    0  502  0.20225995666E+03 -0.90804198398E+02 -0.55884192543E+02  0.22864281208E+03  0.50400001928E-02 0.  1.
</event>
<event>
 5   0  0.2276105E-02  0.5995523E+03  0.7818609E-02  0.9906335E-01
       -1   -1    0    0    0  501  0.00000000000E+00  0.00000000000E+00  0.17807905716E+03  0.17807905723E+03  0.50400001928E-02 0. -1.
        1   -1    0    0  501    0  0.00000000000E+00  0.00000000000E+00 -0.50463964354E+03  0.50463964357E+03  0.50400001928E-02 0.  1.
    10030    2    1    2    0    0  0.00000000000E+00  0.00000000000E+00 -0.32656058639E+03  0.68271870080E+03  0.59955233953E+03 0.  0.
        1    1    3    3  502    0 -0.65708195539E+02 -0.29243927860E+03 -0.16924668836E+03  0.34421321906E+03  0.50400001928E-02 0.  1.
       -1    1    3    3    0  502  0.65708195539E+02  0.29243927860E+03 -0.15731389802E+03  0.33850548174E+03  0.50400001928E-02 0. -1.
</event>
<event>
 5   0  0.2309055E-02  0.6024964E+03  0.7818609E-02  0.9900240E-01
        1   -1    0    0  501    0  0.00000000000E+00  0.00000000000E+00  0.32860498612E+03  0.32860498616E+03  0.50400001928E-02 0.  1.
       -1   -1    0    0    0  501  0.00000000000E+00  0.00000000000E+00 -0.27616891808E+03  0.27616891813E+03  0.50400001928E-02 0. -1.
    10030    2    1    2    0    0  0.00000000000E+00  0.00000000000E+00  0.52436068041E+02  0.60477390429E+03  0.60249641832E+03 0.  0.
        4    1    3    3  502    0  0.19190971695E+02 -0.85642066355E+02  0.31548441965E+03  0.32746738596E+03  0.12699999809E+01 0.  1.
       -4    1    3    3    0  502 -0.19190971695E+02  0.85642066355E+02 -0.26304835161E+03  0.27730651833E+03  0.12699999809E+01 0. -1.
</event>
<event>
 5   0  0.2276105E-02  0.6026887E+03  0.7818609E-02  0.9899844E-01
        1   -1    0    0  501    0  0.00000000000E+00  0.00000000000E+00  0.27258628745E+03  0.27258628750E+03  0.50400001928E-02 0.  1.
       -1   -1    0    0    0  501  0.00000000000E+00  0.00000000000E+00 -0.33313640289E+03  0.33313640293E+03  0.50400001928E-02 0. -1.
    10030    2    1    2    0    0  0.00000000000E+00  0.00000000000E+00 -0.60550115441E+02  0.60572269042E+03  0.60268869345E+03 0.  0.
        1    1    3    3  502    0  0.22898409718E+01 -0.96859743114E+02  0.25650568172E+03  0.27419375994E+03  0.50400001928E-02 0.  1.
       -1    1    3    3    0  502 -0.22898409718E+01  0.96859743114E+02 -0.31705579716E+03  0.33152893048E+03  0.50400001928E-02 0. -1.
</event>
<event>
 5   0  0.3934634E-02  0.6003815E+03  0.7818609E-02  0.9904615E-01
        2   -1    0    0  501    0  0.00000000000E+00  0.00000000000E+00  0.92093837089E+03  0.92093837089E+03  0.25500000920E-02 0. -1.
       -2   -1    0    0    0  501  0.00000000000E+00  0.00000000000E+00 -0.97850709557E+02  0.97850709590E+02  0.25500000920E-02 0.  1.
    10030    2    1    2    0    0  0.00000000000E+00  0.00000000000E+00  0.82308766133E+03  0.10187890805E+04  0.60038145564E+03 0.  0.
        1    1    3    3  502    0 -0.26210590155E+03 -0.14352986378E+03  0.45996202513E+03  0.54851197801E+03  0.50400001928E-02 0.  1.
       -1    1    3    3    0  502  0.26210590155E+03  0.14352986378E+03  0.36312563620E+03  0.47027710248E+03  0.50400001928E-02 0. -1.
</event>
<event>
 5   0  0.3724066E-02  0.6033427E+03  0.7818609E-02  0.9898495E-01
        2   -1    0    0  501    0  0.00000000000E+00  0.00000000000E+00  0.14879748009E+04  0.14879748009E+04  0.25500000920E-02 0.  1.
       -2   -1    0    0    0  501  0.00000000000E+00  0.00000000000E+00 -0.61160720724E+02  0.61160720778E+02  0.25500000920E-02 0. -1.
    10030    2    1    2    0    0  0.00000000000E+00  0.00000000000E+00  0.14268140801E+04  0.15491355216E+04  0.60334272609E+03 0.  0.
        4    1    3    3  502    0 -0.11524650066E+03 -0.19972676790E+03  0.12128108899E+04  0.12345381344E+04  0.12699999809E+01 0. -1.
       -4    1    3    3    0  502  0.11524650066E+03  0.19972676790E+03  0.21400319026E+03  0.31459738726E+03  0.12699999809E+01 0.  1.
</event>
<event>
 5   0  0.3798925E-02  0.6009785E+03  0.7818609E-02  0.9903378E-01
       -2   -1    0    0    0  501  0.00000000000E+00  0.00000000000E+00  0.11346231324E+03  0.11346231327E+03  0.25500000920E-02 0. -1.
        2   -1    0    0  501    0  0.00000000000E+00  0.00000000000E+00 -0.79580420630E+03  0.79580420630E+03  0.25500000920E-02 0.  1.
    10030    2    1    2    0    0  0.00000000000E+00  0.00000000000E+00 -0.68234189306E+03  0.90926651957E+03  0.60097848929E+03 0.  0.
        2    1    3    3  502    0  0.13869529443E+03  0.15616343805E+03 -0.14317589021E+02  0.20935232849E+03  0.25500000920E-02 0. -1.
       -2    1    3    3    0  502 -0.13869529443E+03 -0.15616343805E+03 -0.66802430404E+03  0.69991419108E+03  0.25500000920E-02 0.  1.
</event>
<event>
 5   0  0.2382531E-02  0.5566393E+03  0.7818609E-02  0.9999688E-01
        1   -1    0    0  501    0  0.00000000000E+00  0.00000000000E+00  0.14580522200E+03  0.14580522209E+03  0.50400001928E-02 0. -1.
       -1   -1    0    0    0  501  0.00000000000E+00  0.00000000000E+00 -0.53126924964E+03  0.53126924967E+03  0.50400001928E-02 0.  1.
    10030    2    1    2    0    0  0.00000000000E+00  0.00000000000E+00 -0.38546402764E+03  0.67707447176E+03  0.55663931203E+03 0.  0.
        5    1    3    3  502    0 -0.13863584619E+03  0.23425324786E+03 -0.12237985396E+03  0.29848517658E+03  0.46999998093E+01 0. -1.
       -5    1    3    3    0  502  0.13863584619E+03 -0.23425324786E+03 -0.26308417368E+03  0.37858929518E+03  0.46999998093E+01 0.  1.
</event>
<event>
 5   0  0.2295179E-02  0.6044914E+03  0.7818609E-02  0.9896131E-01
        1   -1    0    0  501    0  0.00000000000E+00  0.00000000000E+00  0.23422188242E+03  0.23422188247E+03  0.50400001928E-02 0. -1.
       -1   -1    0    0    0  501  0.00000000000E+00  0.00000000000E+00 -0.39002532014E+03  0.39002532017E+03  0.50400001928E-02 0.  1.
    10030    2    1    2    0    0  0.00000000000E+00  0.00000000000E+00 -0.15580343772E+03  0.62424720264E+03  0.60449140507E+03 0.  0.
        3    1    3    3  502    0  0.17459036634E+03  0.23558411657E+03 -0.22209985057E+01  0.29323474391E+03  0.10100000352E+00 0.  1.
       -3    1    3    3    0  502 -0.17459036634E+03 -0.23558411657E+03 -0.15358243922E+03  0.33101245873E+03  0.10100000352E+00 0. -1.
</event>
<event>
 5   0  0.3934634E-02  0.5828236E+03  0.7818609E-02  0.9941697E-01
       -2   -1    0    0    0  501  0.00000000000E+00  0.00000000000E+00  0.10959684299E+03  0.10959684302E+03  0.25500000920E-02 0. -1.
        2   -1    0    0  501    0  0.00000000000E+00  0.00000000000E+00 -0.77484759758E+03  0.77484759758E+03  0.25500000920E-02 0.  1.
    10030    2    1    2    0    0  0.00000000000E+00  0.00000000000E+00 -0.66525075458E+03  0.88444444060E+03  0.58282364575E+03 0.  0.
        1    1    3    3  502    0  0.18158447496E+03  0.60179729076E+02 -0.66622480501E+03  0.69314501525E+03  0.50400001928E-02 0.  1.
       -1    1    3    3    0  502 -0.18158447496E+03 -0.60179729076E+02  0.97405042495E+00  0.19129942535E+03  0.50400001928E-02 0. -1.
</event>
<event>
 5   0  0.2309055E-02  0.5964425E+03  0.7818609E-02  0.9912814E-01
       -1   -1    0    0    0  501  0.00000000000E+00  0.00000000000E+00  0.45650108249E+03  0.45650108251E+03  0.50400001928E-02 0. -1.
        1   -1    0    0  501    0  0.00000000000E+00  0.00000000000E+00 -0.19482081580E+03  0.19482081587E+03  0.50400001928E-02 0.  1.
    10030    2    1    2    0    0  0.00000000000E+00  0.00000000000E+00  0.26168026668E+03  0.65132189838E+03  0.59644249793E+03 0.  0.
        4    1    3    3  502    0  0.12663623319E+03  0.26906595688E+03  0.10639576701E+03  0.31583998614E+03  0.12699999809E+01 0.  1.
       -4    1    3    3    0  502 -0.12663623319E+03 -0.26906595688E+03  0.15528449967E+03  0.33548191224E+03  0.12699999809E+01 0. -1.
</event>
<event>
 5   0  0.2276105E-02  0.6169614E+03  0.7818609E-02  0.9870828E-01
       -1   -1    0    0    0  501  0.00000000000E+00  0.00000000000E+00  0.60057769019E+02  0.60057769230E+02  0.50400001928E-02 0.  1.
        1   -1    0    0  501    0  0.00000000000E+00  0.00000000000E+00 -0.15844799608E+04  0.15844799608E+04  0.50400001928E-02 0. -1.
    10030    2    1    2    0    0  0.00000000000E+00  0.00000000000E+00 -0.15244221918E+04  0.16445377301E+04  0.61696136567E+03 0.  0.
        1    1    3    3  502    0  0.25931920612E+03  0.10105156515E+03 -0.40755885353E+03  0.49352009949E+03  0.50400001928E-02 0.  1.
       -1    1    3    3    0  502 -0.25931920612E+03 -0.10105156515E+03 -0.11168633383E+04  0.11510176306E+04  0.50400001928E-02 0. -1.
</event>
<event>
 5   0  0.2276105E-02  0.6018910E+03  0.7818609E-02  0.9901491E-01
        1   -1    0    0  501    0  0.00000000000E+00  0.00000000000E+00  0.11066022771E+04  0.11066022771E+04  0.50400001928E-02 0. -1.
       -1   -1    0    0    0  501  0.00000000000E+00  0.00000000000E+00 -0.81843502048E+02  0.81843502203E+02  0.50400001928E-02 0.  1.
    10030    2    1    2    0    0  0.00000000000E+00  0.00000000000E+00  0.10247587751E+04  0.11884457793E+04  0.60189103941E+03 0.  0.
        1    1    3    3  502    0  0.56605084294E+02  0.19380291224E+02  0.10947404803E+04  0.10963742292E+04  0.50400001928E-02 0. -1.
       -1    1    3    3    0  502 -0.56605084294E+02 -0.19380291224E+02 -0.69981705207E+02  0.92071550139E+02  0.50400001928E-02 0.  1.
</event>
<event>
 5   0  0.1521750E-02  0.6001138E+03  0.7818609E-02  0.9905170E-01
        3   -1    0    0  501    0  0.00000000000E+00  0.00000000000E+00  0.33532807484E+03  0.33532809005E+03  0.10100000352E+00 0. -1.
       -3   -1    0    0    0  501  0.00000000000E+00  0.00000000000E+00 -0.26849565390E+03  0.26849567290E+03  0.10100000352E+00 0.  1.
    10030    2    1    2    0    0  0.00000000000E+00  0.00000000000E+00  0.66832420941E+02  0.60382376295E+03  0.60011379272E+03 0.  0.
        4    1    3    3  502    0  0.80823558616E+01 -0.39634633327E+02 -0.26573697672E+03  0.26880100880E+03  0.12699999809E+01 0.  1.
       -4    1    3    3    0  502 -0.80823558616E+01  0.39634633327E+02  0.33256939766E+03  0.33502275415E+03  0.12699999809E+01 0. -1.
</event>
<event>
 5   0  0.2382531E-02  0.6005729E+03  0.7818609E-02  0.9904218E-01
       -1   -1    0    0    0  501  0.00000000000E+00  0.00000000000E+00  0.21725892146E+03  0.21725892152E+03  0.50400001928E-02 0. -1.
        1   -1    0    0  501    0  0.00000000000E+00  0.00000000000E+00 -0.41504366546E+03  0.41504366549E+03  0.50400001928E-02 0.  1.
    10030    2    1    2    0    0  0.00000000000E+00  0.00000000000E+00 -0.19778474400E+03  0.63230258700E+03  0.60057285701E+03 0.  0.
        5    1    3    3  502    0  0.12824011524E+03  0.22969906942E+03 -0.25125384905E+03  0.36381008275E+03  0.46999998093E+01 0.  1.
       -5    1    3    3    0  502 -0.12824011524E+03 -0.22969906942E+03  0.53469105058E+02  0.26849250425E+03  0.46999998093E+01 0. -1.
</event>
<event>
 5   0  0.2295179E-02  0.6015515E+03  0.7818609E-02  0.9902192E-01
        1   -1    0    0  501    0  0.00000000000E+00  0.00000000000E+00  0.33737279684E+03  0.33737279688E+03  0.50400001928E-02 0.  1.
       -1   -1    0    0    0  501  0.00000000000E+00  0.00000000000E+00 -0.26814862037E+03  0.26814862042E+03  0.50400001928E-02 0. -1.
    10030    2    1    2    0    0  0.00000000000E+00  0.00000000000E+00  0.69224176471E+02  0.60552141730E+03  0.60155149422E+03 0.  0.
        3    1    3    3  502    0  0.13900374463E+03  0.17703108277E+03  0.23543812975E+03  0.32571946277E+03  0.10100000352E+00 0.  1.
       -3    1    3    3    0  502 -0.13900374463E+03 -0.17703108277E+03 -0.16621395328E+03  0.27980195452E+03  0.10100000352E+00 0. -1.
</event>
<event>
 5   0  0.3724066E-02  0.6063379E+03  0.7818609E-02  0.9892343E-01
        2   -1    0    0  501    0  0.00000000000E+00  0.00000000000E+00  0.33888050336E+03  0.33888050337E+03  0.25500000920E-02 0. -1.
       -2   -1    0    0    0  501  0.00000000000E+00  0.00000000000E+00 -0.27122073415E+03  0.27122073416E+03  0.25500000920E-02 0.  1.
    10030    2    1    2    0    0  0.00000000000E+00  0.00000000000E+00  0.67659769206E+02  0.61010123753E+03  0.60633792201E+03 0.  0.
        4    1    3    3  502    0  0.68182861375E+01  0.28164133469E+03  0.14651368701E+03  0.31754716785E+03  0.12699999809E+01 0. -1.
       -4    1    3    3    0  502 -0.68182861375E+01 -0.28164133469E+03 -0.78853917801E+02  0.29255406968E+03  0.12699999809E+01 0.  1.
</event>
<event>
 5   0  0.3934634E-02  0.6130276E+03  0.7818609E-02  0.9878741E-01
        2   -1    0    0  501    0  0.00000000000E+00  0.00000000000E+00  0.21138861106E+04  0.21138861106E+04  0.25500000920E-02 0. -1.
       -2   -1    0    0    0  501  0.00000000000E+00  0.00000000000E+00 -0.44444547979E+02  0.44444548052E+02  0.25500000920E-02 0.  1.
    10030    2    1    2    0    0  0.00000000000E+00  0.00000000000E+00  0.20694415626E+04  0.21583306587E+04  0.61302761029E+03 0.  0.
        1    1    3    3  502    0  0.14758282552E+03 -0.10830555975E+03  0.16915532893E+03  0.24924748743E+03  0.50400001928E-02 0.  1.
       -1    1    3    3    0  502 -0.14758282552E+03  0.10830555975E+03  0.19002862337E+04  0.19090831712E+04  0.50400001928E-02 0. -1.
</event>
<event>
 5   0  0.2309055E-02  0.5992471E+03  0.7818609E-02  0.9906969E-01
       -1   -1    0    0    0  501  0.00000000000E+00  0.00000000000E+00  0.16919516543E+03  0.16919516550E+03  0.50400001928E-02 0. -1.
        1   -1    0    0  501    0  0.00000000000E+00  0.00000000000E+00 -0.53059595901E+03  0.53059595904E+03  0.50400001928E-02 0.  1.
    10030    2    1    2    0    0  0.00000000000E+00  0.00000000000E+00 -0.36140079359E+03  0.69979112454E+03  0.59924709793E+03 0.  0.
        4    1    3    3  502    0  0.25199435435E+03 -0.69552843728E+02 -0.97330601007E+01  0.26160102839E+03  0.12699999809E+01 0. -1.
       -4    1    3    3    0  502 -0.25199435435E+03  0.69552843728E+02 -0.35166773349E+03  0.43819009616E+03  0.12699999809E+01 0.  1.
</event>
<event>
 5   0  0.3737642E-02  0.5964520E+03  0.7818609E-02  0.9912795E-01
       -2   -1    0    0    0  501  0.00000000000E+00  0.00000000000E+00  0.10832845990E+03  0.10832845993E+03  0.25500000920E-02 0.  1.
        2   -1    0    0  501    0  0.00000000000E+00  0.00000000000E+00 -0.82100984846E+03  0.82100984846E+03  0.25500000920E-02 0. -1.
    10030    2    1    2    0    0  0.00000000000E+00  0.00000000000E+00 -0.71268138856E+03  0.92933830840E+03  0.59645195101E+03 0.  0.
        5    1    3    3  502    0  0.15072771757E+03 -0.23867726335E+01  0.44527370096E+02  0.15725558245E+03  0.46999998093E+01 0.  1.
       -5    1    3    3    0  502 -0.15072771757E+03  0.23867726335E+01 -0.75720875865E+03  0.77208272595E+03  0.46999998093E+01 0. -1.
</event>
<event>
 5   0  0.2309055E-02  0.5997092E+03  0.7818609E-02  0.9906010E-01
        1   -1    0    0  501    0  0.00000000000E+00  0.00000000000E+00  0.12472722051E+04  0.12472722051E+04  0.50400001928E-02 0. -1.
       -1   -1    0    0    0  501  0.00000000000E+00  0.00000000000E+00 -0.72087539268E+02  0.72087539444E+02  0.50400001928E-02 0.  1.
    10030    2    1    2    0    0  0.00000000000E+00  0.00000000000E+00  0.11751846658E+04  0.13193597445E+04  0.59970921015E+03 0.  0.
        4    1    3    3  502    0  0.13708253937E+03  0.24909585407E+03  0.37806272229E+03  0.47304693425E+03  0.12699999809E+01 0. -1.
       -4    1    3    3    0  502 -0.13708253937E+03 -0.24909585407E+03  0.79712194353E+03  0.84631281029E+03  0.12699999809E+01 0.  1.
</event>
<event>
 5   0  0.2276105E-02  0.5991677E+03  0.7818609E-02  0.9907134E-01
        1   -1    0    0  501    0  0.00000000000E+00  0.00000000000E+00  0.60269943766E+03  0.60269943768E+03  0.50400001928E-02 0.  1.
       -1   -1    0    0    0  501  0.00000000000E+00  0.00000000000E+00 -0.14891416873E+03  0.14891416881E+03  0.50400001928E-02 0. -1.
    10030    2    1    2    0    0  0.00000000000E+00  0.00000000000E+00  0.45378526893E+03  0.75161360649E+03  0.59916770871E+03 0.  0.
        1    1    3    3  502    0  0.90305732123E+02 -0.91417396290E+02  0.56637336235E+03  0.58076763960E+03  0.50400001928E-02 0.  1.
       -1    1    3    3    0  502 -0.90305732123E+02  0.91417396290E+02 -0.11258809342E+03  0.17084596689E+03  0.50400001928E-02 0. -1.
</event>
<event>
 5   0  0.2276105E-02  0.5960527E+03  0.7818609E-02  0.9913629E-01
       -1   -1    0    0    0  501  0.00000000000E+00  0.00000000000E+00  0.82267650726E+02  0.82267650881E+02  0.50400001928E-02 0. -1.
        1   -1    0    0  501    0  0.00000000000E+00  0.00000000000E+00 -0.10796431928E+04  0.10796431929E+04  0.50400001928E-02 0.  1.
    10030    2    1    2    0    0  0.00000000000E+00  0.00000000000E+00 -0.99737554212E+03  0.11619108437E+04  0.59605271309E+03 0.  0.
        1    1    3    3  502    0  0.57010045191E+02  0.25240526722E+03 -0.21046745632E+03  0.33354926828E+03  0.50400001928E-02 0. -1.
       -1    1    3    3    0  502 -0.57010045191E+02 -0.25240526722E+03 -0.78690808580E+03  0.82836157546E+03  0.50400001928E-02 0.  1.
</event>
<event>
 5   0  0.2295179E-02  0.5998037E+03  0.7818609E-02  0.9905813E-01
       -1   -1    0    0    0  501  0.00000000000E+00  0.00000000000E+00  0.20587064589E+03  0.20587064595E+03  0.50400001928E-02 0.  1.
        1   -1    0    0  501    0  0.00000000000E+00  0.00000000000E+00 -0.43688169339E+03  0.43688169342E+03  0.50400001928E-02 0. -1.
    10030    2    1    2    0    0  0.00000000000E+00  0.00000000000E+00 -0.23101104750E+03  0.64275233938E+03  0.59980368931E+03 0.  0.
        3    1    3    3  502    0 -0.35814458900E+00 -0.21203180861E+02 -0.43607723229E+03  0.43659256277E+03  0.10100000352E+00 0. -1.
       -3    1    3    3    0  502  0.35814458900E+00  0.21203180861E+02  0.20506618479E+03  0.20615977661E+03  0.10100000352E+00 0.  1.
</event>
<event>
 5   0  0.3737642E-02  0.6238884E+03  0.7818609E-02  0.9857048E-01
        2   -1    0    0  501    0  0.00000000000E+00  0.00000000000E+00  0.24189077735E+03  0.24189077736E+03  0.25500000920E-02 0. -1.
       -2   -1    0    0    0  501  0.00000000000E+00  0.00000000000E+00 -0.40228557977E+03  0.40228557978E+03  0.25500000920E-02 0.  1.
    10030    2    1    2    0    0  0.00000000000E+00  0.00000000000E+00 -0.16039480242E+03  0.64417635714E+03  0.62388836057E+03 0.  0.
        5    1    3    3  502    0 -0.30055238905E+03 -0.39904154812E+02 -0.45834633527E+01  0.30326090792E+03  0.46999998093E+01 0. -1.
       -5    1    3    3    0  502  0.30055238905E+03  0.39904154812E+02 -0.15581133907E+03  0.34091544922E+03  0.46999998093E+01 0.  1.
</event>
<event>
 5   0  0.3934634E-02  0.6002215E+03  0.7818609E-02  0.9904947E-01
       -2   -1    0    0    0  501  0.00000000000E+00  0.00000000000E+00  0.14951426468E+03  0.14951426470E+03  0.25500000920E-02 0. -1.
        2   -1    0    0  501    0  0.00000000000E+00  0.00000000000E+00 -0.60239384179E+03  0.60239384180E+03  0.25500000920E-02 0.  1.
    10030    2    1    2    0    0  0.00000000000E+00  0.00000000000E+00 -0.45287957712E+03  0.75190810650E+03  0.60022153348E+03 0.  0.
        1    1    3    3  502    0  0.15734049984E+03  0.20557872168E+03 -0.41662125976E+03  0.49050170011E+03  0.50400001928E-02 0. -1.
       -1    1    3    3    0  502 -0.15734049984E+03 -0.20557872168E+03 -0.36258317352E+02  0.26140640639E+03  0.50400001928E-02 0.  1.
</event>
<event>
 5   0  0.2309055E-02  0.6031212E+03  0.7818609E-02  0.9898952E-01
        1   -1    0    0  501    0  0.00000000000E+00  0.00000000000E+00  0.44841966054E+03  0.44841966057E+03  0.50400001928E-02 0. -1.
       -1   -1    0    0    0  501  0.00000000000E+00  0.00000000000E+00 -0.20279843182E+03  0.20279843189E+03  0.50400001928E-02 0.  1.
    10030    2    1    2    0    0  0.00000000000E+00  0.00000000000E+00  0.24562122872E+03  0.65121809245E+03  0.60312122823E+03 0.  0.
        4    1    3    3  502    0 -0.13608383979E+03 -0.23493972794E+03  0.26450736840E+03  0.37905309399E+03  0.12699999809E+01 0. -1.
       -4    1    3    3    0  502  0.13608383979E+03  0.23493972794E+03 -0.18886139687E+02  0.27216499847E+03  0.12699999809E+01 0.  1.
</event>
<event>
 5   0  0.2295179E-02  0.6003333E+03  0.7818609E-02  0.9904715E-01
       -1   -1    0    0    0  501  0.00000000000E+00  0.00000000000E+00  0.29926684427E+03  0.29926684431E+03  0.50400001928E-02 0. -1.
        1   -1    0    0  501    0  0.00000000000E+00  0.00000000000E+00 -0.30106915406E+03  0.30106915410E+03  0.50400001928E-02 0.  1.
    10030    2    1    2    0    0  0.00000000000E+00  0.00000000000E+00 -0.18023097944E+01  0.60033599842E+03  0.60033329299E+03 0.  0.
        3    1    3    3  502    0  0.17068077740E+03 -0.17095233741E+03 -0.17906866634E+03  0.30070288809E+03  0.10100000352E+00 0.  1.
       -3    1    3    3    0  502 -0.17068077740E+03  0.17095233741E+03  0.17726635654E+03  0.29963311033E+03  0.10100000352E+00 0. -1.
</event>
<event>
 5   0  0.3737642E-02  0.5952969E+03  0.7818609E-02  0.9915212E-01
        2   -1    0    0  501    0  0.00000000000E+00  0.00000000000E+00  0.16030678028E+04  0.16030678028E+04  0.25500000920E-02 0. -1.
       -2   -1    0    0    0  501  0.00000000000E+00  0.00000000000E+00 -0.55265661275E+02  0.55265661334E+02  0.25500000920E-02 0.  1.
    10030    2    1    2    0    0  0.00000000000E+00  0.00000000000E+00  0.15478021416E+04  0.16583334642E+04  0.59529690825E+03 0.  0.
        5    1    3    3  502    0 -0.82328708661E+02 -0.26068137186E+03  0.44618188783E+03  0.52329070404E+03  0.46999998093E+01 0.  1.
       -5    1    3    3    0  502  0.82328708661E+02  0.26068137186E+03  0.11016202537E+04  0.11350427601E+04  0.46999998093E+01 0. -1.
</event>
<event>
 5   0  0.2295179E-02  0.6036068E+03  0.7818609E-02  0.9897951E-01
       -1   -1    0    0    0  501  0.00000000000E+00  0.00000000000E+00  0.54411505741E+02  0.54411505974E+02  0.50400001928E-02 0.  1.
        1   -1    0    0  501    0  0.00000000000E+00  0.00000000000E+00 -0.16740076970E+04  0.16740076970E+04  0.50400001928E-02 0. -1.
    10030    2    1    2    0    0  0.00000000000E+00  0.00000000000E+00 -0.16195961913E+04  0.17284192030E+04  0.60360675816E+03 0.  0.
        3    1    3    3  502    0 -0.49865276847E+02  0.17290330953E+03 -0.11601172656E+03  0.21410472014E+03  0.10100000352E+00 0.  1.
       -3    1    3    3    0  502  0.49865276847E+02 -0.17290330953E+03 -0.15035844647E+04  0.15143144829E+04  0.10100000352E+00 0. -1.
</event>
<event>
 5   0  0.2276105E-02  0.5985645E+03  0.7818609E-02  0.9908389E-01
        1   -1    0    0  501    0  0.00000000000E+00  0.00000000000E+00  0.78801788382E+03  0.78801788384E+03  0.50400001928E-02 0. -1.
       -1   -1    0    0    0  501  0.00000000000E+00  0.00000000000E+00 -0.11366476052E+03  0.11366476063E+03  0.50400001928E-02 0.  1.
    10030    2    1    2    0    0  0.00000000000E+00  0.00000000000E+00  0.67435312330E+03  0.90168264447E+03  0.59856449647E+03 0.  0.
        1    1    3    3  502    0 -0.27738955665E+03  0.85048141062E+02  0.22656358335E+03  0.36811575592E+03  0.50400001928E-02 0. -1.
       -1    1    3    3    0  502  0.27738955665E+03 -0.85048141062E+02  0.44778953995E+03  0.53356688854E+03  0.50400001928E-02 0.  1.
</event>
<event>
 5   0  0.3724066E-02  0.5979103E+03  0.7818609E-02  0.9909751E-01
       -2   -1    0    0    0  501  0.00000000000E+00  0.00000000000E+00  0.23895343692E+03  0.23895343693E+03  0.25500000920E-02 0. -1.
        2   -1    0    0  501    0  0.00000000000E+00  0.00000000000E+00 -0.37402347617E+03  0.37402347618E+03  0.25500000920E-02 0.  1.
    10030    2    1    2    0    0  0.00000000000E+00  0.00000000000E+00 -0.13507003925E+03  0.61297691311E+03  0.59791034487E+03 0.  0.
        4    1    3    3  502    0 -0.36650630479E+02 -0.29045438201E+03 -0.54654775519E+01  0.29281137459E+03  0.12699999809E+01 0.  1.
       -4    1    3    3    0  502  0.36650630479E+02  0.29045438201E+03 -0.12960456170E+03  0.32016553852E+03  0.12699999809E+01 0. -1.
</event>
<event>
 5   0  0.3798925E-02  0.5975571E+03  0.7818609E-02  0.9910487E-01
        2   -1    0    0  501    0  0.00000000000E+00  0.00000000000E+00  0.66281084942E+03  0.66281084943E+03  0.25500000920E-02 0. -1.
       -2   -1    0    0    0  501  0.00000000000E+00  0.00000000000E+00 -0.13468187539E+03  0.13468187541E+03  0.25500000920E-02 0.  1.
    10030    2    1    2    0    0  0.00000000000E+00  0.00000000000E+00  0.52812897403E+03  0.79749272484E+03  0.59755705414E+03 0.  0.
        2    1    3    3  502    0 -0.25300709283E+03 -0.13734350514E+03  0.15735764699E+03  0.32808117364E+03  0.25500000920E-02 0.  1.
       -2    1    3    3    0  502  0.25300709283E+03  0.13734350514E+03  0.37077132705E+03  0.46941155119E+03  0.25500000920E-02 0. -1.
</event>
<event>
 5   0  0.2225808E-02  0.5961615E+03  0.7818609E-02  0.9913402E-01
       -1   -1    0    0    0  501  0.00000000000E+00  0.00000000000E+00  0.11349326432E+03  0.11349326443E+03  0.50400001928E-02 0. -1.
        1   -1    0    0  501    0  0.00000000000E+00  0.00000000000E+00 -0.78288467709E+03  0.78288467711E+03  0.50400001928E-02 0.  1.
    10030    2    1    2    0    0  0.00000000000E+00  0.00000000000E+00 -0.66939141277E+03  0.89637794154E+03  0.59616151385E+03 0.  0.
        2    1    3    3  502    0  0.13731293540E+03 -0.14031913956E+03 -0.67194033119E+03  0.70003436475E+03  0.25500000920E-02 0.  1.
       -2    1    3    3    0  502 -0.13731293540E+03  0.14031913956E+03  0.25489184147E+01  0.19634357679E+03  0.25500000920E-02 0. -1.
</event>
<event>
 5   0  0.3798925E-02  0.6060593E+03  0.7818609E-02  0.9892914E-01
       -2   -1    0    0    0  501  0.00000000000E+00  0.00000000000E+00  0.16003110078E+03  0.16003110080E+03  0.25500000920E-02 0.  1.
        2   -1    0    0  501    0  0.00000000000E+00  0.00000000000E+00 -0.57380695150E+03  0.57380695150E+03  0.25500000920E-02 0. -1.
    10030    2    1    2    0    0  0.00000000000E+00  0.00000000000E+00 -0.41377585072E+03  0.73383805230E+03  0.60605926473E+03 0.  0.
        2    1    3    3  502    0 -0.90184878160E-01  0.13682173849E+03  0.12050094177E+03  0.18232024909E+03  0.25500000920E-02 0.  1.
       -2    1    3    3    0  502  0.90184878160E-01 -0.13682173849E+03 -0.53427679248E+03  0.55151780320E+03  0.25500000920E-02 0. -1.
</event>
<event>
 5   0  0.2225808E-02  0.5909377E+03  0.7818609E-02  0.9924388E-01
       -1   -1    0    0    0  501  0.00000000000E+00  0.00000000000E+00  0.16935646563E+03  0.16935646570E+03  0.50400001928E-02 0.  1.
        1   -1    0    0  501    0  0.00000000000E+00  0.00000000000E+00 -0.51549161878E+03  0.51549161880E+03  0.50400001928E-02 0. -1.
    10030    2    1    2    0    0  0.00000000000E+00  0.00000000000E+00 -0.34613515315E+03  0.68484808451E+03  0.59093769097E+03 0.  0.
        2    1    3    3  502    0 -0.72696375179E+02 -0.10290188280E+03  0.13666554197E+03  0.18587907579E+03  0.25500000920E-02 0.  1.
       -2    1    3    3    0  502  0.72696375179E+02  0.10290188280E+03 -0.48280069512E+03  0.49896900872E+03  0.25500000920E-02 0. -1.
</event>
<event>
 5   0  0.2382531E-02  0.6002712E+03  0.7818609E-02  0.9904844E-01
        1   -1    0    0  501    0  0.00000000000E+00  0.00000000000E+00  0.79082747270E+03  0.79082747271E+03  0.50400001928E-02 0. -1.
       -1   -1    0    0    0  501  0.00000000000E+00  0.00000000000E+00 -0.11390775806E+03  0.11390775817E+03  0.50400001928E-02 0.  1.
    10030    2    1    2    0    0  0.00000000000E+00  0.00000000000E+00  0.67691971463E+03  0.90473523089E+03  0.60027122032E+03 0.  0.
        5    1    3    3  502    0 -0.15017667468E+03 -0.24063989995E+02 -0.51459917156E+02  0.16063101289E+03  0.46999998093E+01 0.  1.
       -5    1    3    3    0  502  0.15017667468E+03  0.24063989995E+02  0.72837963179E+03  0.74410421799E+03  0.46999998093E+01 0. -1.
</event>
<event>
 5   0  0.2276105E-02  0.5968635E+03  0.7818609E-02  0.9911935E-01
        1   -1    0    0  501    0  0.00000000000E+00  0.00000000000E+00  0.19207933315E+03  0.19207933322E+03  0.50400001928E-02 0. -1.
       -1   -1    0    0    0  501  0.00000000000E+00  0.00000000000E+00 -0.46367048179E+03  0.46367048182E+03  0.50400001928E-02 0.  1.
    10030    2    1    2    0    0  0.00000000000E+00  0.00000000000E+00 -0.27159114863E+03  0.65574981504E+03  0.59686352536E+03 0.  0.
        1    1    3    3  502    0 -0.23722092291E+03  0.97750360866E+02 -0.30325600717E+03  0.39723180289E+03  0.50400001928E-02 0.  1.
       -1    1    3    3    0  502  0.23722092291E+03 -0.97750360866E+02  0.31664858533E+02  0.25851801215E+03  0.50400001928E-02 0. -1.
</event>
<event>
 5   0  0.3798925E-02  0.6033705E+03  0.7818609E-02  0.9898438E-01
        2   -1    0    0  501    0  0.00000000000E+00  0.00000000000E+00  0.29779722728E+03  0.29779722729E+03  0.25500000920E-02 0.  1.
       -2   -1    0    0    0  501  0.00000000000E+00  0.00000000000E+00 -0.30562400790E+03  0.30562400791E+03  0.25500000920E-02 0. -1.
    10030    2    1    2    0    0  0.00000000000E+00  0.00000000000E+00 -0.78267806213E+01  0.60342123521E+03  0.60337047376E+03 0.  0.
        2    1    3    3  502    0 -0.14643565507E+03 -0.25617867762E+03  0.58885731427E+02  0.30089607062E+03  0.25500000920E-02 0.  1.
       -2    1    3    3    0  502  0.14643565507E+03  0.25617867762E+03 -0.66712512049E+02  0.30252516459E+03  0.25500000920E-02 0. -1.
</event>
<event>
 5   0  0.3724066E-02  0.5993494E+03  0.7818609E-02  0.9906757E-01
        2   -1    0    0  501    0  0.00000000000E+00  0.00000000000E+00  0.10353243308E+04  0.10353243308E+04  0.25500000920E-02 0. -1.
       -2   -1    0    0    0  501  0.00000000000E+00  0.00000000000E+00 -0.86740869012E+02  0.86740869049E+02  0.25500000920E-02 0.  1.
    10030    2    1    2    0    0  0.00000000000E+00  0.00000000000E+00  0.94858346175E+03  0.11220651998E+04  0.59934942123E+03 0.  0.
        4    1    3    3  502    0  0.84210718323E+02 -0.10792427071E+03  0.97336409077E+03  0.98294372138E+03  0.12699999809E+01 0. -1.
       -4    1    3    3    0  502 -0.84210718323E+02  0.10792427071E+03 -0.24780629019E+02  0.13912147844E+03  0.12699999809E+01 0.  1.
</event>
<event>
 5   0  0.3934634E-02  0.5944398E+03  0.7818609E-02  0.9917009E-01
        2   -1    0    0  501    0  0.00000000000E+00  0.00000000000E+00  0.10151961989E+04  0.10151961989E+04  0.25500000920E-02 0. -1.
       -2   -1    0    0    0  501  0.00000000000E+00  0.00000000000E+00 -0.87017333518E+02  0.87017333555E+02  0.25500000920E-02 0.  1.
    10030    2    1    2    0    0  0.00000000000E+00  0.00000000000E+00  0.92817886534E+03  0.11022135324E+04  0.59443979088E+03 0.  0.
        1    1    3    3  502    0 -0.73083050297E+01 -0.11997444575E+03 -0.39942108969E+02  0.12665958728E+03  0.50400001928E-02 0.  1.
       -1    1    3    3    0  502  0.73083050297E+01  0.11997444575E+03  0.96812097431E+03  0.97555394514E+03  0.50400001928E-02 0. -1.
</event>
<event>
 5   0  0.3934634E-02  0.5967376E+03  0.7818609E-02  0.9912198E-01
        2   -1    0    0  501    0  0.00000000000E+00  0.00000000000E+00  0.66300758030E+03  0.66300758031E+03  0.25500000920E-02 0. -1.
       -2   -1    0    0    0  501  0.00000000000E+00  0.00000000000E+00 -0.13427288549E+03  0.13427288552E+03  0.25500000920E-02 0.  1.
    10030    2    1    2    0    0  0.00000000000E+00  0.00000000000E+00  0.52873469481E+03  0.79728046582E+03  0.59673760036E+03 0.  0.
        1    1    3    3  502    0 -0.20146773541E+03 -0.11407764424E+03  0.12913648645E+02  0.23188298703E+03  0.50400001928E-02 0.  1.
       -1    1    3    3    0  502  0.20146773541E+03  0.11407764424E+03  0.51582104616E+03  0.56539747879E+03  0.50400001928E-02 0. -1.
</event>
<event>
 5   0  0.2225808E-02  0.5996688E+03  0.7818609E-02  0.9906094E-01
       -1   -1    0    0    0  501  0.00000000000E+00  0.00000000000E+00  0.15337796804E+03  0.15337796813E+03  0.50400001928E-02 0. -1.
        1   -1    0    0  501    0  0.00000000000E+00  0.00000000000E+00 -0.58613799638E+03  0.58613799640E+03  0.50400001928E-02 0.  1.
    10030    2    1    2    0    0  0.00000000000E+00  0.00000000000E+00 -0.43276002834E+03  0.73951596453E+03  0.59966875829E+03 0.  0.
        2    1    3    3  502    0 -0.10724735783E+03 -0.18931413961E+03 -0.47078809249E+03  0.51863596795E+03  0.25500000920E-02 0.  1.
       -2    1    3    3    0  502  0.10724735783E+03  0.18931413961E+03  0.38028064154E+02  0.22087999658E+03  0.25500000920E-02 0. -1.
</event>
<event>
 5   0  0.1521750E-02  0.6031285E+03  0.7818609E-02  0.9898937E-01
       -4   -1    0    0    0  501  0.00000000000E+00  0.00000000000E+00  0.16526869667E+03  0.16527357622E+03  0.12699999809E+01 0. -1.
        4   -1    0    0  501    0  0.00000000000E+00  0.00000000000E+00 -0.55024771968E+03  0.55024918529E+03  0.12699999809E+01 0.  1.
    10030    2    1    2    0    0  0.00000000000E+00  0.00000000000E+00 -0.38497902302E+03  0.71552276152E+03  0.60312848887E+03 0.  0.
        4    1    3    3  502    0  0.94732241159E+02 -0.11874251944E+03 -0.50154595908E+03  0.52404574744E+03  0.12699999809E+01 0.  1.
       -4    1    3    3    0  502 -0.94732241159E+02  0.11874251944E+03  0.11656693606E+03  0.19147701408E+03  0.12699999809E+01 0. -1.
</event>
<event>
 5   0  0.3934634E-02  0.5985720E+03  0.7818609E-02  0.9908373E-01
       -2   -1    0    0    0  501  0.00000000000E+00  0.00000000000E+00  0.59243614284E+03  0.59243614285E+03  0.25500000920E-02 0. -1.
        2   -1    0    0  501    0  0.00000000000E+00  0.00000000000E+00 -0.15119282642E+03  0.15119282644E+03  0.25500000920E-02 0.  1.
    10030    2    1    2    0    0  0.00000000000E+00  0.00000000000E+00  0.44124331642E+03  0.74362896929E+03  0.59857195029E+03 0.  0.
        1    1    3    3  502    0 -0.33048117785E+02  0.22054033057E+03  0.46859777044E+03  0.51895480149E+03  0.50400001928E-02 0. -1.
       -1    1    3    3    0  502  0.33048117785E+02 -0.22054033057E+03 -0.27354454016E+02  0.22467416780E+03  0.50400001928E-02 0.  1.
</event>
<event>
 5   0  0.3737642E-02  0.5974139E+03  0.7818609E-02  0.9910786E-01
       -2   -1    0    0    0  501  0.00000000000E+00  0.00000000000E+00  0.50678398988E+02  0.50678399052E+02  0.25500000920E-02 0.  1.
        2   -1    0    0  501    0  0.00000000000E+00  0.00000000000E+00 -0.17606286738E+04  0.17606286738E+04  0.25500000920E-02 0. -1.
    10030    2    1    2    0    0  0.00000000000E+00  0.00000000000E+00 -0.17099502748E+04  0.18113070728E+04  0.59741390161E+03 0.  0.
        5    1    3    3  502    0  0.16493789055E+03  0.73932488602E+01 -0.16095779700E+04  0.16180304384E+04  0.46999998093E+01 0. -1.
       -5    1    3    3    0  502 -0.16493789055E+03 -0.73932488602E+01 -0.10037230474E+03  0.19327663445E+03  0.46999998093E+01 0.  1.
</event>
<event>
 5   0  0.3724066E-02  0.6011993E+03  0.7818609E-02  0.9902921E-01
        2   -1    0    0  501    0  0.00000000000E+00  0.00000000000E+00  0.58554508083E+03  0.58554508083E+03  0.25500000920E-02 0. -1.
       -2   -1    0    0    0  501  0.00000000000E+00  0.00000000000E+00 -0.15431801270E+03  0.15431801272E+03  0.25500000920E-02 0.  1.
    10030    2    1    2    0    0  0.00000000000E+00  0.00000000000E+00  0.43122706813E+03  0.73986309355E+03  0.60119931214E+03 0.  0.
        4    1    3    3  502    0  0.71301644291E+02 -0.17897528242E+03  0.49957666926E+03  0.53543864034E+03  0.12699999809E+01 0. -1.
       -4    1    3    3    0  502 -0.71301644291E+02  0.17897528242E+03 -0.68349601137E+02  0.20442445321E+03  0.12699999809E+01 0.  1.
</event>
<event>
 5   0  0.2276105E-02  0.6013630E+03  0.7818609E-02  0.9902582E-01
       -1   -1    0    0    0  501  0.00000000000E+00  0.00000000000E+00  0.13099801980E+03  0.13099801989E+03  0.50400001928E-02 0. -1.
        1   -1    0    0  501    0  0.00000000000E+00  0.00000000000E+00 -0.69015832975E+03  0.69015832977E+03  0.50400001928E-02 0.  1.
    10030    2    1    2    0    0  0.00000000000E+00  0.00000000000E+00 -0.55916030995E+03  0.82115634966E+03  0.60136303375E+03 0.  0.
        1    1    3    3  502    0 -0.54959607359E+02 -0.11705084431E+03  0.91089696750E+02  0.15817329570E+03  0.50400001928E-02 0. -1.
       -1    1    3    3    0  502  0.54959607359E+02  0.11705084431E+03 -0.65025000670E+03  0.66298305396E+03  0.50400001928E-02 0.  1.
</event>
<event>
 5   0  0.3832191E-02  0.6012804E+03  0.7818609E-02  0.9902753E-01
       -2   -1    0    0    0  501  0.00000000000E+00  0.00000000000E+00  0.34845896068E+03  0.34845896069E+03  0.25500000920E-02 0.  1.
        2   -1    0    0  501    0  0.00000000000E+00  0.00000000000E+00 -0.25938353296E+03  0.25938353297E+03  0.25500000920E-02 0. -1.
    10030    2    1    2    0    0  0.00000000000E+00  0.00000000000E+00  0.89075427717E+02  0.60784249366E+03  0.60128035497E+03 0.  0.
        3    1    3    3  502    0 -0.71593100548E+02 -0.26097280101E+03  0.17693317243E+03  0.32332295405E+03  0.10100000352E+00 0.  1.
       -3    1    3    3    0  502  0.71593100548E+02  0.26097280101E+03 -0.87857744709E+02  0.28451953961E+03  0.10100000352E+00 0. -1.
</event>
<event>
 5   0  0.3934634E-02  0.5752559E+03  0.7818609E-02  0.9958115E-01
        2   -1    0    0  501    0  0.00000000000E+00  0.00000000000E+00  0.84550274615E+03  0.84550274615E+03  0.25500000920E-02 0.  1.
       -2   -1    0    0    0  501  0.00000000000E+00  0.00000000000E+00 -0.97846928722E+02  0.97846928755E+02  0.25500000920E-02 0. -1.
    10030    2    1    2    0    0  0.00000000000E+00  0.00000000000E+00  0.74765581743E+03  0.94334967491E+03  0.57525593245E+03 0.  0.
        1    1    3    3  502    0 -0.19118665607E+03  0.11107828098E+03  0.67549029355E+03  0.71075865009E+03  0.50400001928E-02 0.  1.
       -1    1    3    3    0  502  0.19118665607E+03 -0.11107828098E+03  0.72165523875E+02  0.23259102482E+03  0.50400001928E-02 0. -1.
</event>
<event>
 5   0  0.2309055E-02  0.5956381E+03  0.7818609E-02  0.9914497E-01
       -1   -1    0    0    0  501  0.00000000000E+00  0.00000000000E+00  0.10377639291E+04  0.10377639291E+04  0.50400001928E-02 0.  1.
        1   -1    0    0  501    0  0.00000000000E+00  0.00000000000E+00 -0.85468544852E+02  0.85468545001E+02  0.50400001928E-02 0. -1.
    10030    2    1    2    0    0  0.00000000000E+00  0.00000000000E+00  0.95229538424E+03  0.11232324741E+04  0.59563805456E+03 0.  0.
        4    1    3    3  502    0  0.24408376024E+03 -0.16292856804E+03  0.38051215449E+03  0.48053481967E+03  0.12699999809E+01 0. -1.
       -4    1    3    3    0  502 -0.24408376024E+03  0.16292856804E+03  0.57178322975E+03  0.64269765444E+03  0.12699999809E+01 0.  1.
</event>
<event>
 5   0  0.3832191E-02  0.6034791E+03  0.7818609E-02  0.9898214E-01
        2   -1    0    0  501    0  0.00000000000E+00  0.00000000000E+00  0.42026749461E+03  0.42026749462E+03  0.25500000920E-02 0. -1.
       -2   -1    0    0    0  501  0.00000000000E+00  0.00000000000E+00 -0.21664001812E+03  0.21664001814E+03  0.25500000920E-02 0.  1.
    10030    2    1    2    0    0  0.00000000000E+00  0.00000000000E+00  0.20362747649E+03  0.63690751276E+03  0.60347910538E+03 0.  0.
        3    1    3    3  502    0  0.23110324008E+03 -0.32588252098E+02 -0.10002871199E+03  0.25392214392E+03  0.10100000352E+00 0.  1.
       -3    1    3    3    0  502 -0.23110324008E+03  0.32588252098E+02  0.30365618847E+03  0.38298536884E+03  0.10100000352E+00 0. -1.
</event>
<event>
 5   0  0.3934634E-02  0.6144074E+03  0.7818609E-02  0.9875958E-01
       -2   -1    0    0    0  501  0.00000000000E+00  0.00000000000E+00  0.11922315997E+03  0.11922316000E+03  0.25500000920E-02 0. -1.
        2   -1    0    0  501    0  0.00000000000E+00  0.00000000000E+00 -0.79157524632E+03  0.79157524632E+03  0.25500000920E-02 0.  1.
    10030    2    1    2    0    0  0.00000000000E+00  0.00000000000E+00 -0.67235208634E+03  0.91079840632E+03  0.61440736401E+03 0.  0.
        1    1    3    3  502    0  0.11269683227E+02 -0.25702024161E+03 -0.87292828684E+02  0.27167342218E+03  0.50400001928E-02 0.  1.
       -1    1    3    3    0  502 -0.11269683227E+02  0.25702024161E+03 -0.58505925766E+03  0.63912498414E+03  0.50400001928E-02 0. -1.
</event>
<event>
 5   0  0.2225808E-02  0.6504728E+03  0.7818609E-02  0.9805892E-01
       -1   -1    0    0    0  501  0.00000000000E+00  0.00000000000E+00  0.23038349135E+03  0.23038349140E+03  0.50400001928E-02 0. -1.
        1   -1    0    0  501    0  0.00000000000E+00  0.00000000000E+00 -0.45914193726E+03  0.45914193729E+03  0.50400001928E-02 0.  1.
    10030    2    1    2    0    0  0.00000000000E+00  0.00000000000E+00 -0.22875844592E+03  0.68952542869E+03  0.65047282052E+03 0.  0.
        2    1    3    3  502    0  0.17120789854E+02 -0.21526410212E+03 -0.37218187082E+03  0.43029187777E+03  0.25500000920E-02 0.  1.
       -2    1    3    3    0  502 -0.17120789854E+02  0.21526410212E+03  0.14342342490E+03  0.25923355092E+03  0.25500000920E-02 0. -1.
</event>
<event>
 5   0  0.3737642E-02  0.6052739E+03  0.7818609E-02  0.9894524E-01
        2   -1    0    0  501    0  0.00000000000E+00  0.00000000000E+00  0.18144891398E+03  0.18144891399E+03  0.25500000920E-02 0.  1.
       -2   -1    0    0    0  501  0.00000000000E+00  0.00000000000E+00 -0.50476538846E+03  0.50476538847E+03  0.25500000920E-02 0. -1.
    10030    2    1    2    0    0  0.00000000000E+00  0.00000000000E+00 -0.32331647448E+03  0.68621430246E+03  0.60527392661E+03 0.  0.
        5    1    3    3  502    0  0.26363749857E+03  0.70918020115E+02 -0.13695391415E+02  0.27339303205E+03  0.46999998093E+01 0.  1.
       -5    1    3    3    0  502 -0.26363749857E+03 -0.70918020115E+02 -0.30962108307E+03  0.41282127041E+03  0.46999998093E+01 0. -1.
</event>
<event>
 5   0  0.2276105E-02  0.6020676E+03  0.7818609E-02  0.9901126E-01
        1   -1    0    0  501    0  0.00000000000E+00  0.00000000000E+00  0.50964485331E+03  0.50964485333E+03  0.50400001928E-02 0. -1.
       -1   -1    0    0    0  501  0.00000000000E+00  0.00000000000E+00 -0.17781276929E+03  0.17781276936E+03  0.50400001928E-02 0.  1.
    10030    2    1    2    0    0  0.00000000000E+00  0.00000000000E+00  0.33183208402E+03  0.68745762269E+03  0.60206764654E+03 0.  0.
        1    1    3    3  502    0 -0.15606676931E+03  0.12469830243E+03  0.42305522263E+03  0.46784850596E+03  0.50400001928E-02 0. -1.
       -1    1    3    3    0  502  0.15606676931E+03 -0.12469830243E+03 -0.91223138611E+02  0.21960911673E+03  0.50400001928E-02 0.  1.
</event>
<event>
 5   0  0.3934634E-02  0.6021578E+03  0.7818609E-02  0.9900939E-01
        2   -1    0    0  501    0  0.00000000000E+00  0.00000000000E+00  0.10042772521E+04  0.10042772521E+04  0.25500000920E-02 0.  1.
       -2   -1    0    0    0  501  0.00000000000E+00  0.00000000000E+00 -0.90262418661E+02  0.90262418697E+02  0.25500000920E-02 0. -1.
    10030    2    1    2    0    0  0.00000000000E+00  0.00000000000E+00  0.91401483340E+03  0.10945396708E+04  0.60215776603E+03 0.  0.
        1    1    3    3  502    0  0.15082736669E+03 -0.20447909156E+03  0.16341774152E+03  0.30210255163E+03  0.50400001928E-02 0. -1.
       -1    1    3    3    0  502 -0.15082736669E+03  0.20447909156E+03  0.75059709188E+03  0.79243711914E+03  0.50400001928E-02 0.  1.
</event>
<event>
 5   0  0.3798925E-02  0.6226471E+03  0.7818609E-02  0.9859503E-01
        2   -1    0    0  501    0  0.00000000000E+00  0.00000000000E+00  0.53417449645E+03  0.53417449646E+03  0.25500000920E-02 0.  1.
       -2   -1    0    0    0  501  0.00000000000E+00  0.00000000000E+00 -0.18144322367E+03  0.18144322368E+03  0.25500000920E-02 0. -1.
    10030    2    1    2    0    0  0.00000000000E+00  0.00000000000E+00  0.35273127278E+03  0.71561772014E+03  0.62264706743E+03 0.  0.
        2    1    3    3  502    0 -0.17976671987E+03 -0.24199054086E+03  0.86993192021E+02  0.31375677029E+03  0.25500000920E-02 0. -1.
       -2    1    3    3    0  502  0.17976671987E+03  0.24199054086E+03  0.26573808076E+03  0.40186094985E+03  0.25500000920E-02 0.  1.
</event>
<event>
 5   0  0.2382531E-02  0.6007461E+03  0.7818609E-02  0.9903859E-01
       -1   -1    0    0    0  501  0.00000000000E+00  0.00000000000E+00  0.11065163374E+03  0.11065163386E+03  0.50400001928E-02 0.  1.
        1   -1    0    0  501    0  0.00000000000E+00  0.00000000000E+00 -0.81538765470E+03  0.81538765472E+03  0.50400001928E-02 0. -1.
    10030    2    1    2    0    0  0.00000000000E+00  0.00000000000E+00 -0.70473602096E+03  0.92603928857E+03  0.60074612337E+03 0.  0.
        5    1    3    3  502    0 -0.20628296461E+02  0.22735386463E+03 -0.51535738960E+02  0.23407974873E+03  0.46999998093E+01 0.  1.
       -5    1    3    3    0  502  0.20628296461E+02 -0.22735386463E+03 -0.65320028200E+03  0.69195953984E+03  0.46999998093E+01 0. -1.
</event>
<event>
 5   0  0.2295179E-02  0.6063372E+03  0.7818609E-02  0.9892345E-01
        1   -1    0    0  501    0  0.00000000000E+00  0.00000000000E+00  0.22592476399E+04  0.22592476399E+04  0.50400001928E-02 0. -1.
       -1   -1    0    0    0  501  0.00000000000E+00  0.00000000000E+00 -0.40682213400E+02  0.40682213712E+02  0.50400001928E-02 0.  1.
    10030    2    1    2    0    0  0.00000000000E+00  0.00000000000E+00  0.22185654265E+04  0.22999298537E+04  0.60633718334E+03 0.  0.
        3    1    3    3  502    0  0.28253684073E+03  0.14774732407E+02  0.69609312383E+03  0.75139271112E+03  0.10100000352E+00 0.  1.
       -3    1    3    3    0  502 -0.28253684073E+03 -0.14774732407E+02  0.15224723027E+04  0.15485371425E+04  0.10100000352E+00 0. -1.
</event>
<event>
 5   0  0.3832191E-02  0.5941537E+03  0.7818609E-02  0.9917610E-01
       -2   -1    0    0    0  501  0.00000000000E+00  0.00000000000E+00  0.87032504252E+02  0.87032504290E+02  0.25500000920E-02 0.  1.
        2   -1    0    0  501    0  0.00000000000E+00  0.00000000000E+00 -0.10140423466E+04  0.10140423466E+04  0.25500000920E-02 0. -1.
    10030    2    1    2    0    0  0.00000000000E+00  0.00000000000E+00 -0.92700984232E+03  0.11010748509E+04  0.59415366653E+03 0.  0.
        3    1    3    3  502    0  0.45194160695E+02 -0.76992212979E+02  0.61584698356E+02  0.10845735703E+03  0.10100000352E+00 0.  1.
       -3    1    3    3    0  502 -0.45194160695E+02  0.76992212979E+02 -0.98859454068E+03  0.99261749384E+03  0.10100000352E+00 0. -1.
</event>
<event>
 5   0  0.3737642E-02  0.5980860E+03  0.7818609E-02  0.9909385E-01
       -2   -1    0    0    0  501  0.00000000000E+00  0.00000000000E+00  0.19328491857E+03  0.19328491859E+03  0.25500000920E-02 0.  1.
        2   -1    0    0  501    0  0.00000000000E+00  0.00000000000E+00 -0.46266779974E+03  0.46266779975E+03  0.25500000920E-02 0. -1.
    10030    2    1    2    0    0  0.00000000000E+00  0.00000000000E+00 -0.26938288117E+03  0.65595271834E+03  0.59808597378E+03 0.  0.
        5    1    3    3  502    0  0.66015700080E+02  0.18859533742E+03  0.10926736408E+03  0.22778876356E+03  0.46999998093E+01 0.  1.
       -5    1    3    3    0  502 -0.66015700080E+02 -0.18859533742E+03 -0.37865024525E+03  0.42816395478E+03  0.46999998093E+01 0. -1.
</event>
<event>
 5   0  0.2382531E-02  0.6021409E+03  0.7818609E-02  0.9900974E-01
       -1   -1    0    0    0  501  0.00000000000E+00  0.00000000000E+00  0.12732359497E+03  0.12732359507E+03  0.50400001928E-02 0.  1.
        1   -1    0    0  501    0  0.00000000000E+00  0.00000000000E+00 -0.71191361569E+03  0.71191361571E+03  0.50400001928E-02 0. -1.
    10030    2    1    2    0    0  0.00000000000E+00  0.00000000000E+00 -0.58459002072E+03  0.83923721078E+03  0.60214085032E+03 0.  0.
        5    1    3    3  502    0  0.17956529760E+02 -0.54899081814E+02  0.11947656190E+03  0.13278962680E+03  0.46999998093E+01 0.  1.
       -5    1    3    3    0  502 -0.17956529760E+02  0.54899081814E+02 -0.70406658262E+03  0.70644758398E+03  0.46999998093E+01 0. -1.
</event>
<event>
 5   0  0.3934634E-02  0.6005181E+03  0.7818609E-02  0.9904332E-01
       -2   -1    0    0    0  501  0.00000000000E+00  0.00000000000E+00  0.11841918263E+03  0.11841918266E+03  0.25500000920E-02 0.  1.
        2   -1    0    0  501    0  0.00000000000E+00  0.00000000000E+00 -0.76132506005E+03  0.76132506006E+03  0.25500000920E-02 0. -1.
    10030    2    1    2    0    0  0.00000000000E+00  0.00000000000E+00 -0.64290587742E+03  0.87974424272E+03  0.60051808080E+03 0.  0.
        1    1    3    3  502    0 -0.24102437094E+03 -0.67340572051E+02 -0.78390636832E+02  0.26224528975E+03  0.50400001928E-02 0.  1.
       -1    1    3    3    0  502  0.24102437094E+03  0.67340572051E+02 -0.56451524059E+03  0.61749895296E+03  0.50400001928E-02 0. -1.
</event>
<event>
 5   0  0.2309055E-02  0.6021447E+03  0.7818609E-02  0.9900966E-01
       -1   -1    0    0    0  501  0.00000000000E+00  0.00000000000E+00  0.21957277536E+03  0.21957277542E+03  0.50400001928E-02 0. -1.
        1   -1    0    0  501    0  0.00000000000E+00  0.00000000000E+00 -0.41282237536E+03  0.41282237539E+03  0.50400001928E-02 0.  1.
    10030    2    1    2    0    0  0.00000000000E+00  0.00000000000E+00 -0.19324960000E+03  0.63239515080E+03  0.60214468266E+03 0.  0.
        4    1    3    3  502    0 -0.70943993597E+02 -0.67496700004E+02  0.20237791707E+03  0.22482724247E+03  0.12699999809E+01 0. -1.
       -4    1    3    3    0  502  0.70943993597E+02  0.67496700004E+02 -0.39562751707E+03  0.40756790833E+03  0.12699999809E+01 0.  1.
</event>
<event>
 5   0  0.3832191E-02  0.5949947E+03  0.7818609E-02  0.9915845E-01
        2   -1    0    0  501    0  0.00000000000E+00  0.00000000000E+00  0.91916675125E+03  0.91916675126E+03  0.25500000920E-02 0.  1.
       -2   -1    0    0    0  501  0.00000000000E+00  0.00000000000E+00 -0.96287931393E+02  0.96287931427E+02  0.25500000920E-02 0. -1.
    10030    2    1    2    0    0  0.00000000000E+00  0.00000000000E+00  0.82287881986E+03  0.10154546827E+04  0.59499467259E+03 0.  0.
        3    1    3    3  502    0 -0.95094159186E+02 -0.18894575170E+03  0.76845926718E+03  0.79704018199E+03  0.10100000352E+00 0.  1.
       -3    1    3    3    0  502  0.95094159186E+02  0.18894575170E+03  0.54419552682E+02  0.21841450069E+03  0.10100000352E+00 0. -1.
</event>
<event>
 5   0  0.1521750E-02  0.6013320E+03  0.7818609E-02  0.9902646E-01
       -3   -1    0    0    0  501  0.00000000000E+00  0.00000000000E+00  0.35539676987E+03  0.35539678422E+03  0.10100000352E+00 0. -1.
        3   -1    0    0  501    0  0.00000000000E+00  0.00000000000E+00 -0.25436368125E+03  0.25436370130E+03  0.10100000352E+00 0.  1.
    10030    2    1    2    0    0  0.00000000000E+00  0.00000000000E+00  0.10103308862E+03  0.60976048553E+03  0.60133199209E+03 0.  0.
        3    1    3    3  502    0 -0.36073036352E+02  0.25996467508E+03 -0.98226678507E+02  0.28023452109E+03  0.10100000352E+00 0.  1.
       -3    1    3    3    0  502  0.36073036352E+02 -0.25996467508E+03  0.19925976713E+03  0.32952596443E+03  0.10100000352E+00 0. -1.
</event>
<event>
 5   0  0.3724066E-02  0.6419310E+03  0.7818609E-02  0.9822039E-01
        2   -1    0    0  501    0  0.00000000000E+00  0.00000000000E+00  0.28820183434E+03  0.28820183436E+03  0.25500000920E-02 0. -1.
       -2   -1    0    0    0  501  0.00000000000E+00  0.00000000000E+00 -0.35745383155E+03  0.35745383156E+03  0.25500000920E-02 0.  1.
    10030    2    1    2    0    0  0.00000000000E+00  0.00000000000E+00 -0.69251997208E+02  0.64565566592E+03  0.64193099303E+03 0.  0.
        4    1    3    3  502    0 -0.17456992115E+03 -0.26203168360E+03  0.28041025504E+02  0.31610626788E+03  0.12699999809E+01 0. -1.
       -4    1    3    3    0  502  0.17456992115E+03  0.26203168360E+03 -0.97293022712E+02  0.32954939804E+03  0.12699999809E+01 0.  1.
</event>
<event>
 5   0  0.3798925E-02  0.5830577E+03  0.7818609E-02  0.9941193E-01
       -2   -1    0    0    0  501  0.00000000000E+00  0.00000000000E+00  0.87877304255E+02  0.87877304292E+02  0.25500000920E-02 0. -1.
        2   -1    0    0  501    0  0.00000000000E+00  0.00000000000E+00 -0.96713318735E+03  0.96713318736E+03  0.25500000920E-02 0.  1.
    10030    2    1    2    0    0  0.00000000000E+00  0.00000000000E+00 -0.87925588310E+03  0.10550104917E+04  0.58305765541E+03 0.  0.
        2    1    3    3  502    0 -0.27368015754E+02  0.10130931549E+03  0.52515932389E+02  0.11734781145E+03  0.25500000920E-02 0. -1.
       -2    1    3    3    0  502  0.27368015754E+02 -0.10130931549E+03 -0.93177181549E+03  0.93766268020E+03  0.25500000920E-02 0.  1.
</event>
<event>
 5   0  0.3798925E-02  0.6011299E+03  0.7818609E-02  0.9903065E-01
       -2   -1    0    0    0  501  0.00000000000E+00  0.00000000000E+00  0.10395810600E+03  0.10395810603E+03  0.25500000920E-02 0.  1.
        2   -1    0    0  501    0  0.00000000000E+00  0.00000000000E+00 -0.86899704608E+03  0.86899704608E+03  0.25500000920E-02 0. -1.
    10030    2    1    2    0    0  0.00000000000E+00  0.00000000000E+00 -0.76503894007E+03  0.97295515211E+03  0.60112989295E+03 0.  0.
        2    1    3    3  502    0 -0.24714638901E+03  0.99870511465E+02 -0.60728056983E+03  0.66320822308E+03  0.25500000920E-02 0. -1.
       -2    1    3    3    0  502  0.24714638901E+03 -0.99870511465E+02 -0.15775837024E+03  0.30974692904E+03  0.25500000920E-02 0.  1.
</event>
<event>
 5   0  0.3934634E-02  0.5994315E+03  0.7818609E-02  0.9906586E-01
       -2   -1    0    0    0  501  0.00000000000E+00  0.00000000000E+00  0.15516367729E+03  0.15516367731E+03  0.25500000920E-02 0.  1.
        2   -1    0    0  501    0  0.00000000000E+00  0.00000000000E+00 -0.57893404966E+03  0.57893404966E+03  0.25500000920E-02 0. -1.
    10030    2    1    2    0    0  0.00000000000E+00  0.00000000000E+00 -0.42377037237E+03  0.73409772697E+03  0.59943151756E+03 0.  0.
        1    1    3    3  502    0 -0.19073691991E+03 -0.15729693634E+03 -0.41937914938E+03  0.48682827543E+03  0.50400001928E-02 0. -1.
       -1    1    3    3    0  502  0.19073691991E+03  0.15729693634E+03 -0.43912229898E+01  0.24726945154E+03  0.50400001928E-02 0.  1.
</event>
<event>
 5   0  0.2382531E-02  0.5984540E+03  0.7818609E-02  0.9908619E-01
        1   -1    0    0  501    0  0.00000000000E+00  0.00000000000E+00  0.17291960577E+03  0.17291960585E+03  0.50400001928E-02 0. -1.
       -1   -1    0    0    0  501  0.00000000000E+00  0.00000000000E+00 -0.51779441389E+03  0.51779441391E+03  0.50400001928E-02 0.  1.
    10030    2    1    2    0    0  0.00000000000E+00  0.00000000000E+00 -0.34487480811E+03  0.69071401976E+03  0.59845402816E+03 0.  0.
        5    1    3    3  502    0 -0.13058909427E+03  0.29461119498E+02 -0.48125604402E+03  0.49955073717E+03  0.46999998093E+01 0.  1.
       -5    1    3    3    0  502  0.13058909427E+03 -0.29461119498E+02  0.13638123590E+03  0.19116328259E+03  0.46999998093E+01 0. -1.
</event>
<event>
 5   0  0.2276105E-02  0.6006135E+03  0.7818609E-02  0.9904134E-01
       -1   -1    0    0    0  501  0.00000000000E+00  0.00000000000E+00  0.89813406841E+03  0.89813406843E+03  0.50400001928E-02 0.  1.
        1   -1    0    0  501    0  0.00000000000E+00  0.00000000000E+00 -0.10041278066E+03  0.10041278078E+03  0.50400001928E-02 0. -1.
    10030    2    1    2    0    0  0.00000000000E+00  0.00000000000E+00  0.79772128776E+03  0.99854684921E+03  0.60061348397E+03 0.  0.
        1    1    3    3  502    0  0.15618579177E+03  0.13815288004E+03  0.75815469939E+03  0.78630704438E+03  0.50400001928E-02 0.  1.
       -1    1    3    3    0  502 -0.15618579177E+03 -0.13815288004E+03  0.39566588370E+02  0.21223980483E+03  0.50400001928E-02 0. -1.
</event>
<event>
 5   0  0.3934634E-02  0.5996872E+03  0.7818609E-02  0.9906055E-01
        2   -1    0    0  501    0  0.00000000000E+00  0.00000000000E+00  0.68471176516E+03  0.68471176516E+03  0.25500000920E-02 0.  1.
       -2   -1    0    0    0  501  0.00000000000E+00  0.00000000000E+00 -0.13130516412E+03  0.13130516414E+03  0.25500000920E-02 0. -1.
    10030    2    1    2    0    0  0.00000000000E+00  0.00000000000E+00  0.55340660104E+03  0.81601692930E+03  0.59968722083E+03 0.  0.
        1    1    3    3  502    0 -0.42665784295E+02 -0.12708009834E+03 -0.88259782268E+02  0.16049769386E+03  0.50400001928E-02 0. -1.
       -1    1    3    3    0  502  0.42665784295E+02  0.12708009834E+03  0.64166638331E+03  0.65551923544E+03  0.50400001928E-02 0.  1.
</event>
<event>
 5   0  0.2225808E-02  0.6222431E+03  0.7818609E-02  0.9860304E-01
       -1   -1    0    0    0  501  0.00000000000E+00  0.00000000000E+00  0.80479935182E+02  0.80479935340E+02  0.50400001928E-02 0. -1.
        1   -1    0    0  501    0  0.00000000000E+00  0.00000000000E+00 -0.12027421097E+04  0.12027421098E+04  0.50400001928E-02 0.  1.
    10030    2    1    2    0    0  0.00000000000E+00  0.00000000000E+00 -0.11222621746E+04  0.12832220451E+04  0.62224306229E+03 0.  0.
        2    1    3    3  502    0  0.23877587743E+03  0.14576030746E+03 -0.28035699921E+03  0.39605559444E+03  0.25500000920E-02 0. -1.
       -2    1    3    3    0  502 -0.23877587743E+03 -0.14576030746E+03 -0.84190517536E+03  0.88716645066E+03  0.25500000920E-02 0.  1.
</event>
<event>
 5   0  0.2295179E-02  0.6003100E+03  0.7818609E-02  0.9904763E-01
        1   -1    0    0  501    0  0.00000000000E+00  0.00000000000E+00  0.24211117769E+03  0.24211117774E+03  0.50400001928E-02 0.  1.
       -1   -1    0    0    0  501  0.00000000000E+00  0.00000000000E+00 -0.37211430820E+03  0.37211430824E+03  0.50400001928E-02 0. -1.
    10030    2    1    2    0    0  0.00000000000E+00  0.00000000000E+00 -0.13000313051E+03  0.61422548597E+03  0.60031003130E+03 0.  0.
        3    1    3    3  502    0 -0.10956055567E+03 -0.15539710421E+03 -0.30263783505E+03  0.35740935181E+03  0.10100000352E+00 0. -1.
       -3    1    3    3    0  502  0.10956055567E+03  0.15539710421E+03  0.17263470453E+03  0.25681613416E+03  0.10100000352E+00 0.  1.
</event>
<event>
 5   0  0.2309055E-02  0.6081013E+03  0.7818609E-02  0.9888740E-01
       -1   -1    0    0    0  501  0.00000000000E+00  0.00000000000E+00  0.12136392948E+03  0.12136392959E+03  0.50400001928E-02 0. -1.
        1   -1    0    0  501    0  0.00000000000E+00  0.00000000000E+00 -0.76173202252E+03  0.76173202254E+03  0.50400001928E-02 0.  1.
    10030    2    1    2    0    0  0.00000000000E+00  0.00000000000E+00 -0.64036809304E+03  0.88309595213E+03  0.60810127946E+03 0.  0.
        4    1    3    3  502    0 -0.23238774715E+02  0.45754698667E+02  0.11502539021E+03  0.12596025720E+03  0.12699999809E+01 0. -1.
       -4    1    3    3    0  502  0.23238774715E+02 -0.45754698667E+02 -0.75539348325E+03  0.75713569493E+03  0.12699999809E+01 0.  1.
</event>
<event>
 5   0  0.3934634E-02  0.6056337E+03  0.7818609E-02  0.9893786E-01
       -2   -1    0    0    0  501  0.00000000000E+00  0.00000000000E+00  0.43353842086E+02  0.43353842161E+02  0.25500000920E-02 0. -1.
        2   -1    0    0  501    0  0.00000000000E+00  0.00000000000E+00 -0.21151076144E+04  0.21151076144E+04  0.25500000920E-02 0.  1.
    10030    2    1    2    0    0  0.00000000000E+00  0.00000000000E+00 -0.20717537723E+04  0.21584614566E+04  0.60563368992E+03 0.  0.
        1    1    3    3  502    0 -0.62830040595E+02  0.36962681315E+02 -0.20833705365E+04  0.20846454485E+04  0.50400001928E-02 0.  1.
       -1    1    3    3    0  502  0.62830040595E+02 -0.36962681315E+02  0.11616764133E+02  0.73816008057E+02  0.50400001928E-02 0. -1.
</event>
<event>
 5   0  0.2225808E-02  0.6019811E+03  0.7818609E-02  0.9901304E-01
        1   -1    0    0  501    0  0.00000000000E+00  0.00000000000E+00  0.40125011710E+03  0.40125011713E+03  0.50400001928E-02 0.  1.
       -1   -1    0    0    0  501  0.00000000000E+00  0.00000000000E+00 -0.22578262878E+03  0.22578262884E+03  0.50400001928E-02 0. -1.
    10030    2    1    2    0    0  0.00000000000E+00  0.00000000000E+00  0.17546748832E+03  0.62703274597E+03  0.60198108364E+03 0.  0.
        2    1    3    3  502    0 -0.11118826848E+03  0.20234768054E+03 -0.11340294169E+03  0.25723071757E+03  0.25500000920E-02 0. -1.
       -2    1    3    3    0  502  0.11118826848E+03 -0.20234768054E+03  0.28887043001E+03  0.36980202840E+03  0.25500000920E-02 0.  1.
</event>
<event>
 5   0  0.2295179E-02  0.6023259E+03  0.7818609E-02  0.9900592E-01
        1   -1    0    0  501    0  0.00000000000E+00  0.00000000000E+00  0.45393313767E+03  0.45393313770E+03  0.50400001928E-02 0. -1.
       -1   -1    0    0    0  501  0.00000000000E+00  0.00000000000E+00 -0.19980725150E+03  0.19980725157E+03  0.50400001928E-02 0.  1.
    10030    2    1    2    0    0  0.00000000000E+00  0.00000000000E+00  0.25412588617E+03  0.65374038927E+03  0.60232593381E+03 0.  0.
        3    1    3    3  502    0  0.46921347598E+02  0.29393545787E+03  0.77331946537E+02  0.30753846330E+03  0.10100000352E+00 0. -1.
       -3    1    3    3    0  502 -0.46921347598E+02 -0.29393545787E+03  0.17679393963E+03  0.34620192597E+03  0.10100000352E+00 0.  1.
</event>
<event>
 5   0  0.2382531E-02  0.6023456E+03  0.7818609E-02  0.9900552E-01
       -1   -1    0    0    0  501  0.00000000000E+00  0.00000000000E+00  0.20978159600E+03  0.20978159606E+03  0.50400001928E-02 0.  1.
        1   -1    0    0  501    0  0.00000000000E+00  0.00000000000E+00 -0.43237852506E+03  0.43237852509E+03  0.50400001928E-02 0. -1.
    10030    2    1    2    0    0  0.00000000000E+00  0.00000000000E+00 -0.22259692906E+03  0.64216012114E+03  0.60234560542E+03 0.  0.
        5    1    3    3  502    0  0.14805984091E+03 -0.33812307147E+01  0.16823471330E+03  0.22418331332E+03  0.46999998093E+01 0.  1.
       -5    1    3    3    0  502 -0.14805984091E+03  0.33812307147E+01 -0.39083164236E+03  0.41797680783E+03  0.46999998093E+01 0. -1.
</event>
<event>
 5   0  0.3934634E-02  0.5982617E+03  0.7818609E-02  0.9909019E-01
       -2   -1    0    0    0  501  0.00000000000E+00  0.00000000000E+00  0.84181469791E+02  0.84181469829E+02  0.25500000920E-02 0.  1.
        2   -1    0    0  501    0  0.00000000000E+00  0.00000000000E+00 -0.10629330593E+04  0.10629330593E+04  0.25500000920E-02 0. -1.
    10030    2    1    2    0    0  0.00000000000E+00  0.00000000000E+00 -0.97875158947E+03  0.11471145291E+04  0.59826170608E+03 0.  0.
        1    1    3    3  502    0 -0.29900805556E+03  0.81650540588E+01 -0.48438248392E+03  0.56929682605E+03  0.50400001928E-02 0.  1.
       -1    1    3    3    0  502  0.29900805556E+03 -0.81650540588E+01 -0.49436910555E+03  0.57781770304E+03  0.50400001928E-02 0. -1.
</event>
<event>
 5   0  0.1521750E-02  0.5994301E+03  0.7818609E-02  0.9906589E-01
       -3   -1    0    0    0  501  0.00000000000E+00  0.00000000000E+00  0.12794375382E+03  0.12794379369E+03  0.10100000352E+00 0.  1.
        3   -1    0    0  501    0  0.00000000000E+00  0.00000000000E+00 -0.70209840794E+03  0.70209841520E+03  0.10100000352E+00 0. -1.
    10030    2    1    2    0    0  0.00000000000E+00  0.00000000000E+00 -0.57415465412E+03  0.83004220889E+03  0.59943014748E+03 0.  0.
        2    1    3    3  502    0 -0.15156628803E+03 -0.21460867770E+03 -0.87370812447E+02  0.27688062967E+03  0.25500000920E-02 0.  1.
       -2    1    3    3    0  502  0.15156628803E+03  0.21460867770E+03 -0.48678384167E+03  0.55316157922E+03  0.25500000920E-02 0. -1.
</event>
<event>
 5   0  0.2295179E-02  0.5949204E+03  0.7818609E-02  0.9916001E-01
        1   -1    0    0  501    0  0.00000000000E+00  0.00000000000E+00  0.33987407523E+03  0.33987407527E+03  0.50400001928E-02 0.  1.
       -1   -1    0    0    0  501  0.00000000000E+00  0.00000000000E+00 -0.26033929113E+03  0.26033929118E+03  0.50400001928E-02 0. -1.
    10030    2    1    2    0    0  0.00000000000E+00  0.00000000000E+00  0.79534784094E+02  0.60021336645E+03  0.59492041769E+03 0.  0.
        3    1    3    3  502    0 -0.25980339716E+03 -0.62769856573E+02 -0.91949519942E+02  0.28265276310E+03  0.10100000352E+00 0. -1.
       -3    1    3    3    0  502  0.25980339716E+03  0.62769856573E+02  0.17148430404E+03  0.31756060335E+03  0.10100000352E+00 0.  1.
</event>
<event>
 5   0  0.1521750E-02  0.5989013E+03  0.7818609E-02  0.9907688E-01
       -3   -1    0    0    0  501  0.00000000000E+00  0.00000000000E+00  0.17936838147E+04  0.17936838175E+04  0.10100000352E+00 0.  1.
        3   -1    0    0  501    0  0.00000000000E+00  0.00000000000E+00 -0.49992416663E+02  0.49992518689E+02  0.10100000352E+00 0. -1.
    10030    2    1    2    0    0  0.00000000000E+00  0.00000000000E+00  0.17436913980E+04  0.18436763362E+04  0.59890127833E+03 0.  0.
        1    1    3    3  502    0 -0.96087258905E+02  0.14863298797E+03  0.16154391846E+04  0.16251056229E+04  0.50400001928E-02 0.  1.
       -1    1    3    3    0  502  0.96087258905E+02 -0.14863298797E+03  0.12825221337E+03  0.21857071326E+03  0.50400001928E-02 0. -1.
</event>
<event>
 5   0  0.3798925E-02  0.6000108E+03  0.7818609E-02  0.9905384E-01
       -2   -1    0    0    0  501  0.00000000000E+00  0.00000000000E+00  0.28310556807E+03  0.28310556808E+03  0.25500000920E-02 0.  1.
        2   -1    0    0  501    0  0.00000000000E+00  0.00000000000E+00 -0.31791409849E+03  0.31791409850E+03  0.25500000920E-02 0. -1.
    10030    2    1    2    0    0  0.00000000000E+00  0.00000000000E+00 -0.34808530420E+02  0.60101966658E+03  0.60001083809E+03 0.  0.
        2    1    3    3  502    0 -0.11226366124E+03 -0.83886508548E+02 -0.28311084157E+03  0.31589844028E+03  0.25500000920E-02 0. -1.
       -2    1    3    3    0  502  0.11226366124E+03  0.83886508548E+02  0.24830231115E+03  0.28512122629E+03  0.25500000920E-02 0.  1.
</event>
<event>
 5   0  0.2225808E-02  0.6475343E+03  0.7818609E-02  0.9811417E-01
        1   -1    0    0  501    0  0.00000000000E+00  0.00000000000E+00  0.87542669074E+02  0.87542669220E+02  0.50400001928E-02 0. -1.
       -1   -1    0    0    0  501  0.00000000000E+00  0.00000000000E+00 -0.11974179662E+04  0.11974179662E+04  0.50400001928E-02 0.  1.
    10030    2    1    2    0    0  0.00000000000E+00  0.00000000000E+00 -0.11098752971E+04  0.12849606354E+04  0.64753429209E+03 0.  0.
        2    1    3    3  502    0 -0.77247557432E+02  0.83368206593E+02 -0.11565310322E+04  0.11621021777E+04  0.25500000920E-02 0.  1.
       -2    1    3    3    0  502  0.77247557432E+02 -0.83368206593E+02  0.46655735106E+02  0.12285845768E+03  0.25500000920E-02 0. -1.
</event>
<event>
 5   0  0.3737642E-02  0.6054999E+03  0.7818609E-02  0.9894061E-01
        2   -1    0    0  501    0  0.00000000000E+00  0.00000000000E+00  0.41788660694E+03  0.41788660695E+03  0.25500000920E-02 0.  1.
       -2   -1    0    0    0  501  0.00000000000E+00  0.00000000000E+00 -0.21933587299E+03  0.21933587301E+03  0.25500000920E-02 0. -1.
    10030    2    1    2    0    0  0.00000000000E+00  0.00000000000E+00  0.19855073394E+03  0.63722247995E+03  0.60549987201E+03 0.  0.
        5    1    3    3  502    0  0.14686862068E+03  0.38478050696E+02 -0.17633145485E+03  0.23273552392E+03  0.46999998093E+01 0. -1.
       -5    1    3    3    0  502 -0.14686862068E+03 -0.38478050696E+02  0.37488218880E+03  0.40448695603E+03  0.46999998093E+01 0.  1.
</event>
<event>
 5   0  0.3724066E-02  0.5954538E+03  0.7818609E-02  0.9914883E-01
       -2   -1    0    0    0  501  0.00000000000E+00  0.00000000000E+00  0.50575696754E+03  0.50575696755E+03  0.25500000920E-02 0.  1.
        2   -1    0    0  501    0  0.00000000000E+00  0.00000000000E+00 -0.17526462119E+03  0.17526462121E+03  0.25500000920E-02 0. -1.
    10030    2    1    2    0    0  0.00000000000E+00  0.00000000000E+00  0.33049234636E+03  0.68102158876E+03  0.59545378776E+03 0.  0.
        4    1    3    3  502    0  0.54477823930E+02 -0.12774162283E+03  0.46644159802E+03  0.48667764769E+03  0.12699999809E+01 0.  1.
       -4    1    3    3    0  502 -0.54477823930E+02  0.12774162283E+03 -0.13594925166E+03  0.19434394107E+03  0.12699999809E+01 0. -1.
</event>
<event>
 5   0  0.3724066E-02  0.5965710E+03  0.7818609E-02  0.9912546E-01
        2   -1    0    0  501    0  0.00000000000E+00  0.00000000000E+00  0.15274127849E+04  0.15274127849E+04  0.25500000920E-02 0.  1.
       -2   -1    0    0    0  501  0.00000000000E+00  0.00000000000E+00 -0.58251594385E+02  0.58251594441E+02  0.25500000920E-02 0. -1.
    10030    2    1    2    0    0  0.00000000000E+00  0.00000000000E+00  0.14691611905E+04  0.15856643793E+04  0.59657096828E+03 0.  0.
        4    1    3    3  502    0 -0.24836545842E+03 -0.18427221455E+02  0.11709051301E+04  0.11970987428E+04  0.12699999809E+01 0.  1.
       -4    1    3    3    0  502  0.24836545842E+03  0.18427221455E+02  0.29825606041E+03  0.38856563654E+03  0.12699999809E+01 0. -1.
</event>
<event>
 5   0  0.2382531E-02  0.6143466E+03  0.7818609E-02  0.9876081E-01
       -1   -1    0    0    0  501  0.00000000000E+00  0.00000000000E+00  0.12168885861E+03  0.12168885871E+03  0.50400001928E-02 0. -1.
        1   -1    0    0  501    0  0.00000000000E+00  0.00000000000E+00 -0.77538257769E+03  0.77538257770E+03  0.50400001928E-02 0.  1.
    10030    2    1    2    0    0  0.00000000000E+00  0.00000000000E+00 -0.65369371908E+03  0.89707143642E+03  0.61434655015E+03 0.  0.
        5    1    3    3  502    0 -0.17620717780E+03 -0.11748357162E+03 -0.65166262741E+03  0.68522815840E+03  0.46999998093E+01 0.  1.
       -5    1    3    3    0  502  0.17620717780E+03  0.11748357162E+03 -0.20310916672E+01  0.21184327801E+03  0.46999998093E+01 0. -1.
</event>
<event>
 5   0  0.2382531E-02  0.6001731E+03  0.7818609E-02  0.9905047E-01
       -1   -1    0    0    0  501  0.00000000000E+00  0.00000000000E+00  0.53338977909E+03  0.53338977911E+03  0.50400001928E-02 0.  1.
        1   -1    0    0  501    0  0.00000000000E+00  0.00000000000E+00 -0.16882949586E+03  0.16882949593E+03  0.50400001928E-02 0. -1.
    10030    2    1    2    0    0  0.00000000000E+00  0.00000000000E+00  0.36456028323E+03  0.70221927504E+03  0.60017306682E+03 0.  0.
        5    1    3    3  502    0 -0.18422756543E+03 -0.57140000136E+02  0.45119589958E+03  0.49071845826E+03  0.46999998093E+01 0.  1.
       -5    1    3    3    0  502  0.18422756543E+03  0.57140000136E+02 -0.86635616350E+02  0.21150081678E+03  0.46999998093E+01 0. -1.
</event>
<event>
 5   0  0.2382531E-02  0.5850915E+03  0.7818609E-02  0.9936828E-01
       -1   -1    0    0    0  501  0.00000000000E+00  0.00000000000E+00  0.12567729817E+03  0.12567729827E+03  0.50400001928E-02 0. -1.
        1   -1    0    0  501    0  0.00000000000E+00  0.00000000000E+00 -0.68097442284E+03  0.68097442286E+03  0.50400001928E-02 0.  1.
    10030    2    1    2    0    0  0.00000000000E+00  0.00000000000E+00 -0.55529712467E+03  0.80665172113E+03  0.58509153347E+03 0.  0.
        5    1    3    3  502    0  0.87415623022E+02  0.23652818762E+03 -0.73279366040E+02  0.26263859232E+03  0.46999998093E+01 0. -1.
       -5    1    3    3    0  502 -0.87415623022E+02 -0.23652818762E+03 -0.48201775863E+03  0.54401312881E+03  0.46999998093E+01 0.  1.
</event>
<event>
 5   0  0.3724066E-02  0.6024815E+03  0.7818609E-02  0.9900271E-01
        2   -1    0    0  501    0  0.00000000000E+00  0.00000000000E+00  0.51263539527E+03  0.51263539528E+03  0.25500000920E-02 0. -1.
       -2   -1    0    0    0  501  0.00000000000E+00  0.00000000000E+00 -0.17701858175E+03  0.17701858177E+03  0.25500000920E-02 0.  1.
    10030    2    1    2    0    0  0.00000000000E+00  0.00000000000E+00  0.33561681352E+03  0.68965397705E+03  0.60248150390E+03 0.  0.
        4    1    3    3  502    0 -0.11847536135E+02 -0.37962194066E+02 -0.17399751579E+03  0.17848876909E+03  0.12699999809E+01 0.  1.
       -4    1    3    3    0  502  0.11847536135E+02  0.37962194066E+02  0.50961432931E+03  0.51116520796E+03  0.12699999809E+01 0. -1.
</event>
<event>
 5   0  0.3737642E-02  0.5985790E+03  0.7818609E-02  0.9908358E-01
       -2   -1    0    0    0  501  0.00000000000E+00  0.00000000000E+00  0.28112594215E+03  0.28112594216E+03  0.25500000920E-02 0.  1.
        2   -1    0    0  501    0  0.00000000000E+00  0.00000000000E+00 -0.31862665161E+03  0.31862665162E+03  0.25500000920E-02 0. -1.
    10030    2    1    2    0    0  0.00000000000E+00  0.00000000000E+00 -0.37500709456E+02  0.59975259378E+03  0.59857904285E+03 0.  0.
        5    1    3    3  502    0  0.24231974611E+03  0.17490492714E+03 -0.34322212746E+02  0.30084995791E+03  0.46999998093E+01 0.  1.
       -5    1    3    3    0  502 -0.24231974611E+03 -0.17490492714E+03 -0.31784967097E+01  0.29890263587E+03  0.46999998093E+01 0. -1.
</event>
<event>
 5   0  0.2295179E-02  0.5988767E+03  0.7818609E-02  0.9907739E-01
       -1   -1    0    0    0  501  0.00000000000E+00  0.00000000000E+00  0.24176101641E+03  0.24176101646E+03  0.50400001928E-02 0.  1.
        1   -1    0    0  501    0  0.00000000000E+00  0.00000000000E+00 -0.37087591126E+03  0.37087591129E+03  0.50400001928E-02 0. -1.
    10030    2    1    2    0    0  0.00000000000E+00  0.00000000000E+00 -0.12911489485E+03  0.61263692775E+03  0.59887673955E+03 0.  0.
        3    1    3    3  502    0 -0.93807188921E+02 -0.43259582081E+02 -0.35207057879E+03  0.36691263645E+03  0.10100000352E+00 0. -1.
       -3    1    3    3    0  502  0.93807188921E+02  0.43259582081E+02  0.22295568394E+03  0.24572429130E+03  0.10100000352E+00 0.  1.
</event>
<event>
 5   0  0.3724066E-02  0.5974882E+03  0.7818609E-02  0.9910631E-01
       -2   -1    0    0    0  501  0.00000000000E+00  0.00000000000E+00  0.11182256630E+03  0.11182256632E+03  0.25500000920E-02 0. -1.
        2   -1    0    0  501    0  0.00000000000E+00  0.00000000000E+00 -0.79812189636E+03  0.79812189637E+03  0.25500000920E-02 0.  1.
    10030    2    1    2    0    0  0.00000000000E+00  0.00000000000E+00 -0.68629933007E+03  0.90994446269E+03  0.59748820468E+03 0.  0.
        4    1    3    3  502    0  0.18378762983E+03 -0.54085709953E+01 -0.70173650098E+03  0.72542599569E+03  0.12699999809E+01 0.  1.
       -4    1    3    3    0  502 -0.18378762983E+03  0.54085709953E+01  0.15437170910E+02  0.18451846700E+03  0.12699999809E+01 0. -1.
</event>
<event>
 5   0  0.3934634E-02  0.5965232E+03  0.7818609E-02  0.9912646E-01
       -2   -1    0    0    0  501  0.00000000000E+00  0.00000000000E+00  0.88212514468E+02  0.88212514505E+02  0.25500000920E-02 0.  1.
        2   -1    0    0  501    0  0.00000000000E+00  0.00000000000E+00 -0.10084734462E+04  0.10084734462E+04  0.25500000920E-02 0. -1.
    10030    2    1    2    0    0  0.00000000000E+00  0.00000000000E+00 -0.92026093176E+03  0.10966859607E+04  0.59652318811E+03 0.  0.
        1    1    3    3  502    0 -0.98943221643E+02 -0.21295834397E+03 -0.79822261385E+03  0.83204588735E+03  0.50400001928E-02 0.  1.
       -1    1    3    3    0  502  0.98943221643E+02  0.21295834397E+03 -0.12203831791E+03  0.26464007338E+03  0.50400001928E-02 0. -1.
</event>
<event>
 5   0  0.1521750E-02  0.6018982E+03  0.7818609E-02  0.9901476E-01
       -3   -1    0    0    0  501  0.00000000000E+00  0.00000000000E+00  0.21062636259E+03  0.21062638681E+03  0.10100000352E+00 0.  1.
        3   -1    0    0  501    0  0.00000000000E+00  0.00000000000E+00 -0.43000484976E+03  0.43000486162E+03  0.10100000352E+00 0. -1.
    10030    2    1    2    0    0  0.00000000000E+00  0.00000000000E+00 -0.21937848717E+03  0.64063124843E+03  0.60189822713E+03 0.  0.
        1    1    3    3  502    0  0.19228708750E+03 -0.22743515725E+03 -0.15570683448E+03  0.33607393993E+03  0.50400001928E-02 0. -1.
       -1    1    3    3    0  502 -0.19228708750E+03  0.22743515725E+03 -0.63671652690E+02  0.30455730849E+03  0.50400001928E-02 0.  1.
</event>
<event>
 5   0  0.2276105E-02  0.5973353E+03  0.7818609E-02  0.9910950E-01
       -1   -1    0    0    0  501  0.00000000000E+00  0.00000000000E+00  0.24847024327E+03  0.24847024332E+03  0.50400001928E-02 0. -1.
        1   -1    0    0  501    0  0.00000000000E+00  0.00000000000E+00 -0.35900627977E+03  0.35900627980E+03  0.50400001928E-02 0.  1.
    10030    2    1    2    0    0  0.00000000000E+00  0.00000000000E+00 -0.11053603650E+03  0.60747652312E+03  0.59733534198E+03 0.  0.
        1    1    3    3  502    0  0.15756762355E+03 -0.23683612202E+03  0.37290739606E+02  0.28689632966E+03  0.50400001928E-02 0. -1.
       -1    1    3    3    0  502 -0.15756762355E+03  0.23683612202E+03 -0.14782677610E+03  0.32058019347E+03  0.50400001928E-02 0.  1.
</event>
<event>
 5   0  0.3832191E-02  0.5989529E+03  0.7818609E-02  0.9907581E-01
        2   -1    0    0  501    0  0.00000000000E+00  0.00000000000E+00  0.14891112136E+04  0.14891112136E+04  0.25500000920E-02 0. -1.
       -2   -1    0    0    0  501  0.00000000000E+00  0.00000000000E+00 -0.60227967510E+02  0.60227967564E+02  0.25500000920E-02 0.  1.
    10030    2    1    2    0    0  0.00000000000E+00  0.00000000000E+00  0.14288832461E+04  0.15493391812E+04  0.59895289243E+03 0.  0.
        3    1    3    3  502    0  0.94060621702E+02 -0.30609606332E+01 -0.20983415106E+02  0.96421387386E+02  0.10100000352E+00 0.  1.
       -3    1    3    3    0  502 -0.94060621702E+02  0.30609606332E+01  0.14498666612E+04  0.14529177938E+04  0.10100000352E+00 0. -1.
</event>
<event>
 5   0  0.2295179E-02  0.5946803E+03  0.7818609E-02  0.9916505E-01
       -1   -1    0    0    0  501  0.00000000000E+00  0.00000000000E+00  0.20869185361E+03  0.20869185367E+03  0.50400001928E-02 0. -1.
        1   -1    0    0  501    0  0.00000000000E+00  0.00000000000E+00 -0.42364460753E+03  0.42364460756E+03  0.50400001928E-02 0.  1.
    10030    2    1    2    0    0  0.00000000000E+00  0.00000000000E+00 -0.21495275392E+03  0.63233646123E+03  0.59468034589E+03 0.  0.
        3    1    3    3  502    0 -0.44725054544E+02  0.25915695562E+03  0.40047799421E+02  0.26601972594E+03  0.10100000352E+00 0. -1.
       -3    1    3    3    0  502  0.44725054544E+02 -0.25915695562E+03 -0.25500055335E+03  0.36631673529E+03  0.10100000352E+00 0.  1.
</event>
<event>
 5   0  0.2382531E-02  0.6054368E+03  0.7818609E-02  0.9894190E-01
       -1   -1    0    0    0  501  0.00000000000E+00  0.00000000000E+00  0.17882213020E+03  0.17882213027E+03  0.50400001928E-02 0. -1.
        1   -1    0    0  501    0  0.00000000000E+00  0.00000000000E+00 -0.51245567634E+03  0.51245567636E+03  0.50400001928E-02 0.  1.
    10030    2    1    2    0    0  0.00000000000E+00  0.00000000000E+00 -0.33363354614E+03  0.69127780663E+03  0.60543675378E+03 0.  0.
        5    1    3    3  502    0  0.11999819186E+02  0.17131860256E+03 -0.45139880662E+03  0.48298761046E+03  0.46999998093E+01 0.  1.
       -5    1    3    3    0  502 -0.11999819186E+02 -0.17131860256E+03  0.11776526048E+03  0.20829019616E+03  0.46999998093E+01 0. -1.
</event>
<event>
 5   0  0.1521750E-02  0.6172101E+03  0.7818609E-02  0.9870330E-01
       -3   -1    0    0    0  501  0.00000000000E+00  0.00000000000E+00  0.99390728706E+03  0.99390729219E+03  0.10100000352E+00 0.  1.
        3   -1    0    0  501    0  0.00000000000E+00  0.00000000000E+00 -0.95820839320E+02  0.95820892549E+02  0.10100000352E+00 0. -1.
    10030    2    1    2    0    0  0.00000000000E+00  0.00000000000E+00  0.89808644774E+03  0.10897281847E+04  0.61721005258E+03 0.  0.
        1    1    3    3  502    0 -0.95058044661E+02  0.26717431089E+03  0.23411500492E+03  0.36773357177E+03  0.50400001928E-02 0. -1.
       -1    1    3    3    0  502  0.95058044661E+02 -0.26717431089E+03  0.66397144282E+03  0.72199461297E+03  0.50400001928E-02 0.  1.
</event>
<event>
 5   0  0.2276105E-02  0.5986592E+03  0.7818609E-02  0.9908192E-01
        1   -1    0    0  501    0  0.00000000000E+00  0.00000000000E+00  0.13190720503E+03  0.13190720512E+03  0.50400001928E-02 0. -1.
       -1   -1    0    0    0  501  0.00000000000E+00  0.00000000000E+00 -0.67925183835E+03  0.67925183837E+03  0.50400001928E-02 0.  1.
    10030    2    1    2    0    0  0.00000000000E+00  0.00000000000E+00 -0.54734463333E+03  0.81115904349E+03  0.59865920707E+03 0.  0.
        1    1    3    3  502    0 -0.23980567197E+03 -0.16118127241E+03 -0.16774212715E+03  0.33410115853E+03  0.50400001928E-02 0. -1.
       -1    1    3    3    0  502  0.23980567197E+03  0.16118127241E+03 -0.37960250618E+03  0.47705788497E+03  0.50400001928E-02 0.  1.
</event>
<event>
 5   0  0.2276105E-02  0.5992771E+03  0.7818609E-02  0.9906907E-01
        1   -1    0    0  501    0  0.00000000000E+00  0.00000000000E+00  0.17300538658E+04  0.17300538658E+04  0.50400001928E-02 0.  1.
       -1   -1    0    0    0  501  0.00000000000E+00  0.00000000000E+00 -0.51896224466E+02  0.51896224710E+02  0.50400001928E-02 0. -1.
    10030    2    1    2    0    0  0.00000000000E+00  0.00000000000E+00  0.16781576413E+04  0.17819500905E+04  0.59927711113E+03 0.  0.
        1    1    3    3  502    0 -0.24089667848E+02 -0.27461350188E+03  0.11882640835E+04  0.12198214704E+04  0.50400001928E-02 0.  1.
       -1    1    3    3    0  502  0.24089667848E+02  0.27461350188E+03  0.48989355783E+03  0.56212862010E+03  0.50400001928E-02 0. -1.
</event>
<event>
 5   0  0.1521750E-02  0.6353682E+03  0.7818609E-02  0.9834629E-01
       -3   -1    0    0    0  501  0.00000000000E+00  0.00000000000E+00  0.92800013378E+02  0.92800068340E+02  0.10100000352E+00 0. -1.
        3   -1    0    0  501    0  0.00000000000E+00  0.00000000000E+00 -0.10875339250E+04  0.10875339297E+04  0.10100000352E+00 0.  1.
    10030    2    1    2    0    0  0.00000000000E+00  0.00000000000E+00 -0.99473391164E+03  0.11803339980E+04  0.63536823337E+03 0.  0.
        1    1    3    3  502    0 -0.19230124544E+03  0.43638771989E+02 -0.96008039819E+03  0.98012166716E+03  0.50400001928E-02 0.  1.
       -1    1    3    3    0  502  0.19230124544E+03 -0.43638771989E+02 -0.34653513449E+02  0.20021233089E+03  0.50400001928E-02 0. -1.
</event>
<event>
 5   0  0.3832191E-02  0.5981289E+03  0.7818609E-02  0.9909296E-01
       -2   -1    0    0    0  501  0.00000000000E+00  0.00000000000E+00  0.69108683664E+03  0.69108683665E+03  0.25500000920E-02 0. -1.
        2   -1    0    0  501    0  0.00000000000E+00  0.00000000000E+00 -0.12941868788E+03  0.12941868790E+03  0.25500000920E-02 0.  1.
    10030    2    1    2    0    0  0.00000000000E+00  0.00000000000E+00  0.56166814876E+03  0.82050552455E+03  0.59812892129E+03 0.  0.
        3    1    3    3  502    0 -0.20777697386E+03  0.71937072320E+02  0.55891574604E+03  0.60061055153E+03  0.10100000352E+00 0. -1.
       -3    1    3    3    0  502  0.20777697386E+03 -0.71937072320E+02  0.27524027252E+01  0.21989497302E+03  0.10100000352E+00 0.  1.
</event>
<event>
 5   0  0.1521750E-02  0.5805944E+03  0.7818609E-02  0.9946505E-01
       -3   -1    0    0    0  501  0.00000000000E+00  0.00000000000E+00  0.23749514555E+03  0.23749516702E+03  0.10100000352E+00 0. -1.
        3   -1    0    0  501    0  0.00000000000E+00  0.00000000000E+00 -0.35483860477E+03  0.35483861914E+03  0.10100000352E+00 0.  1.
    10030    2    1    2    0    0  0.00000000000E+00  0.00000000000E+00 -0.11734345922E+03  0.59233378617E+03  0.58059437374E+03 0.  0.
        3    1    3    3  502    0  0.17154888055E+03 -0.24005278973E+02 -0.29633511974E+03  0.34324886777E+03  0.10100000352E+00 0.  1.
       -3    1    3    3    0  502 -0.17154888055E+03  0.24005278973E+02  0.17899166051E+03  0.24908491840E+03  0.10100000352E+00 0. -1.
</event>
<event>
 5   0  0.2276105E-02  0.6016479E+03  0.7818609E-02  0.9901993E-01
        1   -1    0    0  501    0  0.00000000000E+00  0.00000000000E+00  0.48183155642E+03  0.48183155645E+03  0.50400001928E-02 0. -1.
       -1   -1    0    0    0  501  0.00000000000E+00  0.00000000000E+00 -0.18781473033E+03  0.18781473040E+03  0.50400001928E-02 0.  1.
    10030    2    1    2    0    0  0.00000000000E+00  0.00000000000E+00  0.29401682609E+03  0.66964628685E+03  0.60164794978E+03 0.  0.
        1    1    3    3  502    0  0.28488398712E+03  0.50392699405E+02  0.23876849356E+03  0.37511158848E+03  0.50400001928E-02 0. -1.
       -1    1    3    3    0  502 -0.28488398712E+03 -0.50392699405E+02  0.55248332534E+02  0.29453469837E+03  0.50400001928E-02 0.  1.
</event>
<event>
 5   0  0.2225808E-02  0.6007900E+03  0.7818609E-02  0.9903768E-01
        1   -1    0    0  501    0  0.00000000000E+00  0.00000000000E+00  0.76043382746E+03  0.76043382747E+03  0.50400001928E-02 0. -1.
       -1   -1    0    0    0  501  0.00000000000E+00  0.00000000000E+00 -0.11866537925E+03  0.11866537935E+03  0.50400001928E-02 0.  1.
    10030    2    1    2    0    0  0.00000000000E+00  0.00000000000E+00  0.64176844821E+03  0.87909920683E+03  0.60079004180E+03 0.  0.
        2    1    3    3  502    0  0.17505527416E+03  0.14794960237E+03  0.36760598296E+02  0.23213094461E+03  0.25500000920E-02 0.  1.
       -2    1    3    3    0  502 -0.17505527416E+03 -0.14794960237E+03  0.60500784991E+03  0.64696826222E+03  0.25500000920E-02 0. -1.
</event>
<event>
 5   0  0.2295179E-02  0.5938794E+03  0.7818609E-02  0.9918186E-01
        1   -1    0    0  501    0  0.00000000000E+00  0.00000000000E+00  0.12171968483E+04  0.12171968483E+04  0.50400001928E-02 0. -1.
       -1   -1    0    0    0  501  0.00000000000E+00  0.00000000000E+00 -0.72439538913E+02  0.72439539089E+02  0.50400001928E-02 0.  1.
    10030    2    1    2    0    0  0.00000000000E+00  0.00000000000E+00  0.11447573094E+04  0.12896363874E+04  0.59387937690E+03 0.  0.
        3    1    3    3  502    0 -0.12276295045E+03  0.15177307064E+03  0.86479228395E+02  0.21350520865E+03  0.10100000352E+00 0.  1.
       -3    1    3    3    0  502  0.12276295045E+03 -0.15177307064E+03  0.10582780810E+04  0.10761311787E+04  0.10100000352E+00 0. -1.
</event>
<event>
 5   0  0.3724066E-02  0.5990524E+03  0.7818609E-02  0.9907374E-01
       -2   -1    0    0    0  501  0.00000000000E+00  0.00000000000E+00  0.56090895026E+02  0.56090895083E+02  0.25500000920E-02 0.  1.
        2   -1    0    0  501    0  0.00000000000E+00  0.00000000000E+00 -0.15994743022E+04  0.15994743022E+04  0.25500000920E-02 0. -1.
    10030    2    1    2    0    0  0.00000000000E+00  0.00000000000E+00 -0.15433834071E+04  0.16555651973E+04  0.59905240248E+03 0.  0.
        4    1    3    3  502    0  0.14463519773E+03 -0.16400800992E+01 -0.14965471315E+04  0.15035215197E+04  0.12699999809E+01 0. -1.
       -4    1    3    3    0  502 -0.14463519773E+03  0.16400800992E+01 -0.46836275614E+02  0.15204367760E+03  0.12699999809E+01 0.  1.
</event>
<event>
 5   0  0.3832191E-02  0.5988848E+03  0.7818609E-02  0.9907722E-01
        2   -1    0    0  501    0  0.00000000000E+00  0.00000000000E+00  0.18623004715E+03  0.18623004717E+03  0.25500000920E-02 0. -1.
       -2   -1    0    0    0  501  0.00000000000E+00  0.00000000000E+00 -0.48147847163E+03  0.48147847164E+03  0.25500000920E-02 0.  1.
    10030    2    1    2    0    0  0.00000000000E+00  0.00000000000E+00 -0.29524842448E+03  0.66770851880E+03  0.59888482526E+03 0.  0.
        3    1    3    3  502    0  0.10046736298E+03  0.27606384965E+03 -0.21225887252E+03  0.36243451722E+03  0.10100000352E+00 0.  1.
       -3    1    3    3    0  502 -0.10046736298E+03 -0.27606384965E+03 -0.82989551959E+02  0.30527400158E+03  0.10100000352E+00 0. -1.
</event>
<event>
 5   0  0.2309055E-02  0.6360279E+03  0.7818609E-02  0.9833356E-01
       -1   -1    0    0    0  501  0.00000000000E+00  0.00000000000E+00  0.11999224729E+03  0.11999224739E+03  0.50400001928E-02 0.  1.
        1   -1    0    0  501    0  0.00000000000E+00  0.00000000000E+00 -0.84282845536E+03  0.84282845537E+03  0.50400001928E-02 0. -1.
    10030    2    1    2    0    0  0.00000000000E+00  0.00000000000E+00 -0.72283620807E+03  0.96282070277E+03  0.63602792547E+03 0.  0.
        4    1    3    3  502    0 -0.16294804852E+03 -0.40292674766E+02 -0.77030091579E+03  0.78837851311E+03  0.12699999809E+01 0. -1.
       -4    1    3    3    0  502  0.16294804852E+03  0.40292674766E+02  0.47464707720E+02  0.17444218966E+03  0.12699999809E+01 0.  1.
</event>
<event>
 5   0  0.2225808E-02  0.5974197E+03  0.7818609E-02  0.9910774E-01
       -1   -1    0    0    0  501  0.00000000000E+00  0.00000000000E+00  0.15122167818E+03  0.15122167827E+03  0.50400001928E-02 0. -1.
        1   -1    0    0  501    0  0.00000000000E+00  0.00000000000E+00 -0.59004484680E+03  0.59004484682E+03  0.50400001928E-02 0.  1.
    10030    2    1    2    0    0  0.00000000000E+00  0.00000000000E+00 -0.43882316862E+03  0.74126652509E+03  0.59741969159E+03 0.  0.
        2    1    3    3  502    0 -0.20140912769E+03 -0.19701862881E+03 -0.34252796555E+03  0.44351706169E+03  0.25500000920E-02 0.  1.
       -2    1    3    3    0  502  0.20140912769E+03  0.19701862881E+03 -0.96295203066E+02  0.29774946340E+03  0.25500000920E-02 0. -1.
</event>
<event>
 5   0  0.2225808E-02  0.5987267E+03  0.7818609E-02  0.9908051E-01
       -1   -1    0    0    0  501  0.00000000000E+00  0.00000000000E+00  0.15559852864E+03  0.15559852872E+03  0.50400001928E-02 0.  1.
        1   -1    0    0  501    0  0.00000000000E+00  0.00000000000E+00 -0.57595934897E+03  0.57595934899E+03  0.50400001928E-02 0. -1.
    10030    2    1    2    0    0  0.00000000000E+00  0.00000000000E+00 -0.42036082033E+03  0.73155787771E+03  0.59872673999E+03 0.  0.
        2    1    3    3  502    0 -0.26600965136E+03 -0.11551580278E+03 -0.30090593133E+03  0.41791077376E+03  0.25500000920E-02 0. -1.
       -2    1    3    3    0  502  0.26600965136E+03  0.11551580278E+03 -0.11945488900E+03  0.31364710395E+03  0.25500000920E-02 0.  1.
</event>
<event>
 5   0  0.2276105E-02  0.5943967E+03  0.7818609E-02  0.9917100E-01
        1   -1    0    0  501    0  0.00000000000E+00  0.00000000000E+00  0.24202510553E+03  0.24202510558E+03  0.50400001928E-02 0.  1.
       -1   -1    0    0    0  501  0.00000000000E+00  0.00000000000E+00 -0.36494910968E+03  0.36494910972E+03  0.50400001928E-02 0. -1.
    10030    2    1    2    0    0  0.00000000000E+00  0.00000000000E+00 -0.12292400415E+03  0.60697421530E+03  0.59439665817E+03 0.  0.
        1    1    3    3  502    0 -0.12914841276E+03  0.24192789862E+03  0.55497295249E+02  0.27980059052E+03  0.50400001928E-02 0.  1.
       -1    1    3    3    0  502  0.12914841276E+03 -0.24192789862E+03 -0.17842129940E+03  0.32717362478E+03  0.50400001928E-02 0. -1.
</event>
<event>
 5   0  0.2382531E-02  0.5958875E+03  0.7818609E-02  0.9913975E-01
        1   -1    0    0  501    0  0.00000000000E+00  0.00000000000E+00  0.29537594729E+03  0.29537594733E+03  0.50400001928E-02 0.  1.
       -1   -1    0    0    0  501  0.00000000000E+00  0.00000000000E+00 -0.30053383586E+03  0.30053383590E+03  0.50400001928E-02 0. -1.
    10030    2    1    2    0    0  0.00000000000E+00  0.00000000000E+00 -0.51578885754E+01  0.59590978323E+03  0.59588746080E+03 0.  0.
        5    1    3    3  502    0  0.44246646365E+02 -0.14855624743E+03  0.25183509083E+03  0.29575281459E+03  0.46999998093E+01 0.  1.
       -5    1    3    3    0  502 -0.44246646365E+02  0.14855624743E+03 -0.25699297940E+03  0.30015696864E+03  0.46999998093E+01 0. -1.
</event>
<event>
 5   0  0.2309055E-02  0.6020058E+03  0.7818609E-02  0.9901253E-01
       -1   -1    0    0    0  501  0.00000000000E+00  0.00000000000E+00  0.51077231051E+03  0.51077231054E+03  0.50400001928E-02 0. -1.
        1   -1    0    0  501    0  0.00000000000E+00  0.00000000000E+00 -0.17738383883E+03  0.17738383890E+03  0.50400001928E-02 0.  1.
    10030    2    1    2    0    0  0.00000000000E+00  0.00000000000E+00  0.33338847168E+03  0.68815614944E+03  0.60200582469E+03 0.  0.
        4    1    3    3  502    0 -0.39130672149E+02 -0.10820525658E+03 -0.15124848933E+03  0.19004553528E+03  0.12699999809E+01 0.  1.
       -4    1    3    3    0  502  0.39130672149E+02  0.10820525658E+03  0.48463696101E+03  0.49811061416E+03  0.12699999809E+01 0. -1.
</event>
<event>
 5   0  0.3724066E-02  0.5999133E+03  0.7818609E-02  0.9905586E-01
        2   -1    0    0  501    0  0.00000000000E+00  0.00000000000E+00  0.19711340098E+04  0.19711340098E+04  0.25500000920E-02 0.  1.
       -2   -1    0    0    0  501  0.00000000000E+00  0.00000000000E+00 -0.45645805210E+02  0.45645805281E+02  0.25500000920E-02 0. -1.
    10030    2    1    2    0    0  0.00000000000E+00  0.00000000000E+00  0.19254882046E+04  0.20167798151E+04  0.59991332417E+03 0.  0.
        4    1    3    3  502    0 -0.48962293659E+02  0.17590460762E+03  0.16271936369E+03  0.24457911073E+03  0.12699999809E+01 0. -1.
       -4    1    3    3    0  502  0.48962293659E+02 -0.17590460762E+03  0.17627688409E+04  0.17722007044E+04  0.12699999809E+01 0.  1.
</event>
<event>
 5   0  0.1521750E-02  0.5984219E+03  0.7818609E-02  0.9908685E-01
        3   -1    0    0  501    0  0.00000000000E+00  0.00000000000E+00  0.42665958372E+03  0.42665959567E+03  0.10100000352E+00 0.  1.
       -3   -1    0    0    0  501  0.00000000000E+00  0.00000000000E+00 -0.20983282629E+03  0.20983285059E+03  0.10100000352E+00 0. -1.
    10030    2    1    2    0    0  0.00000000000E+00  0.00000000000E+00  0.21682675743E+03  0.63649244627E+03  0.59842191756E+03 0.  0.
        4    1    3    3  502    0 -0.95359086833E+02  0.28307030038E+03  0.89885816436E+02  0.31193464587E+03  0.12699999809E+01 0. -1.
       -4    1    3    3    0  502  0.95359086833E+02 -0.28307030038E+03  0.12694094100E+03  0.32455780040E+03  0.12699999809E+01 0.  1.
</event>
<event>
 5   0  0.3724066E-02  0.6087089E+03  0.7818609E-02  0.9887501E-01
       -2   -1    0    0    0  501  0.00000000000E+00  0.00000000000E+00  0.28818700298E+03  0.28818700299E+03  0.25500000920E-02 0.  1.
        2   -1    0    0  501    0  0.00000000000E+00  0.00000000000E+00 -0.32142890800E+03  0.32142890801E+03  0.25500000920E-02 0. -1.
    10030    2    1    2    0    0  0.00000000000E+00  0.00000000000E+00 -0.33241905019E+02  0.60961591101E+03  0.60870890802E+03 0.  0.
        4    1    3    3  502    0  0.24788782545E+03 -0.14053894349E+03  0.90451645580E+02  0.29896936587E+03  0.12699999809E+01 0.  1.
       -4    1    3    3    0  502 -0.24788782545E+03  0.14053894349E+03 -0.12369355060E+03  0.31064654513E+03  0.12699999809E+01 0. -1.
</event>
<event>
 5   0  0.2276105E-02  0.6092811E+03  0.7818609E-02  0.9886336E-01
        1   -1    0    0  501    0  0.00000000000E+00  0.00000000000E+00  0.36066137163E+03  0.36066137166E+03  0.50400001928E-02 0.  1.
       -1   -1    0    0    0  501  0.00000000000E+00  0.00000000000E+00 -0.25732136321E+03  0.25732136326E+03  0.50400001928E-02 0. -1.
    10030    2    1    2    0    0  0.00000000000E+00  0.00000000000E+00  0.10334000842E+03  0.61798273492E+03  0.60928113652E+03 0.  0.
        1    1    3    3  502    0 -0.24342341794E+03 -0.16427169213E+03  0.13385641335E+03  0.32273470321E+03  0.50400001928E-02 0. -1.
       -1    1    3    3    0  502  0.24342341794E+03  0.16427169213E+03 -0.30516404926E+02  0.29524803171E+03  0.50400001928E-02 0.  1.
</event>
<event>
 5   0  0.2309055E-02  0.6011651E+03  0.7818609E-02  0.9902992E-01
       -1   -1    0    0    0  501  0.00000000000E+00  0.00000000000E+00  0.14140748412E+03  0.14140748421E+03  0.50400001928E-02 0. -1.
        1   -1    0    0  501    0  0.00000000000E+00  0.00000000000E+00 -0.63893281350E+03  0.63893281352E+03  0.50400001928E-02 0.  1.
    10030    2    1    2    0    0  0.00000000000E+00  0.00000000000E+00 -0.49752532938E+03  0.78034029774E+03  0.60116514112E+03 0.  0.
        4    1    3    3  502    0  0.26737951844E+03  0.10413997538E+02 -0.42649557008E+03  0.50348817506E+03  0.12699999809E+01 0.  1.
       -4    1    3    3    0  502 -0.26737951844E+03 -0.10413997538E+02 -0.71029759297E+02  0.27685212268E+03  0.12699999809E+01 0. -1.
</event>
<event>
 5   0  0.3724066E-02  0.5984285E+03  0.7818609E-02  0.9908672E-01
        2   -1    0    0  501    0  0.00000000000E+00  0.00000000000E+00  0.13587224808E+04  0.13587224808E+04  0.25500000920E-02 0.  1.
       -2   -1    0    0    0  501  0.00000000000E+00  0.00000000000E+00 -0.65892160505E+02  0.65892160555E+02  0.25500000920E-02 0. -1.
    10030    2    1    2    0    0  0.00000000000E+00  0.00000000000E+00  0.12928303203E+04  0.14246146413E+04  0.59842847466E+03 0.  0.
        4    1    3    3  502    0 -0.12854538243E+03 -0.51821597203E+02  0.15139735418E+02  0.13942818140E+03  0.12699999809E+01 0. -1.
       -4    1    3    3    0  502  0.12854538243E+03  0.51821597203E+02  0.12776905848E+04  0.12851864599E+04  0.12699999809E+01 0.  1.
</event>
<event>
 5   0  0.3724066E-02  0.5960020E+03  0.7818609E-02  0.9913735E-01
       -2   -1    0    0    0  501  0.00000000000E+00  0.00000000000E+00  0.41324400779E+03  0.41324400780E+03  0.25500000920E-02 0.  1.
        2   -1    0    0  501    0  0.00000000000E+00  0.00000000000E+00 -0.21489628825E+03  0.21489628827E+03  0.25500000920E-02 0. -1.
    10030    2    1    2    0    0  0.00000000000E+00  0.00000000000E+00  0.19834771954E+03  0.62814029607E+03  0.59600202491E+03 0.  0.
        4    1    3    3  502    0  0.29165257701E+03 -0.57826241950E+02  0.12019666916E+03  0.32070851581E+03  0.12699999809E+01 0. -1.
       -4    1    3    3    0  502 -0.29165257701E+03  0.57826241950E+02  0.78151050382E+02  0.30743178026E+03  0.12699999809E+01 0.  1.
</event>
<event>
 5   0  0.3737642E-02  0.5977086E+03  0.7818609E-02  0.9910171E-01
       -2   -1    0    0    0  501  0.00000000000E+00  0.00000000000E+00  0.16351588526E+03  0.16351588528E+03  0.25500000920E-02 0. -1.
        2   -1    0    0  501    0  0.00000000000E+00  0.00000000000E+00 -0.54620924540E+03  0.54620924541E+03  0.25500000920E-02 0.  1.
    10030    2    1    2    0    0  0.00000000000E+00  0.00000000000E+00 -0.38269336014E+03  0.70972513068E+03  0.59770858554E+03 0.  0.
        5    1    3    3  502    0 -0.14170674130E+03  0.56228263701E+02 -0.49651191927E+03  0.51941177706E+03  0.46999998093E+01 0.  1.
       -5    1    3    3    0  502  0.14170674130E+03 -0.56228263701E+02  0.11381855913E+03  0.19031335363E+03  0.46999998093E+01 0. -1.
</event>
<event>
 5   0  0.3934634E-02  0.6030186E+03  0.7818609E-02  0.9899163E-01
        2   -1    0    0  501    0  0.00000000000E+00  0.00000000000E+00  0.17226479254E+04  0.17226479254E+04  0.25500000920E-02 0. -1.
       -2   -1    0    0    0  501  0.00000000000E+00  0.00000000000E+00 -0.52772170520E+02  0.52772170581E+02  0.25500000920E-02 0.  1.
    10030    2    1    2    0    0  0.00000000000E+00  0.00000000000E+00  0.16698757548E+04  0.17754200959E+04  0.60301864024E+03 0.  0.
        1    1    3    3  502    0 -0.11790902232E+03 -0.92103298335E+02  0.64236016301E+02  0.16282450959E+03  0.50400001928E-02 0.  1.
       -1    1    3    3    0  502  0.11790902232E+03  0.92103298335E+02  0.16056397385E+04  0.16125955864E+04  0.50400001928E-02 0. -1.
</event>
<event>
 5   0  0.2382531E-02  0.5997522E+03  0.7818609E-02  0.9905920E-01
       -1   -1    0    0    0  501  0.00000000000E+00  0.00000000000E+00  0.89897615268E+03  0.89897615269E+03  0.50400001928E-02 0. -1.
        1   -1    0    0  501    0  0.00000000000E+00  0.00000000000E+00 -0.10003120567E+03  0.10003120579E+03  0.50400001928E-02 0.  1.
    10030    2    1    2    0    0  0.00000000000E+00  0.00000000000E+00  0.79894494701E+03  0.99900735849E+03  0.59975217712E+03 0.  0.
        5    1    3    3  502    0  0.81926454222E+02 -0.28665571217E+03  0.34627069378E+03  0.45695615172E+03  0.46999998093E+01 0.  1.
       -5    1    3    3    0  502 -0.81926454222E+02  0.28665571217E+03  0.45267425323E+03  0.54205120677E+03  0.46999998093E+01 0. -1.
</event>
<event>
 5   0  0.3737642E-02  0.6037675E+03  0.7818609E-02  0.9897620E-01
       -2   -1    0    0    0  501  0.00000000000E+00  0.00000000000E+00  0.35469758586E+03  0.35469758587E+03  0.25500000920E-02 0. -1.
        2   -1    0    0  501    0  0.00000000000E+00  0.00000000000E+00 -0.25693383119E+03  0.25693383120E+03  0.25500000920E-02 0.  1.
    10030    2    1    2    0    0  0.00000000000E+00  0.00000000000E+00  0.97763754670E+02  0.61163141708E+03  0.60376753691E+03 0.  0.
        5    1    3    3  502    0  0.21709102217E+03 -0.18998783354E+03 -0.41088350763E+02  0.29143478064E+03  0.46999998093E+01 0.  1.
       -5    1    3    3    0  502 -0.21709102217E+03  0.18998783354E+03  0.13885210543E+03  0.32019663643E+03  0.46999998093E+01 0. -1.
</event>
<event>
 5   0  0.1521750E-02  0.5918297E+03  0.7818609E-02  0.9922503E-01
       -4   -1    0    0    0  501  0.00000000000E+00  0.00000000000E+00  0.15520266917E+04  0.15520272113E+04  0.12699999809E+01 0.  1.
        4   -1    0    0  501    0  0.00000000000E+00  0.00000000000E+00 -0.56412489985E+02  0.56426783767E+02  0.12699999809E+01 0. -1.
    10030    2    1    2    0    0  0.00000000000E+00  0.00000000000E+00  0.14956142017E+04  0.16084539951E+04  0.59182971699E+03 0.  0.
        3    1    3    3  502    0  0.68539404258E+02 -0.11368359536E+03  0.29041876042E+02  0.13588616763E+03  0.10100000352E+00 0. -1.
       -3    1    3    3    0  502 -0.68539404258E+02  0.11368359536E+03  0.14665723257E+04  0.14725678274E+04  0.10100000352E+00 0.  1.
</event>
<event>
 5   0  0.3737642E-02  0.5975681E+03  0.7818609E-02  0.9910464E-01
        2   -1    0    0  501    0  0.00000000000E+00  0.00000000000E+00  0.37518366464E+03  0.37518366465E+03  0.25500000920E-02 0. -1.
       -2   -1    0    0    0  501  0.00000000000E+00  0.00000000000E+00 -0.23794186177E+03  0.23794186178E+03  0.25500000920E-02 0.  1.
    10030    2    1    2    0    0  0.00000000000E+00  0.00000000000E+00  0.13724180287E+03  0.61312552644E+03  0.59756807036E+03 0.  0.
        5    1    3    3  502    0  0.47206171297E+01 -0.22893767393E+03 -0.12824695418E+03  0.26249593144E+03  0.46999998093E+01 0.  1.
       -5    1    3    3    0  502 -0.47206171297E+01  0.22893767393E+03  0.26548875705E+03  0.35062959500E+03  0.46999998093E+01 0. -1.
</event>
<event>
 5   0  0.2276105E-02  0.5608052E+03  0.7818609E-02  0.9990234E-01
       -1   -1    0    0    0  501  0.00000000000E+00  0.00000000000E+00  0.13584174200E+03  0.13584174209E+03  0.50400001928E-02 0.  1.
        1   -1    0    0  501    0  0.00000000000E+00  0.00000000000E+00 -0.57880309497E+03  0.57880309499E+03  0.50400001928E-02 0. -1.
    10030    2    1    2    0    0  0.00000000000E+00  0.00000000000E+00 -0.44296135297E+03  0.71464483709E+03  0.56080520945E+03 0.  0.
        1    1    3    3  502    0  0.84892284889E+02  0.16460051892E+03 -0.48977129275E+03  0.52361813385E+03  0.50400001928E-02 0. -1.
       -1    1    3    3    0  502 -0.84892284889E+02 -0.16460051892E+03  0.46809939781E+02  0.19102670324E+03  0.50400001928E-02 0.  1.
</event>
<event>
 5   0  0.2225808E-02  0.6018305E+03  0.7818609E-02  0.9901616E-01
        1   -1    0    0  501    0  0.00000000000E+00  0.00000000000E+00  0.29069791552E+03  0.29069791556E+03  0.50400001928E-02 0.  1.
       -1   -1    0    0    0  501  0.00000000000E+00  0.00000000000E+00 -0.31149170512E+03  0.31149170516E+03  0.50400001928E-02 0. -1.
    10030    2    1    2    0    0  0.00000000000E+00  0.00000000000E+00 -0.20793789605E+02  0.60218962072E+03  0.60183050573E+03 0.  0.
        2    1    3    3  502    0 -0.13217641907E+03  0.19265349702E+03  0.17935806907E+03  0.29454251411E+03  0.25500000920E-02 0. -1.
       -2    1    3    3    0  502  0.13217641907E+03 -0.19265349702E+03 -0.20015185867E+03  0.30764710661E+03  0.25500000920E-02 0.  1.
</event>
<event>
 5   0  0.2295179E-02  0.6002211E+03  0.7818609E-02  0.9904947E-01
        1   -1    0    0  501    0  0.00000000000E+00  0.00000000000E+00  0.13574209867E+04  0.13574209867E+04  0.50400001928E-02 0. -1.
       -1   -1    0    0    0  501  0.00000000000E+00  0.00000000000E+00 -0.66351075247E+02  0.66351075438E+02  0.50400001928E-02 0.  1.
    10030    2    1    2    0    0  0.00000000000E+00  0.00000000000E+00  0.12910699115E+04  0.14237720621E+04  0.60022109984E+03 0.  0.
        3    1    3    3  502    0  0.86770738986E+02  0.27765227595E+03  0.82059351788E+03  0.87062832441E+03  0.10100000352E+00 0. -1.
       -3    1    3    3    0  502 -0.86770738986E+02 -0.27765227595E+03  0.47047639357E+03  0.55314373773E+03  0.10100000352E+00 0.  1.
</event>
<event>
 5   0  0.2295179E-02  0.6020094E+03  0.7818609E-02  0.9901246E-01
        1   -1    0    0  501    0  0.00000000000E+00  0.00000000000E+00  0.71415223251E+03  0.71415223253E+03  0.50400001928E-02 0. -1.
       -1   -1    0    0    0  501  0.00000000000E+00  0.00000000000E+00 -0.12686906026E+03  0.12686906036E+03  0.50400001928E-02 0.  1.
    10030    2    1    2    0    0  0.00000000000E+00  0.00000000000E+00  0.58728317225E+03  0.84102129289E+03  0.60200937758E+03 0.  0.
        3    1    3    3  502    0 -0.18861719241E+03  0.12660343077E+03  0.17755290287E+02  0.22785990101E+03  0.10100000352E+00 0.  1.
       -3    1    3    3    0  502  0.18861719241E+03 -0.12660343077E+03  0.56952788196E+03  0.61316139188E+03  0.10100000352E+00 0. -1.
</event>
<event>
 5   0  0.3798925E-02  0.5984190E+03  0.7818609E-02  0.9908692E-01
        2   -1    0    0  501    0  0.00000000000E+00  0.00000000000E+00  0.52638006433E+03  0.52638006434E+03  0.25500000920E-02 0. -1.
       -2   -1    0    0    0  501  0.00000000000E+00  0.00000000000E+00 -0.17007923128E+03  0.17007923130E+03  0.25500000920E-02 0.  1.
    10030    2    1    2    0    0  0.00000000000E+00  0.00000000000E+00  0.35630083305E+03  0.69645929564E+03  0.59841897267E+03 0.  0.
        2    1    3    3  502    0 -0.11231653978E+03  0.12839374996E+03  0.46424101722E+03  0.49459041864E+03  0.25500000920E-02 0. -1.
       -2    1    3    3    0  502  0.11231653978E+03 -0.12839374996E+03 -0.10794018417E+03  0.20186887700E+03  0.25500000920E-02 0.  1.
</event>
<event>
 5   0  0.2295179E-02  0.5997477E+03  0.7818609E-02  0.9905930E-01
        1   -1    0    0  501    0  0.00000000000E+00  0.00000000000E+00  0.40206047067E+03  0.40206047070E+03  0.50400001928E-02 0. -1.
       -1   -1    0    0    0  501  0.00000000000E+00  0.00000000000E+00 -0.22365868098E+03  0.22365868103E+03  0.50400001928E-02 0.  1.
    10030    2    1    2    0    0  0.00000000000E+00  0.00000000000E+00  0.17840178969E+03  0.62571915173E+03  0.59974766217E+03 0.  0.
        3    1    3    3  502    0  0.24363291363E+03 -0.14858606380E+03  0.18532928506E+03  0.34026720244E+03  0.10100000352E+00 0. -1.
       -3    1    3    3    0  502 -0.24363291363E+03  0.14858606380E+03 -0.69274953634E+01  0.28545194929E+03  0.10100000352E+00 0.  1.
</event>
<event>
 5   0  0.2225808E-02  0.5992961E+03  0.7818609E-02  0.9906868E-01
        1   -1    0    0  501    0  0.00000000000E+00  0.00000000000E+00  0.23686270874E+03  0.23686270879E+03  0.50400001928E-02 0.  1.
       -1   -1    0    0    0  501  0.00000000000E+00  0.00000000000E+00 -0.37907592300E+03  0.37907592304E+03  0.50400001928E-02 0. -1.
    10030    2    1    2    0    0  0.00000000000E+00  0.00000000000E+00 -0.14221321426E+03  0.61593863183E+03  0.59929608698E+03 0.  0.
        2    1    3    3  502    0  0.23625591552E+03  0.44996506936E+02 -0.25480857442E+03  0.35038400771E+03  0.25500000920E-02 0. -1.
       -2    1    3    3    0  502 -0.23625591552E+03 -0.44996506936E+02  0.11259536015E+03  0.26555462412E+03  0.25500000920E-02 0.  1.
</event>
<event>
 5   0  0.2276105E-02  0.5937972E+03  0.7818609E-02  0.9918359E-01
        1   -1    0    0  501    0  0.00000000000E+00  0.00000000000E+00  0.14427586109E+03  0.14427586117E+03  0.50400001928E-02 0.  1.
       -1   -1    0    0    0  501  0.00000000000E+00  0.00000000000E+00 -0.61097387005E+03  0.61097387007E+03  0.50400001928E-02 0. -1.
    10030    2    1    2    0    0  0.00000000000E+00  0.00000000000E+00 -0.46669800896E+03  0.75524973124E+03  0.59379720862E+03 0.  0.
        1    1    3    3  502    0  0.17792029204E+03 -0.13617134840E+03  0.14428151234E+02  0.22451378136E+03  0.50400001928E-02 0.  1.
       -1    1    3    3    0  502 -0.17792029204E+03  0.13617134840E+03 -0.48112616019E+03  0.53073594988E+03  0.50400001928E-02 0. -1.
</event>
<event>
 5   0  0.3934634E-02  0.6026155E+03  0.7818609E-02  0.9899994E-01
       -2   -1    0    0    0  501  0.00000000000E+00  0.00000000000E+00  0.13505871485E+03  0.13505871487E+03  0.25500000920E-02 0.  1.
        2   -1    0    0  501    0  0.00000000000E+00  0.00000000000E+00 -0.67219926363E+03  0.67219926364E+03  0.25500000920E-02 0. -1.
    10030    2    1    2    0    0  0.00000000000E+00  0.00000000000E+00 -0.53714054878E+03  0.80725797851E+03  0.60261552811E+03 0.  0.
        1    1    3    3  502    0 -0.15540512776E+02 -0.30053983410E+03 -0.28846980931E+03  0.41686992015E+03  0.50400001928E-02 0.  1.
       -1    1    3    3    0  502  0.15540512776E+02  0.30053983410E+03 -0.24867073947E+03  0.39038805836E+03  0.50400001928E-02 0. -1.
</event>
<event>
 5   0  0.3798925E-02  0.6133824E+03  0.7818609E-02  0.9878024E-01
        2   -1    0    0  501    0  0.00000000000E+00  0.00000000000E+00  0.64760467192E+03  0.64760467193E+03  0.25500000920E-02 0. -1.
       -2   -1    0    0    0  501  0.00000000000E+00  0.00000000000E+00 -0.14524215119E+03  0.14524215121E+03  0.25500000920E-02 0.  1.
    10030    2    1    2    0    0  0.00000000000E+00  0.00000000000E+00  0.50236252074E+03  0.79284682314E+03  0.61338241149E+03 0.  0.
        2    1    3    3  502    0 -0.28335899209E+03 -0.10877740590E+03  0.19432745483E+03  0.36039978099E+03  0.25500000920E-02 0.  1.
       -2    1    3    3    0  502  0.28335899209E+03  0.10877740590E+03  0.30803506591E+03  0.43244704215E+03  0.25500000920E-02 0. -1.
</event>
<event>
 5   0  0.1521750E-02  0.6001163E+03  0.7818609E-02  0.9905165E-01
       -3   -1    0    0    0  501  0.00000000000E+00  0.00000000000E+00  0.53348703877E+03  0.53348704833E+03  0.10100000352E+00 0.  1.
        3   -1    0    0  501    0  0.00000000000E+00  0.00000000000E+00 -0.16876675392E+03  0.16876678415E+03  0.10100000352E+00 0. -1.
    10030    2    1    2    0    0  0.00000000000E+00  0.00000000000E+00  0.36472028485E+03  0.70225383248E+03  0.60011628794E+03 0.  0.
        5    1    3    3  502    0  0.11503303896E+03 -0.24588678629E+03  0.33185191490E+03  0.42876648090E+03  0.46999998093E+01 0. -1.
       -5    1    3    3    0  502 -0.11503303896E+03  0.24588678629E+03  0.32868369947E+02  0.27348735157E+03  0.46999998093E+01 0.  1.
</event>
<event>
 5   0  0.2295179E-02  0.5975472E+03  0.7818609E-02  0.9910508E-01
       -1   -1    0    0    0  501  0.00000000000E+00  0.00000000000E+00  0.11324741457E+03  0.11324741469E+03  0.50400001928E-02 0.  1.
        1   -1    0    0  501    0  0.00000000000E+00  0.00000000000E+00 -0.78823573571E+03  0.78823573572E+03  0.50400001928E-02 0. -1.
    10030    2    1    2    0    0  0.00000000000E+00  0.00000000000E+00 -0.67498832114E+03  0.90148315041E+03  0.59754718375E+03 0.  0.
        3    1    3    3  502    0  0.29164320188E+03 -0.57050237912E+02 -0.38411971000E+03  0.48565260079E+03  0.10100000352E+00 0.  1.
       -3    1    3    3    0  502 -0.29164320188E+03  0.57050237912E+02 -0.29086861114E+03  0.41583054962E+03  0.10100000352E+00 0. -1.
</event>
<event>
 5   0  0.3934634E-02  0.5874559E+03  0.7818609E-02  0.9931778E-01
        2   -1    0    0  501    0  0.00000000000E+00  0.00000000000E+00  0.41125497041E+03  0.41125497042E+03  0.25500000920E-02 0. -1.
       -2   -1    0    0    0  501  0.00000000000E+00  0.00000000000E+00 -0.20978736368E+03  0.20978736370E+03  0.25500000920E-02 0.  1.
    10030    2    1    2    0    0  0.00000000000E+00  0.00000000000E+00  0.20146760673E+03  0.62104233411E+03  0.58745585723E+03 0.  0.
        1    1    3    3  502    0  0.67936564911E+02 -0.28394548703E+03  0.66711894952E+02  0.29948437924E+03  0.50400001928E-02 0.  1.
       -1    1    3    3    0  502 -0.67936564911E+02  0.28394548703E+03  0.13475571178E+03  0.32155795487E+03  0.50400001928E-02 0. -1.
</event>
<event>
 5   0  0.2276105E-02  0.5904743E+03  0.7818609E-02  0.9925368E-01
       -1   -1    0    0    0  501  0.00000000000E+00  0.00000000000E+00  0.74230717541E+03  0.74230717543E+03  0.50400001928E-02 0. -1.
        1   -1    0    0  501    0  0.00000000000E+00  0.00000000000E+00 -0.11742439366E+03  0.11742439377E+03  0.50400001928E-02 0.  1.
    10030    2    1    2    0    0  0.00000000000E+00  0.00000000000E+00  0.62488278175E+03  0.85973156920E+03  0.59047428407E+03 0.  0.
        1    1    3    3  502    0  0.16954633937E+03  0.21908255286E+03  0.46108086732E+03  0.53790212157E+03  0.50400001928E-02 0. -1.
       -1    1    3    3    0  502 -0.16954633937E+03 -0.21908255286E+03  0.16380191443E+03  0.32182944763E+03  0.50400001928E-02 0.  1.
</event>
<event>
 5   0  0.2295179E-02  0.5980069E+03  0.7818609E-02  0.9909550E-01
        1   -1    0    0  501    0  0.00000000000E+00  0.00000000000E+00  0.41493318013E+03  0.41493318016E+03  0.50400001928E-02 0.  1.
       -1   -1    0    0    0  501  0.00000000000E+00  0.00000000000E+00 -0.21546378775E+03  0.21546378781E+03  0.50400001928E-02 0. -1.
    10030    2    1    2    0    0  0.00000000000E+00  0.00000000000E+00  0.19946939238E+03  0.63039696797E+03  0.59800693870E+03 0.  0.
        3    1    3    3  502    0 -0.14134355172E+03  0.87744859043E+02 -0.16216899789E+03  0.23232725621E+03  0.10100000352E+00 0. -1.
       -3    1    3    3    0  502  0.14134355172E+03 -0.87744859043E+02  0.36163839027E+03  0.39806971176E+03  0.10100000352E+00 0.  1.
</event>
<event>
 5   0  0.3724066E-02  0.6000543E+03  0.7818609E-02  0.9905293E-01
        2   -1    0    0  501    0  0.00000000000E+00  0.00000000000E+00  0.26321031047E+03  0.26321031048E+03  0.25500000920E-02 0. -1.
       -2   -1    0    0    0  501  0.00000000000E+00  0.00000000000E+00 -0.34199379798E+03  0.34199379799E+03  0.25500000920E-02 0.  1.
    10030    2    1    2    0    0  0.00000000000E+00  0.00000000000E+00 -0.78783487509E+02  0.60520410847E+03  0.60005431004E+03 0.  0.
        4    1    3    3  502    0  0.93960777916E+02 -0.74463980591E+02 -0.31678150268E+03  0.33871174401E+03  0.12699999809E+01 0.  1.
       -4    1    3    3    0  502 -0.93960777916E+02  0.74463980591E+02  0.23799801517E+03  0.26649236446E+03  0.12699999809E+01 0. -1.
</event>
<event>
 5   0  0.1521750E-02  0.5956308E+03  0.7818609E-02  0.9914512E-01
        4   -1    0    0  501    0  0.00000000000E+00  0.00000000000E+00  0.20965360327E+03  0.20965744982E+03  0.12699999809E+01 0. -1.
       -4   -1    0    0    0  501  0.00000000000E+00  0.00000000000E+00 -0.42304162410E+03  0.42304353041E+03  0.12699999809E+01 0.  1.
    10030    2    1    2    0    0  0.00000000000E+00  0.00000000000E+00 -0.21338802083E+03  0.63270098022E+03  0.59563082773E+03 0.  0.
        2    1    3    3  502    0  0.18857879583E+03 -0.22378547175E+03 -0.48009670671E+02  0.29655830470E+03  0.25500000920E-02 0. -1.
       -2    1    3    3    0  502 -0.18857879583E+03  0.22378547175E+03 -0.16537835016E+03  0.33614267552E+03  0.25500000920E-02 0.  1.
</event>
<event>
 5   0  0.1521750E-02  0.6001045E+03  0.7818609E-02  0.9905189E-01
        3   -1    0    0  501    0  0.00000000000E+00  0.00000000000E+00  0.22955156337E+03  0.22955158559E+03  0.10100000352E+00 0. -1.
       -3   -1    0    0    0  501  0.00000000000E+00  0.00000000000E+00 -0.39220536702E+03  0.39220538002E+03  0.10100000352E+00 0.  1.
    10030    2    1    2    0    0  0.00000000000E+00  0.00000000000E+00 -0.16265380365E+03  0.62175696562E+03  0.60010454460E+03 0.  0.
        2    1    3    3  502    0 -0.64741984180E+02  0.65387220759E+02 -0.37722620428E+03  0.38828677850E+03  0.25500000920E-02 0.  1.
       -2    1    3    3    0  502  0.64741984180E+02 -0.65387220759E+02  0.21457240063E+03  0.23347018712E+03  0.25500000920E-02 0. -1.
</event>
<event>
 5   0  0.3934634E-02  0.5926819E+03  0.7818609E-02  0.9920706E-01
       -2   -1    0    0    0  501  0.00000000000E+00  0.00000000000E+00  0.34619346791E+03  0.34619346792E+03  0.25500000920E-02 0. -1.
        2   -1    0    0  501    0  0.00000000000E+00  0.00000000000E+00 -0.25366730822E+03  0.25366730823E+03  0.25500000920E-02 0.  1.
    10030    2    1    2    0    0  0.00000000000E+00  0.00000000000E+00  0.92526159689E+02  0.59986077615E+03  0.59268192189E+03 0.  0.
        1    1    3    3  502    0 -0.17851754915E+03 -0.63141443799E+02 -0.18445108226E+03  0.26434363819E+03  0.50400001928E-02 0.  1.
       -1    1    3    3    0  502  0.17851754915E+03  0.63141443799E+02  0.27697724195E+03  0.33551713796E+03  0.50400001928E-02 0. -1.
</event>
<event>
 5   0  0.3737642E-02  0.6008065E+03  0.7818609E-02  0.9903734E-01
       -2   -1    0    0    0  501  0.00000000000E+00  0.00000000000E+00  0.18705504733E+03  0.18705504734E+03  0.25500000920E-02 0. -1.
        2   -1    0    0  501    0  0.00000000000E+00  0.00000000000E+00 -0.48243618876E+03  0.48243618877E+03  0.25500000920E-02 0.  1.
    10030    2    1    2    0    0  0.00000000000E+00  0.00000000000E+00 -0.29538114144E+03  0.66949123611E+03  0.60080653834E+03 0.  0.
        5    1    3    3  502    0 -0.20464039228E+03  0.27480207028E+02 -0.39077393635E+03  0.44199458284E+03  0.46999998093E+01 0.  1.
       -5    1    3    3    0  502  0.20464039228E+03 -0.27480207028E+02  0.95392794912E+02  0.22749665327E+03  0.46999998093E+01 0. -1.
</event>
<event>
 5   0  0.3724066E-02  0.5983012E+03  0.7818609E-02  0.9908937E-01
        2   -1    0    0  501    0  0.00000000000E+00  0.00000000000E+00  0.18784369911E+04  0.18784369911E+04  0.25500000920E-02 0. -1.
       -2   -1    0    0    0  501  0.00000000000E+00  0.00000000000E+00 -0.47641246565E+02  0.47641246633E+02  0.25500000920E-02 0.  1.
    10030    2    1    2    0    0  0.00000000000E+00  0.00000000000E+00  0.18307957446E+04  0.19260782378E+04  0.59830119478E+03 0.  0.
        4    1    3    3  502    0 -0.11988396991E+03 -0.24675811381E+03  0.12993896486E+04  0.13280349411E+04  0.12699999809E+01 0.  1.
       -4    1    3    3    0  502  0.11988396991E+03  0.24675811381E+03  0.53140609600E+03  0.59804329671E+03  0.12699999809E+01 0. -1.
</event>
<event>
 5   0  0.2295179E-02  0.5983271E+03  0.7818609E-02  0.9908883E-01
        1   -1    0    0  501    0  0.00000000000E+00  0.00000000000E+00  0.80256366092E+03  0.80256366094E+03  0.50400001928E-02 0.  1.
       -1   -1    0    0    0  501  0.00000000000E+00  0.00000000000E+00 -0.11151616007E+03  0.11151616018E+03  0.50400001928E-02 0. -1.
    10030    2    1    2    0    0  0.00000000000E+00  0.00000000000E+00  0.69104750086E+03  0.91407982112E+03  0.59832706018E+03 0.  0.
        3    1    3    3  502    0  0.25814620870E+03  0.80843593025E+02  0.15033526553E+03  0.30947674204E+03  0.10100000352E+00 0. -1.
       -3    1    3    3    0  502 -0.25814620870E+03 -0.80843593025E+02  0.54071223533E+03  0.60460307908E+03  0.10100000352E+00 0.  1.
</event>
<event>
 5   0  0.2295179E-02  0.5985663E+03  0.7818609E-02  0.9908385E-01
        1   -1    0    0  501    0  0.00000000000E+00  0.00000000000E+00  0.71492408616E+03  0.71492408618E+03  0.50400001928E-02 0.  1.
       -1   -1    0    0    0  501  0.00000000000E+00  0.00000000000E+00 -0.12528658021E+03  0.12528658031E+03  0.50400001928E-02 0. -1.
    10030    2    1    2    0    0  0.00000000000E+00  0.00000000000E+00  0.58963750595E+03  0.84021066649E+03  0.59856626673E+03 0.  0.
        3    1    3    3  502    0  0.19268116016E+03 -0.11788611539E+03  0.57041447573E+03  0.61351108385E+03  0.10100000352E+00 0.  1.
       -3    1    3    3    0  502 -0.19268116016E+03  0.11788611539E+03  0.19223030222E+02  0.22669958265E+03  0.10100000352E+00 0. -1.
</event>
<event>
 5   0  0.3832191E-02  0.5953616E+03  0.7818609E-02  0.9915076E-01
       -2   -1    0    0    0  501  0.00000000000E+00  0.00000000000E+00  0.64843719290E+03  0.64843719291E+03  0.25500000920E-02 0.  1.
        2   -1    0    0  501    0  0.00000000000E+00  0.00000000000E+00 -0.13665759748E+03  0.13665759750E+03  0.25500000920E-02 0. -1.
    10030    2    1    2    0    0  0.00000000000E+00  0.00000000000E+00  0.51177959542E+03  0.78509479041E+03  0.59536163433E+03 0.  0.
        3    1    3    3  502    0  0.10570742124E+03 -0.27328521264E+03  0.32510499319E+03  0.43766669184E+03  0.10100000352E+00 0.  1.
       -3    1    3    3    0  502 -0.10570742124E+03  0.27328521264E+03  0.18667460224E+03  0.34742809857E+03  0.10100000352E+00 0. -1.
</event>
<event>
 5   0  0.3724066E-02  0.6061841E+03  0.7818609E-02  0.9892658E-01
       -2   -1    0    0    0  501  0.00000000000E+00  0.00000000000E+00  0.81209371745E+02  0.81209371785E+02  0.25500000920E-02 0.  1.
        2   -1    0    0  501    0  0.00000000000E+00  0.00000000000E+00 -0.11312092574E+04  0.11312092574E+04  0.25500000920E-02 0. -1.
    10030    2    1    2    0    0  0.00000000000E+00  0.00000000000E+00 -0.10499998856E+04  0.12124186291E+04  0.60618410777E+03 0.  0.
        4    1    3    3  502    0  0.26178052231E+03 -0.13660898526E+03 -0.66171149437E+03  0.72460663217E+03  0.12699999809E+01 0. -1.
       -4    1    3    3    0  502 -0.26178052231E+03  0.13660898526E+03 -0.38828839124E+03  0.48781199697E+03  0.12699999809E+01 0.  1.
</event>
<event>
 5   0  0.2225808E-02  0.5984416E+03  0.7818609E-02  0.9908644E-01
       -1   -1    0    0    0  501  0.00000000000E+00  0.00000000000E+00  0.41005596947E+03  0.41005596950E+03  0.50400001928E-02 0. -1.
        1   -1    0    0  501    0  0.00000000000E+00  0.00000000000E+00 -0.21834360591E+03  0.21834360597E+03  0.50400001928E-02 0.  1.
    10030    2    1    2    0    0  0.00000000000E+00  0.00000000000E+00  0.19171236356E+03  0.62839957547E+03  0.59844163968E+03 0.  0.
        2    1    3    3  502    0  0.20945987093E+03  0.19590224971E+03  0.62498863104E+01  0.28686266759E+03  0.25500000920E-02 0.  1.
       -2    1    3    3    0  502 -0.20945987093E+03 -0.19590224971E+03  0.18546247725E+03  0.34153690788E+03  0.25500000920E-02 0. -1.
</event>
<event>
 5   0  0.2276105E-02  0.5988316E+03  0.7818609E-02  0.9907833E-01
        1   -1    0    0  501    0  0.00000000000E+00  0.00000000000E+00  0.45212152666E+03  0.45212152668E+03  0.50400001928E-02 0. -1.
       -1   -1    0    0    0  501  0.00000000000E+00  0.00000000000E+00 -0.19828698797E+03  0.19828698804E+03  0.50400001928E-02 0.  1.
    10030    2    1    2    0    0  0.00000000000E+00  0.00000000000E+00  0.25383453868E+03  0.65040851472E+03  0.59883158149E+03 0.  0.
        1    1    3    3  502    0  0.11018936487E+02 -0.10301312131E+03  0.43203396181E+03  0.44428196487E+03  0.50400001928E-02 0. -1.
       -1    1    3    3    0  502 -0.11018936487E+02  0.10301312131E+03 -0.17819942313E+03  0.20612654985E+03  0.50400001928E-02 0.  1.
</event>
<event>
 5   0  0.2225808E-02  0.5999188E+03  0.7818609E-02  0.9905575E-01
       -1   -1    0    0    0  501  0.00000000000E+00  0.00000000000E+00  0.45794926670E+02  0.45794926947E+02  0.50400001928E-02 0.  1.
        1   -1    0    0  501    0  0.00000000000E+00  0.00000000000E+00 -0.19647512035E+04  0.19647512035E+04  0.50400001928E-02 0. -1.
    10030    2    1    2    0    0  0.00000000000E+00  0.00000000000E+00 -0.19189562769E+04  0.20105461305E+04  0.59991878642E+03 0.  0.
        2    1    3    3  502    0 -0.82740113589E+02 -0.76881995865E+02 -0.18907646241E+04  0.18941350615E+04  0.25500000920E-02 0. -1.
       -2    1    3    3    0  502  0.82740113589E+02  0.76881995865E+02 -0.28191652812E+02  0.11641106897E+03  0.25500000920E-02 0.  1.
</event>
<event>
 5   0  0.1521750E-02  0.5976763E+03  0.7818609E-02  0.9910239E-01
        3   -1    0    0  501    0  0.00000000000E+00  0.00000000000E+00  0.35552854915E+03  0.35552856350E+03  0.10100000352E+00 0. -1.
       -3   -1    0    0    0  501  0.00000000000E+00  0.00000000000E+00 -0.25118724557E+03  0.25118726588E+03  0.10100000352E+00 0.  1.
    10030    2    1    2    0    0  0.00000000000E+00  0.00000000000E+00  0.10434130358E+03  0.60671582938E+03  0.59767632544E+03 0.  0.
        2    1    3    3  502    0  0.80778642222E+02 -0.28756454134E+03  0.61567711595E+02  0.30497399494E+03  0.25500000920E-02 0.  1.
       -2    1    3    3    0  502 -0.80778642222E+02  0.28756454134E+03  0.42773591983E+02  0.30174183444E+03  0.25500000920E-02 0. -1.
</event>
<event>
 5   0  0.3724066E-02  0.6040546E+03  0.7818609E-02  0.9897030E-01
        2   -1    0    0  501    0  0.00000000000E+00  0.00000000000E+00  0.14486898023E+04  0.14486898023E+04  0.25500000920E-02 0. -1.
       -2   -1    0    0    0  501  0.00000000000E+00  0.00000000000E+00 -0.62967583568E+02  0.62967583619E+02  0.25500000920E-02 0.  1.
    10030    2    1    2    0    0  0.00000000000E+00  0.00000000000E+00  0.13857222188E+04  0.15116573860E+04  0.60405462082E+03 0.  0.
        4    1    3    3  502    0  0.76914537548E+02 -0.19777585073E+02  0.14220858572E+04  0.14243022141E+04  0.12699999809E+01 0. -1.
       -4    1    3    3    0  502 -0.76914537548E+02  0.19777585073E+02 -0.36363638399E+02  0.87355171885E+02  0.12699999809E+01 0.  1.
</event>
<event>
 5   0  0.3724066E-02  0.6007515E+03  0.7818609E-02  0.9903848E-01
       -2   -1    0    0    0  501  0.00000000000E+00  0.00000000000E+00  0.20275837785E+03  0.20275837786E+03  0.25500000920E-02 0.  1.
        2   -1    0    0  501    0  0.00000000000E+00  0.00000000000E+00 -0.44499068612E+03  0.44499068612E+03  0.25500000920E-02 0. -1.
    10030    2    1    2    0    0  0.00000000000E+00  0.00000000000E+00 -0.24223230827E+03  0.64774906399E+03  0.60075149499E+03 0.  0.
        4    1    3    3  502    0  0.18835991862E+03  0.23242202659E+03 -0.92093512332E+02  0.31302122181E+03  0.12699999809E+01 0. -1.
       -4    1    3    3    0  502 -0.18835991862E+03 -0.23242202659E+03 -0.15013879594E+03  0.33472784218E+03  0.12699999809E+01 0.  1.
</event>
<event>
 5   0  0.3737642E-02  0.5891681E+03  0.7818609E-02  0.9928137E-01
        2   -1    0    0  501    0  0.00000000000E+00  0.00000000000E+00  0.80965918156E+03  0.80965918157E+03  0.25500000920E-02 0.  1.
       -2   -1    0    0    0  501  0.00000000000E+00  0.00000000000E+00 -0.10718062107E+03  0.10718062110E+03  0.25500000920E-02 0. -1.
    10030    2    1    2    0    0  0.00000000000E+00  0.00000000000E+00  0.70247856050E+03  0.91683980266E+03  0.58916813881E+03 0.  0.
        5    1    3    3  502    0  0.57400744548E+02 -0.10792412086E+03 -0.65786075592E+02  0.13889693689E+03  0.46999998093E+01 0. -1.
       -5    1    3    3    0  502 -0.57400744548E+02  0.10792412086E+03  0.76826463609E+03  0.77794286577E+03  0.46999998093E+01 0.  1.
</event>
<event>
 5   0  0.1521750E-02  0.5989914E+03  0.7818609E-02  0.9907501E-01
       -3   -1    0    0    0  501  0.00000000000E+00  0.00000000000E+00  0.24625514059E+03  0.24625516130E+03  0.10100000352E+00 0.  1.
        3   -1    0    0  501    0  0.00000000000E+00  0.00000000000E+00 -0.36424683142E+03  0.36424684543E+03  0.10100000352E+00 0. -1.
    10030    2    1    2    0    0  0.00000000000E+00  0.00000000000E+00 -0.11799169083E+03  0.61050200673E+03  0.59899136982E+03 0.  0.
        1    1    3    3  502    0 -0.24263692373E+02 -0.28814272094E+03 -0.13848632494E+03  0.32061412418E+03  0.50400001928E-02 0. -1.
       -1    1    3    3    0  502  0.24263692373E+02  0.28814272094E+03  0.20494634112E+02  0.28988788255E+03  0.50400001928E-02 0.  1.
</event>
<event>
 5   0  0.2295179E-02  0.5990185E+03  0.7818609E-02  0.9907444E-01
        1   -1    0    0  501    0  0.00000000000E+00  0.00000000000E+00  0.12378259863E+04  0.12378259863E+04  0.50400001928E-02 0.  1.
       -1   -1    0    0    0  501  0.00000000000E+00  0.00000000000E+00 -0.72470437504E+02  0.72470437679E+02  0.50400001928E-02 0. -1.
    10030    2    1    2    0    0  0.00000000000E+00  0.00000000000E+00  0.11653555488E+04  0.13102964240E+04  0.59901850022E+03 0.  0.
        3    1    3    3  502    0 -0.17625318720E+03 -0.22106112718E+03  0.79891665099E+03  0.84746742320E+03  0.10100000352E+00 0.  1.
       -3    1    3    3    0  502  0.17625318720E+03  0.22106112718E+03  0.36643889779E+03  0.46282900078E+03  0.10100000352E+00 0. -1.
</event>
<event>
 5   0  0.2225808E-02  0.6000187E+03  0.7818609E-02  0.9905367E-01
       -1   -1    0    0    0  501  0.00000000000E+00  0.00000000000E+00  0.22753242859E+03  0.22753242865E+03  0.50400001928E-02 0. -1.
        1   -1    0    0  501    0  0.00000000000E+00  0.00000000000E+00 -0.39557268849E+03  0.39557268853E+03  0.50400001928E-02 0.  1.
    10030    2    1    2    0    0  0.00000000000E+00  0.00000000000E+00 -0.16804025990E+03  0.62310511717E+03  0.60001871479E+03 0.  0.
        2    1    3    3  502    0 -0.60170319597E+02  0.18140633703E+03  0.15612820774E+03  0.24678886468E+03  0.25500000920E-02 0. -1.
       -2    1    3    3    0  502  0.60170319597E+02 -0.18140633703E+03 -0.32416846764E+03  0.37631625249E+03  0.25500000920E-02 0.  1.
</event>
<event>
 5   0  0.3934634E-02  0.5982853E+03  0.7818609E-02  0.9908970E-01
        2   -1    0    0  501    0  0.00000000000E+00  0.00000000000E+00  0.89080223640E+03  0.89080223640E+03  0.25500000920E-02 0.  1.
       -2   -1    0    0    0  501  0.00000000000E+00  0.00000000000E+00 -0.10045589708E+03  0.10045589711E+03  0.25500000920E-02 0. -1.
    10030    2    1    2    0    0  0.00000000000E+00  0.00000000000E+00  0.79034633932E+03  0.99125813351E+03  0.59828534261E+03 0.  0.
        1    1    3    3  502    0  0.23343642346E+03  0.71239864914E+02  0.10859082069E+03  0.26713226783E+03  0.50400001928E-02 0. -1.
       -1    1    3    3    0  502 -0.23343642346E+03 -0.71239864914E+02  0.68175551863E+03  0.72412586569E+03  0.50400001928E-02 0.  1.
</event>
<event>
 5   0  0.2225808E-02  0.6052718E+03  0.7818609E-02  0.9894529E-01
        1   -1    0    0  501    0  0.00000000000E+00  0.00000000000E+00  0.67990087532E+03  0.67990087534E+03  0.50400001928E-02 0. -1.
       -1   -1    0    0    0  501  0.00000000000E+00  0.00000000000E+00 -0.13470859577E+03  0.13470859587E+03  0.50400001928E-02 0.  1.
    10030    2    1    2    0    0  0.00000000000E+00  0.00000000000E+00  0.54519227955E+03  0.81460947121E+03  0.60527181406E+03 0.  0.
        2    1    3    3  502    0  0.17789233431E+03 -0.19874080302E+03  0.80157831602E+02  0.27851188011E+03  0.25500000920E-02 0.  1.
       -2    1    3    3    0  502 -0.17789233431E+03  0.19874080302E+03  0.46503444795E+03  0.53609759109E+03  0.25500000920E-02 0. -1.
</event>
<event>
 5   0  0.3724066E-02  0.6005360E+03  0.7818609E-02  0.9904295E-01
       -2   -1    0    0    0  501  0.00000000000E+00  0.00000000000E+00  0.12152700116E+03  0.12152700119E+03  0.25500000920E-02 0.  1.
        2   -1    0    0  501    0  0.00000000000E+00  0.00000000000E+00 -0.74189985181E+03  0.74189985181E+03  0.25500000920E-02 0. -1.
    10030    2    1    2    0    0  0.00000000000E+00  0.00000000000E+00 -0.62037285065E+03  0.86342685300E+03  0.60053597450E+03 0.  0.
        4    1    3    3  502    0  0.38370273989E+02  0.20232793173E+03  0.39909774283E+01  0.20597672365E+03  0.12699999809E+01 0.  1.
       -4    1    3    3    0  502 -0.38370273989E+02 -0.20232793173E+03 -0.62436382808E+03  0.65745012936E+03  0.12699999809E+01 0. -1.
</event>
<event>
 5   0  0.2382531E-02  0.6100099E+03  0.7818609E-02  0.9884854E-01
       -1   -1    0    0    0  501  0.00000000000E+00  0.00000000000E+00  0.10138746713E+03  0.10138746726E+03  0.50400001928E-02 0.  1.
        1   -1    0    0  501    0  0.00000000000E+00  0.00000000000E+00 -0.91754951992E+03  0.91754951993E+03  0.50400001928E-02 0. -1.
    10030    2    1    2    0    0  0.00000000000E+00  0.00000000000E+00 -0.81616205278E+03  0.10189369872E+04  0.61000990768E+03 0.  0.
        5    1    3    3  502    0  0.11212201217E+03  0.66218562969E+02  0.52556332363E+02  0.14050089596E+03  0.46999998093E+01 0.  1.
       -5    1    3    3    0  502 -0.11212201217E+03 -0.66218562969E+02 -0.86871838515E+03  0.87843609123E+03  0.46999998093E+01 0. -1.
</event>
<event>
 5   0  0.3798925E-02  0.5852000E+03  0.7818609E-02  0.9936596E-01
       -2   -1    0    0    0  501  0.00000000000E+00  0.00000000000E+00  0.86860615636E+02  0.86860615673E+02  0.25500000920E-02 0. -1.
        2   -1    0    0  501    0  0.00000000000E+00  0.00000000000E+00 -0.98565670799E+03  0.98565670800E+03  0.25500000920E-02 0.  1.
    10030    2    1    2    0    0  0.00000000000E+00  0.00000000000E+00 -0.89879609236E+03  0.10725173237E+04  0.58519996064E+03 0.  0.
        2    1    3    3  502    0  0.19598852986E+03  0.93150529436E+02 -0.89666729375E+02  0.23479490483E+03  0.25500000920E-02 0. -1.
       -2    1    3    3    0  502 -0.19598852986E+03 -0.93150529436E+02 -0.80912936298E+03  0.83772241884E+03  0.25500000920E-02 0.  1.
</event>
<event>
 5   0  0.2309055E-02  0.5998255E+03  0.7818609E-02  0.9905768E-01
       -1   -1    0    0    0  501  0.00000000000E+00  0.00000000000E+00  0.12301440027E+03  0.12301440037E+03  0.50400001928E-02 0.  1.
        1   -1    0    0  501    0  0.00000000000E+00  0.00000000000E+00 -0.73119616613E+03  0.73119616615E+03  0.50400001928E-02 0. -1.
    10030    2    1    2    0    0  0.00000000000E+00  0.00000000000E+00 -0.60818176587E+03  0.85421056652E+03  0.59982550098E+03 0.  0.
        4    1    3    3  502    0 -0.10845906789E+03  0.14674736471E+03  0.34856175879E+02  0.18578138861E+03  0.12699999809E+01 0.  1.
       -4    1    3    3    0  502  0.10845906789E+03 -0.14674736471E+03 -0.64303794175E+03  0.66842917791E+03  0.12699999809E+01 0. -1.
</event>
<event>
 5   0  0.3724066E-02  0.5987207E+03  0.7818609E-02  0.9908064E-01
        2   -1    0    0  501    0  0.00000000000E+00  0.00000000000E+00  0.39936996553E+03  0.39936996554E+03  0.25500000920E-02 0.  1.
       -2   -1    0    0    0  501  0.00000000000E+00  0.00000000000E+00 -0.22439500747E+03  0.22439500749E+03  0.25500000920E-02 0. -1.
    10030    2    1    2    0    0  0.00000000000E+00  0.00000000000E+00  0.17497495806E+03  0.62376497303E+03  0.59872072424E+03 0.  0.
        4    1    3    3  502    0  0.12398605260E+03 -0.26728728873E+03  0.32359259400E+02  0.29641823582E+03  0.12699999809E+01 0. -1.
       -4    1    3    3    0  502 -0.12398605260E+03  0.26728728873E+03  0.14261569866E+03  0.32734673721E+03  0.12699999809E+01 0.  1.
</event>
<event>
 5   0  0.2295179E-02  0.5979379E+03  0.7818609E-02  0.9909694E-01
        1   -1    0    0  501    0  0.00000000000E+00  0.00000000000E+00  0.81937467962E+03  0.81937467964E+03  0.50400001928E-02 0.  1.
       -1   -1    0    0    0  501  0.00000000000E+00  0.00000000000E+00 -0.10908615486E+03  0.10908615498E+03  0.50400001928E-02 0. -1.
    10030    2    1    2    0    0  0.00000000000E+00  0.00000000000E+00  0.71028852476E+03  0.92846083462E+03  0.59793790064E+03 0.  0.
        3    1    3    3  502    0 -0.11969819370E+03 -0.19239246198E+03  0.65799401559E+03  0.69591569300E+03  0.10100000352E+00 0.  1.
       -3    1    3    3    0  502  0.11969819370E+03  0.19239246198E+03  0.52294509167E+02  0.23254514162E+03  0.10100000352E+00 0. -1.
</event>
<event>
 5   0  0.3737642E-02  0.5983551E+03  0.7818609E-02  0.9908825E-01
       -2   -1    0    0    0  501  0.00000000000E+00  0.00000000000E+00  0.68772030960E+03  0.68772030960E+03  0.25500000920E-02 0.  1.
        2   -1    0    0  501    0  0.00000000000E+00  0.00000000000E+00 -0.13015059623E+03  0.13015059625E+03  0.25500000920E-02 0. -1.
    10030    2    1    2    0    0  0.00000000000E+00  0.00000000000E+00  0.55756971337E+03  0.81787090585E+03  0.59835510642E+03 0.  0.
        5    1    3    3  502    0  0.17231499782E+03 -0.23925104968E+03  0.20973995152E+03  0.36186525186E+03  0.46999998093E+01 0. -1.
       -5    1    3    3    0  502 -0.17231499782E+03  0.23925104968E+03  0.34782976185E+03  0.45600565399E+03  0.46999998093E+01 0.  1.
</event>
<event>
 5   0  0.3737642E-02  0.5577340E+03  0.7818609E-02  0.9997195E-01
       -2   -1    0    0    0  501  0.00000000000E+00  0.00000000000E+00  0.71422396387E+02  0.71422396432E+02  0.25500000920E-02 0.  1.
        2   -1    0    0  501    0  0.00000000000E+00  0.00000000000E+00 -0.10888292816E+04  0.10888292816E+04  0.25500000920E-02 0. -1.
    10030    2    1    2    0    0  0.00000000000E+00  0.00000000000E+00 -0.10174068852E+04  0.11602516780E+04  0.55773397450E+03 0.  0.
        5    1    3    3  502    0  0.51892658960E+02 -0.25939005571E+03 -0.69206069520E+03  0.74090899906E+03  0.46999998093E+01 0.  1.
       -5    1    3    3    0  502 -0.51892658960E+02  0.25939005571E+03 -0.32534619003E+03  0.41934267899E+03  0.46999998093E+01 0. -1.
</event>
<event>
 5   0  0.3934634E-02  0.5948174E+03  0.7818609E-02  0.9916217E-01
        2   -1    0    0  501    0  0.00000000000E+00  0.00000000000E+00  0.32014496401E+04  0.32014496401E+04  0.25500000920E-02 0.  1.
       -2   -1    0    0    0  501  0.00000000000E+00  0.00000000000E+00 -0.27628714615E+02  0.27628714732E+02  0.25500000920E-02 0. -1.
    10030    2    1    2    0    0  0.00000000000E+00  0.00000000000E+00  0.31738209255E+04  0.32290783548E+04  0.59481741283E+03 0.  0.
        1    1    3    3  502    0  0.24983127038E+03  0.48304663722E+02  0.75112277844E+03  0.79305386482E+03  0.50400001928E-02 0. -1.
       -1    1    3    3    0  502 -0.24983127038E+03 -0.48304663722E+02  0.24226981470E+04  0.24360244900E+04  0.50400001928E-02 0.  1.
</event>
<event>
 5   0  0.2225808E-02  0.6003897E+03  0.7818609E-02  0.9904598E-01
        1   -1    0    0  501    0  0.00000000000E+00  0.00000000000E+00  0.76496604995E+03  0.76496604996E+03  0.50400001928E-02 0.  1.
       -1   -1    0    0    0  501  0.00000000000E+00  0.00000000000E+00 -0.11780516700E+03  0.11780516710E+03  0.50400001928E-02 0. -1.
    10030    2    1    2    0    0  0.00000000000E+00  0.00000000000E+00  0.64716088295E+03  0.88277121707E+03  0.60038971782E+03 0.  0.
        2    1    3    3  502    0  0.45037440611E+02 -0.29361266557E+03  0.38733558019E+03  0.48812459488E+03  0.25500000920E-02 0. -1.
       -2    1    3    3    0  502 -0.45037440611E+02  0.29361266557E+03  0.25982530276E+03  0.39464662219E+03  0.25500000920E-02 0.  1.
</event>
<event>
 5   0  0.2295179E-02  0.5979785E+03  0.7818609E-02  0.9909609E-01
        1   -1    0    0  501    0  0.00000000000E+00  0.00000000000E+00  0.15670646101E+03  0.15670646109E+03  0.50400001928E-02 0. -1.
       -1   -1    0    0    0  501  0.00000000000E+00  0.00000000000E+00 -0.57045869911E+03  0.57045869913E+03  0.50400001928E-02 0.  1.
    10030    2    1    2    0    0  0.00000000000E+00  0.00000000000E+00 -0.41375223810E+03  0.72716516023E+03  0.59797847429E+03 0.  0.
        3    1    3    3  502    0  0.18458575027E+03  0.14797484895E+03 -0.42920217163E+03  0.49008465540E+03  0.10100000352E+00 0.  1.
       -3    1    3    3    0  502 -0.18458575027E+03 -0.14797484895E+03  0.15449933529E+02  0.23708050483E+03  0.10100000352E+00 0. -1.
</event>
<event>
 5   0  0.2276105E-02  0.5960239E+03  0.7818609E-02  0.9913690E-01
        1   -1    0    0  501    0  0.00000000000E+00  0.00000000000E+00  0.36190591559E+03  0.36190591563E+03  0.50400001928E-02 0. -1.
       -1   -1    0    0    0  501  0.00000000000E+00  0.00000000000E+00 -0.24539837222E+03  0.24539837227E+03  0.50400001928E-02 0.  1.
    10030    2    1    2    0    0  0.00000000000E+00  0.00000000000E+00  0.11650754337E+03  0.60730428790E+03  0.59602390089E+03 0.  0.
        1    1    3    3  502    0 -0.57550746321E+02 -0.29235860356E+03  0.53110353700E+02  0.30266541126E+03  0.50400001928E-02 0. -1.
       -1    1    3    3    0  502  0.57550746321E+02  0.29235860356E+03  0.63397189670E+02  0.30463887664E+03  0.50400001928E-02 0.  1.
</event>
<event>
 5   0  0.3724066E-02  0.6360206E+03  0.7818609E-02  0.9833370E-01
       -2   -1    0    0    0  501  0.00000000000E+00  0.00000000000E+00  0.10724862039E+03  0.10724862042E+03  0.25500000920E-02 0. -1.
        2   -1    0    0  501    0  0.00000000000E+00  0.00000000000E+00 -0.94295430929E+03  0.94295430929E+03  0.25500000920E-02 0.  1.
    10030    2    1    2    0    0  0.00000000000E+00  0.00000000000E+00 -0.83570568890E+03  0.10502029297E+04  0.63602059332E+03 0.  0.
        4    1    3    3  502    0 -0.19842762459E+03 -0.17912063095E+03 -0.13342657814E+03  0.29876744683E+03  0.12699999809E+01 0. -1.
       -4    1    3    3    0  502  0.19842762459E+03  0.17912063095E+03 -0.70227911075E+03  0.75143548288E+03  0.12699999809E+01 0.  1.
</event>
<event>
 5   0  0.2382531E-02  0.6102792E+03  0.7818609E-02  0.9884306E-01
       -1   -1    0    0    0  501  0.00000000000E+00  0.00000000000E+00  0.12155806057E+03  0.12155806068E+03  0.50400001928E-02 0. -1.
        1   -1    0    0  501    0  0.00000000000E+00  0.00000000000E+00 -0.76597295551E+03  0.76597295553E+03  0.50400001928E-02 0.  1.
    10030    2    1    2    0    0  0.00000000000E+00  0.00000000000E+00 -0.64441489494E+03  0.88753101621E+03  0.61027923765E+03 0.  0.
        5    1    3    3  502    0 -0.24260326960E+03 -0.17254532312E+03 -0.41932900884E+03  0.51428313467E+03  0.46999998093E+01 0. -1.
       -5    1    3    3    0  502  0.24260326960E+03  0.17254532312E+03 -0.22508588610E+03  0.37324788153E+03  0.46999998093E+01 0.  1.
</event>
<event>
 5   0  0.2309055E-02  0.5736551E+03  0.7818609E-02  0.9961623E-01
       -1   -1    0    0    0  501  0.00000000000E+00  0.00000000000E+00  0.70522548553E+02  0.70522548733E+02  0.50400001928E-02 0. -1.
        1   -1    0    0  501    0  0.00000000000E+00  0.00000000000E+00 -0.11665779796E+04  0.11665779796E+04  0.50400001928E-02 0.  1.
    10030    2    1    2    0    0  0.00000000000E+00  0.00000000000E+00 -0.10960554311E+04  0.12371005284E+04  0.57365513099E+03 0.  0.
        4    1    3    3  502    0 -0.13867676038E+03 -0.23679302839E+03 -0.36803544129E+03  0.45907938432E+03  0.12699999809E+01 0. -1.
       -4    1    3    3    0  502  0.13867676038E+03  0.23679302839E+03 -0.72801998979E+03  0.77802114406E+03  0.12699999809E+01 0.  1.
</event>
<event>
 5   0  0.2225808E-02  0.5987231E+03  0.7818609E-02  0.9908059E-01
        1   -1    0    0  501    0  0.00000000000E+00  0.00000000000E+00  0.73432617203E+03  0.73432617205E+03  0.50400001928E-02 0. -1.
       -1   -1    0    0    0  501  0.00000000000E+00  0.00000000000E+00 -0.12204024525E+03  0.12204024536E+03  0.50400001928E-02 0.  1.
    10030    2    1    2    0    0  0.00000000000E+00  0.00000000000E+00  0.61228592678E+03  0.85636641740E+03  0.59872312860E+03 0.  0.
        2    1    3    3  502    0 -0.18631507637E+02 -0.40380944569E+02  0.72957505261E+03  0.73092921077E+03  0.25500000920E-02 0. -1.
       -2    1    3    3    0  502  0.18631507637E+02  0.40380944569E+02 -0.11728912583E+03  0.12543720663E+03  0.25500000920E-02 0.  1.
</event>
<event>
 5   0  0.3832191E-02  0.5981006E+03  0.7818609E-02  0.9909354E-01
       -2   -1    0    0    0  501  0.00000000000E+00  0.00000000000E+00  0.52630200772E+02  0.52630200834E+02  0.25500000920E-02 0.  1.
        2   -1    0    0  501    0  0.00000000000E+00  0.00000000000E+00 -0.16992352636E+04  0.16992352636E+04  0.25500000920E-02 0. -1.
    10030    2    1    2    0    0  0.00000000000E+00  0.00000000000E+00 -0.16466050628E+04  0.17518654645E+04  0.59810063748E+03 0.  0.
        3    1    3    3  502    0  0.82623320437E+02  0.27405026289E+03 -0.10769811402E+04  0.11143691248E+04  0.10100000352E+00 0. -1.
       -3    1    3    3    0  502 -0.82623320437E+02 -0.27405026289E+03 -0.56962392263E+03  0.63749633968E+03  0.10100000352E+00 0.  1.
</event>
<event>
 5   0  0.3724066E-02  0.5971854E+03  0.7818609E-02  0.9911263E-01
        2   -1    0    0  501    0  0.00000000000E+00  0.00000000000E+00  0.14098513263E+04  0.14098513263E+04  0.25500000920E-02 0.  1.
       -2   -1    0    0    0  501  0.00000000000E+00  0.00000000000E+00 -0.63239004496E+02  0.63239004547E+02  0.25500000920E-02 0. -1.
    10030    2    1    2    0    0  0.00000000000E+00  0.00000000000E+00  0.13466123218E+04  0.14730903308E+04  0.59718537960E+03 0.  0.
        4    1    3    3  502    0 -0.24192133357E+03  0.39382941602E+02  0.10939458019E+04  0.11210691228E+04  0.12699999809E+01 0.  1.
       -4    1    3    3    0  502  0.24192133357E+03 -0.39382941602E+02  0.25266651988E+03  0.35202120801E+03  0.12699999809E+01 0. -1.
</event>
<event>
 5   0  0.3934634E-02  0.5851553E+03  0.7818609E-02  0.9936692E-01
       -2   -1    0    0    0  501  0.00000000000E+00  0.00000000000E+00  0.21753649925E+03  0.21753649927E+03  0.25500000920E-02 0. -1.
        2   -1    0    0  501    0  0.00000000000E+00  0.00000000000E+00 -0.39350490800E+03  0.39350490800E+03  0.25500000920E-02 0.  1.
    10030    2    1    2    0    0  0.00000000000E+00  0.00000000000E+00 -0.17596840874E+03  0.61104140727E+03  0.58515529608E+03 0.  0.
        1    1    3    3  502    0 -0.17030007065E+03  0.17630253901E+03  0.78822746750E+02  0.25748344559E+03  0.50400001928E-02 0. -1.
       -1    1    3    3    0  502  0.17030007065E+03 -0.17630253901E+03 -0.25479115549E+03  0.35355796168E+03  0.50400001928E-02 0.  1.
</event>
<event>
 5   0  0.3832191E-02  0.5988809E+03  0.7818609E-02  0.9907731E-01
        2   -1    0    0  501    0  0.00000000000E+00  0.00000000000E+00  0.97120117373E+03  0.97120117373E+03  0.25500000920E-02 0. -1.
       -2   -1    0    0    0  501  0.00000000000E+00  0.00000000000E+00 -0.92323396079E+02  0.92323396114E+02  0.25500000920E-02 0.  1.
    10030    2    1    2    0    0  0.00000000000E+00  0.00000000000E+00  0.87887777765E+03  0.10635245698E+04  0.59888092524E+03 0.  0.
        3    1    3    3  502    0 -0.20124524600E+02  0.61432231427E+02 -0.79783838179E+02  0.10268586360E+03  0.10100000352E+00 0.  1.
       -3    1    3    3    0  502  0.20124524600E+02 -0.61432231427E+02  0.95866161583E+03  0.96083870624E+03  0.10100000352E+00 0. -1.
</event>
<event>
 5   0  0.2382531E-02  0.6043681E+03  0.7818609E-02  0.9896385E-01
       -1   -1    0    0    0  501  0.00000000000E+00  0.00000000000E+00  0.43849102910E+03  0.43849102913E+03  0.50400001928E-02 0.  1.
        1   -1    0    0  501    0  0.00000000000E+00  0.00000000000E+00 -0.20824873763E+03  0.20824873769E+03  0.50400001928E-02 0. -1.
    10030    2    1    2    0    0  0.00000000000E+00  0.00000000000E+00  0.23024229147E+03  0.64673976682E+03  0.60436811068E+03 0.  0.
        5    1    3    3  502    0 -0.61821192698E+02 -0.83006712076E+02 -0.18864874591E+03  0.21522642368E+03  0.46999998093E+01 0. -1.
       -5    1    3    3    0  502  0.61821192698E+02  0.83006712076E+02  0.41889103738E+03  0.43151334315E+03  0.46999998093E+01 0.  1.
</event>
<event>
 5   0  0.2309055E-02  0.6097868E+03  0.7818609E-02  0.9885307E-01
       -1   -1    0    0    0  501  0.00000000000E+00  0.00000000000E+00  0.66125097909E+02  0.66125098101E+02  0.50400001928E-02 0. -1.
        1   -1    0    0  501    0  0.00000000000E+00  0.00000000000E+00 -0.14058199498E+04  0.14058199498E+04  0.50400001928E-02 0.  1.
    10030    2    1    2    0    0  0.00000000000E+00  0.00000000000E+00 -0.13396948519E+04  0.14719450479E+04  0.60978678888E+03 0.  0.
        4    1    3    3  502    0  0.54892428128E+02  0.29749028741E+03 -0.57809758430E+03  0.65246615211E+03  0.12699999809E+01 0.  1.
       -4    1    3    3    0  502 -0.54892428128E+02 -0.29749028741E+03 -0.76159726763E+03  0.81947889584E+03  0.12699999809E+01 0. -1.
</event>
<event>
 5   0  0.2295179E-02  0.6044080E+03  0.7818609E-02  0.9896303E-01
        1   -1    0    0  501    0  0.00000000000E+00  0.00000000000E+00  0.85060939589E+03  0.85060939591E+03  0.50400001928E-02 0.  1.
       -1   -1    0    0    0  501  0.00000000000E+00  0.00000000000E+00 -0.10736686282E+03  0.10736686294E+03  0.50400001928E-02 0. -1.
    10030    2    1    2    0    0  0.00000000000E+00  0.00000000000E+00  0.74324253307E+03  0.95797625885E+03  0.60440801579E+03 0.  0.
        3    1    3    3  502    0  0.10172542818E+03 -0.28456698787E+03  0.37305553441E+03  0.48010090114E+03  0.10100000352E+00 0. -1.
       -3    1    3    3    0  502 -0.10172542818E+03  0.28456698787E+03  0.37018699866E+03  0.47787535770E+03  0.10100000352E+00 0.  1.
</event>
<event>
 5   0  0.2276105E-02  0.6017759E+03  0.7818609E-02  0.9901729E-01
       -1   -1    0    0    0  501  0.00000000000E+00  0.00000000000E+00  0.82445953944E+02  0.82445954098E+02  0.50400001928E-02 0. -1.
        1   -1    0    0  501    0  0.00000000000E+00  0.00000000000E+00 -0.10980956884E+04  0.10980956884E+04  0.50400001928E-02 0.  1.
    10030    2    1    2    0    0  0.00000000000E+00  0.00000000000E+00 -0.10156497345E+04  0.11805416425E+04  0.60177586076E+03 0.  0.
        1    1    3    3  502    0 -0.52018122272E+02  0.28362031201E+03 -0.67643586358E+03  0.73533111180E+03  0.50400001928E-02 0.  1.
       -1    1    3    3    0  502  0.52018122272E+02 -0.28362031201E+03 -0.33921387088E+03  0.44521053070E+03  0.50400001928E-02 0. -1.
</event>
<event>
 5   0  0.3724066E-02  0.5987062E+03  0.7818609E-02  0.9908094E-01
        2   -1    0    0  501    0  0.00000000000E+00  0.00000000000E+00  0.11335501799E+04  0.11335501799E+04  0.25500000920E-02 0. -1.
       -2   -1    0    0    0  501  0.00000000000E+00  0.00000000000E+00 -0.79054524136E+02  0.79054524177E+02  0.25500000920E-02 0.  1.
    10030    2    1    2    0    0  0.00000000000E+00  0.00000000000E+00  0.10544956557E+04  0.12126047041E+04  0.59870617195E+03 0.  0.
        4    1    3    3  502    0 -0.20351762954E+03 -0.90419737782E+02  0.93240138089E+03  0.95862876156E+03  0.12699999809E+01 0. -1.
       -4    1    3    3    0  502  0.20351762954E+03  0.90419737782E+02  0.12209427486E+03  0.25397594250E+03  0.12699999809E+01 0.  1.
</event>
<event>
 5   0  0.3934634E-02  0.5875911E+03  0.7818609E-02  0.9931490E-01
        2   -1    0    0  501    0  0.00000000000E+00  0.00000000000E+00  0.69258925155E+03  0.69258925155E+03  0.25500000920E-02 0.  1.
       -2   -1    0    0    0  501  0.00000000000E+00  0.00000000000E+00 -0.12462771092E+03  0.12462771095E+03  0.25500000920E-02 0. -1.
    10030    2    1    2    0    0  0.00000000000E+00  0.00000000000E+00  0.56796154062E+03  0.81721696250E+03  0.58759105862E+03 0.  0.
        1    1    3    3  502    0 -0.40051763227E+02  0.15858808984E+03  0.62340665603E+03  0.64450770732E+03  0.50400001928E-02 0.  1.
       -1    1    3    3    0  502  0.40051763227E+02 -0.15858808984E+03 -0.55445115412E+02  0.17270925518E+03  0.50400001928E-02 0. -1.
</event>
<event>
 5   0  0.3798925E-02  0.5973225E+03  0.7818609E-02  0.9910977E-01
        2   -1    0    0  501    0  0.00000000000E+00  0.00000000000E+00  0.97680855131E+03  0.97680855131E+03  0.25500000920E-02 0.  1.
       -2   -1    0    0    0  501  0.00000000000E+00  0.00000000000E+00 -0.91316295003E+02  0.91316295038E+02  0.25500000920E-02 0. -1.
    10030    2    1    2    0    0  0.00000000000E+00  0.00000000000E+00  0.88549225631E+03  0.10681248464E+04  0.59732248527E+03 0.  0.
        2    1    3    3  502    0  0.28159072263E+02 -0.15670107709E+03  0.89459675271E+03  0.90865368039E+03  0.25500000920E-02 0.  1.
       -2    1    3    3    0  502 -0.28159072263E+02  0.15670107709E+03 -0.91044964022E+01  0.15947116597E+03  0.25500000920E-02 0. -1.
</event>
<event>
 5   0  0.2276105E-02  0.6016881E+03  0.7818609E-02  0.9901910E-01
        1   -1    0    0  501    0  0.00000000000E+00  0.00000000000E+00  0.15527865890E+04  0.15527865890E+04  0.50400001928E-02 0. -1.
       -1   -1    0    0    0  501  0.00000000000E+00  0.00000000000E+00 -0.58286909967E+02  0.58286910185E+02  0.50400001928E-02 0.  1.
    10030    2    1    2    0    0  0.00000000000E+00  0.00000000000E+00  0.14944996790E+04  0.16110734992E+04  0.60168806634E+03 0.  0.
        1    1    3    3  502    0 -0.16672451592E+02  0.25782593580E+03  0.33456263639E+03  0.42271070664E+03  0.50400001928E-02 0.  1.
       -1    1    3    3    0  502  0.16672451592E+02 -0.25782593580E+03  0.11599370427E+04  0.11883627926E+04  0.50400001928E-02 0. -1.
</event>
<event>
 5   0  0.3832191E-02  0.5985957E+03  0.7818609E-02  0.9908324E-01
       -2   -1    0    0    0  501  0.00000000000E+00  0.00000000000E+00  0.98375489271E+02  0.98375489304E+02  0.25500000920E-02 0. -1.
        2   -1    0    0  501    0  0.00000000000E+00  0.00000000000E+00 -0.91058471598E+03  0.91058471598E+03  0.25500000920E-02 0.  1.
    10030    2    1    2    0    0  0.00000000000E+00  0.00000000000E+00 -0.81220922671E+03  0.10089602053E+04  0.59859574665E+03 0.  0.
        3    1    3    3  502    0 -0.14043095953E+03  0.11808174905E+03 -0.80467477333E+03  0.82532760458E+03  0.10100000352E+00 0.  1.
       -3    1    3    3    0  502  0.14043095953E+03 -0.11808174905E+03 -0.75344533814E+01  0.18363260071E+03  0.10100000352E+00 0. -1.
</event>
<event>
 5   0  0.3737642E-02  0.5998566E+03  0.7818609E-02  0.9905704E-01
       -2   -1    0    0    0  501  0.00000000000E+00  0.00000000000E+00  0.98712400102E+02  0.98712400135E+02  0.25500000920E-02 0. -1.
        2   -1    0    0  501    0  0.00000000000E+00  0.00000000000E+00 -0.91130386025E+03  0.91130386025E+03  0.25500000920E-02 0.  1.
    10030    2    1    2    0    0  0.00000000000E+00  0.00000000000E+00 -0.81259146014E+03  0.10100162604E+04  0.59985662049E+03 0.  0.
        5    1    3    3  502    0  0.18085886462E+02  0.14475908563E+02 -0.90973306309E+03  0.91004010203E+03  0.46999998093E+01 0.  1.
       -5    1    3    3    0  502 -0.18085886462E+02 -0.14475908563E+02  0.97141602949E+02  0.99976158356E+02  0.46999998093E+01 0. -1.
</event>
<event>
 5   0  0.3934634E-02  0.6138171E+03  0.7818609E-02  0.9877147E-01
       -2   -1    0    0    0  501  0.00000000000E+00  0.00000000000E+00  0.96181575633E+02  0.96181575667E+02  0.25500000920E-02 0. -1.
        2   -1    0    0  501    0  0.00000000000E+00  0.00000000000E+00 -0.97932329756E+03  0.97932329756E+03  0.25500000920E-02 0.  1.
    10030    2    1    2    0    0  0.00000000000E+00  0.00000000000E+00 -0.88314172192E+03  0.10755048732E+04  0.61381709925E+03 0.  0.
        1    1    3    3  502    0 -0.25349970452E+03  0.16501520057E+02 -0.74332113960E+03  0.78553212344E+03  0.50400001928E-02 0.  1.
       -1    1    3    3    0  502  0.25349970452E+03 -0.16501520057E+02 -0.13982058233E+03  0.28997274979E+03  0.50400001928E-02 0. -1.
</event>
<event>
 5   0  0.2276105E-02  0.5994872E+03  0.7818609E-02  0.9906470E-01
        1   -1    0    0  501    0  0.00000000000E+00  0.00000000000E+00  0.15974108040E+04  0.15974108040E+04  0.50400001928E-02 0.  1.
       -1   -1    0    0    0  501  0.00000000000E+00  0.00000000000E+00 -0.56244913323E+02  0.56244913549E+02  0.50400001928E-02 0. -1.
    10030    2    1    2    0    0  0.00000000000E+00  0.00000000000E+00  0.15411658907E+04  0.16536557175E+04  0.59948722223E+03 0.  0.
        1    1    3    3  502    0 -0.33424032856E+02 -0.20486317929E+03  0.17409305577E+03  0.27091415668E+03  0.50400001928E-02 0. -1.
       -1    1    3    3    0  502  0.33424032856E+02  0.20486317929E+03  0.13670728349E+04  0.13827415609E+04  0.50400001928E-02 0.  1.
</event>
<event>
 5   0  0.2309055E-02  0.6144089E+03  0.7818609E-02  0.9875955E-01
        1   -1    0    0  501    0  0.00000000000E+00  0.00000000000E+00  0.11742484089E+04  0.11742484089E+04  0.50400001928E-02 0.  1.
       -1   -1    0    0    0  501  0.00000000000E+00  0.00000000000E+00 -0.80370187479E+02  0.80370187637E+02  0.50400001928E-02 0. -1.
    10030    2    1    2    0    0  0.00000000000E+00  0.00000000000E+00  0.10938782214E+04  0.12546185965E+04  0.61440886997E+03 0.  0.
        4    1    3    3  502    0 -0.18338569390E+03  0.60491499854E+02  0.59063365796E+02  0.20193966515E+03  0.12699999809E+01 0. -1.
       -4    1    3    3    0  502  0.18338569390E+03 -0.60491499854E+02  0.10348148556E+04  0.10526789314E+04  0.12699999809E+01 0.  1.
</event>
<event>
 5   0  0.2295179E-02  0.5999237E+03  0.7818609E-02  0.9905564E-01
       -1   -1    0    0    0  501  0.00000000000E+00  0.00000000000E+00  0.10861299631E+04  0.10861299631E+04  0.50400001928E-02 0.  1.
        1   -1    0    0  501    0  0.00000000000E+00  0.00000000000E+00 -0.82841932795E+02  0.82841932948E+02  0.50400001928E-02 0. -1.
    10030    2    1    2    0    0  0.00000000000E+00  0.00000000000E+00  0.10032880303E+04  0.11689718960E+04  0.59992368016E+03 0.  0.
        3    1    3    3  502    0  0.34115962986E+02 -0.29495817608E+03  0.58460835939E+03  0.65569136691E+03  0.10100000352E+00 0.  1.
       -3    1    3    3    0  502 -0.34115962986E+02  0.29495817608E+03  0.41867967090E+03  0.51328052914E+03  0.10100000352E+00 0. -1.
</event>
<event>
 5   0  0.3724066E-02  0.6008229E+03  0.7818609E-02  0.9903700E-01
        2   -1    0    0  501    0  0.00000000000E+00  0.00000000000E+00  0.53364979693E+03  0.53364979694E+03  0.25500000920E-02 0. -1.
       -2   -1    0    0    0  501  0.00000000000E+00  0.00000000000E+00 -0.16911284529E+03  0.16911284531E+03  0.25500000920E-02 0.  1.
    10030    2    1    2    0    0  0.00000000000E+00  0.00000000000E+00  0.36453695164E+03  0.70276264225E+03  0.60082288757E+03 0.  0.
        4    1    3    3  502    0 -0.14797179842E+03 -0.12804829493E+03  0.44887403535E+03  0.48967492428E+03  0.12699999809E+01 0. -1.
       -4    1    3    3    0  502  0.14797179842E+03  0.12804829493E+03 -0.84337083706E+02  0.21308771797E+03  0.12699999809E+01 0.  1.
</event>
<event>
 5   0  0.3737642E-02  0.5998708E+03  0.7818609E-02  0.9905674E-01
       -2   -1    0    0    0  501  0.00000000000E+00  0.00000000000E+00  0.88438358904E+02  0.88438358941E+02  0.25500000920E-02 0. -1.
        2   -1    0    0  501    0  0.00000000000E+00  0.00000000000E+00 -0.10172197949E+04  0.10172197949E+04  0.25500000920E-02 0.  1.
    10030    2    1    2    0    0  0.00000000000E+00  0.00000000000E+00 -0.92878143603E+03  0.11056581539E+04  0.59987081720E+03 0.  0.
        5    1    3    3  502    0  0.21441599927E+03 -0.13430354982E+03 -0.16760471241E+03  0.30352115883E+03  0.46999998093E+01 0. -1.
       -5    1    3    3    0  502 -0.21441599927E+03  0.13430354982E+03 -0.76117672362E+03  0.80213699505E+03  0.46999998093E+01 0.  1.
</event>
<event>
 5   0  0.3798925E-02  0.5970621E+03  0.7818609E-02  0.9911520E-01
        2   -1    0    0  501    0  0.00000000000E+00  0.00000000000E+00  0.61272896331E+03  0.61272896332E+03  0.25500000920E-02 0. -1.
       -2   -1    0    0    0  501  0.00000000000E+00  0.00000000000E+00 -0.14544897331E+03  0.14544897333E+03  0.25500000920E-02 0.  1.
    10030    2    1    2    0    0  0.00000000000E+00  0.00000000000E+00  0.46727999000E+03  0.75817793665E+03  0.59706213627E+03 0.  0.
        2    1    3    3  502    0 -0.87914365505E+02 -0.15159036805E+03 -0.73264662995E+02  0.18993758500E+03  0.25500000920E-02 0.  1.
       -2    1    3    3    0  502  0.87914365505E+02  0.15159036805E+03  0.54054465300E+03  0.56824035165E+03  0.25500000920E-02 0. -1.
</event>
<event>
 5   0  0.3832191E-02  0.6006590E+03  0.7818609E-02  0.9904040E-01
        2   -1    0    0  501    0  0.00000000000E+00  0.00000000000E+00  0.10511341839E+04  0.10511341839E+04  0.25500000920E-02 0.  1.
       -2   -1    0    0    0  501  0.00000000000E+00  0.00000000000E+00 -0.85809990066E+02  0.85809990104E+02  0.25500000920E-02 0. -1.
    10030    2    1    2    0    0  0.00000000000E+00  0.00000000000E+00  0.96532419382E+03  0.11369441740E+04  0.60065901775E+03 0.  0.
        3    1    3    3  502    0  0.26801938313E+03  0.13435154734E+03  0.44917050300E+03  0.54003599785E+03  0.10100000352E+00 0.  1.
       -3    1    3    3    0  502 -0.26801938313E+03 -0.13435154734E+03  0.51615369082E+03  0.59690817615E+03  0.10100000352E+00 0. -1.
</event>
<event>
 5   0  0.3798925E-02  0.5933469E+03  0.7818609E-02  0.9919306E-01
        2   -1    0    0  501    0  0.00000000000E+00  0.00000000000E+00  0.16537551837E+04  0.16537551837E+04  0.25500000920E-02 0. -1.
       -2   -1    0    0    0  501  0.00000000000E+00  0.00000000000E+00 -0.53221389745E+02  0.53221389806E+02  0.25500000920E-02 0.  1.
    10030    2    1    2    0    0  0.00000000000E+00  0.00000000000E+00  0.16005337939E+04  0.17069765735E+04  0.59334694480E+03 0.  0.
        2    1    3    3  502    0 -0.13770541273E+03 -0.82858816400E+02  0.82856108976E+02  0.18081343687E+03  0.25500000920E-02 0.  1.
       -2    1    3    3    0  502  0.13770541273E+03  0.82858816400E+02  0.15176776849E+04  0.15261631366E+04  0.25500000920E-02 0. -1.
</event>
<event>
 5   0  0.3832191E-02  0.5962829E+03  0.7818609E-02  0.9913148E-01
        2   -1    0    0  501    0  0.00000000000E+00  0.00000000000E+00  0.11011894876E+04  0.11011894876E+04  0.25500000920E-02 0. -1.
       -2   -1    0    0    0  501  0.00000000000E+00  0.00000000000E+00 -0.80720290509E+02  0.80720290549E+02  0.25500000920E-02 0.  1.
    10030    2    1    2    0    0  0.00000000000E+00  0.00000000000E+00  0.10204691971E+04  0.11819097782E+04  0.59628293744E+03 0.  0.
        3    1    3    3  502    0  0.28240427831E+03 -0.70624130474E+02  0.38256977202E+03  0.48072818190E+03  0.10100000352E+00 0. -1.
       -3    1    3    3    0  502 -0.28240427831E+03  0.70624130474E+02  0.63789942509E+03  0.70118159627E+03  0.10100000352E+00 0.  1.
</event>
<event>
 5   0  0.3832191E-02  0.6000716E+03  0.7818609E-02  0.9905258E-01
       -2   -1    0    0    0  501  0.00000000000E+00  0.00000000000E+00  0.90327482306E+02  0.90327482342E+02  0.25500000920E-02 0. -1.
        2   -1    0    0  501    0  0.00000000000E+00  0.00000000000E+00 -0.99661227974E+03  0.99661227974E+03  0.25500000920E-02 0.  1.
    10030    2    1    2    0    0  0.00000000000E+00  0.00000000000E+00 -0.90628479743E+03  0.10869397621E+04  0.60007158935E+03 0.  0.
        3    1    3    3  502    0  0.16976312052E+03  0.18736421121E+03 -0.16052886993E+03  0.29949022190E+03  0.10100000352E+00 0. -1.
       -3    1    3    3    0  502 -0.16976312052E+03 -0.18736421121E+03 -0.74575592750E+03  0.78744954018E+03  0.10100000352E+00 0.  1.
</event>
<event>
 5   0  0.3724066E-02  0.6097403E+03  0.7818609E-02  0.9885402E-01
       -2   -1    0    0    0  501  0.00000000000E+00  0.00000000000E+00  0.13579420107E+03  0.13579420110E+03  0.25500000920E-02 0.  1.
        2   -1    0    0  501    0  0.00000000000E+00  0.00000000000E+00 -0.68446072518E+03  0.68446072519E+03  0.25500000920E-02 0. -1.
    10030    2    1    2    0    0  0.00000000000E+00  0.00000000000E+00 -0.54866652411E+03  0.82025492628E+03  0.60974026389E+03 0.  0.
        4    1    3    3  502    0  0.21302448971E+03 -0.10408899220E+03 -0.53215279319E+03  0.58258232012E+03  0.12699999809E+01 0. -1.
       -4    1    3    3    0  502 -0.21302448971E+03  0.10408899220E+03 -0.16513730922E+02  0.23767260617E+03  0.12699999809E+01 0.  1.
</event>
<event>
 5   0  0.2295179E-02  0.6014150E+03  0.7818609E-02  0.9902475E-01
        1   -1    0    0  501    0  0.00000000000E+00  0.00000000000E+00  0.14701942957E+03  0.14701942965E+03  0.50400001928E-02 0. -1.
       -1   -1    0    0    0  501  0.00000000000E+00  0.00000000000E+00 -0.61505485649E+03  0.61505485651E+03  0.50400001928E-02 0.  1.
    10030    2    1    2    0    0  0.00000000000E+00  0.00000000000E+00 -0.46803542692E+03  0.76207428616E+03  0.60141504535E+03 0.  0.
        3    1    3    3  502    0  0.27841675472E+03  0.34177100420E+02 -0.96715887684E+02  0.29671187478E+03  0.10100000352E+00 0. -1.
       -3    1    3    3    0  502 -0.27841675472E+03 -0.34177100420E+02 -0.37131953924E+03  0.46536241138E+03  0.10100000352E+00 0.  1.
</event>
<event>
 5   0  0.2225808E-02  0.5976512E+03  0.7818609E-02  0.9910291E-01
       -1   -1    0    0    0  501  0.00000000000E+00  0.00000000000E+00  0.29556837867E+03  0.29556837871E+03  0.50400001928E-02 0.  1.
        1   -1    0    0  501    0  0.00000000000E+00  0.00000000000E+00 -0.30211869405E+03  0.30211869409E+03  0.50400001928E-02 0. -1.
    10030    2    1    2    0    0  0.00000000000E+00  0.00000000000E+00 -0.65503153811E+01  0.59768707280E+03  0.59765117783E+03 0.  0.
        2    1    3    3  502    0 -0.56613193605E+02 -0.28539298095E+03  0.64865013992E+02  0.29809675830E+03  0.25500000920E-02 0.  1.
       -2    1    3    3    0  502  0.56613193605E+02  0.28539298095E+03 -0.71415329373E+02  0.29959031450E+03  0.25500000920E-02 0. -1.
</event>
<event>
 5   0  0.2225808E-02  0.5979706E+03  0.7818609E-02  0.9909625E-01
       -1   -1    0    0    0  501  0.00000000000E+00  0.00000000000E+00  0.33705222113E+03  0.33705222117E+03  0.50400001928E-02 0.  1.
        1   -1    0    0  501    0  0.00000000000E+00  0.00000000000E+00 -0.26521764630E+03  0.26521764635E+03  0.50400001928E-02 0. -1.
    10030    2    1    2    0    0  0.00000000000E+00  0.00000000000E+00  0.71834574831E+02  0.60226986751E+03  0.59797055711E+03 0.  0.
        2    1    3    3  502    0 -0.25738553324E+03 -0.15130223394E+03  0.19912217986E+02  0.29922596002E+03  0.25500000920E-02 0. -1.
       -2    1    3    3    0  502  0.25738553324E+03  0.15130223394E+03  0.51922356845E+02  0.30304390749E+03  0.25500000920E-02 0.  1.
</event>
<event>
 5   0  0.2295179E-02  0.6015983E+03  0.7818609E-02  0.9902096E-01
        1   -1    0    0  501    0  0.00000000000E+00  0.00000000000E+00  0.44708789417E+03  0.44708789420E+03  0.50400001928E-02 0. -1.
       -1   -1    0    0    0  501  0.00000000000E+00  0.00000000000E+00 -0.20237658261E+03  0.20237658268E+03  0.50400001928E-02 0.  1.
    10030    2    1    2    0    0  0.00000000000E+00  0.00000000000E+00  0.24471131156E+03  0.64946447688E+03  0.60159827187E+03 0.  0.
        3    1    3    3  502    0  0.90570697978E+02  0.23335255723E+03 -0.57720336058E+02  0.25688151879E+03  0.10100000352E+00 0.  1.
       -3    1    3    3    0  502 -0.90570697978E+02 -0.23335255723E+03  0.30243164762E+03  0.39258295809E+03  0.10100000352E+00 0. -1.
</event>
<event>
 5   0  0.3934634E-02  0.5975238E+03  0.7818609E-02  0.9910557E-01
        2   -1    0    0  501    0  0.00000000000E+00  0.00000000000E+00  0.90222912424E+03  0.90222912425E+03  0.25500000920E-02 0. -1.
       -2   -1    0    0    0  501  0.00000000000E+00  0.00000000000E+00 -0.98931266844E+02  0.98931266877E+02  0.25500000920E-02 0.  1.
    10030    2    1    2    0    0  0.00000000000E+00  0.00000000000E+00  0.80329785740E+03  0.10011603911E+04  0.59752379120E+03 0.  0.
        1    1    3    3  502    0 -0.22277605616E+03 -0.14198652017E+03  0.63543785073E+03  0.68816466436E+03  0.50400001928E-02 0. -1.
       -1    1    3    3    0  502  0.22277605616E+03  0.14198652017E+03  0.16786000667E+03  0.31299572677E+03  0.50400001928E-02 0.  1.
</event>
<event>
 5   0  0.2295179E-02  0.6087483E+03  0.7818609E-02  0.9887421E-01
       -1   -1    0    0    0  501  0.00000000000E+00  0.00000000000E+00  0.13048364925E+03  0.13048364935E+03  0.50400001928E-02 0.  1.
        1   -1    0    0  501    0  0.00000000000E+00  0.00000000000E+00 -0.71000170982E+03  0.71000170984E+03  0.50400001928E-02 0. -1.
    10030    2    1    2    0    0  0.00000000000E+00  0.00000000000E+00 -0.57951806057E+03  0.84048535919E+03  0.60874827021E+03 0.  0.
        3    1    3    3  502    0 -0.51072346269E+02  0.22247324244E+03 -0.56775530458E+03  0.61192223709E+03  0.10100000352E+00 0. -1.
       -3    1    3    3    0  502  0.51072346269E+02 -0.22247324244E+03 -0.11762755988E+02  0.22856312210E+03  0.10100000352E+00 0.  1.
</event>
<event>
 5   0  0.3832191E-02  0.5887812E+03  0.7818609E-02  0.9928959E-01
       -2   -1    0    0    0  501  0.00000000000E+00  0.00000000000E+00  0.92844285569E+02  0.92844285604E+02  0.25500000920E-02 0. -1.
        2   -1    0    0  501    0  0.00000000000E+00  0.00000000000E+00 -0.93345362377E+03  0.93345362378E+03  0.25500000920E-02 0.  1.
    10030    2    1    2    0    0  0.00000000000E+00  0.00000000000E+00 -0.84060933820E+03  0.10262979094E+04  0.58878123214E+03 0.  0.
        3    1    3    3  502    0  0.24208406896E+03  0.12534695283E+03 -0.61400935289E+03  0.67180655748E+03  0.10100000352E+00 0.  1.
       -3    1    3    3    0  502 -0.24208406896E+03 -0.12534695283E+03 -0.22659998531E+03  0.35449135190E+03  0.10100000352E+00 0. -1.
</event>
<event>
 5   0  0.2276105E-02  0.6040660E+03  0.7818609E-02  0.9897006E-01
       -1   -1    0    0    0  501  0.00000000000E+00  0.00000000000E+00  0.13932487716E+03  0.13932487725E+03  0.50400001928E-02 0. -1.
        1   -1    0    0  501    0  0.00000000000E+00  0.00000000000E+00 -0.65475704873E+03  0.65475704875E+03  0.50400001928E-02 0.  1.
    10030    2    1    2    0    0  0.00000000000E+00  0.00000000000E+00 -0.51543217157E+03  0.79408192601E+03  0.60406604086E+03 0.  0.
        1    1    3    3  502    0 -0.49663259125E+02  0.19156011860E+03 -0.55766152365E+03  0.59173312678E+03  0.50400001928E-02 0.  1.
       -1    1    3    3    0  502  0.49663259125E+02 -0.19156011860E+03  0.42229352078E+02  0.20234879922E+03  0.50400001928E-02 0. -1.
</event>
<event>
 5   0  0.3724066E-02  0.6021305E+03  0.7818609E-02  0.9900996E-01
        2   -1    0    0  501    0  0.00000000000E+00  0.00000000000E+00  0.95809225288E+03  0.95809225288E+03  0.25500000920E-02 0.  1.
       -2   -1    0    0    0  501  0.00000000000E+00  0.00000000000E+00 -0.94604963498E+02  0.94604963533E+02  0.25500000920E-02 0. -1.
    10030    2    1    2    0    0  0.00000000000E+00  0.00000000000E+00  0.86348728938E+03  0.10526972164E+04  0.60213049294E+03 0.  0.
        4    1    3    3  502    0 -0.30016995989E+02 -0.17520250752E+03  0.69359307107E+01  0.17789507785E+03  0.12699999809E+01 0. -1.
       -4    1    3    3    0  502  0.30016995989E+02  0.17520250752E+03  0.85655135867E+03  0.87480213856E+03  0.12699999809E+01 0.  1.
</event>
<event>
 5   0  0.3724066E-02  0.5946674E+03  0.7818609E-02  0.9916532E-01
       -2   -1    0    0    0  501  0.00000000000E+00  0.00000000000E+00  0.10851296720E+03  0.10851296723E+03  0.25500000920E-02 0. -1.
        2   -1    0    0  501    0  0.00000000000E+00  0.00000000000E+00 -0.81471678913E+03  0.81471678913E+03  0.25500000920E-02 0.  1.
    10030    2    1    2    0    0  0.00000000000E+00  0.00000000000E+00 -0.70620382193E+03  0.92322975636E+03  0.59466742380E+03 0.  0.
        4    1    3    3  502    0  0.16940534784E+03 -0.38224296680E+02  0.21586614278E+02  0.17500532435E+03  0.12699999809E+01 0. -1.
       -4    1    3    3    0  502 -0.16940534784E+03  0.38224296680E+02 -0.72779043621E+03  0.74822443202E+03  0.12699999809E+01 0.  1.
</event>
<event>
 5   0  0.2382531E-02  0.6005689E+03  0.7818609E-02  0.9904227E-01
       -1   -1    0    0    0  501  0.00000000000E+00  0.00000000000E+00  0.77568592120E+02  0.77568592284E+02  0.50400001928E-02 0.  1.
        1   -1    0    0  501    0  0.00000000000E+00  0.00000000000E+00 -0.11624646094E+04  0.11624646094E+04  0.50400001928E-02 0. -1.
    10030    2    1    2    0    0  0.00000000000E+00  0.00000000000E+00 -0.10848960173E+04  0.12400332017E+04  0.60056887448E+03 0.  0.
        5    1    3    3  502    0 -0.20952117712E+03  0.12234891765E+03 -0.17726904390E+03  0.30052418411E+03  0.46999998093E+01 0.  1.
       -5    1    3    3    0  502  0.20952117712E+03 -0.12234891765E+03 -0.90762697337E+03  0.93950901757E+03  0.46999998093E+01 0. -1.
</event>
<event>
 5   0  0.2295179E-02  0.6022556E+03  0.7818609E-02  0.9900737E-01
       -1   -1    0    0    0  501  0.00000000000E+00  0.00000000000E+00  0.23209174247E+03  0.23209174253E+03  0.50400001928E-02 0. -1.
        1   -1    0    0  501    0  0.00000000000E+00  0.00000000000E+00 -0.39069874311E+03  0.39069874314E+03  0.50400001928E-02 0.  1.
    10030    2    1    2    0    0  0.00000000000E+00  0.00000000000E+00 -0.15860700064E+03  0.62279048566E+03  0.60225560054E+03 0.  0.
        3    1    3    3  502    0  0.14632200579E+03  0.17064827101E+03  0.12789545596E+03  0.25862756936E+03  0.10100000352E+00 0. -1.
       -3    1    3    3    0  502 -0.14632200579E+03 -0.17064827101E+03 -0.28650245659E+03  0.36416291630E+03  0.10100000352E+00 0.  1.
</event>
<event>
 5   0  0.2225808E-02  0.5971687E+03  0.7818609E-02  0.9911298E-01
        1   -1    0    0  501    0  0.00000000000E+00  0.00000000000E+00  0.22218637643E+03  0.22218637648E+03  0.50400001928E-02 0.  1.
       -1   -1    0    0    0  501  0.00000000000E+00  0.00000000000E+00 -0.40125148561E+03  0.40125148564E+03  0.50400001928E-02 0. -1.
    10030    2    1    2    0    0  0.00000000000E+00  0.00000000000E+00 -0.17906510918E+03  0.62343786213E+03  0.59716869862E+03 0.  0.
        2    1    3    3  502    0 -0.16257189500E+03 -0.24403282911E+03 -0.14832103951E+03  0.32860428101E+03  0.25500000920E-02 0. -1.
       -2    1    3    3    0  502  0.16257189500E+03  0.24403282911E+03 -0.30744069674E+02  0.29483358112E+03  0.25500000920E-02 0.  1.
</event>
<event>
 5   0  0.3724066E-02  0.6023138E+03  0.7818609E-02  0.9900617E-01
        2   -1    0    0  501    0  0.00000000000E+00  0.00000000000E+00  0.20482952706E+03  0.20482952708E+03  0.25500000920E-02 0. -1.
       -2   -1    0    0    0  501  0.00000000000E+00  0.00000000000E+00 -0.44278512860E+03  0.44278512861E+03  0.25500000920E-02 0.  1.
    10030    2    1    2    0    0  0.00000000000E+00  0.00000000000E+00 -0.23795560153E+03  0.64761465568E+03  0.60231376703E+03 0.  0.
        4    1    3    3  502    0 -0.16181884210E+03 -0.45672321149E+02 -0.38761407518E+03  0.42251341133E+03  0.12699999809E+01 0.  1.
       -4    1    3    3    0  502  0.16181884210E+03  0.45672321149E+02  0.14965847364E+03  0.22510124436E+03  0.12699999809E+01 0. -1.
</event>
<event>
 5   0  0.2295179E-02  0.6017629E+03  0.7818609E-02  0.9901755E-01
       -1   -1    0    0    0  501  0.00000000000E+00  0.00000000000E+00  0.28362091202E+03  0.28362091207E+03  0.50400001928E-02 0. -1.
        1   -1    0    0  501    0  0.00000000000E+00  0.00000000000E+00 -0.31919245671E+03  0.31919245675E+03  0.50400001928E-02 0.  1.
    10030    2    1    2    0    0  0.00000000000E+00  0.00000000000E+00 -0.35571544681E+02  0.60281336882E+03  0.60176292909E+03 0.  0.
        3    1    3    3  502    0  0.41015170017E+02  0.24583866223E+03 -0.18663489998E+03  0.31137033916E+03  0.10100000352E+00 0.  1.
       -3    1    3    3    0  502 -0.41015170017E+02 -0.24583866223E+03  0.15106335529E+03  0.29144302965E+03  0.10100000352E+00 0. -1.
</event>
<event>
 5   0  0.3798925E-02  0.5977295E+03  0.7818609E-02  0.9910128E-01
       -2   -1    0    0    0  501  0.00000000000E+00  0.00000000000E+00  0.70267721094E+02  0.70267721140E+02  0.25500000920E-02 0. -1.
        2   -1    0    0  501    0  0.00000000000E+00  0.00000000000E+00 -0.12711405832E+04  0.12711405832E+04  0.25500000920E-02 0.  1.
    10030    2    1    2    0    0  0.00000000000E+00  0.00000000000E+00 -0.12008728621E+04  0.13414083044E+04  0.59772954421E+03 0.  0.
        2    1    3    3  502    0  0.12842657790E+03 -0.24040511978E+03 -0.32528819131E+03  0.42438239235E+03  0.25500000920E-02 0.  1.
       -2    1    3    3    0  502 -0.12842657790E+03  0.24040511978E+03 -0.87558467080E+03  0.91702591200E+03  0.25500000920E-02 0. -1.
</event>
<event>
 5   0  0.3724066E-02  0.6076111E+03  0.7818609E-02  0.9889740E-01
        2   -1    0    0  501    0  0.00000000000E+00  0.00000000000E+00  0.49384520861E+03  0.49384520862E+03  0.25500000920E-02 0.  1.
       -2   -1    0    0    0  501  0.00000000000E+00  0.00000000000E+00 -0.18689622747E+03  0.18689622749E+03  0.25500000920E-02 0. -1.
    10030    2    1    2    0    0  0.00000000000E+00  0.00000000000E+00  0.30694898114E+03  0.68074143611E+03  0.60761108104E+03 0.  0.
        4    1    3    3  502    0  0.30063250810E+03  0.19587131399E+02  0.19733519213E+03  0.36014768026E+03  0.12699999809E+01 0.  1.
       -4    1    3    3    0  502 -0.30063250810E+03 -0.19587131399E+02  0.10961378901E+03  0.32059375584E+03  0.12699999809E+01 0. -1.
</event>
<event>
 5   0  0.2382531E-02  0.5989357E+03  0.7818609E-02  0.9907617E-01
        1   -1    0    0  501    0  0.00000000000E+00  0.00000000000E+00  0.44050240189E+03  0.44050240192E+03  0.50400001928E-02 0.  1.
       -1   -1    0    0    0  501  0.00000000000E+00  0.00000000000E+00 -0.20358797745E+03  0.20358797751E+03  0.50400001928E-02 0. -1.
    10030    2    1    2    0    0  0.00000000000E+00  0.00000000000E+00  0.23691442443E+03  0.64409037943E+03  0.59893569970E+03 0.  0.
        5    1    3    3  502    0  0.12425316522E+03  0.25907516796E+03  0.20907202402E+03  0.35537584744E+03  0.46999998093E+01 0. -1.
       -5    1    3    3    0  502 -0.12425316522E+03 -0.25907516796E+03  0.27842400415E+02  0.28871453199E+03  0.46999998093E+01 0.  1.
</event>
<event>
 5   0  0.1521750E-02  0.5995789E+03  0.7818609E-02  0.9906280E-01
        4   -1    0    0  501    0  0.00000000000E+00  0.00000000000E+00  0.10441139796E+04  0.10441147520E+04  0.12699999809E+01 0.  1.
       -4   -1    0    0    0  501  0.00000000000E+00  0.00000000000E+00 -0.86071053179E+02  0.86080422253E+02  0.12699999809E+01 0. -1.
    10030    2    1    2    0    0  0.00000000000E+00  0.00000000000E+00  0.95804292643E+03  0.11301951742E+04  0.59957892140E+03 0.  0.
        1    1    3    3  502    0 -0.24757390524E+03 -0.14946424575E+03  0.33010409033E+03  0.43886342954E+03  0.50400001928E-02 0. -1.
       -1    1    3    3    0  502  0.24757390524E+03  0.14946424575E+03  0.62793883610E+03  0.69133174469E+03  0.50400001928E-02 0.  1.
</event>
<event>
 5   0  0.3798925E-02  0.5974547E+03  0.7818609E-02  0.9910701E-01
       -2   -1    0    0    0  501  0.00000000000E+00  0.00000000000E+00  0.10232161670E+03  0.10232161673E+03  0.25500000920E-02 0.  1.
        2   -1    0    0  501    0  0.00000000000E+00  0.00000000000E+00 -0.87213276075E+03  0.87213276075E+03  0.25500000920E-02 0. -1.
    10030    2    1    2    0    0  0.00000000000E+00  0.00000000000E+00 -0.76981114405E+03  0.97445437749E+03  0.59745471486E+03 0.  0.
        2    1    3    3  502    0  0.27509557647E+03 -0.10491445282E+03 -0.30248848508E+03  0.42211835096E+03  0.25500000920E-02 0. -1.
       -2    1    3    3    0  502 -0.27509557647E+03  0.10491445282E+03 -0.46732265897E+03  0.55233602652E+03  0.25500000920E-02 0.  1.
</event>
<event>
 5   0  0.3832191E-02  0.6000909E+03  0.7818609E-02  0.9905218E-01
        2   -1    0    0  501    0  0.00000000000E+00  0.00000000000E+00  0.96178021256E+03  0.96178021256E+03  0.25500000920E-02 0. -1.
       -2   -1    0    0    0  501  0.00000000000E+00  0.00000000000E+00 -0.93604824969E+02  0.93604825004E+02  0.25500000920E-02 0.  1.
    10030    2    1    2    0    0  0.00000000000E+00  0.00000000000E+00  0.86817538759E+03  0.10553850376E+04  0.60009088803E+03 0.  0.
        3    1    3    3  502    0 -0.18803825438E+03 -0.12445152465E+03  0.85966914590E+02  0.24132320175E+03  0.10100000352E+00 0.  1.
       -3    1    3    3    0  502  0.18803825438E+03  0.12445152465E+03  0.78220847300E+03  0.81406183581E+03  0.10100000352E+00 0. -1.
</event>
<event>
 5   0  0.3737642E-02  0.5996624E+03  0.7818609E-02  0.9906107E-01
        2   -1    0    0  501    0  0.00000000000E+00  0.00000000000E+00  0.59111135291E+03  0.59111135291E+03  0.25500000920E-02 0. -1.
       -2   -1    0    0    0  501  0.00000000000E+00  0.00000000000E+00 -0.15208430694E+03  0.15208430696E+03  0.25500000920E-02 0.  1.
    10030    2    1    2    0    0  0.00000000000E+00  0.00000000000E+00  0.43902704597E+03  0.74319565987E+03  0.59966243984E+03 0.  0.
        5    1    3    3  502    0  0.16813874446E+03  0.24799267373E+03  0.20677363365E+03  0.36407201099E+03  0.46999998093E+01 0.  1.
       -5    1    3    3    0  502 -0.16813874446E+03 -0.24799267373E+03  0.23225341232E+03  0.37912364889E+03  0.46999998093E+01 0. -1.
</event>
<event>
 5   0  0.2225808E-02  0.6038354E+03  0.7818609E-02  0.9897481E-01
       -1   -1    0    0    0  501  0.00000000000E+00  0.00000000000E+00  0.11751476797E+04  0.11751476797E+04  0.50400001928E-02 0. -1.
        1   -1    0    0  501    0  0.00000000000E+00  0.00000000000E+00 -0.77568373933E+02  0.77568374097E+02  0.50400001928E-02 0.  1.
    10030    2    1    2    0    0  0.00000000000E+00  0.00000000000E+00  0.10975793057E+04  0.12527160538E+04  0.60383539066E+03 0.  0.
        2    1    3    3  502    0 -0.84092947806E+02  0.27223056876E+03  0.75597120830E+03  0.80788215367E+03  0.25500000920E-02 0. -1.
       -2    1    3    3    0  502  0.84092947806E+02 -0.27223056876E+03  0.34160809744E+03  0.44483390010E+03  0.25500000920E-02 0.  1.
</event>
<event>
 5   0  0.3798925E-02  0.5966150E+03  0.7818609E-02  0.9912454E-01
       -2   -1    0    0    0  501  0.00000000000E+00  0.00000000000E+00  0.12753441640E+03  0.12753441642E+03  0.25500000920E-02 0. -1.
        2   -1    0    0  501    0  0.00000000000E+00  0.00000000000E+00 -0.69775173986E+03  0.69775173987E+03  0.25500000920E-02 0.  1.
    10030    2    1    2    0    0  0.00000000000E+00  0.00000000000E+00 -0.57021732347E+03  0.82528615629E+03  0.59661498790E+03 0.  0.
        2    1    3    3  502    0 -0.66380471986E+02 -0.19221891398E+03 -0.58700916350E+03  0.62123605496E+03  0.25500000920E-02 0.  1.
       -2    1    3    3    0  502  0.66380471986E+02  0.19221891398E+03  0.16791840032E+02  0.20405010132E+03  0.25500000920E-02 0. -1.
</event>
<event>
 5   0  0.1521750E-02  0.5997191E+03  0.7818609E-02  0.9905989E-01
       -4   -1    0    0    0  501  0.00000000000E+00  0.00000000000E+00  0.75523795208E+03  0.75523901989E+03  0.12699999809E+01 0.  1.
        4   -1    0    0  501    0  0.00000000000E+00  0.00000000000E+00 -0.11905165251E+03  0.11905842626E+03  0.12699999809E+01 0. -1.
    10030    2    1    2    0    0  0.00000000000E+00  0.00000000000E+00  0.63618629958E+03  0.87429744616E+03  0.59971911474E+03 0.  0.
        5    1    3    3  502    0 -0.23427375098E+03  0.81030247820E+02  0.72224366929E+02  0.25824124504E+03  0.46999998093E+01 0. -1.
       -5    1    3    3    0  502  0.23427375098E+03 -0.81030247820E+02  0.56396193265E+03  0.61605620112E+03  0.46999998093E+01 0.  1.
</event>
<event>
 5   0  0.3737642E-02  0.6044153E+03  0.7818609E-02  0.9896288E-01
        2   -1    0    0  501    0  0.00000000000E+00  0.00000000000E+00  0.10109418076E+04  0.10109418076E+04  0.25500000920E-02 0.  1.
       -2   -1    0    0    0  501  0.00000000000E+00  0.00000000000E+00 -0.90340979398E+02  0.90340979434E+02  0.25500000920E-02 0. -1.
    10030    2    1    2    0    0  0.00000000000E+00  0.00000000000E+00  0.92060082823E+03  0.11012827871E+04  0.60441533083E+03 0.  0.
        5    1    3    3  502    0 -0.49630699653E+02  0.61127247224E+02 -0.71253896413E+02  0.10629654018E+03  0.46999998093E+01 0. -1.
       -5    1    3    3    0  502  0.49630699653E+02 -0.61127247224E+02  0.99185472465E+03  0.99498624689E+03  0.46999998093E+01 0.  1.
</event>
<event>
 5   0  0.2309055E-02  0.6036259E+03  0.7818609E-02  0.9897912E-01
        1   -1    0    0  501    0  0.00000000000E+00  0.00000000000E+00  0.58725040493E+03  0.58725040495E+03  0.50400001928E-02 0.  1.
       -1   -1    0    0    0  501  0.00000000000E+00  0.00000000000E+00 -0.15511451109E+03  0.15511451117E+03  0.50400001928E-02 0. -1.
    10030    2    1    2    0    0  0.00000000000E+00  0.00000000000E+00  0.43213589384E+03  0.74236491612E+03  0.60362590894E+03 0.  0.
        4    1    3    3  502    0  0.26771770909E+02 -0.81484882210E+02  0.57194314207E+03  0.57833993845E+03  0.12699999809E+01 0.  1.
       -4    1    3    3    0  502 -0.26771770909E+02  0.81484882210E+02 -0.13980724822E+03  0.16402497768E+03  0.12699999809E+01 0. -1.
</event>
<event>
 5   0  0.2225808E-02  0.6061026E+03  0.7818609E-02  0.9892825E-01
        1   -1    0    0  501    0  0.00000000000E+00  0.00000000000E+00  0.19695023024E+03  0.19695023030E+03  0.50400001928E-02 0. -1.
       -1   -1    0    0    0  501  0.00000000000E+00  0.00000000000E+00 -0.46631108410E+03  0.46631108413E+03  0.50400001928E-02 0.  1.
    10030    2    1    2    0    0  0.00000000000E+00  0.00000000000E+00 -0.26936085386E+03  0.66326131443E+03  0.60610255042E+03 0.  0.
        2    1    3    3  502    0 -0.12485943823E+03 -0.22093095171E+03  0.46590568476E+02  0.25801365432E+03  0.25500000920E-02 0. -1.
       -2    1    3    3    0  502  0.12485943823E+03  0.22093095171E+03 -0.31595142234E+03  0.40524766011E+03  0.25500000920E-02 0.  1.
</event>
<event>
 5   0  0.2276105E-02  0.6011359E+03  0.7818609E-02  0.9903052E-01
       -1   -1    0    0    0  501  0.00000000000E+00  0.00000000000E+00  0.17848283284E+03  0.17848283291E+03  0.50400001928E-02 0.  1.
        1   -1    0    0  501    0  0.00000000000E+00  0.00000000000E+00 -0.50616129618E+03  0.50616129620E+03  0.50400001928E-02 0. -1.
    10030    2    1    2    0    0  0.00000000000E+00  0.00000000000E+00 -0.32767846334E+03  0.68464412911E+03  0.60113593154E+03 0.  0.
        1    1    3    3  502    0 -0.38160830868E+02  0.28559158529E+03 -0.66381579968E+02  0.29567772454E+03  0.50400001928E-02 0.  1.
       -1    1    3    3    0  502  0.38160830868E+02 -0.28559158529E+03 -0.26129688337E+03  0.38896640457E+03  0.50400001928E-02 0. -1.
</event>
<event>
 5   0  0.3737642E-02  0.5981840E+03  0.7818609E-02  0.9909181E-01
       -2   -1    0    0    0  501  0.00000000000E+00  0.00000000000E+00  0.13917308973E+03  0.13917308975E+03  0.25500000920E-02 0. -1.
        2   -1    0    0  501    0  0.00000000000E+00  0.00000000000E+00 -0.64276801779E+03  0.64276801779E+03  0.25500000920E-02 0.  1.
    10030    2    1    2    0    0  0.00000000000E+00  0.00000000000E+00 -0.50359492806E+03  0.78194110755E+03  0.59818395507E+03 0.  0.
        5    1    3    3  502    0  0.10678356045E+03  0.27628678016E+03 -0.30564372532E+03  0.42564925760E+03  0.46999998093E+01 0.  1.
       -5    1    3    3    0  502 -0.10678356045E+03 -0.27628678016E+03 -0.19795120274E+03  0.35629184994E+03  0.46999998093E+01 0. -1.
</event>
<event>
 5   0  0.2382531E-02  0.5939833E+03  0.7818609E-02  0.9917968E-01
        1   -1    0    0  501    0  0.00000000000E+00  0.00000000000E+00  0.37345099047E+03  0.37345099051E+03  0.50400001928E-02 0.  1.
       -1   -1    0    0    0  501  0.00000000000E+00  0.00000000000E+00 -0.23618640194E+03  0.23618640200E+03  0.50400001928E-02 0. -1.
    10030    2    1    2    0    0  0.00000000000E+00  0.00000000000E+00  0.13726458853E+03  0.60963739250E+03  0.59398331885E+03 0.  0.
        5    1    3    3  502    0  0.23044515386E+03 -0.17417805684E+03  0.13928687216E+03  0.32072712261E+03  0.46999998093E+01 0. -1.
       -5    1    3    3    0  502 -0.23044515386E+03  0.17417805684E+03 -0.20222836323E+01  0.28891026990E+03  0.46999998093E+01 0.  1.
</event>
<event>
 5   0  0.2295179E-02  0.6124640E+03  0.7818609E-02  0.9879879E-01
        1   -1    0    0  501    0  0.00000000000E+00  0.00000000000E+00  0.37505723288E+03  0.37505723291E+03  0.50400001928E-02 0.  1.
       -1   -1    0    0    0  501  0.00000000000E+00  0.00000000000E+00 -0.25003660648E+03  0.25003660654E+03  0.50400001928E-02 0. -1.
    10030    2    1    2    0    0  0.00000000000E+00  0.00000000000E+00  0.12502062639E+03  0.62509383945E+03  0.61246399983E+03 0.  0.
        3    1    3    3  502    0  0.24519958487E+02  0.21444198273E+03 -0.15920528379E+03  0.26820314113E+03  0.10100000352E+00 0. -1.
       -3    1    3    3    0  502 -0.24519958487E+02 -0.21444198273E+03  0.28422591019E+03  0.35689069832E+03  0.10100000352E+00 0.  1.
</event>
<event>
 5   0  0.3934634E-02  0.6015632E+03  0.7818609E-02  0.9902168E-01
        2   -1    0    0  501    0  0.00000000000E+00  0.00000000000E+00  0.10869989553E+04  0.10869989553E+04  0.25500000920E-02 0. -1.
       -2   -1    0    0    0  501  0.00000000000E+00  0.00000000000E+00 -0.83228756112E+02  0.83228756151E+02  0.25500000920E-02 0.  1.
    10030    2    1    2    0    0  0.00000000000E+00  0.00000000000E+00  0.10037701992E+04  0.11702277114E+04  0.60156320023E+03 0.  0.
        1    1    3    3  502    0  0.18056462632E+03  0.16823599148E+03  0.16741237448E+03  0.29821776651E+03  0.50400001928E-02 0.  1.
       -1    1    3    3    0  502 -0.18056462632E+03 -0.16823599148E+03  0.83635782467E+03  0.87200994491E+03  0.50400001928E-02 0. -1.
</event>
<event>
 5   0  0.2276105E-02  0.6056287E+03  0.7818609E-02  0.9893797E-01
        1   -1    0    0  501    0  0.00000000000E+00  0.00000000000E+00  0.10549379764E+04  0.10549379764E+04  0.50400001928E-02 0. -1.
       -1   -1    0    0    0  501  0.00000000000E+00  0.00000000000E+00 -0.86921246019E+02  0.86921246166E+02  0.50400001928E-02 0.  1.
    10030    2    1    2    0    0  0.00000000000E+00  0.00000000000E+00  0.96801673039E+03  0.11418592226E+04  0.60562867658E+03 0.  0.
        1    1    3    3  502    0 -0.24460662611E+03 -0.17763340259E+03  0.51723101547E+03  0.59909427525E+03  0.50400001928E-02 0. -1.
       -1    1    3    3    0  502  0.24460662611E+03  0.17763340259E+03  0.45078571492E+03  0.54276494733E+03  0.50400001928E-02 0.  1.
</event>
<event>
 5   0  0.3832191E-02  0.6196293E+03  0.7818609E-02  0.9865498E-01
        2   -1    0    0  501    0  0.00000000000E+00  0.00000000000E+00  0.17043738769E+04  0.17043738769E+04  0.25500000920E-02 0.  1.
       -2   -1    0    0    0  501  0.00000000000E+00  0.00000000000E+00 -0.56316935214E+02  0.56316935271E+02  0.25500000920E-02 0. -1.
    10030    2    1    2    0    0  0.00000000000E+00  0.00000000000E+00  0.16480569417E+04  0.17606908121E+04  0.61962928677E+03 0.  0.
        3    1    3    3  502    0 -0.27902520637E+03  0.87848774095E+02  0.11139839921E+04  0.11517520644E+04  0.10100000352E+00 0.  1.
       -3    1    3    3    0  502  0.27902520637E+03 -0.87848774095E+02  0.53407294951E+03  0.60893874774E+03  0.10100000352E+00 0. -1.
</event>
<event>
 5   0  0.2276105E-02  0.5901065E+03  0.7818609E-02  0.9926147E-01
       -1   -1    0    0    0  501  0.00000000000E+00  0.00000000000E+00  0.98824244902E+02  0.98824245031E+02  0.50400001928E-02 0.  1.
        1   -1    0    0  501    0  0.00000000000E+00  0.00000000000E+00 -0.88092161726E+03  0.88092161727E+03  0.50400001928E-02 0. -1.
    10030    2    1    2    0    0  0.00000000000E+00  0.00000000000E+00 -0.78209737235E+03  0.97974586230E+03  0.59010647756E+03 0.  0.
        1    1    3    3  502    0 -0.16084627205E+03  0.24130244029E+03 -0.30074950498E+03  0.41779020535E+03  0.50400001928E-02 0.  1.
       -1    1    3    3    0  502  0.16084627205E+03 -0.24130244029E+03 -0.48134786738E+03  0.56195565695E+03  0.50400001928E-02 0. -1.
</event>
<event>
 5   0  0.2309055E-02  0.6015954E+03  0.7818609E-02  0.9902102E-01
        1   -1    0    0  501    0  0.00000000000E+00  0.00000000000E+00  0.14956928865E+03  0.14956928874E+03  0.50400001928E-02 0.  1.
       -1   -1    0    0    0  501  0.00000000000E+00  0.00000000000E+00 -0.60493195090E+03  0.60493195092E+03  0.50400001928E-02 0. -1.
    10030    2    1    2    0    0  0.00000000000E+00  0.00000000000E+00 -0.45536266225E+03  0.75450123966E+03  0.60159535111E+03 0.  0.
        4    1    3    3  502    0  0.18089508483E+02 -0.27711004207E+03 -0.37264714232E+03  0.46474155325E+03  0.12699999809E+01 0. -1.
       -4    1    3    3    0  502 -0.18089508483E+02  0.27711004207E+03 -0.82715519924E+02  0.28975968641E+03  0.12699999809E+01 0.  1.
</event>
<event>
 5   0  0.3934634E-02  0.6005878E+03  0.7818609E-02  0.9904187E-01
       -2   -1    0    0    0  501  0.00000000000E+00  0.00000000000E+00  0.10226821541E+03  0.10226821544E+03  0.25500000920E-02 0. -1.
        2   -1    0    0  501    0  0.00000000000E+00  0.00000000000E+00 -0.88176385275E+03  0.88176385276E+03  0.25500000920E-02 0.  1.
    10030    2    1    2    0    0  0.00000000000E+00  0.00000000000E+00 -0.77949563734E+03  0.98403206819E+03  0.60058776427E+03 0.  0.
        1    1    3    3  502    0  0.88513841103E+02 -0.21551406606E+03 -0.79326036685E+02  0.24611711208E+03  0.50400001928E-02 0.  1.
       -1    1    3    3    0  502 -0.88513841103E+02  0.21551406606E+03 -0.70016960066E+03  0.73791495611E+03  0.50400001928E-02 0. -1.
</event>
<event>
 5   0  0.2276105E-02  0.6017346E+03  0.7818609E-02  0.9901814E-01
        1   -1    0    0  501    0  0.00000000000E+00  0.00000000000E+00  0.45543464404E+03  0.45543464407E+03  0.50400001928E-02 0.  1.
       -1   -1    0    0    0  501  0.00000000000E+00  0.00000000000E+00 -0.19875767370E+03  0.19875767377E+03  0.50400001928E-02 0. -1.
    10030    2    1    2    0    0  0.00000000000E+00  0.00000000000E+00  0.25667697034E+03  0.65419231784E+03  0.60173459400E+03 0.  0.
        1    1    3    3  502    0  0.12448736964E+03  0.22769767421E+03  0.29385316276E+03  0.39203701015E+03  0.50400001928E-02 0.  1.
       -1    1    3    3    0  502 -0.12448736964E+03 -0.22769767421E+03 -0.37176192420E+02  0.26215530768E+03  0.50400001928E-02 0. -1.
</event>
<event>
 5   0  0.2276105E-02  0.5970784E+03  0.7818609E-02  0.9911486E-01
        1   -1    0    0  501    0  0.00000000000E+00  0.00000000000E+00  0.35758421437E+03  0.35758421441E+03  0.50400001928E-02 0.  1.
       -1   -1    0    0    0  501  0.00000000000E+00  0.00000000000E+00 -0.24924383854E+03  0.24924383859E+03  0.50400001928E-02 0. -1.
    10030    2    1    2    0    0  0.00000000000E+00  0.00000000000E+00  0.10834037583E+03  0.60682805300E+03  0.59707842774E+03 0.  0.
        1    1    3    3  502    0  0.26295218226E+03  0.12957118505E+03  0.11160059461E+03  0.31366739533E+03  0.50400001928E-02 0.  1.
       -1    1    3    3    0  502 -0.26295218226E+03 -0.12957118505E+03 -0.32602187791E+01  0.29316065767E+03  0.50400001928E-02 0. -1.
</event>
<event>
 5   0  0.3832191E-02  0.5975810E+03  0.7818609E-02  0.9910438E-01
        2   -1    0    0  501    0  0.00000000000E+00  0.00000000000E+00  0.11256322713E+04  0.11256322713E+04  0.25500000920E-02 0. -1.
       -2   -1    0    0    0  501  0.00000000000E+00  0.00000000000E+00 -0.79311648989E+02  0.79311649030E+02  0.25500000920E-02 0.  1.
    10030    2    1    2    0    0  0.00000000000E+00  0.00000000000E+00  0.10463206223E+04  0.12049439203E+04  0.59758096227E+03 0.  0.
        3    1    3    3  502    0 -0.25115117470E+03 -0.12970615291E+03  0.32792470447E+03  0.43293789469E+03  0.10100000352E+00 0.  1.
       -3    1    3    3    0  502  0.25115117470E+03  0.12970615291E+03  0.71839591781E+03  0.77200602562E+03  0.10100000352E+00 0. -1.
</event>
<event>
 5   0  0.3737642E-02  0.6706825E+03  0.7818609E-02  0.9768726E-01
        2   -1    0    0  501    0  0.00000000000E+00  0.00000000000E+00  0.14010029465E+04  0.14010029465E+04  0.25500000920E-02 0.  1.
       -2   -1    0    0    0  501  0.00000000000E+00  0.00000000000E+00 -0.80266601493E+02  0.80266601533E+02  0.25500000920E-02 0. -1.
    10030    2    1    2    0    0  0.00000000000E+00  0.00000000000E+00  0.13207363450E+04  0.14812695480E+04  0.67068247399E+03 0.  0.
        5    1    3    3  502    0 -0.18374711652E+03  0.19102174872E+03  0.20677443790E+03  0.33619944896E+03  0.46999998093E+01 0. -1.
       -5    1    3    3    0  502  0.18374711652E+03 -0.19102174872E+03  0.11139619071E+04  0.11450700991E+04  0.46999998093E+01 0.  1.
</event>
<event>
 5   0  0.1521750E-02  0.5966383E+03  0.7818609E-02  0.9912405E-01
        3   -1    0    0  501    0  0.00000000000E+00  0.00000000000E+00  0.46753120803E+03  0.46753121894E+03  0.10100000352E+00 0. -1.
       -3   -1    0    0    0  501  0.00000000000E+00  0.00000000000E+00 -0.19034940953E+03  0.19034943632E+03  0.10100000352E+00 0.  1.
    10030    2    1    2    0    0  0.00000000000E+00  0.00000000000E+00  0.27718179851E+03  0.65788065527E+03  0.59663825485E+03 0.  0.
        5    1    3    3  502    0  0.15396513270E+03  0.24670394194E+03  0.65415460873E+02  0.29810966032E+03  0.46999998093E+01 0.  1.
       -5    1    3    3    0  502 -0.15396513270E+03 -0.24670394194E+03  0.21176633763E+03  0.35977099495E+03  0.46999998093E+01 0. -1.
</event>
<event>
 5   0  0.3798925E-02  0.5959069E+03  0.7818609E-02  0.9913934E-01
        2   -1    0    0  501    0  0.00000000000E+00  0.00000000000E+00  0.21533271026E+03  0.21533271028E+03  0.25500000920E-02 0. -1.
       -2   -1    0    0    0  501  0.00000000000E+00  0.00000000000E+00 -0.41227485816E+03  0.41227485817E+03  0.25500000920E-02 0.  1.
    10030    2    1    2    0    0  0.00000000000E+00  0.00000000000E+00 -0.19694214790E+03  0.62760756844E+03  0.59590691416E+03 0.  0.
        2    1    3    3  502    0 -0.20075310736E+03  0.20002065532E+03 -0.15643859552E+01  0.28339463647E+03  0.25500000920E-02 0.  1.
       -2    1    3    3    0  502  0.20075310736E+03 -0.20002065532E+03 -0.19537776194E+03  0.34421293197E+03  0.25500000920E-02 0. -1.
</event>
<event>
 5   0  0.3798925E-02  0.6066367E+03  0.7818609E-02  0.9891732E-01
        2   -1    0    0  501    0  0.00000000000E+00  0.00000000000E+00  0.57585736740E+03  0.57585736740E+03  0.25500000920E-02 0.  1.
       -2   -1    0    0    0  501  0.00000000000E+00  0.00000000000E+00 -0.15976527399E+03  0.15976527401E+03  0.25500000920E-02 0. -1.
    10030    2    1    2    0    0  0.00000000000E+00  0.00000000000E+00  0.41609209341E+03  0.73562264141E+03  0.60663666256E+03 0.  0.
        2    1    3    3  502    0  0.21954467304E+03  0.35706873296E+02  0.45811492977E+03  0.50925841490E+03  0.25500000920E-02 0.  1.
       -2    1    3    3    0  502 -0.21954467304E+03 -0.35706873296E+02 -0.42022836356E+02  0.22636422651E+03  0.25500000920E-02 0. -1.
</event>
<event>
 5   0  0.3832191E-02  0.5968530E+03  0.7818609E-02  0.9911957E-01
       -2   -1    0    0    0  501  0.00000000000E+00  0.00000000000E+00  0.56587398094E+02  0.56587398151E+02  0.25500000920E-02 0. -1.
        2   -1    0    0  501    0  0.00000000000E+00  0.00000000000E+00 -0.15738200436E+04  0.15738200436E+04  0.25500000920E-02 0.  1.
    10030    2    1    2    0    0  0.00000000000E+00  0.00000000000E+00 -0.15172326455E+04  0.16304074418E+04  0.59685301837E+03 0.  0.
        3    1    3    3  502    0 -0.17107445238E+03 -0.15569231070E+03 -0.12736784251E+04  0.12945127673E+04  0.10100000352E+00 0.  1.
       -3    1    3    3    0  502  0.17107445238E+03  0.15569231070E+03 -0.24355422043E+03  0.33589467450E+03  0.10100000352E+00 0. -1.
</event>
<event>
 5   0  0.2225808E-02  0.6128333E+03  0.7818609E-02  0.9879133E-01
       -1   -1    0    0    0  501  0.00000000000E+00  0.00000000000E+00  0.69582419728E+02  0.69582419910E+02  0.50400001928E-02 0. -1.
        1   -1    0    0  501    0  0.00000000000E+00  0.00000000000E+00 -0.13493516583E+04  0.13493516583E+04  0.50400001928E-02 0.  1.
    10030    2    1    2    0    0  0.00000000000E+00  0.00000000000E+00 -0.12797692386E+04  0.14189340783E+04  0.61283326798E+03 0.  0.
        2    1    3    3  502    0  0.99215119316E+02 -0.22990294904E+03 -0.23096068988E+03  0.34064915405E+03  0.25500000920E-02 0. -1.
       -2    1    3    3    0  502 -0.99215119316E+02  0.22990294904E+03 -0.10488085487E+04  0.10782849242E+04  0.25500000920E-02 0.  1.
</event>
<event>
 5   0  0.3934634E-02  0.5994584E+03  0.7818609E-02  0.9906530E-01
        2   -1    0    0  501    0  0.00000000000E+00  0.00000000000E+00  0.73648549707E+03  0.73648549707E+03  0.25500000920E-02 0. -1.
       -2   -1    0    0    0  501  0.00000000000E+00  0.00000000000E+00 -0.12198146762E+03  0.12198146765E+03  0.25500000920E-02 0.  1.
    10030    2    1    2    0    0  0.00000000000E+00  0.00000000000E+00  0.61450402945E+03  0.85846696472E+03  0.59945836161E+03 0.  0.
        1    1    3    3  502    0  0.84937438678E+02 -0.85449623385E+02 -0.85776682579E+02  0.14789741690E+03  0.50400001928E-02 0.  1.
       -1    1    3    3    0  502 -0.84937438678E+02  0.85449623385E+02  0.70028071202E+03  0.71056954782E+03  0.50400001928E-02 0. -1.
</event>
<event>
 5   0  0.2276105E-02  0.6003744E+03  0.7818609E-02  0.9904630E-01
        1   -1    0    0  501    0  0.00000000000E+00  0.00000000000E+00  0.18761302164E+03  0.18761302171E+03  0.50400001928E-02 0.  1.
       -1   -1    0    0    0  501  0.00000000000E+00  0.00000000000E+00 -0.48030965478E+03  0.48030965481E+03  0.50400001928E-02 0. -1.
    10030    2    1    2    0    0  0.00000000000E+00  0.00000000000E+00 -0.29269663314E+03  0.66792267652E+03  0.60037436884E+03 0.  0.
        1    1    3    3  502    0  0.10442155345E+03  0.91314105592E+02  0.14981818311E+03  0.20417545083E+03  0.50400001928E-02 0.  1.
       -1    1    3    3    0  502 -0.10442155345E+03 -0.91314105592E+02 -0.44251481625E+03  0.46374722569E+03  0.50400001928E-02 0. -1.
</event>
<event>
 5   0  0.2295179E-02  0.6008779E+03  0.7818609E-02  0.9903586E-01
       -1   -1    0    0    0  501  0.00000000000E+00  0.00000000000E+00  0.37694697601E+03  0.37694697605E+03  0.50400001928E-02 0. -1.
        1   -1    0    0  501    0  0.00000000000E+00  0.00000000000E+00 -0.23945955852E+03  0.23945955857E+03  0.50400001928E-02 0.  1.
    10030    2    1    2    0    0  0.00000000000E+00  0.00000000000E+00  0.13748741749E+03  0.61640653462E+03  0.60087787940E+03 0.  0.
        3    1    3    3  502    0 -0.10733505502E+03  0.26264022070E+03 -0.32616910055E+02  0.28559512004E+03  0.10100000352E+00 0.  1.
       -3    1    3    3    0  502  0.10733505502E+03 -0.26264022070E+03  0.17010432755E+03  0.33081141458E+03  0.10100000352E+00 0. -1.
</event>
<event>
 5   0  0.2309055E-02  0.6015682E+03  0.7818609E-02  0.9902158E-01
       -1   -1    0    0    0  501  0.00000000000E+00  0.00000000000E+00  0.16074271049E+03  0.16074271057E+03  0.50400001928E-02 0.  1.
        1   -1    0    0  501    0  0.00000000000E+00  0.00000000000E+00 -0.56283165833E+03  0.56283165835E+03  0.50400001928E-02 0. -1.
    10030    2    1    2    0    0  0.00000000000E+00  0.00000000000E+00 -0.40208894784E+03  0.72357436892E+03  0.60156823835E+03 0.  0.
        4    1    3    3  502    0 -0.23785897541E+03 -0.14161118024E+03 -0.34254183946E+03  0.44041701061E+03  0.12699999809E+01 0. -1.
       -4    1    3    3    0  502  0.23785897541E+03  0.14161118024E+03 -0.59547108375E+02  0.28315735831E+03  0.12699999809E+01 0.  1.
</event>
<event>
 5   0  0.3724066E-02  0.5924859E+03  0.7818609E-02  0.9921119E-01
        2   -1    0    0  501    0  0.00000000000E+00  0.00000000000E+00  0.12106209598E+04  0.12106209598E+04  0.25500000920E-02 0.  1.
       -2   -1    0    0    0  501  0.00000000000E+00  0.00000000000E+00 -0.72491623835E+02  0.72491623880E+02  0.25500000920E-02 0. -1.
    10030    2    1    2    0    0  0.00000000000E+00  0.00000000000E+00  0.11381293360E+04  0.12831125837E+04  0.59248587918E+03 0.  0.
        4    1    3    3  502    0 -0.24343487365E+03  0.11680599737E+03  0.83300742617E+03  0.87567526155E+03  0.12699999809E+01 0.  1.
       -4    1    3    3    0  502  0.24343487365E+03 -0.11680599737E+03  0.30512190980E+03  0.40743732214E+03  0.12699999809E+01 0. -1.
</event>
<event>
 5   0  0.2295179E-02  0.5973965E+03  0.7818609E-02  0.9910822E-01
       -1   -1    0    0    0  501  0.00000000000E+00  0.00000000000E+00  0.42083234958E+03  0.42083234961E+03  0.50400001928E-02 0.  1.
        1   -1    0    0  501    0  0.00000000000E+00  0.00000000000E+00 -0.21200994212E+03  0.21200994218E+03  0.50400001928E-02 0. -1.
    10030    2    1    2    0    0  0.00000000000E+00  0.00000000000E+00  0.20882240746E+03  0.63284229179E+03  0.59739649181E+03 0.  0.
        3    1    3    3  502    0 -0.20575085525E+03 -0.20105603141E+03  0.19243865063E+02  0.28831801668E+03  0.10100000352E+00 0.  1.
       -3    1    3    3    0  502  0.20575085525E+03  0.20105603141E+03  0.18957854240E+03  0.34452427511E+03  0.10100000352E+00 0. -1.
</event>
<event>
 5   0  0.3737642E-02  0.5973078E+03  0.7818609E-02  0.9911007E-01
        2   -1    0    0  501    0  0.00000000000E+00  0.00000000000E+00  0.94631389141E+03  0.94631389141E+03  0.25500000920E-02 0.  1.
       -2   -1    0    0    0  501  0.00000000000E+00  0.00000000000E+00 -0.94254290407E+02  0.94254290442E+02  0.25500000920E-02 0. -1.
    10030    2    1    2    0    0  0.00000000000E+00  0.00000000000E+00  0.85205960100E+03  0.10405681819E+04  0.59730777446E+03 0.  0.
        5    1    3    3  502    0  0.18025538356E+03  0.27772068385E+02  0.14110333042E+02  0.18298765691E+03  0.46999998093E+01 0. -1.
       -5    1    3    3    0  502 -0.18025538356E+03 -0.27772068385E+02  0.83794926796E+03  0.85758052494E+03  0.46999998093E+01 0.  1.
</event>
<event>
 5   0  0.2295179E-02  0.6013849E+03  0.7818609E-02  0.9902537E-01
       -1   -1    0    0    0  501  0.00000000000E+00  0.00000000000E+00  0.61345000307E+03  0.61345000309E+03  0.50400001928E-02 0. -1.
        1   -1    0    0  501    0  0.00000000000E+00  0.00000000000E+00 -0.14738929125E+03  0.14738929134E+03  0.50400001928E-02 0.  1.
    10030    2    1    2    0    0  0.00000000000E+00  0.00000000000E+00  0.46606071182E+03  0.76083929443E+03  0.60138493899E+03 0.  0.
        3    1    3    3  502    0 -0.15785135817E+02  0.12534022904E+03  0.57824722449E+03  0.59188614307E+03  0.10100000352E+00 0. -1.
       -3    1    3    3    0  502  0.15785135817E+02 -0.12534022904E+03 -0.11218651267E+03  0.16895315136E+03  0.10100000352E+00 0.  1.
</event>
<event>
 5   0  0.3934634E-02  0.5686470E+03  0.7818609E-02  0.9972677E-01
       -2   -1    0    0    0  501  0.00000000000E+00  0.00000000000E+00  0.36464858334E+02  0.36464858423E+02  0.25500000920E-02 0. -1.
        2   -1    0    0  501    0  0.00000000000E+00  0.00000000000E+00 -0.22169250425E+04  0.22169250425E+04  0.25500000920E-02 0.  1.
    10030    2    1    2    0    0  0.00000000000E+00  0.00000000000E+00 -0.21804601842E+04  0.22533899009E+04  0.56864701780E+03 0.  0.
        1    1    3    3  502    0  0.15009764956E+03 -0.22060490096E+03 -0.14793853258E+04  0.15032553905E+04  0.50400001928E-02 0.  1.
       -1    1    3    3    0  502 -0.15009764956E+03  0.22060490096E+03 -0.70107485836E+03  0.75013451046E+03  0.50400001928E-02 0. -1.
</event>
<event>
 5   0  0.2295179E-02  0.5893069E+03  0.7818609E-02  0.9927842E-01
       -1   -1    0    0    0  501  0.00000000000E+00  0.00000000000E+00  0.87447036718E+02  0.87447036863E+02  0.50400001928E-02 0. -1.
        1   -1    0    0  501    0  0.00000000000E+00  0.00000000000E+00 -0.99283712740E+03  0.99283712741E+03  0.50400001928E-02 0.  1.
    10030    2    1    2    0    0  0.00000000000E+00  0.00000000000E+00 -0.90539009068E+03  0.10802841643E+04  0.58930693130E+03 0.  0.
        3    1    3    3  502    0  0.14447109084E+02  0.20530160535E+03 -0.83923710150E+03  0.86410438655E+03  0.10100000352E+00 0.  1.
       -3    1    3    3    0  502 -0.14447109084E+02 -0.20530160535E+03 -0.66152989187E+02  0.21617977773E+03  0.10100000352E+00 0. -1.
</event>
<event>
 5   0  0.3737642E-02  0.6014048E+03  0.7818609E-02  0.9902496E-01
       -2   -1    0    0    0  501  0.00000000000E+00  0.00000000000E+00  0.19887886313E+03  0.19887886314E+03  0.25500000920E-02 0. -1.
        2   -1    0    0  501    0  0.00000000000E+00  0.00000000000E+00 -0.45465833747E+03  0.45465833748E+03  0.25500000920E-02 0.  1.
    10030    2    1    2    0    0  0.00000000000E+00  0.00000000000E+00 -0.25577947434E+03  0.65353720062E+03  0.60140479970E+03 0.  0.
        5    1    3    3  502    0 -0.14719767810E+03  0.10747295776E+03 -0.38774651226E+03  0.42847058342E+03  0.46999998093E+01 0.  1.
       -5    1    3    3    0  502  0.14719767810E+03 -0.10747295776E+03  0.13196703792E+03  0.22506661721E+03  0.46999998093E+01 0. -1.
</event>
<event>
 5   0  0.3832191E-02  0.5994817E+03  0.7818609E-02  0.9906482E-01
       -2   -1    0    0    0  501  0.00000000000E+00  0.00000000000E+00  0.28131859844E+03  0.28131859845E+03  0.25500000920E-02 0. -1.
        2   -1    0    0  501    0  0.00000000000E+00  0.00000000000E+00 -0.31936947377E+03  0.31936947378E+03  0.25500000920E-02 0.  1.
    10030    2    1    2    0    0  0.00000000000E+00  0.00000000000E+00 -0.38050875326E+02  0.60068807223E+03  0.59948168529E+03 0.  0.
        3    1    3    3  502    0  0.22444178331E+02  0.13924119503E+03 -0.28404343259E+03  0.31713172868E+03  0.10100000352E+00 0.  1.
       -3    1    3    3    0  502 -0.22444178331E+02 -0.13924119503E+03  0.24599255727E+03  0.28355634355E+03  0.10100000352E+00 0. -1.
</event>
<event>
 5   0  0.1521750E-02  0.6011754E+03  0.7818609E-02  0.9902970E-01
       -3   -1    0    0    0  501  0.00000000000E+00  0.00000000000E+00  0.63759103562E+03  0.63759104362E+03  0.10100000352E+00 0.  1.
        3   -1    0    0  501    0  0.00000000000E+00  0.00000000000E+00 -0.14170988042E+03  0.14170991641E+03  0.10100000352E+00 0. -1.
    10030    2    1    2    0    0  0.00000000000E+00  0.00000000000E+00  0.49588115520E+03  0.77930096003E+03  0.60117540387E+03 0.  0.
        1    1    3    3  502    0  0.20483117101E+03  0.51582693640E+02  0.52516719023E+03  0.56605402623E+03  0.50400001928E-02 0.  1.
       -1    1    3    3    0  502 -0.20483117101E+03 -0.51582693640E+02 -0.29286035026E+02  0.21324693380E+03  0.50400001928E-02 0. -1.
</event>
<event>
 5   0  0.3832191E-02  0.6017035E+03  0.7818609E-02  0.9901878E-01
        2   -1    0    0  501    0  0.00000000000E+00  0.00000000000E+00  0.13899141297E+04  0.13899141297E+04  0.25500000920E-02 0.  1.
       -2   -1    0    0    0  501  0.00000000000E+00  0.00000000000E+00 -0.65120397789E+02  0.65120397839E+02  0.25500000920E-02 0. -1.
    10030    2    1    2    0    0  0.00000000000E+00  0.00000000000E+00  0.13247937319E+04  0.14550345275E+04  0.60170345207E+03 0.  0.
        3    1    3    3  502    0 -0.68771165902E+02  0.99885365033E+02 -0.33977371465E+01  0.12131823534E+03  0.10100000352E+00 0. -1.
       -3    1    3    3    0  502  0.68771165902E+02 -0.99885365033E+02  0.13281914691E+04  0.13337162922E+04  0.10100000352E+00 0.  1.
</event>
<event>
 5   0  0.2309055E-02  0.5990177E+03  0.7818609E-02  0.9907446E-01
        1   -1    0    0  501    0  0.00000000000E+00  0.00000000000E+00  0.21526334504E+03  0.21526334509E+03  0.50400001928E-02 0. -1.
       -1   -1    0    0    0  501  0.00000000000E+00  0.00000000000E+00 -0.41672474557E+03  0.41672474560E+03  0.50400001928E-02 0.  1.
    10030    2    1    2    0    0  0.00000000000E+00  0.00000000000E+00 -0.20146140054E+03  0.63198809070E+03  0.59901773837E+03 0.  0.
        4    1    3    3  502    0 -0.26209398919E+03  0.11217695464E+03 -0.38792201215E+01  0.28512030719E+03  0.12699999809E+01 0. -1.
       -4    1    3    3    0  502  0.26209398919E+03 -0.11217695464E+03 -0.19758218042E+03  0.34686778351E+03  0.12699999809E+01 0.  1.
</event>
<event>
 5   0  0.2309055E-02  0.5960475E+03  0.7818609E-02  0.9913640E-01
        1   -1    0    0  501    0  0.00000000000E+00  0.00000000000E+00  0.23713112997E+03  0.23713113002E+03  0.50400001928E-02 0. -1.
       -1   -1    0    0    0  501  0.00000000000E+00  0.00000000000E+00 -0.37455289329E+03  0.37455289333E+03  0.50400001928E-02 0.  1.
    10030    2    1    2    0    0  0.00000000000E+00  0.00000000000E+00 -0.13742176333E+03  0.61168402335E+03  0.59604748417E+03 0.  0.
        4    1    3    3  502    0  0.73790982264E+02  0.27143279521E+03  0.32338838192E+02  0.28314004439E+03  0.12699999809E+01 0. -1.
       -4    1    3    3    0  502 -0.73790982264E+02 -0.27143279521E+03 -0.16976060152E+03  0.32854397896E+03  0.12699999809E+01 0.  1.
</event>
<event>
 5   0  0.2276105E-02  0.5968086E+03  0.7818609E-02  0.9912049E-01
        1   -1    0    0  501    0  0.00000000000E+00  0.00000000000E+00  0.53261176435E+03  0.53261176437E+03  0.50400001928E-02 0. -1.
       -1   -1    0    0    0  501  0.00000000000E+00  0.00000000000E+00 -0.16718582661E+03  0.16718582668E+03  0.50400001928E-02 0.  1.
    10030    2    1    2    0    0  0.00000000000E+00  0.00000000000E+00  0.36542593774E+03  0.69979759106E+03  0.59680863974E+03 0.  0.
        1    1    3    3  502    0  0.87244769919E+02  0.70910440525E+02 -0.14140177940E+03  0.18064994795E+03  0.50400001928E-02 0.  1.
       -1    1    3    3    0  502 -0.87244769919E+02 -0.70910440525E+02  0.50682771714E+03  0.51914764310E+03  0.50400001928E-02 0. -1.
</event>
<event>
 5   0  0.2382531E-02  0.5981436E+03  0.7818609E-02  0.9909265E-01
        1   -1    0    0  501    0  0.00000000000E+00  0.00000000000E+00  0.24218480105E+03  0.24218480110E+03  0.50400001928E-02 0. -1.
       -1   -1    0    0    0  501  0.00000000000E+00  0.00000000000E+00 -0.36932100516E+03  0.36932100520E+03  0.50400001928E-02 0.  1.
    10030    2    1    2    0    0  0.00000000000E+00  0.00000000000E+00 -0.12713620412E+03  0.61150580630E+03  0.59814357535E+03 0.  0.
        5    1    3    3  502    0  0.21411253346E+03  0.95349421952E+02  0.12628492683E+03  0.26628117093E+03  0.46999998093E+01 0. -1.
       -5    1    3    3    0  502 -0.21411253346E+03 -0.95349421952E+02 -0.25342113095E+03  0.34522463536E+03  0.46999998093E+01 0.  1.
</event>
<event>
 5   0  0.2295179E-02  0.5988579E+03  0.7818609E-02  0.9907778E-01
       -1   -1    0    0    0  501  0.00000000000E+00  0.00000000000E+00  0.46046366641E+02  0.46046366917E+02  0.50400001928E-02 0.  1.
        1   -1    0    0  501    0  0.00000000000E+00  0.00000000000E+00 -0.19471178093E+04  0.19471178093E+04  0.50400001928E-02 0. -1.
    10030    2    1    2    0    0  0.00000000000E+00  0.00000000000E+00 -0.19010714427E+04  0.19931641762E+04  0.59885791578E+03 0.  0.
        3    1    3    3  502    0 -0.12331589100E+03 -0.26801957970E+03 -0.11207791008E+04  0.11589594933E+04  0.10100000352E+00 0. -1.
       -3    1    3    3    0  502  0.12331589100E+03  0.26801957970E+03 -0.78029234189E+03  0.83420468297E+03  0.10100000352E+00 0.  1.
</event>
<event>
 5   0  0.2225808E-02  0.6003125E+03  0.7818609E-02  0.9904758E-01
        1   -1    0    0  501    0  0.00000000000E+00  0.00000000000E+00  0.22833548426E+04  0.22833548427E+04  0.50400001928E-02 0.  1.
       -1   -1    0    0    0  501  0.00000000000E+00  0.00000000000E+00 -0.39456762151E+02  0.39456762473E+02  0.50400001928E-02 0. -1.
    10030    2    1    2    0    0  0.00000000000E+00  0.00000000000E+00  0.22438980805E+04  0.23228116051E+04  0.60031254964E+03 0.  0.
        2    1    3    3  502    0 -0.85402929925E+02  0.21187879774E+03  0.18753031453E+04  0.18891659991E+04  0.25500000920E-02 0.  1.
       -2    1    3    3    0  502  0.85402929925E+02 -0.21187879774E+03  0.36859493524E+03  0.43364560607E+03  0.25500000920E-02 0. -1.
</event>
<event>
 5   0  0.2225808E-02  0.5837184E+03  0.7818609E-02  0.9939773E-01
       -1   -1    0    0    0  501  0.00000000000E+00  0.00000000000E+00  0.79328209208E+02  0.79328209368E+02  0.50400001928E-02 0.  1.
        1   -1    0    0  501    0  0.00000000000E+00  0.00000000000E+00 -0.10737892795E+04  0.10737892795E+04  0.50400001928E-02 0. -1.
    10030    2    1    2    0    0  0.00000000000E+00  0.00000000000E+00 -0.99446107025E+03  0.11531174888E+04  0.58371835916E+03 0.  0.
        2    1    3    3  502    0 -0.83864409007E+02  0.21198308382E+03 -0.85724160020E+03  0.88703620447E+03  0.25500000920E-02 0. -1.
       -2    1    3    3    0  502  0.83864409007E+02 -0.21198308382E+03 -0.13721947005E+03  0.26608128437E+03  0.25500000920E-02 0.  1.
</event>
<event>
 5   0  0.3798925E-02  0.5953132E+03  0.7818609E-02  0.9915178E-01
        2   -1    0    0  501    0  0.00000000000E+00  0.00000000000E+00  0.74255286683E+03  0.74255286684E+03  0.25500000920E-02 0. -1.
       -2   -1    0    0    0  501  0.00000000000E+00  0.00000000000E+00 -0.11931736888E+03  0.11931736891E+03  0.25500000920E-02 0.  1.
    10030    2    1    2    0    0  0.00000000000E+00  0.00000000000E+00  0.62323549796E+03  0.86187023575E+03  0.59531320946E+03 0.  0.
        2    1    3    3  502    0 -0.24488114931E+03 -0.15991206364E+03  0.23152107638E+03  0.37301562192E+03  0.25500000920E-02 0.  1.
       -2    1    3    3    0  502  0.24488114931E+03  0.15991206364E+03  0.39171442157E+03  0.48885461382E+03  0.25500000920E-02 0. -1.
</event>
<event>
 5   0  0.2295179E-02  0.6058910E+03  0.7818609E-02  0.9893259E-01
        1   -1    0    0  501    0  0.00000000000E+00  0.00000000000E+00  0.15879462341E+04  0.15879462341E+04  0.50400001928E-02 0.  1.
       -1   -1    0    0    0  501  0.00000000000E+00  0.00000000000E+00 -0.57795387976E+02  0.57795388196E+02  0.50400001928E-02 0. -1.
    10030    2    1    2    0    0  0.00000000000E+00  0.00000000000E+00  0.15301508461E+04  0.16457416223E+04  0.60589097657E+03 0.  0.
        3    1    3    3  502    0 -0.14094191886E+03  0.48799422018E+02  0.14813064469E+04  0.14887964293E+04  0.10100000352E+00 0.  1.
       -3    1    3    3    0  502  0.14094191886E+03 -0.48799422018E+02  0.48844399275E+02  0.15694519305E+03  0.10100000352E+00 0. -1.
</event>
<event>
 5   0  0.2276105E-02  0.6063551E+03  0.7818609E-02  0.9892308E-01
        1   -1    0    0  501    0  0.00000000000E+00  0.00000000000E+00  0.23787969850E+03  0.23787969855E+03  0.50400001928E-02 0.  1.
       -1   -1    0    0    0  501  0.00000000000E+00  0.00000000000E+00 -0.38639956747E+03  0.38639956750E+03  0.50400001928E-02 0. -1.
    10030    2    1    2    0    0  0.00000000000E+00  0.00000000000E+00 -0.14851986897E+03  0.62427926606E+03  0.60635505321E+03 0.  0.
        1    1    3    3  502    0 -0.21625255940E+03 -0.16955049678E+03  0.57604521089E+02  0.28076826972E+03  0.50400001928E-02 0.  1.
       -1    1    3    3    0  502  0.21625255940E+03  0.16955049678E+03 -0.20612439006E+03  0.34351099634E+03  0.50400001928E-02 0. -1.
</event>
<event>
 5   0  0.3798925E-02  0.5981789E+03  0.7818609E-02  0.9909191E-01
       -2   -1    0    0    0  501  0.00000000000E+00  0.00000000000E+00  0.39481646183E+02  0.39481646265E+02  0.25500000920E-02 0. -1.
        2   -1    0    0  501    0  0.00000000000E+00  0.00000000000E+00 -0.22657237978E+04  0.22657237978E+04  0.25500000920E-02 0.  1.
    10030    2    1    2    0    0  0.00000000000E+00  0.00000000000E+00 -0.22262421516E+04  0.23052054440E+04  0.59817892115E+03 0.  0.
        2    1    3    3  502    0 -0.80441532377E+02  0.24049790331E+03 -0.17242029125E+04  0.17427523534E+04  0.25500000920E-02 0.  1.
       -2    1    3    3    0  502  0.80441532377E+02 -0.24049790331E+03 -0.50203923904E+03  0.56245309064E+03  0.25500000920E-02 0. -1.
</event>
<event>
 5   0  0.2225808E-02  0.5991667E+03  0.7818609E-02  0.9907136E-01
       -1   -1    0    0    0  501  0.00000000000E+00  0.00000000000E+00  0.65680043113E+03  0.65680043115E+03  0.50400001928E-02 0.  1.
        1   -1    0    0  501    0  0.00000000000E+00  0.00000000000E+00 -0.13664757456E+03  0.13664757465E+03  0.50400001928E-02 0. -1.
    10030    2    1    2    0    0  0.00000000000E+00  0.00000000000E+00  0.52015285657E+03  0.79344800580E+03  0.59916670778E+03 0.  0.
        2    1    3    3  502    0 -0.88472141826E+01  0.27752056628E+03  0.11110980624E+03  0.29906742878E+03  0.25500000920E-02 0.  1.
       -2    1    3    3    0  502  0.88472141826E+01 -0.27752056628E+03  0.40904305033E+03  0.49438057702E+03  0.25500000920E-02 0. -1.
</event>
<event>
 5   0  0.2295179E-02  0.5992859E+03  0.7818609E-02  0.9906889E-01
        1   -1    0    0  501    0  0.00000000000E+00  0.00000000000E+00  0.33738615967E+03  0.33738615971E+03  0.50400001928E-02 0.  1.
       -1   -1    0    0    0  501  0.00000000000E+00  0.00000000000E+00 -0.26612202698E+03  0.26612202702E+03  0.50400001928E-02 0. -1.
    10030    2    1    2    0    0  0.00000000000E+00  0.00000000000E+00  0.71264132695E+02  0.60350818673E+03  0.59928587072E+03 0.  0.
        3    1    3    3  502    0 -0.15330852283E+03 -0.18410019051E+03  0.21687088260E+03  0.32315533917E+03  0.10100000352E+00 0.  1.
       -3    1    3    3    0  502  0.15330852283E+03  0.18410019051E+03 -0.14560674990E+03  0.28035284756E+03  0.10100000352E+00 0. -1.
</event>
<event>
 5   0  0.3934634E-02  0.6022666E+03  0.7818609E-02  0.9900715E-01
       -2   -1    0    0    0  501  0.00000000000E+00  0.00000000000E+00  0.10539690751E+04  0.10539690751E+04  0.25500000920E-02 0.  1.
        2   -1    0    0  501    0  0.00000000000E+00  0.00000000000E+00 -0.86037882900E+02  0.86037882937E+02  0.25500000920E-02 0. -1.
    10030    2    1    2    0    0  0.00000000000E+00  0.00000000000E+00  0.96793119223E+03  0.11400069581E+04  0.60226661169E+03 0.  0.
        1    1    3    3  502    0 -0.18961845947E+03 -0.50783830939E+02  0.51716754781E+02  0.20299945913E+03  0.50400001928E-02 0. -1.
       -1    1    3    3    0  502  0.18961845947E+03  0.50783830939E+02  0.91621443745E+03  0.93700749894E+03  0.50400001928E-02 0.  1.
</event>
<event>
 5   0  0.3798925E-02  0.5892423E+03  0.7818609E-02  0.9927980E-01
        2   -1    0    0  501    0  0.00000000000E+00  0.00000000000E+00  0.11574026544E+04  0.11574026544E+04  0.25500000920E-02 0. -1.
       -2   -1    0    0    0  501  0.00000000000E+00  0.00000000000E+00 -0.74996905645E+02  0.74996905689E+02  0.25500000920E-02 0.  1.
    10030    2    1    2    0    0  0.00000000000E+00  0.00000000000E+00  0.10824057488E+04  0.12323995601E+04  0.58924228530E+03 0.  0.
        2    1    3    3  502    0  0.60659858573E+02  0.26428600636E+03  0.78217863410E+03  0.82784668101E+03  0.25500000920E-02 0.  1.
       -2    1    3    3    0  502 -0.60659858573E+02 -0.26428600636E+03  0.30022711467E+03  0.40455287910E+03  0.25500000920E-02 0. -1.
</event>
<event>
 5   0  0.3724066E-02  0.5997689E+03  0.7818609E-02  0.9905886E-01
       -2   -1    0    0    0  501  0.00000000000E+00  0.00000000000E+00  0.41590739078E+03  0.41590739079E+03  0.25500000920E-02 0. -1.
        2   -1    0    0  501    0  0.00000000000E+00  0.00000000000E+00 -0.21622767079E+03  0.21622767080E+03  0.25500000920E-02 0.  1.
    10030    2    1    2    0    0  0.00000000000E+00  0.00000000000E+00  0.19967971999E+03  0.63213506160E+03  0.59976891010E+03 0.  0.
        4    1    3    3  502    0 -0.29444585569E+03  0.42788427761E+02  0.60406067967E+02  0.30361112863E+03  0.12699999809E+01 0. -1.
       -4    1    3    3    0  502  0.29444585569E+03 -0.42788427761E+02  0.13927365203E+03  0.32852393296E+03  0.12699999809E+01 0.  1.
</event>
<event>
 5   0  0.3737642E-02  0.5926429E+03  0.7818609E-02  0.9920788E-01
        2   -1    0    0  501    0  0.00000000000E+00  0.00000000000E+00  0.85096768673E+03  0.85096768673E+03  0.25500000920E-02 0. -1.
       -2   -1    0    0    0  501  0.00000000000E+00  0.00000000000E+00 -0.10318416127E+03  0.10318416130E+03  0.25500000920E-02 0.  1.
    10030    2    1    2    0    0  0.00000000000E+00  0.00000000000E+00  0.74778352546E+03  0.95415184803E+03  0.59264285042E+03 0.  0.
        5    1    3    3  502    0  0.26531604596E+03  0.51391497756E+02  0.17835456415E+03  0.32383040443E+03  0.46999998093E+01 0.  1.
       -5    1    3    3    0  502 -0.26531604596E+03 -0.51391497756E+02  0.56942896131E+03  0.63032144360E+03  0.46999998093E+01 0. -1.
</event>
<event>
 5   0  0.3724066E-02  0.6023781E+03  0.7818609E-02  0.9900485E-01
        2   -1    0    0  501    0  0.00000000000E+00  0.00000000000E+00  0.72469691560E+03  0.72469691560E+03  0.25500000920E-02 0. -1.
       -2   -1    0    0    0  501  0.00000000000E+00  0.00000000000E+00 -0.12517623256E+03  0.12517623259E+03  0.25500000920E-02 0.  1.
    10030    2    1    2    0    0  0.00000000000E+00  0.00000000000E+00  0.59952068304E+03  0.84987314819E+03  0.60237805291E+03 0.  0.
        4    1    3    3  502    0 -0.14556644028E+03  0.12699604618E+03  0.62577553115E+03  0.65491542398E+03  0.12699999809E+01 0. -1.
       -4    1    3    3    0  502  0.14556644028E+03 -0.12699604618E+03 -0.26254848113E+02  0.19495772421E+03  0.12699999809E+01 0.  1.
</event>
<event>
 5   0  0.3934634E-02  0.6012609E+03  0.7818609E-02  0.9902793E-01
       -2   -1    0    0    0  501  0.00000000000E+00  0.00000000000E+00  0.73744275034E+02  0.73744275078E+02  0.25500000920E-02 0.  1.
        2   -1    0    0  501    0  0.00000000000E+00  0.00000000000E+00 -0.12255686897E+04  0.12255686897E+04  0.25500000920E-02 0. -1.
    10030    2    1    2    0    0  0.00000000000E+00  0.00000000000E+00 -0.11518244147E+04  0.12993129648E+04  0.60126092358E+03 0.  0.
        1    1    3    3  502    0  0.19879558201E+03 -0.22527865301E+03 -0.55340068345E+03  0.62970030284E+03  0.50400001928E-02 0.  1.
       -1    1    3    3    0  502 -0.19879558201E+03  0.22527865301E+03 -0.59842373121E+03  0.66961266194E+03  0.50400001928E-02 0. -1.
</event>
<event>
 5   0  0.2225808E-02  0.5964839E+03  0.7818609E-02  0.9912728E-01
       -1   -1    0    0    0  501  0.00000000000E+00  0.00000000000E+00  0.85198818452E+03  0.85198818454E+03  0.50400001928E-02 0.  1.
        1   -1    0    0  501    0  0.00000000000E+00  0.00000000000E+00 -0.10440081549E+03  0.10440081561E+03  0.50400001928E-02 0. -1.
    10030    2    1    2    0    0  0.00000000000E+00  0.00000000000E+00  0.74758736904E+03  0.95638900014E+03  0.59648390193E+03 0.  0.
        2    1    3    3  502    0  0.20333728193E+03  0.21805231553E+03  0.36185968753E+03  0.46886596806E+03  0.25500000920E-02 0. -1.
       -2    1    3    3    0  502 -0.20333728193E+03 -0.21805231553E+03  0.38572768150E+03  0.48752303209E+03  0.25500000920E-02 0.  1.
</event>
<event>
 5   0  0.3798925E-02  0.6000441E+03  0.7818609E-02  0.9905315E-01
        2   -1    0    0  501    0  0.00000000000E+00  0.00000000000E+00  0.13737092720E+04  0.13737092720E+04  0.25500000920E-02 0. -1.
       -2   -1    0    0    0  501  0.00000000000E+00  0.00000000000E+00 -0.65525673040E+02  0.65525673090E+02  0.25500000920E-02 0.  1.
    10030    2    1    2    0    0  0.00000000000E+00  0.00000000000E+00  0.13081835990E+04  0.14392349451E+04  0.60004408054E+03 0.  0.
        2    1    3    3  502    0  0.71489570849E-01  0.24674628479E+03  0.10634608292E+04  0.10917108910E+04  0.25500000920E-02 0. -1.
       -2    1    3    3    0  502 -0.71489570849E-01 -0.24674628479E+03  0.24472276977E+03  0.34752405416E+03  0.25500000920E-02 0.  1.
</event>
<event>
 5   0  0.3832191E-02  0.6002467E+03  0.7818609E-02  0.9904894E-01
        2   -1    0    0  501    0  0.00000000000E+00  0.00000000000E+00  0.21335310551E+04  0.21335310551E+04  0.25500000920E-02 0. -1.
       -2   -1    0    0    0  501  0.00000000000E+00  0.00000000000E+00 -0.42218288383E+02  0.42218288460E+02  0.25500000920E-02 0.  1.
    10030    2    1    2    0    0  0.00000000000E+00  0.00000000000E+00  0.20913127667E+04  0.21757493436E+04  0.60024671409E+03 0.  0.
        3    1    3    3  502    0 -0.14006941970E+03 -0.25699974208E+03  0.80506116182E+03  0.85661648025E+03  0.10100000352E+00 0. -1.
       -3    1    3    3    0  502  0.14006941970E+03  0.25699974208E+03  0.12862516049E+04  0.13191328633E+04  0.10100000352E+00 0.  1.
</event>
<event>
 5   0  0.1521750E-02  0.5943998E+03  0.7818609E-02  0.9917093E-01
        4   -1    0    0  501    0  0.00000000000E+00  0.00000000000E+00  0.43879700630E+03  0.43879884416E+03  0.12699999809E+01 0. -1.
       -4   -1    0    0    0  501  0.00000000000E+00  0.00000000000E+00 -0.20129105672E+03  0.20129506307E+03  0.12699999809E+01 0.  1.
    10030    2    1    2    0    0  0.00000000000E+00  0.00000000000E+00  0.23750594957E+03  0.64009390723E+03  0.59439980988E+03 0.  0.
        2    1    3    3  502    0 -0.73743843837E+02 -0.17984395654E+02 -0.19067968838E+03  0.20523239646E+03  0.25500000920E-02 0.  1.
       -2    1    3    3    0  502  0.73743843837E+02  0.17984395654E+02  0.42818563795E+03  0.43486151077E+03  0.25500000920E-02 0. -1.
</event>
<event>
 5   0  0.3934634E-02  0.6011924E+03  0.7818609E-02  0.9902935E-01
       -2   -1    0    0    0  501  0.00000000000E+00  0.00000000000E+00  0.17163895487E+03  0.17163895489E+03  0.25500000920E-02 0.  1.
        2   -1    0    0  501    0  0.00000000000E+00  0.00000000000E+00 -0.52644262845E+03  0.52644262846E+03  0.25500000920E-02 0. -1.
    10030    2    1    2    0    0  0.00000000000E+00  0.00000000000E+00 -0.35480367358E+03  0.69808158335E+03  0.60119235710E+03 0.  0.
        1    1    3    3  502    0 -0.75209226126E+02 -0.17052045552E+03 -0.45125983863E+03  0.48823057609E+03  0.50400001928E-02 0. -1.
       -1    1    3    3    0  502  0.75209226126E+02  0.17052045552E+03  0.96456165053E+02  0.20985100726E+03  0.50400001928E-02 0.  1.
</event>
<event>
 5   0  0.2276105E-02  0.5980268E+03  0.7818609E-02  0.9909508E-01
       -1   -1    0    0    0  501  0.00000000000E+00  0.00000000000E+00  0.20912409251E+03  0.20912409257E+03  0.50400001928E-02 0.  1.
        1   -1    0    0  501    0  0.00000000000E+00  0.00000000000E+00 -0.42754052115E+03  0.42754052118E+03  0.50400001928E-02 0. -1.
    10030    2    1    2    0    0  0.00000000000E+00  0.00000000000E+00 -0.21841642864E+03  0.63666461376E+03  0.59802683394E+03 0.  0.
        1    1    3    3  502    0  0.22594284522E+02 -0.19486381928E+03  0.13104125687E+03  0.23591146811E+03  0.50400001928E-02 0.  1.
       -1    1    3    3    0  502 -0.22594284522E+02  0.19486381928E+03 -0.34945768551E+03  0.40075314565E+03  0.50400001928E-02 0. -1.
</event>
<event>
 5   0  0.3798925E-02  0.6009322E+03  0.7818609E-02  0.9903474E-01
       -2   -1    0    0    0  501  0.00000000000E+00  0.00000000000E+00  0.18697535703E+03  0.18697535704E+03  0.25500000920E-02 0.  1.
        2   -1    0    0  501    0  0.00000000000E+00  0.00000000000E+00 -0.48284376794E+03  0.48284376794E+03  0.25500000920E-02 0. -1.
    10030    2    1    2    0    0  0.00000000000E+00  0.00000000000E+00 -0.29586841091E+03  0.66981912499E+03  0.60093222881E+03 0.  0.
        2    1    3    3  502    0 -0.71862199459E+02 -0.26851408648E+03 -0.20768772412E+02  0.27873882446E+03  0.25500000920E-02 0.  1.
       -2    1    3    3    0  502  0.71862199459E+02  0.26851408648E+03 -0.27509963850E+03  0.39108030052E+03  0.25500000920E-02 0. -1.
</event>
<event>
 5   0  0.2295179E-02  0.5728359E+03  0.7818609E-02  0.9963423E-01
       -1   -1    0    0    0  501  0.00000000000E+00  0.00000000000E+00  0.42705114701E+02  0.42705114998E+02  0.50400001928E-02 0. -1.
        1   -1    0    0  501    0  0.00000000000E+00  0.00000000000E+00 -0.19209698090E+04  0.19209698090E+04  0.50400001928E-02 0.  1.
    10030    2    1    2    0    0  0.00000000000E+00  0.00000000000E+00 -0.18782646943E+04  0.19636749240E+04  0.57283587992E+03 0.  0.
        3    1    3    3  502    0 -0.27742970083E+03 -0.35528931307E+02 -0.72765899723E+03  0.77956216578E+03  0.10100000352E+00 0.  1.
       -3    1    3    3    0  502  0.27742970083E+03  0.35528931307E+02 -0.11506056971E+04  0.11841127583E+04  0.10100000352E+00 0. -1.
</event>
<event>
 5   0  0.3737642E-02  0.5966601E+03  0.7818609E-02  0.9912360E-01
        2   -1    0    0  501    0  0.00000000000E+00  0.00000000000E+00  0.11054521493E+04  0.11054521493E+04  0.25500000920E-02 0.  1.
       -2   -1    0    0    0  501  0.00000000000E+00  0.00000000000E+00 -0.80510772517E+02  0.80510772558E+02  0.25500000920E-02 0. -1.
    10030    2    1    2    0    0  0.00000000000E+00  0.00000000000E+00  0.10249413768E+04  0.11859629218E+04  0.59666005915E+03 0.  0.
        5    1    3    3  502    0  0.11295212969E+03 -0.83112651489E+02 -0.10829545866E+02  0.14073118170E+03  0.46999998093E+01 0. -1.
       -5    1    3    3    0  502 -0.11295212969E+03  0.83112651489E+02  0.10357709226E+04  0.10452317402E+04  0.46999998093E+01 0.  1.
</event>
<event>
 5   0  0.2225808E-02  0.6012003E+03  0.7818609E-02  0.9902919E-01
       -1   -1    0    0    0  501  0.00000000000E+00  0.00000000000E+00  0.16811448775E+03  0.16811448782E+03  0.50400001928E-02 0.  1.
        1   -1    0    0  501    0  0.00000000000E+00  0.00000000000E+00 -0.53749352603E+03  0.53749352605E+03  0.50400001928E-02 0. -1.
    10030    2    1    2    0    0  0.00000000000E+00  0.00000000000E+00 -0.36937903828E+03  0.70560801387E+03  0.60120029551E+03 0.  0.
        2    1    3    3  502    0  0.75801914491E+02  0.12145505642E+03  0.12552957013E+03  0.19040728440E+03  0.25500000920E-02 0.  1.
       -2    1    3    3    0  502 -0.75801914491E+02 -0.12145505642E+03 -0.49490860840E+03  0.51520072947E+03  0.25500000920E-02 0. -1.
</event>
<event>
 5   0  0.3724066E-02  0.5967848E+03  0.7818609E-02  0.9912099E-01
        2   -1    0    0  501    0  0.00000000000E+00  0.00000000000E+00  0.16091040107E+03  0.16091040109E+03  0.25500000920E-02 0.  1.
       -2   -1    0    0    0  501  0.00000000000E+00  0.00000000000E+00 -0.55333911667E+03  0.55333911667E+03  0.25500000920E-02 0. -1.
    10030    2    1    2    0    0  0.00000000000E+00  0.00000000000E+00 -0.39242871560E+03  0.71424951776E+03  0.59678478265E+03 0.  0.
        4    1    3    3  502    0 -0.29563338870E+03  0.12743474521E+01 -0.14781031579E+03  0.33053022075E+03  0.12699999809E+01 0.  1.
       -4    1    3    3    0  502  0.29563338870E+03 -0.12743474521E+01 -0.24461839980E+03  0.38371929701E+03  0.12699999809E+01 0. -1.
</event>
<event>
 5   0  0.2276105E-02  0.6027785E+03  0.7818609E-02  0.9899658E-01
       -1   -1    0    0    0  501  0.00000000000E+00  0.00000000000E+00  0.12630171008E+03  0.12630171018E+03  0.50400001928E-02 0. -1.
        1   -1    0    0  501    0  0.00000000000E+00  0.00000000000E+00 -0.71919444090E+03  0.71919444092E+03  0.50400001928E-02 0.  1.
    10030    2    1    2    0    0  0.00000000000E+00  0.00000000000E+00 -0.59289273082E+03  0.84549615110E+03  0.60277852588E+03 0.  0.
        1    1    3    3  502    0  0.11872293781E+03 -0.12929255093E+03  0.47203013227E+02  0.18176860062E+03  0.50400001928E-02 0. -1.
       -1    1    3    3    0  502 -0.11872293781E+03  0.12929255093E+03 -0.64009574404E+03  0.66372755048E+03  0.50400001928E-02 0.  1.
</event>
<event>
 5   0  0.3934634E-02  0.6002243E+03  0.7818609E-02  0.9904941E-01
        2   -1    0    0  501    0  0.00000000000E+00  0.00000000000E+00  0.30810708578E+03  0.30810708579E+03  0.25500000920E-02 0. -1.
       -2   -1    0    0    0  501  0.00000000000E+00  0.00000000000E+00 -0.29232466438E+03  0.29232466439E+03  0.25500000920E-02 0.  1.
    10030    2    1    2    0    0  0.00000000000E+00  0.00000000000E+00  0.15782421404E+02  0.60043175018E+03  0.60022429291E+03 0.  0.
        1    1    3    3  502    0  0.10551021862E+03 -0.86002739953E+02  0.27545033225E+03  0.30724869906E+03  0.50400001928E-02 0. -1.
       -1    1    3    3    0  502 -0.10551021862E+03  0.86002739953E+02 -0.25966791085E+03  0.29318305112E+03  0.50400001928E-02 0.  1.
</event>
<event>
 5   0  0.2309055E-02  0.5654995E+03  0.7818609E-02  0.9979687E-01
        1   -1    0    0  501    0  0.00000000000E+00  0.00000000000E+00  0.45954514606E+02  0.45954514882E+02  0.50400001928E-02 0.  1.
       -1   -1    0    0    0  501  0.00000000000E+00  0.00000000000E+00 -0.17397078008E+04  0.17397078008E+04  0.50400001928E-02 0. -1.
    10030    2    1    2    0    0  0.00000000000E+00  0.00000000000E+00 -0.16937532862E+04  0.17856623157E+04  0.56549952359E+03 0.  0.
        4    1    3    3  502    0 -0.70201730270E+02  0.45786456359E+02 -0.16995717917E+04  0.17016376144E+04  0.12699999809E+01 0. -1.
       -4    1    3    3    0  502  0.70201730270E+02 -0.45786456359E+02  0.58185055650E+01  0.84024701283E+02  0.12699999809E+01 0.  1.
</event>
<event>
 5   0  0.1521750E-02  0.6012888E+03  0.7818609E-02  0.9902736E-01
       -3   -1    0    0    0  501  0.00000000000E+00  0.00000000000E+00  0.10321132757E+03  0.10321137699E+03  0.10100000352E+00 0.  1.
        3   -1    0    0  501    0  0.00000000000E+00  0.00000000000E+00 -0.87574703948E+03  0.87574704531E+03  0.10100000352E+00 0. -1.
    10030    2    1    2    0    0  0.00000000000E+00  0.00000000000E+00 -0.77253571192E+03  0.97895842229E+03  0.60128875459E+03 0.  0.
        2    1    3    3  502    0  0.51733635464E+02  0.23093188137E+03 -0.84383023249E+02  0.25124967162E+03  0.25500000920E-02 0.  1.
       -2    1    3    3    0  502 -0.51733635464E+02 -0.23093188137E+03 -0.68815268867E+03  0.72770875067E+03  0.25500000920E-02 0. -1.
</event>
<event>
 5   0  0.3832191E-02  0.5854987E+03  0.7818609E-02  0.9935957E-01
        2   -1    0    0  501    0  0.00000000000E+00  0.00000000000E+00  0.17636479448E+04  0.17636479448E+04  0.25500000920E-02 0. -1.
       -2   -1    0    0    0  501  0.00000000000E+00  0.00000000000E+00 -0.48593695301E+02  0.48593695368E+02  0.25500000920E-02 0.  1.
    10030    2    1    2    0    0  0.00000000000E+00  0.00000000000E+00  0.17150542495E+04  0.18122416402E+04  0.58549866238E+03 0.  0.
        3    1    3    3  502    0  0.24744197668E+03 -0.17851051483E+02  0.37646360089E+03  0.45085590254E+03  0.10100000352E+00 0.  1.
       -3    1    3    3    0  502 -0.24744197668E+03  0.17851051483E+02  0.13385906487E+04  0.13613857377E+04  0.10100000352E+00 0. -1.
</event>
<event>
 5   0  0.2295179E-02  0.5988830E+03  0.7818609E-02  0.9907726E-01
        1   -1    0    0  501    0  0.00000000000E+00  0.00000000000E+00  0.13279302877E+04  0.13279302877E+04  0.50400001928E-02 0. -1.
       -1   -1    0    0    0  501  0.00000000000E+00  0.00000000000E+00 -0.67522521470E+02  0.67522521658E+02  0.50400001928E-02 0.  1.
    10030    2    1    2    0    0  0.00000000000E+00  0.00000000000E+00  0.12604077662E+04  0.13954528093E+04  0.59888296519E+03 0.  0.
        3    1    3    3  502    0 -0.16575975476E+03 -0.51867122127E+02  0.11985683521E+04  0.12110873625E+04  0.10100000352E+00 0. -1.
       -3    1    3    3    0  502  0.16575975476E+03  0.51867122127E+02  0.61839414062E+02  0.18436544684E+03  0.10100000352E+00 0.  1.
</event>
<event>
 5   0  0.3934634E-02  0.6009365E+03  0.7818609E-02  0.9903465E-01
        2   -1    0    0  501    0  0.00000000000E+00  0.00000000000E+00  0.54753071122E+03  0.54753071123E+03  0.25500000920E-02 0.  1.
       -2   -1    0    0    0  501  0.00000000000E+00  0.00000000000E+00 -0.16488787991E+03  0.16488787993E+03  0.25500000920E-02 0. -1.
    10030    2    1    2    0    0  0.00000000000E+00  0.00000000000E+00  0.38264283131E+03  0.71241859116E+03  0.60093652965E+03 0.  0.
        1    1    3    3  502    0 -0.58278639988E+02 -0.15592781160E+03 -0.10522604817E+03  0.19693248475E+03  0.50400001928E-02 0. -1.
       -1    1    3    3    0  502  0.58278639988E+02  0.15592781160E+03  0.48786887948E+03  0.51548610641E+03  0.50400001928E-02 0.  1.
</event>
<event>
 5   0  0.2309055E-02  0.5993143E+03  0.7818609E-02  0.9906830E-01
        1   -1    0    0  501    0  0.00000000000E+00  0.00000000000E+00  0.31357097691E+03  0.31357097695E+03  0.50400001928E-02 0.  1.
       -1   -1    0    0    0  501  0.00000000000E+00  0.00000000000E+00 -0.28636073461E+03  0.28636073466E+03  0.50400001928E-02 0. -1.
    10030    2    1    2    0    0  0.00000000000E+00  0.00000000000E+00  0.27210242292E+02  0.59993171160E+03  0.59931432596E+03 0.  0.
        4    1    3    3  502    0 -0.17752182837E+03  0.10909416886E+03  0.22918078258E+03  0.30974341192E+03  0.12699999809E+01 0.  1.
       -4    1    3    3    0  502  0.17752182837E+03 -0.10909416886E+03 -0.20197054029E+03  0.29018829968E+03  0.12699999809E+01 0. -1.
</event>
<event>
 5   0  0.3832191E-02  0.6028818E+03  0.7818609E-02  0.9899445E-01
       -2   -1    0    0    0  501  0.00000000000E+00  0.00000000000E+00  0.12808767792E+03  0.12808767794E+03  0.25500000920E-02 0.  1.
        2   -1    0    0  501    0  0.00000000000E+00  0.00000000000E+00 -0.70940958084E+03  0.70940958085E+03  0.25500000920E-02 0. -1.
    10030    2    1    2    0    0  0.00000000000E+00  0.00000000000E+00 -0.58132190292E+03  0.83749725879E+03  0.60288183226E+03 0.  0.
        3    1    3    3  502    0 -0.28554097757E+03  0.33695080659E+02 -0.16488582728E+03  0.33144585466E+03  0.10100000352E+00 0. -1.
       -3    1    3    3    0  502  0.28554097757E+03 -0.33695080659E+02 -0.41643607564E+03  0.50605140413E+03  0.10100000352E+00 0.  1.
</event>
<event>
 5   0  0.2309055E-02  0.5982231E+03  0.7818609E-02  0.9909099E-01
       -1   -1    0    0    0  501  0.00000000000E+00  0.00000000000E+00  0.18950566053E+03  0.18950566060E+03  0.50400001928E-02 0.  1.
        1   -1    0    0  501    0  0.00000000000E+00  0.00000000000E+00 -0.47211103653E+03  0.47211103656E+03  0.50400001928E-02 0. -1.
    10030    2    1    2    0    0  0.00000000000E+00  0.00000000000E+00 -0.28260537600E+03  0.66161669715E+03  0.59822308164E+03 0.  0.
        4    1    3    3  502    0  0.74435596456E+02  0.13253364145E+03  0.14360055038E+03  0.20911373725E+03  0.12699999809E+01 0.  1.
       -4    1    3    3    0  502 -0.74435596456E+02 -0.13253364145E+03 -0.42620592638E+03  0.45250295990E+03  0.12699999809E+01 0. -1.
</event>
<event>
 5   0  0.2382531E-02  0.6021767E+03  0.7818609E-02  0.9900900E-01
       -1   -1    0    0    0  501  0.00000000000E+00  0.00000000000E+00  0.86241754075E+02  0.86241754223E+02  0.50400001928E-02 0.  1.
        1   -1    0    0  501    0  0.00000000000E+00  0.00000000000E+00 -0.10511635242E+04  0.10511635242E+04  0.50400001928E-02 0. -1.
    10030    2    1    2    0    0  0.00000000000E+00  0.00000000000E+00 -0.96492177015E+03  0.11374052785E+04  0.60217667255E+03 0.  0.
        5    1    3    3  502    0  0.26709775935E+03 -0.88466660584E+02 -0.28021974764E+03  0.39713065866E+03  0.46999998093E+01 0.  1.
       -5    1    3    3    0  502 -0.26709775935E+03  0.88466660584E+02 -0.68470202251E+03  0.74027461979E+03  0.46999998093E+01 0. -1.
</event>
<event>
 5   0  0.2309055E-02  0.5987682E+03  0.7818609E-02  0.9907965E-01
        1   -1    0    0  501    0  0.00000000000E+00  0.00000000000E+00  0.50946658951E+03  0.50946658954E+03  0.50400001928E-02 0.  1.
       -1   -1    0    0    0  501  0.00000000000E+00  0.00000000000E+00 -0.17593077372E+03  0.17593077379E+03  0.50400001928E-02 0. -1.
    10030    2    1    2    0    0  0.00000000000E+00  0.00000000000E+00  0.33353581580E+03  0.68539736333E+03  0.59876824000E+03 0.  0.
        4    1    3    3  502    0  0.29145360704E+02  0.89308731829E+02 -0.15861849110E+03  0.18435547253E+03  0.12699999809E+01 0. -1.
       -4    1    3    3    0  502 -0.29145360704E+02 -0.89308731829E+02  0.49215430690E+03  0.50104189080E+03  0.12699999809E+01 0.  1.
</event>
<event>
 5   0  0.2295179E-02  0.6015591E+03  0.7818609E-02  0.9902177E-01
       -1   -1    0    0    0  501  0.00000000000E+00  0.00000000000E+00  0.11167817834E+03  0.11167817845E+03  0.50400001928E-02 0. -1.
        1   -1    0    0  501    0  0.00000000000E+00  0.00000000000E+00 -0.81008065603E+03  0.81008065604E+03  0.50400001928E-02 0.  1.
    10030    2    1    2    0    0  0.00000000000E+00  0.00000000000E+00 -0.69840247769E+03  0.92175883449E+03  0.60155908115E+03 0.  0.
        3    1    3    3  502    0  0.19479339824E+03 -0.73273773670E+01 -0.70019163197E+03  0.72681943434E+03  0.10100000352E+00 0.  1.
       -3    1    3    3    0  502 -0.19479339824E+03  0.73273773670E+01  0.17891542761E+01  0.19493940015E+03  0.10100000352E+00 0. -1.
</event>
<event>
 5   0  0.3798925E-02  0.5952048E+03  0.7818609E-02  0.9915405E-01
        2   -1    0    0  501    0  0.00000000000E+00  0.00000000000E+00  0.13557246580E+04  0.13557246580E+04  0.25500000920E-02 0.  1.
       -2   -1    0    0    0  501  0.00000000000E+00  0.00000000000E+00 -0.65328306001E+02  0.65328306051E+02  0.25500000920E-02 0. -1.
    10030    2    1    2    0    0  0.00000000000E+00  0.00000000000E+00  0.12903963520E+04  0.14210529640E+04  0.59520482305E+03 0.  0.
        2    1    3    3  502    0 -0.26884414194E+03  0.36774854301E+02  0.93699778955E+03  0.97549701188E+03  0.25500000920E-02 0. -1.
       -2    1    3    3    0  502  0.26884414194E+03 -0.36774854301E+02  0.35339856242E+03  0.44555595215E+03  0.25500000920E-02 0.  1.
</event>
<event>
 5   0  0.3724066E-02  0.5976107E+03  0.7818609E-02  0.9910376E-01
       -2   -1    0    0    0  501  0.00000000000E+00  0.00000000000E+00  0.15316661313E+03  0.15316661315E+03  0.25500000920E-02 0. -1.
        2   -1    0    0  501    0  0.00000000000E+00  0.00000000000E+00 -0.58292486342E+03  0.58292486343E+03  0.25500000920E-02 0.  1.
    10030    2    1    2    0    0  0.00000000000E+00  0.00000000000E+00 -0.42975825029E+03  0.73609147658E+03  0.59761066607E+03 0.  0.
        4    1    3    3  502    0  0.23995470754E+03  0.10011678605E+03 -0.39624556404E+03  0.47393437567E+03  0.12699999809E+01 0.  1.
       -4    1    3    3    0  502 -0.23995470754E+03 -0.10011678605E+03 -0.33512686249E+02  0.26215710091E+03  0.12699999809E+01 0. -1.
</event>
<event>
 5   0  0.3737642E-02  0.6005893E+03  0.7818609E-02  0.9904184E-01
        2   -1    0    0  501    0  0.00000000000E+00  0.00000000000E+00  0.11548347774E+04  0.11548347774E+04  0.25500000920E-02 0.  1.
       -2   -1    0    0    0  501  0.00000000000E+00  0.00000000000E+00 -0.78086392217E+02  0.78086392258E+02  0.25500000920E-02 0. -1.
    10030    2    1    2    0    0  0.00000000000E+00  0.00000000000E+00  0.10767483852E+04  0.12329211697E+04  0.60058931526E+03 0.  0.
        5    1    3    3  502    0  0.26864853465E+03  0.75980360265E+02  0.76520964675E+03  0.81456303856E+03  0.46999998093E+01 0.  1.
       -5    1    3    3    0  502 -0.26864853465E+03 -0.75980360265E+02  0.31153873845E+03  0.41835813111E+03  0.46999998093E+01 0. -1.
</event>
<event>
 5   0  0.3737642E-02  0.5973572E+03  0.7818609E-02  0.9910904E-01
       -2   -1    0    0    0  501  0.00000000000E+00  0.00000000000E+00  0.18784801009E+03  0.18784801010E+03  0.25500000920E-02 0. -1.
        2   -1    0    0  501    0  0.00000000000E+00  0.00000000000E+00 -0.47489942524E+03  0.47489942525E+03  0.25500000920E-02 0.  1.
    10030    2    1    2    0    0  0.00000000000E+00  0.00000000000E+00 -0.28705141516E+03  0.66274743535E+03  0.59735721986E+03 0.  0.
        5    1    3    3  502    0  0.13769229860E+03 -0.17917766532E+03  0.73098791352E+02  0.23754858059E+03  0.46999998093E+01 0. -1.
       -5    1    3    3    0  502 -0.13769229860E+03  0.17917766532E+03 -0.36015020651E+03  0.42519885476E+03  0.46999998093E+01 0.  1.
</event>
<event>
 5   0  0.2225808E-02  0.5967464E+03  0.7818609E-02  0.9912179E-01
        1   -1    0    0  501    0  0.00000000000E+00  0.00000000000E+00  0.31029399677E+03  0.31029399681E+03  0.50400001928E-02 0.  1.
       -1   -1    0    0    0  501  0.00000000000E+00  0.00000000000E+00 -0.28691038627E+03  0.28691038632E+03  0.50400001928E-02 0. -1.
    10030    2    1    2    0    0  0.00000000000E+00  0.00000000000E+00  0.23383610502E+02  0.59720438313E+03  0.59674641347E+03 0.  0.
        2    1    3    3  502    0 -0.13141142841E+02  0.12149308849E+03  0.28410156816E+03  0.30926842908E+03  0.25500000920E-02 0.  1.
       -2    1    3    3    0  502  0.13141142841E+02 -0.12149308849E+03 -0.26071795766E+03  0.28793595405E+03  0.25500000920E-02 0. -1.
</event>
<event>
 5   0  0.2309055E-02  0.6003610E+03  0.7818609E-02  0.9904657E-01
       -1   -1    0    0    0  501  0.00000000000E+00  0.00000000000E+00  0.10470291637E+03  0.10470291649E+03  0.50400001928E-02 0.  1.
        1   -1    0    0  501    0  0.00000000000E+00  0.00000000000E+00 -0.86060969949E+03  0.86060969951E+03  0.50400001928E-02 0. -1.
    10030    2    1    2    0    0  0.00000000000E+00  0.00000000000E+00 -0.75590678313E+03  0.96531261600E+03  0.60036104290E+03 0.  0.
        4    1    3    3  502    0  0.73548899038E+02 -0.13133069303E+03  0.39631693350E+02  0.15565820087E+03  0.12699999809E+01 0.  1.
       -4    1    3    3    0  502 -0.73548899038E+02  0.13133069303E+03 -0.79553847648E+03  0.80965441513E+03  0.12699999809E+01 0. -1.
</event>
<event>
 5   0  0.3832191E-02  0.6020820E+03  0.7818609E-02  0.9901096E-01
        2   -1    0    0  501    0  0.00000000000E+00  0.00000000000E+00  0.36268466922E+03  0.36268466923E+03  0.25500000920E-02 0.  1.
       -2   -1    0    0    0  501  0.00000000000E+00  0.00000000000E+00 -0.24987457896E+03  0.24987457898E+03  0.25500000920E-02 0. -1.
    10030    2    1    2    0    0  0.00000000000E+00  0.00000000000E+00  0.11281009026E+03  0.61255924820E+03  0.60208198453E+03 0.  0.
        3    1    3    3  502    0 -0.17578326777E+03  0.14312469556E+03  0.25794622268E+03  0.34339583531E+03  0.10100000352E+00 0.  1.
       -3    1    3    3    0  502  0.17578326777E+03 -0.14312469556E+03 -0.14513613243E+03  0.26916341290E+03  0.10100000352E+00 0. -1.
</event>
<event>
 5   0  0.3934634E-02  0.6072595E+03  0.7818609E-02  0.9890458E-01
       -2   -1    0    0    0  501  0.00000000000E+00  0.00000000000E+00  0.16646798375E+03  0.16646798377E+03  0.25500000920E-02 0.  1.
        2   -1    0    0  501    0  0.00000000000E+00  0.00000000000E+00 -0.55380632300E+03  0.55380632300E+03  0.25500000920E-02 0. -1.
    10030    2    1    2    0    0  0.00000000000E+00  0.00000000000E+00 -0.38733833924E+03  0.72027430677E+03  0.60725948980E+03 0.  0.
        1    1    3    3  502    0  0.14448130964E+03 -0.17745367603E+03 -0.43037499874E+03  0.48742927234E+03  0.50400001928E-02 0. -1.
       -1    1    3    3    0  502 -0.14448130964E+03  0.17745367603E+03  0.43036659498E+02  0.23284503443E+03  0.50400001928E-02 0.  1.
</event>
<event>
 5   0  0.1521750E-02  0.6033786E+03  0.7818609E-02  0.9898421E-01
       -3   -1    0    0    0  501  0.00000000000E+00  0.00000000000E+00  0.19096737111E+04  0.19096737138E+04  0.10100000352E+00 0.  1.
        3   -1    0    0  501    0  0.00000000000E+00  0.00000000000E+00 -0.47660666869E+02  0.47660773886E+02  0.10100000352E+00 0. -1.
    10030    2    1    2    0    0  0.00000000000E+00  0.00000000000E+00  0.18620130442E+04  0.19573344877E+04  0.60337858736E+03 0.  0.
        2    1    3    3  502    0  0.21962380930E+02  0.42338660778E+02 -0.35352687158E+02  0.59369359677E+02  0.25500000920E-02 0. -1.
       -2    1    3    3    0  502 -0.21962380930E+02 -0.42338660778E+02  0.18973657314E+04  0.18979651280E+04  0.25500000920E-02 0.  1.
</event>
<event>
 5   0  0.3737642E-02  0.5438412E+03  0.7818609E-02  0.1002930E+00
        2   -1    0    0  501    0  0.00000000000E+00  0.00000000000E+00  0.29621771992E+04  0.29621771992E+04  0.25500000920E-02 0.  1.
       -2   -1    0    0    0  501  0.00000000000E+00  0.00000000000E+00 -0.24961642761E+02  0.24961642891E+02  0.25500000920E-02 0. -1.
    10030    2    1    2    0    0  0.00000000000E+00  0.00000000000E+00  0.29372155564E+04  0.29871388421E+04  0.54384118724E+03 0.  0.
        5    1    3    3  502    0 -0.95010926615E+02 -0.24298543721E+02  0.75794388612E+02  0.12403376454E+03  0.46999998093E+01 0. -1.
       -5    1    3    3    0  502  0.95010926615E+02  0.24298543721E+02  0.28614211678E+04  0.28631050775E+04  0.46999998093E+01 0.  1.
</event>
<event>
 5   0  0.2295179E-02  0.5981583E+03  0.7818609E-02  0.9909234E-01
        1   -1    0    0  501    0  0.00000000000E+00  0.00000000000E+00  0.36282132011E+03  0.36282132014E+03  0.50400001928E-02 0. -1.
       -1   -1    0    0    0  501  0.00000000000E+00  0.00000000000E+00 -0.24653550056E+03  0.24653550061E+03  0.50400001928E-02 0.  1.
    10030    2    1    2    0    0  0.00000000000E+00  0.00000000000E+00  0.11628581955E+03  0.60935682075E+03  0.59815829274E+03 0.  0.
        3    1    3    3  502    0  0.41383177128E+02  0.19853224811E+03  0.28207801353E+03  0.34741277582E+03  0.10100000352E+00 0. -1.
       -3    1    3    3    0  502 -0.41383177128E+02 -0.19853224811E+03 -0.16579219398E+03  0.26194404493E+03  0.10100000352E+00 0.  1.
</event>
<event>
 5   0  0.1521750E-02  0.6016700E+03  0.7818609E-02  0.9901947E-01
        3   -1    0    0  501    0  0.00000000000E+00  0.00000000000E+00  0.29016169646E+03  0.29016171404E+03  0.10100000352E+00 0.  1.
       -3   -1    0    0    0  501  0.00000000000E+00  0.00000000000E+00 -0.31190089520E+03  0.31190091155E+03  0.10100000352E+00 0. -1.
    10030    2    1    2    0    0  0.00000000000E+00  0.00000000000E+00 -0.21739198734E+02  0.60206262559E+03  0.60167001951E+03 0.  0.
        2    1    3    3  502    0  0.12132357830E+03 -0.17236903354E+03  0.20391250829E+03  0.29327598848E+03  0.25500000920E-02 0.  1.
       -2    1    3    3    0  502 -0.12132357830E+03  0.17236903354E+03 -0.22565170702E+03  0.30878663712E+03  0.25500000920E-02 0. -1.
</event>
<event>
 5   0  0.3798925E-02  0.5969273E+03  0.7818609E-02  0.9911801E-01
       -2   -1    0    0    0  501  0.00000000000E+00  0.00000000000E+00  0.97804568173E+02  0.97804568206E+02  0.25500000920E-02 0.  1.
        2   -1    0    0  501    0  0.00000000000E+00  0.00000000000E+00 -0.91080155523E+03  0.91080155523E+03  0.25500000920E-02 0. -1.
    10030    2    1    2    0    0  0.00000000000E+00  0.00000000000E+00 -0.81299698705E+03  0.10086061234E+04  0.59692730820E+03 0.  0.
        2    1    3    3  502    0 -0.22566677149E+03 -0.12416138762E+02 -0.73587839664E+03  0.76980300526E+03  0.25500000920E-02 0. -1.
       -2    1    3    3    0  502  0.22566677149E+03  0.12416138762E+02 -0.77118590412E+02  0.23880311818E+03  0.25500000920E-02 0.  1.
</event>
<event>
 5   0  0.2276105E-02  0.6006966E+03  0.7818609E-02  0.9903962E-01
        1   -1    0    0  501    0  0.00000000000E+00  0.00000000000E+00  0.43058822676E+03  0.43058822679E+03  0.50400001928E-02 0. -1.
       -1   -1    0    0    0  501  0.00000000000E+00  0.00000000000E+00 -0.20950203128E+03  0.20950203134E+03  0.50400001928E-02 0.  1.
    10030    2    1    2    0    0  0.00000000000E+00  0.00000000000E+00  0.22108619549E+03  0.64009025813E+03  0.60069662286E+03 0.  0.
        1    1    3    3  502    0  0.13574137918E+03 -0.63490379481E+02 -0.16681971572E+03  0.22424443780E+03  0.50400001928E-02 0.  1.
       -1    1    3    3    0  502 -0.13574137918E+03  0.63490379481E+02  0.38790591121E+03  0.41584582033E+03  0.50400001928E-02 0. -1.
</event>
<event>
 5   0  0.3832191E-02  0.6081367E+03  0.7818609E-02  0.9888667E-01
       -2   -1    0    0    0  501  0.00000000000E+00  0.00000000000E+00  0.44336404864E+03  0.44336404865E+03  0.25500000920E-02 0. -1.
        2   -1    0    0  501    0  0.00000000000E+00  0.00000000000E+00 -0.20853645560E+03  0.20853645562E+03  0.25500000920E-02 0.  1.
    10030    2    1    2    0    0  0.00000000000E+00  0.00000000000E+00  0.23482759304E+03  0.65190050427E+03  0.60813671901E+03 0.  0.
        3    1    3    3  502    0  0.13941171618E+03  0.36491674164E+02  0.40443253634E+03  0.42934013968E+03  0.10100000352E+00 0. -1.
       -3    1    3    3    0  502 -0.13941171618E+03 -0.36491674164E+02 -0.16960494330E+03  0.22256036459E+03  0.10100000352E+00 0.  1.
</event>
<event>
 5   0  0.3798925E-02  0.5994568E+03  0.7818609E-02  0.9906534E-01
        2   -1    0    0  501    0  0.00000000000E+00  0.00000000000E+00  0.57682872486E+03  0.57682872487E+03  0.25500000920E-02 0. -1.
       -2   -1    0    0    0  501  0.00000000000E+00  0.00000000000E+00 -0.15574314574E+03  0.15574314576E+03  0.25500000920E-02 0.  1.
    10030    2    1    2    0    0  0.00000000000E+00  0.00000000000E+00  0.42108557912E+03  0.73257187063E+03  0.59945682138E+03 0.  0.
        2    1    3    3  502    0 -0.11621536775E+03 -0.43081276346E+02 -0.12295880507E+03  0.17458773102E+03  0.25500000920E-02 0.  1.
       -2    1    3    3    0  502  0.11621536775E+03  0.43081276346E+02  0.54404438419E+03  0.55798413961E+03  0.25500000920E-02 0. -1.
</event>
<event>
 5   0  0.2276105E-02  0.6333971E+03  0.7818609E-02  0.9838442E-01
       -1   -1    0    0    0  501  0.00000000000E+00  0.00000000000E+00  0.85750089839E+02  0.85750089988E+02  0.50400001928E-02 0.  1.
        1   -1    0    0  501    0  0.00000000000E+00  0.00000000000E+00 -0.11696542823E+04  0.11696542824E+04  0.50400001928E-02 0. -1.
    10030    2    1    2    0    0  0.00000000000E+00  0.00000000000E+00 -0.10839041925E+04  0.12554043723E+04  0.63339706312E+03 0.  0.
        1    1    3    3  502    0 -0.52074272742E+02 -0.24464516802E+02  0.75304814181E+02  0.94768441626E+02  0.50400001928E-02 0.  1.
       -1    1    3    3    0  502  0.52074272742E+02  0.24464516802E+02 -0.11592090067E+04  0.11606359307E+04  0.50400001928E-02 0. -1.
</event>
<event>
 5   0  0.3737642E-02  0.5914392E+03  0.7818609E-02  0.9923328E-01
       -2   -1    0    0    0  501  0.00000000000E+00  0.00000000000E+00  0.10340913458E+03  0.10340913461E+03  0.25500000920E-02 0. -1.
        2   -1    0    0  501    0  0.00000000000E+00  0.00000000000E+00 -0.84567062536E+03  0.84567062536E+03  0.25500000920E-02 0.  1.
    10030    2    1    2    0    0  0.00000000000E+00  0.00000000000E+00 -0.74226149078E+03  0.94907975998E+03  0.59143915165E+03 0.  0.
        5    1    3    3  502    0  0.25841463854E+03  0.25024080365E+01 -0.60169143092E+03  0.65485804225E+03  0.46999998093E+01 0.  1.
       -5    1    3    3    0  502 -0.25841463854E+03 -0.25024080365E+01 -0.14057005986E+03  0.29422171773E+03  0.46999998093E+01 0. -1.
</event>
<event>
 5   0  0.3798925E-02  0.6367066E+03  0.7818609E-02  0.9832048E-01
        2   -1    0    0  501    0  0.00000000000E+00  0.00000000000E+00  0.80172563759E+03  0.80172563759E+03  0.25500000920E-02 0.  1.
       -2   -1    0    0    0  501  0.00000000000E+00  0.00000000000E+00 -0.12641334684E+03  0.12641334686E+03  0.25500000920E-02 0. -1.
    10030    2    1    2    0    0  0.00000000000E+00  0.00000000000E+00  0.67531229075E+03  0.92813898445E+03  0.63670659210E+03 0.  0.
        2    1    3    3  502    0 -0.23052392200E+03 -0.21843746912E+03  0.30530219652E+03  0.44052881601E+03  0.25500000920E-02 0. -1.
       -2    1    3    3    0  502  0.23052392200E+03  0.21843746912E+03  0.37001009424E+03  0.48761016845E+03  0.25500000920E-02 0.  1.
</event>
<event>
 5   0  0.3737642E-02  0.5991052E+03  0.7818609E-02  0.9907264E-01
        2   -1    0    0  501    0  0.00000000000E+00  0.00000000000E+00  0.49888466308E+03  0.49888466309E+03  0.25500000920E-02 0.  1.
       -2   -1    0    0    0  501  0.00000000000E+00  0.00000000000E+00 -0.17986474322E+03  0.17986474323E+03  0.25500000920E-02 0. -1.
    10030    2    1    2    0    0  0.00000000000E+00  0.00000000000E+00  0.31901991987E+03  0.67874940633E+03  0.59910520555E+03 0.  0.
        5    1    3    3  502    0 -0.44213719317E+02 -0.25047981701E+03  0.33869586575E+03  0.42359411136E+03  0.46999998093E+01 0.  1.
       -5    1    3    3    0  502  0.44213719317E+02  0.25047981701E+03 -0.19675945886E+02  0.25515529496E+03  0.46999998093E+01 0. -1.
</event>
<event>
 5   0  0.2309055E-02  0.6014449E+03  0.7818609E-02  0.9902413E-01
       -1   -1    0    0    0  501  0.00000000000E+00  0.00000000000E+00  0.22594382343E+03  0.22594382348E+03  0.50400001928E-02 0.  1.
        1   -1    0    0  501    0  0.00000000000E+00  0.00000000000E+00 -0.40024989767E+03  0.40024989770E+03  0.50400001928E-02 0. -1.
    10030    2    1    2    0    0  0.00000000000E+00  0.00000000000E+00 -0.17430607424E+03  0.62619372118E+03  0.60144490099E+03 0.  0.
        4    1    3    3  502    0 -0.22915999662E+03 -0.16449420055E+03  0.21345139704E+02  0.28289551774E+03  0.12699999809E+01 0.  1.
       -4    1    3    3    0  502  0.22915999662E+03  0.16449420055E+03 -0.19565121394E+03  0.34329820344E+03  0.12699999809E+01 0. -1.
</event>
<event>
 5   0  0.3724066E-02  0.5997289E+03  0.7818609E-02  0.9905969E-01
        2   -1    0    0  501    0  0.00000000000E+00  0.00000000000E+00  0.71050523956E+03  0.71050523957E+03  0.25500000920E-02 0. -1.
       -2   -1    0    0    0  501  0.00000000000E+00  0.00000000000E+00 -0.12655597906E+03  0.12655597908E+03  0.25500000920E-02 0.  1.
    10030    2    1    2    0    0  0.00000000000E+00  0.00000000000E+00  0.58394926050E+03  0.83706121865E+03  0.59972889285E+03 0.  0.
        4    1    3    3  502    0  0.28439154337E+03 -0.87958799753E+02  0.24161646853E+03  0.38339983198E+03  0.12699999809E+01 0.  1.
       -4    1    3    3    0  502 -0.28439154337E+03  0.87958799753E+02  0.34233279197E+03  0.45366138667E+03  0.12699999809E+01 0. -1.
</event>
<event>
 5   0  0.3832191E-02  0.6022901E+03  0.7818609E-02  0.9900666E-01
        2   -1    0    0  501    0  0.00000000000E+00  0.00000000000E+00  0.90243230308E+03  0.90243230309E+03  0.25500000920E-02 0.  1.
       -2   -1    0    0    0  501  0.00000000000E+00  0.00000000000E+00 -0.10049322308E+03  0.10049322311E+03  0.25500000920E-02 0. -1.
    10030    2    1    2    0    0  0.00000000000E+00  0.00000000000E+00  0.80193908001E+03  0.10029255262E+04  0.60229006554E+03 0.  0.
        3    1    3    3  502    0 -0.17287200298E+03  0.16311708022E+03  0.70890041668E+03  0.74768423967E+03  0.10100000352E+00 0.  1.
       -3    1    3    3    0  502  0.17287200298E+03 -0.16311708022E+03  0.93038663325E+02  0.25524128653E+03  0.10100000352E+00 0. -1.
</event>
<event>
 5   0  0.3737642E-02  0.6001141E+03  0.7818609E-02  0.9905169E-01
        2   -1    0    0  501    0  0.00000000000E+00  0.00000000000E+00  0.11145646202E+04  0.11145646202E+04  0.25500000920E-02 0.  1.
       -2   -1    0    0    0  501  0.00000000000E+00  0.00000000000E+00 -0.80779728993E+02  0.80779729034E+02  0.25500000920E-02 0. -1.
    10030    2    1    2    0    0  0.00000000000E+00  0.00000000000E+00  0.10337848912E+04  0.11953443492E+04  0.60011408246E+03 0.  0.
        5    1    3    3  502    0  0.10214083798E+03  0.18352241608E+03  0.90155346368E+02  0.22861168925E+03  0.46999998093E+01 0. -1.
       -5    1    3    3    0  502 -0.10214083798E+03 -0.18352241608E+03  0.94362954483E+03  0.96673265997E+03  0.46999998093E+01 0.  1.
</event>
<event>
 5   0  0.3832191E-02  0.5996568E+03  0.7818609E-02  0.9906118E-01
       -2   -1    0    0    0  501  0.00000000000E+00  0.00000000000E+00  0.62029813047E+02  0.62029813100E+02  0.25500000920E-02 0. -1.
        2   -1    0    0  501    0  0.00000000000E+00  0.00000000000E+00 -0.14492560412E+04  0.14492560412E+04  0.25500000920E-02 0.  1.
    10030    2    1    2    0    0  0.00000000000E+00  0.00000000000E+00 -0.13872262282E+04  0.15112858543E+04  0.59965683966E+03 0.  0.
        3    1    3    3  502    0 -0.10904017459E+02  0.15968451774E+03 -0.13325801849E+04  0.13421579647E+04  0.10100000352E+00 0.  1.
       -3    1    3    3    0  502  0.10904017459E+02 -0.15968451774E+03 -0.54646043264E+02  0.16912788962E+03  0.10100000352E+00 0. -1.
</event>
<event>
 5   0  0.2295179E-02  0.6003589E+03  0.7818609E-02  0.9904662E-01
        1   -1    0    0  501    0  0.00000000000E+00  0.00000000000E+00  0.33968901197E+03  0.33968901201E+03  0.50400001928E-02 0.  1.
       -1   -1    0    0    0  501  0.00000000000E+00  0.00000000000E+00 -0.26526529959E+03  0.26526529964E+03  0.50400001928E-02 0. -1.
    10030    2    1    2    0    0  0.00000000000E+00  0.00000000000E+00  0.74423712387E+02  0.60495431165E+03  0.60035891783E+03 0.  0.
        3    1    3    3  502    0 -0.70209497306E+02 -0.27179936487E+03 -0.69919528311E+02  0.28929745747E+03  0.10100000352E+00 0. -1.
       -3    1    3    3    0  502  0.70209497306E+02  0.27179936487E+03  0.14434324070E+03  0.31565685418E+03  0.10100000352E+00 0.  1.
</event>
<event>
 5   0  0.2295179E-02  0.5979957E+03  0.7818609E-02  0.9909573E-01
        1   -1    0    0  501    0  0.00000000000E+00  0.00000000000E+00  0.24290144519E+03  0.24290144524E+03  0.50400001928E-02 0.  1.
       -1   -1    0    0    0  501  0.00000000000E+00  0.00000000000E+00 -0.36804932952E+03  0.36804932955E+03  0.50400001928E-02 0. -1.
    10030    2    1    2    0    0  0.00000000000E+00  0.00000000000E+00 -0.12514788433E+03  0.61095077479E+03  0.59799569920E+03 0.  0.
        3    1    3    3  502    0 -0.65158091779E+02 -0.12680024540E+03  0.20594269449E+03  0.25047211975E+03  0.10100000352E+00 0.  1.
       -3    1    3    3    0  502  0.65158091779E+02  0.12680024540E+03 -0.33109057882E+03  0.36047865504E+03  0.10100000352E+00 0. -1.
</event>
<event>
 5   0  0.3724066E-02  0.6018933E+03  0.7818609E-02  0.9901486E-01
       -2   -1    0    0    0  501  0.00000000000E+00  0.00000000000E+00  0.15448424658E+03  0.15448424660E+03  0.25500000920E-02 0. -1.
        2   -1    0    0  501    0  0.00000000000E+00  0.00000000000E+00 -0.58626617516E+03  0.58626617517E+03  0.25500000920E-02 0.  1.
    10030    2    1    2    0    0  0.00000000000E+00  0.00000000000E+00 -0.43178192858E+03  0.74075042177E+03  0.60189330741E+03 0.  0.
        4    1    3    3  502    0  0.24799002922E+02 -0.12452136372E+03 -0.55168668890E+03  0.56610986229E+03  0.12699999809E+01 0.  1.
       -4    1    3    3    0  502 -0.24799002922E+02  0.12452136372E+03  0.11990476032E+03  0.17464055948E+03  0.12699999809E+01 0. -1.
</event>
<event>
 5   0  0.2382531E-02  0.5896768E+03  0.7818609E-02  0.9927058E-01
       -1   -1    0    0    0  501  0.00000000000E+00  0.00000000000E+00  0.14277151306E+03  0.14277151315E+03  0.50400001928E-02 0.  1.
        1   -1    0    0  501    0  0.00000000000E+00  0.00000000000E+00 -0.60887279868E+03  0.60887279870E+03  0.50400001928E-02 0. -1.
    10030    2    1    2    0    0  0.00000000000E+00  0.00000000000E+00 -0.46610128561E+03  0.75164431185E+03  0.58967682936E+03 0.  0.
        5    1    3    3  502    0  0.66300668248E+02  0.17109666626E+03 -0.52715954530E+03  0.55820168757E+03  0.46999998093E+01 0. -1.
       -5    1    3    3    0  502 -0.66300668248E+02 -0.17109666626E+03  0.61058259685E+02  0.19344262428E+03  0.46999998093E+01 0.  1.
</event>
<event>
 5   0  0.2382531E-02  0.6025525E+03  0.7818609E-02  0.9900125E-01
        1   -1    0    0  501    0  0.00000000000E+00  0.00000000000E+00  0.13453100774E+04  0.13453100774E+04  0.50400001928E-02 0. -1.
       -1   -1    0    0    0  501  0.00000000000E+00  0.00000000000E+00 -0.67469482143E+02  0.67469482331E+02  0.50400001928E-02 0.  1.
    10030    2    1    2    0    0  0.00000000000E+00  0.00000000000E+00  0.12778405952E+04  0.14127795597E+04  0.60255248529E+03 0.  0.
        5    1    3    3  502    0 -0.71213035008E+01 -0.23124366946E+02  0.13429420454E+04  0.13431682235E+04  0.46999998093E+01 0. -1.
       -5    1    3    3    0  502  0.71213035008E+01  0.23124366946E+02 -0.65101450197E+02  0.69611336190E+02  0.46999998093E+01 0.  1.
</event>
<event>
 5   0  0.2295179E-02  0.6022461E+03  0.7818609E-02  0.9900757E-01
        1   -1    0    0  501    0  0.00000000000E+00  0.00000000000E+00  0.11773280599E+04  0.11773280599E+04  0.50400001928E-02 0.  1.
       -1   -1    0    0    0  501  0.00000000000E+00  0.00000000000E+00 -0.77017697254E+02  0.77017697419E+02  0.50400001928E-02 0. -1.
    10030    2    1    2    0    0  0.00000000000E+00  0.00000000000E+00  0.11003103627E+04  0.12543457574E+04  0.60224611646E+03 0.  0.
        3    1    3    3  502    0  0.26830705434E+02  0.58511666361E+02  0.11628307807E+04  0.11646110666E+04  0.10100000352E+00 0.  1.
       -3    1    3    3    0  502 -0.26830705434E+02 -0.58511666361E+02 -0.62520417988E+02  0.89734690732E+02  0.10100000352E+00 0. -1.
</event>
<event>
 5   0  0.2382531E-02  0.6070126E+03  0.7818609E-02  0.9890963E-01
        1   -1    0    0  501    0  0.00000000000E+00  0.00000000000E+00  0.11223914990E+04  0.11223914990E+04  0.50400001928E-02 0. -1.
       -1   -1    0    0    0  501  0.00000000000E+00  0.00000000000E+00 -0.82071244488E+02  0.82071244643E+02  0.50400001928E-02 0.  1.
    10030    2    1    2    0    0  0.00000000000E+00  0.00000000000E+00  0.10403202545E+04  0.12044627437E+04  0.60701257723E+03 0.  0.
        5    1    3    3  502    0 -0.90273204712E+02  0.11824215262E+03 -0.46854045068E+01  0.14891105116E+03  0.46999998093E+01 0.  1.
       -5    1    3    3    0  502  0.90273204712E+02 -0.11824215262E+03  0.10450056591E+04  0.10555516925E+04  0.46999998093E+01 0. -1.
</event>
<event>
 5   0  0.2276105E-02  0.6008307E+03  0.7818609E-02  0.9903684E-01
       -1   -1    0    0    0  501  0.00000000000E+00  0.00000000000E+00  0.93432494101E+03  0.93432494102E+03  0.50400001928E-02 0. -1.
        1   -1    0    0  501    0  0.00000000000E+00  0.00000000000E+00 -0.96593136816E+02  0.96593136947E+02  0.50400001928E-02 0.  1.
    10030    2    1    2    0    0  0.00000000000E+00  0.00000000000E+00  0.83773180419E+03  0.10309180780E+04  0.60083068141E+03 0.  0.
        1    1    3    3  502    0 -0.27101733767E+03 -0.45388651537E+02  0.62717289599E+03  0.68473087304E+03  0.50400001928E-02 0. -1.
       -1    1    3    3    0  502  0.27101733767E+03  0.45388651537E+02  0.21055890820E+03  0.34618720492E+03  0.50400001928E-02 0.  1.
</event>
<event>
 5   0  0.3934634E-02  0.6016261E+03  0.7818609E-02  0.9902038E-01
       -2   -1    0    0    0  501  0.00000000000E+00  0.00000000000E+00  0.95626193748E+02  0.95626193782E+02  0.25500000920E-02 0. -1.
        2   -1    0    0  501    0  0.00000000000E+00  0.00000000000E+00 -0.94627296512E+03  0.94627296513E+03  0.25500000920E-02 0.  1.
    10030    2    1    2    0    0  0.00000000000E+00  0.00000000000E+00 -0.85064677138E+03  0.10418991589E+04  0.60162606965E+03 0.  0.
        1    1    3    3  502    0  0.16570278238E+03  0.12883515967E+02 -0.85953735730E+03  0.87545866019E+03  0.50400001928E-02 0.  1.
       -1    1    3    3    0  502 -0.16570278238E+03 -0.12883515967E+02  0.88905859276E+01  0.16644049872E+03  0.50400001928E-02 0. -1.
</event>
<event>
 5   0  0.2225808E-02  0.6005496E+03  0.7818609E-02  0.9904267E-01
        1   -1    0    0  501    0  0.00000000000E+00  0.00000000000E+00  0.38944941665E+03  0.38944941668E+03  0.50400001928E-02 0.  1.
       -1   -1    0    0    0  501  0.00000000000E+00  0.00000000000E+00 -0.23151900955E+03  0.23151900961E+03  0.50400001928E-02 0. -1.
    10030    2    1    2    0    0  0.00000000000E+00  0.00000000000E+00  0.15793040710E+03  0.62096842629E+03  0.60054955912E+03 0.  0.
        2    1    3    3  502    0 -0.20734272671E+03 -0.21170915135E+03  0.28806359868E+02  0.29772735424E+03  0.25500000920E-02 0. -1.
       -2    1    3    3    0  502  0.20734272671E+03  0.21170915135E+03  0.12912404723E+03  0.32324107206E+03  0.25500000920E-02 0.  1.
</event>
<event>
 5   0  0.2295179E-02  0.5996272E+03  0.7818609E-02  0.9906180E-01
       -1   -1    0    0    0  501  0.00000000000E+00  0.00000000000E+00  0.46611137679E+03  0.46611137681E+03  0.50400001928E-02 0. -1.
        1   -1    0    0  501    0  0.00000000000E+00  0.00000000000E+00 -0.19284706000E+03  0.19284706007E+03  0.50400001928E-02 0.  1.
    10030    2    1    2    0    0  0.00000000000E+00  0.00000000000E+00  0.27326431678E+03  0.65895843688E+03  0.59962724647E+03 0.  0.
        3    1    3    3  502    0  0.91984175509E+02 -0.20723255705E+03  0.35221005233E+03  0.41887749093E+03  0.10100000352E+00 0. -1.
       -3    1    3    3    0  502 -0.91984175509E+02  0.20723255705E+03 -0.78945735543E+02  0.24008094595E+03  0.10100000352E+00 0.  1.
</event>
<event>
 5   0  0.1521750E-02  0.5974377E+03  0.7818609E-02  0.9910736E-01
       -3   -1    0    0    0  501  0.00000000000E+00  0.00000000000E+00  0.39596268573E+03  0.39596269861E+03  0.10100000352E+00 0.  1.
        3   -1    0    0  501    0  0.00000000000E+00  0.00000000000E+00 -0.22535693016E+03  0.22535695279E+03  0.10100000352E+00 0. -1.
    10030    2    1    2    0    0  0.00000000000E+00  0.00000000000E+00  0.17060575557E+03  0.62131965141E+03  0.59743768327E+03 0.  0.
        5    1    3    3  502    0 -0.10658048063E+03  0.19389979873E+03  0.29395785802E+03  0.36795358822E+03  0.46999998093E+01 0.  1.
       -5    1    3    3    0  502  0.10658048063E+03 -0.19389979873E+03 -0.12335210245E+03  0.25336606318E+03  0.46999998093E+01 0. -1.
</event>
<event>
 5   0  0.2225808E-02  0.6243925E+03  0.7818609E-02  0.9856053E-01
        1   -1    0    0  501    0  0.00000000000E+00  0.00000000000E+00  0.42456505174E+03  0.42456505177E+03  0.50400001928E-02 0.  1.
       -1   -1    0    0    0  501  0.00000000000E+00  0.00000000000E+00 -0.22956787422E+03  0.22956787427E+03  0.50400001928E-02 0. -1.
    10030    2    1    2    0    0  0.00000000000E+00  0.00000000000E+00  0.19499717753E+03  0.65413292605E+03  0.62439249331E+03 0.  0.
        2    1    3    3  502    0 -0.79930403805E+02 -0.29051493754E+03  0.18311445217E+03  0.35258857184E+03  0.25500000920E-02 0.  1.
       -2    1    3    3    0  502  0.79930403805E+02  0.29051493754E+03  0.11882725355E+02  0.30154435421E+03  0.25500000920E-02 0. -1.
</event>
<event>
 5   0  0.2295179E-02  0.5985088E+03  0.7818609E-02  0.9908505E-01
        1   -1    0    0  501    0  0.00000000000E+00  0.00000000000E+00  0.21245723095E+03  0.21245723101E+03  0.50400001928E-02 0.  1.
       -1   -1    0    0    0  501  0.00000000000E+00  0.00000000000E+00 -0.42151164134E+03  0.42151164137E+03  0.50400001928E-02 0. -1.
    10030    2    1    2    0    0  0.00000000000E+00  0.00000000000E+00 -0.20905441039E+03  0.63396887238E+03  0.59850880080E+03 0.  0.
        3    1    3    3  502    0  0.24013892217E+03 -0.10571555698E+03  0.47911354069E+02  0.26671705791E+03  0.10100000352E+00 0.  1.
       -3    1    3    3    0  502 -0.24013892217E+03  0.10571555698E+03 -0.25696576446E+03  0.36725181447E+03  0.10100000352E+00 0. -1.
</event>
<event>
 5   0  0.3737642E-02  0.6001832E+03  0.7818609E-02  0.9905026E-01
       -2   -1    0    0    0  501  0.00000000000E+00  0.00000000000E+00  0.21792652860E+03  0.21792652862E+03  0.25500000920E-02 0.  1.
        2   -1    0    0  501    0  0.00000000000E+00  0.00000000000E+00 -0.41323539465E+03  0.41323539466E+03  0.25500000920E-02 0. -1.
    10030    2    1    2    0    0  0.00000000000E+00  0.00000000000E+00 -0.19530886605E+03  0.63116192327E+03  0.60018315557E+03 0.  0.
        5    1    3    3  502    0 -0.62117305595E+02  0.28198654479E+03 -0.11846898183E+02  0.28902838977E+03  0.46999998093E+01 0.  1.
       -5    1    3    3    0  502  0.62117305595E+02 -0.28198654479E+03 -0.18346196786E+03  0.34213353350E+03  0.46999998093E+01 0. -1.
</event>
<event>
 5   0  0.3934634E-02  0.6000766E+03  0.7818609E-02  0.9905247E-01
        2   -1    0    0  501    0  0.00000000000E+00  0.00000000000E+00  0.36061967910E+03  0.36061967911E+03  0.25500000920E-02 0. -1.
       -2   -1    0    0    0  501  0.00000000000E+00  0.00000000000E+00 -0.24963410088E+03  0.24963410089E+03  0.25500000920E-02 0.  1.
    10030    2    1    2    0    0  0.00000000000E+00  0.00000000000E+00  0.11098557822E+03  0.61025378000E+03  0.60007655965E+03 0.  0.
        1    1    3    3  502    0  0.43783793105E+02  0.99371383980E+02 -0.22894940821E+03  0.25339598268E+03  0.50400001928E-02 0.  1.
       -1    1    3    3    0  502 -0.43783793105E+02 -0.99371383980E+02  0.33993498642E+03  0.35685779733E+03  0.50400001928E-02 0. -1.
</event>
<event>
 5   0  0.2276105E-02  0.6028915E+03  0.7818609E-02  0.9899425E-01
        1   -1    0    0  501    0  0.00000000000E+00  0.00000000000E+00  0.42103684694E+03  0.42103684697E+03  0.50400001928E-02 0.  1.
       -1   -1    0    0    0  501  0.00000000000E+00  0.00000000000E+00 -0.21582322984E+03  0.21582322990E+03  0.50400001928E-02 0. -1.
    10030    2    1    2    0    0  0.00000000000E+00  0.00000000000E+00  0.20521361709E+03  0.63686007687E+03  0.60289147354E+03 0.  0.
        1    1    3    3  502    0 -0.43604171627E+02  0.19178472907E+03  0.34392236820E+03  0.39618846710E+03  0.50400001928E-02 0.  1.
       -1    1    3    3    0  502  0.43604171627E+02 -0.19178472907E+03 -0.13870875111E+03  0.24067160977E+03  0.50400001928E-02 0. -1.
</event>
<event>
 5   0  0.3798925E-02  0.6118950E+03  0.7818609E-02  0.9881030E-01
       -2   -1    0    0    0  501  0.00000000000E+00  0.00000000000E+00  0.78159627862E+02  0.78159627903E+02  0.25500000920E-02 0. -1.
        2   -1    0    0  501    0  0.00000000000E+00  0.00000000000E+00 -0.11975988601E+04  0.11975988601E+04  0.25500000920E-02 0.  1.
    10030    2    1    2    0    0  0.00000000000E+00  0.00000000000E+00 -0.11194392322E+04  0.12757584880E+04  0.61189502779E+03 0.  0.
        2    1    3    3  502    0  0.19198923375E+03 -0.18740657419E+03 -0.86630215818E+03  0.90689609063E+03  0.25500000920E-02 0.  1.
       -2    1    3    3    0  502 -0.19198923375E+03  0.18740657419E+03 -0.25313707404E+03  0.36886239736E+03  0.25500000920E-02 0. -1.
</event>
<event>
 5   0  0.3737642E-02  0.6007856E+03  0.7818609E-02  0.9903778E-01
       -2   -1    0    0    0  501  0.00000000000E+00  0.00000000000E+00  0.27097923507E+03  0.27097923508E+03  0.25500000920E-02 0.  1.
        2   -1    0    0  501    0  0.00000000000E+00  0.00000000000E+00 -0.33299902383E+03  0.33299902384E+03  0.25500000920E-02 0. -1.
    10030    2    1    2    0    0  0.00000000000E+00  0.00000000000E+00 -0.62019788754E+02  0.60397825892E+03  0.60078555496E+03 0.  0.
        5    1    3    3  502    0  0.25240840534E+03 -0.13150324867E+03 -0.12749190235E+03  0.31189642937E+03  0.46999998093E+01 0.  1.
       -5    1    3    3    0  502 -0.25240840534E+03  0.13150324867E+03  0.65472113596E+02  0.29208182955E+03  0.46999998093E+01 0. -1.
</event>
<event>
 5   0  0.2225808E-02  0.6655132E+03  0.7818609E-02  0.9778097E-01
       -1   -1    0    0    0  501  0.00000000000E+00  0.00000000000E+00  0.23759440026E+03  0.23759440031E+03  0.50400001928E-02 0.  1.
        1   -1    0    0  501    0  0.00000000000E+00  0.00000000000E+00 -0.46603353717E+03  0.46603353720E+03  0.50400001928E-02 0. -1.
    10030    2    1    2    0    0  0.00000000000E+00  0.00000000000E+00 -0.22843913691E+03  0.70362793752E+03  0.66551321187E+03 0.  0.
        2    1    3    3  502    0  0.11473144909E+03 -0.68700713872E+02  0.20793403950E+03  0.24722390314E+03  0.25500000920E-02 0.  1.
       -2    1    3    3    0  502 -0.11473144909E+03  0.68700713872E+02 -0.43637317641E+03  0.45640403437E+03  0.25500000920E-02 0. -1.
</event>
<event>
 5   0  0.3798925E-02  0.6042925E+03  0.7818609E-02  0.9896540E-01
        2   -1    0    0  501    0  0.00000000000E+00  0.00000000000E+00  0.36966050380E+03  0.36966050381E+03  0.25500000920E-02 0. -1.
       -2   -1    0    0    0  501  0.00000000000E+00  0.00000000000E+00 -0.24696270094E+03  0.24696270096E+03  0.25500000920E-02 0.  1.
    10030    2    1    2    0    0  0.00000000000E+00  0.00000000000E+00  0.12269780286E+03  0.61662320477E+03  0.60429250023E+03 0.  0.
        2    1    3    3  502    0  0.15732520206E+03 -0.18442564590E+03  0.24538518977E+03  0.34493177505E+03  0.25500000920E-02 0. -1.
       -2    1    3    3    0  502 -0.15732520206E+03  0.18442564590E+03 -0.12268738691E+03  0.27169142972E+03  0.25500000920E-02 0.  1.
</event>
<event>
 5   0  0.3832191E-02  0.6026702E+03  0.7818609E-02  0.9899882E-01
        2   -1    0    0  501    0  0.00000000000E+00  0.00000000000E+00  0.13059177543E+04  0.13059177543E+04  0.25500000920E-02 0. -1.
       -2   -1    0    0    0  501  0.00000000000E+00  0.00000000000E+00 -0.69531829030E+02  0.69531829077E+02  0.25500000920E-02 0.  1.
    10030    2    1    2    0    0  0.00000000000E+00  0.00000000000E+00  0.12363859252E+04  0.13754495833E+04  0.60267022508E+03 0.  0.
        3    1    3    3  502    0  0.29321550333E+03  0.62771120324E+02  0.55021018020E+03  0.62661535054E+03  0.10100000352E+00 0.  1.
       -3    1    3    3    0  502 -0.29321550333E+03 -0.62771120324E+02  0.68617574502E+03  0.74883423279E+03  0.10100000352E+00 0. -1.
</event>
<event>
 5   0  0.2382531E-02  0.5986455E+03  0.7818609E-02  0.9908220E-01
       -1   -1    0    0    0  501  0.00000000000E+00  0.00000000000E+00  0.27039804278E+03  0.27039804283E+03  0.50400001928E-02 0. -1.
        1   -1    0    0  501    0  0.00000000000E+00  0.00000000000E+00 -0.33134155327E+03  0.33134155330E+03  0.50400001928E-02 0.  1.
    10030    2    1    2    0    0  0.00000000000E+00  0.00000000000E+00 -0.60943510484E+02  0.60173959613E+03  0.59864549617E+03 0.  0.
        5    1    3    3  502    0  0.11860088111E+03 -0.86117797291E+02 -0.29276021191E+03  0.32743407838E+03  0.46999998093E+01 0.  1.
       -5    1    3    3    0  502 -0.11860088111E+03  0.86117797291E+02  0.23181670143E+03  0.27430551775E+03  0.46999998093E+01 0. -1.
</event>
<event>
 5   0  0.2295179E-02  0.5998999E+03  0.7818609E-02  0.9905614E-01
        1   -1    0    0  501    0  0.00000000000E+00  0.00000000000E+00  0.14526252214E+04  0.14526252214E+04  0.50400001928E-02 0. -1.
       -1   -1    0    0    0  501  0.00000000000E+00  0.00000000000E+00 -0.61936123787E+02  0.61936123992E+02  0.50400001928E-02 0.  1.
    10030    2    1    2    0    0  0.00000000000E+00  0.00000000000E+00  0.13906890976E+04  0.15145613454E+04  0.59989991061E+03 0.  0.
        3    1    3    3  502    0  0.88748059208E+02 -0.89670579945E+02  0.13823800960E+04  0.13881252721E+04  0.10100000352E+00 0. -1.
       -3    1    3    3    0  502 -0.88748059208E+02  0.89670579945E+02  0.83090015641E+01  0.12643607329E+03  0.10100000352E+00 0.  1.
</event>
<event>
 5   0  0.3934634E-02  0.5752954E+03  0.7818609E-02  0.9958029E-01
       -2   -1    0    0    0  501  0.00000000000E+00  0.00000000000E+00  0.86622021589E+02  0.86622021626E+02  0.25500000920E-02 0.  1.
        2   -1    0    0  501    0  0.00000000000E+00  0.00000000000E+00 -0.95519809498E+03  0.95519809499E+03  0.25500000920E-02 0. -1.
    10030    2    1    2    0    0  0.00000000000E+00  0.00000000000E+00 -0.86857607340E+03  0.10418201166E+04  0.57529536771E+03 0.  0.
        1    1    3    3  502    0  0.13369822362E+03 -0.21571589380E+03 -0.67948451423E+03  0.72533286630E+03  0.50400001928E-02 0. -1.
       -1    1    3    3    0  502 -0.13369822362E+03  0.21571589380E+03 -0.18909155916E+03  0.31648725031E+03  0.50400001928E-02 0.  1.
</event>
<event>
 5   0  0.2309055E-02  0.6042459E+03  0.7818609E-02  0.9896636E-01
       -1   -1    0    0    0  501  0.00000000000E+00  0.00000000000E+00  0.90822747200E+02  0.90822747340E+02  0.50400001928E-02 0.  1.
        1   -1    0    0  501    0  0.00000000000E+00  0.00000000000E+00 -0.10050156917E+04  0.10050156917E+04  0.50400001928E-02 0. -1.
    10030    2    1    2    0    0  0.00000000000E+00  0.00000000000E+00 -0.91419294453E+03  0.10958384391E+04  0.60424593068E+03 0.  0.
        4    1    3    3  502    0  0.10506000599E+03  0.96812065418E+02  0.25687968039E+02  0.14516082623E+03  0.12699999809E+01 0.  1.
       -4    1    3    3    0  502 -0.10506000599E+03 -0.96812065418E+02 -0.93988091257E+03  0.95067761285E+03  0.12699999809E+01 0. -1.
</event>
<event>
 5   0  0.2225808E-02  0.5974978E+03  0.7818609E-02  0.9910611E-01
       -1   -1    0    0    0  501  0.00000000000E+00  0.00000000000E+00  0.12788459247E+03  0.12788459257E+03  0.50400001928E-02 0. -1.
        1   -1    0    0  501    0  0.00000000000E+00  0.00000000000E+00 -0.69790203818E+03  0.69790203820E+03  0.50400001928E-02 0.  1.
    10030    2    1    2    0    0  0.00000000000E+00  0.00000000000E+00 -0.57001744572E+03  0.82578663077E+03  0.59749784195E+03 0.  0.
        2    1    3    3  502    0 -0.87960907008E+00 -0.74123063603E+02 -0.68498962125E+03  0.68898895746E+03  0.25500000920E-02 0.  1.
       -2    1    3    3    0  502  0.87960907008E+00  0.74123063603E+02  0.11497217553E+03  0.13679767331E+03  0.25500000920E-02 0. -1.
</event>
<event>
 5   0  0.3724066E-02  0.5932823E+03  0.7818609E-02  0.9919442E-01
       -2   -1    0    0    0  501  0.00000000000E+00  0.00000000000E+00  0.74749317319E+02  0.74749317363E+02  0.25500000920E-02 0. -1.
        2   -1    0    0  501    0  0.00000000000E+00  0.00000000000E+00 -0.11772142866E+04  0.11772142866E+04  0.25500000920E-02 0.  1.
    10030    2    1    2    0    0  0.00000000000E+00  0.00000000000E+00 -0.11024649693E+04  0.12519636040E+04  0.59328227444E+03 0.  0.
        4    1    3    3  502    0  0.58721747299E+02 -0.18893218200E+02 -0.11635242286E+04  0.11651589766E+04  0.12699999809E+01 0.  1.
       -4    1    3    3    0  502 -0.58721747299E+02  0.18893218200E+02  0.61059259267E+02  0.86804627423E+02  0.12699999809E+01 0. -1.
</event>
<event>
 5   0  0.3798925E-02  0.6302849E+03  0.7818609E-02  0.9844493E-01
       -2   -1    0    0    0  501  0.00000000000E+00  0.00000000000E+00  0.25738179308E+03  0.25738179309E+03  0.25500000920E-02 0.  1.
        2   -1    0    0  501    0  0.00000000000E+00  0.00000000000E+00 -0.38586555421E+03  0.38586555422E+03  0.25500000920E-02 0. -1.
    10030    2    1    2    0    0  0.00000000000E+00  0.00000000000E+00 -0.12848376113E+03  0.64324734731E+03  0.63028491410E+03 0.  0.
        2    1    3    3  502    0 -0.11035957382E+03  0.24917788991E+03  0.97271875013E+02  0.28936253045E+03  0.25500000920E-02 0.  1.
       -2    1    3    3    0  502  0.11035957382E+03 -0.24917788991E+03 -0.22575563614E+03  0.35388481686E+03  0.25500000920E-02 0. -1.
</event>
<event>
 5   0  0.3737642E-02  0.5986211E+03  0.7818609E-02  0.9908271E-01
        2   -1    0    0  501    0  0.00000000000E+00  0.00000000000E+00  0.65964560279E+03  0.65964560279E+03  0.25500000920E-02 0. -1.
       -2   -1    0    0    0  501  0.00000000000E+00  0.00000000000E+00 -0.13581052762E+03  0.13581052764E+03  0.25500000920E-02 0.  1.
    10030    2    1    2    0    0  0.00000000000E+00  0.00000000000E+00  0.52383507517E+03  0.79545613043E+03  0.59862114018E+03 0.  0.
        5    1    3    3  502    0  0.27848938060E+03 -0.10892066524E+03  0.24593411250E+03  0.38720243299E+03  0.46999998093E+01 0. -1.
       -5    1    3    3    0  502 -0.27848938060E+03  0.10892066524E+03  0.27790096267E+03  0.40825369744E+03  0.46999998093E+01 0.  1.
</event>
<event>
 5   0  0.1521750E-02  0.5946610E+03  0.7818609E-02  0.9916545E-01
        4   -1    0    0  501    0  0.00000000000E+00  0.00000000000E+00  0.27879568355E+03  0.27879857615E+03  0.12699999809E+01 0.  1.
       -4   -1    0    0    0  501  0.00000000000E+00  0.00000000000E+00 -0.31709174325E+03  0.31709428651E+03  0.12699999809E+01 0. -1.
    10030    2    1    2    0    0  0.00000000000E+00  0.00000000000E+00 -0.38296059702E+02  0.59589286266E+03  0.59466100897E+03 0.  0.
        4    1    3    3  502    0  0.74900069884E+02  0.22664138949E+03 -0.19679322796E+03  0.30936309956E+03  0.12699999809E+01 0. -1.
       -4    1    3    3    0  502 -0.74900069884E+02 -0.22664138949E+03  0.15849716825E+03  0.28652976310E+03  0.12699999809E+01 0.  1.
</event>
<event>
 5   0  0.3724066E-02  0.6016309E+03  0.7818609E-02  0.9902028E-01
       -2   -1    0    0    0  501  0.00000000000E+00  0.00000000000E+00  0.96324801754E+02  0.96324801787E+02  0.25500000920E-02 0. -1.
        2   -1    0    0  501    0  0.00000000000E+00  0.00000000000E+00 -0.93942511656E+03  0.93942511656E+03  0.25500000920E-02 0.  1.
    10030    2    1    2    0    0  0.00000000000E+00  0.00000000000E+00 -0.84310031481E+03  0.10357499184E+04  0.60163091056E+03 0.  0.
        4    1    3    3  502    0 -0.17874440209E+03 -0.23892810766E+03 -0.48715358295E+03  0.57127614005E+03  0.12699999809E+01 0.  1.
       -4    1    3    3    0  502  0.17874440209E+03  0.23892810766E+03 -0.35594673185E+03  0.46447377830E+03  0.12699999809E+01 0. -1.
</event>
<event>
 5   0  0.3832191E-02  0.6461200E+03  0.7818609E-02  0.9814087E-01
        2   -1    0    0  501    0  0.00000000000E+00  0.00000000000E+00  0.62226989909E+03  0.62226989910E+03  0.25500000920E-02 0.  1.
       -2   -1    0    0    0  501  0.00000000000E+00  0.00000000000E+00 -0.16772107028E+03  0.16772107030E+03  0.25500000920E-02 0. -1.
    10030    2    1    2    0    0  0.00000000000E+00  0.00000000000E+00  0.45454882882E+03  0.78999096940E+03  0.64612003060E+03 0.  0.
        3    1    3    3  502    0  0.12640719564E+03 -0.88759209368E+02  0.57419970248E+03  0.59461103663E+03  0.10100000352E+00 0.  1.
       -3    1    3    3    0  502 -0.12640719564E+03  0.88759209368E+02 -0.11965087366E+03  0.19537993276E+03  0.10100000352E+00 0. -1.
</event>
<event>
 5   0  0.2295179E-02  0.6105442E+03  0.7818609E-02  0.9883769E-01
        1   -1    0    0  501    0  0.00000000000E+00  0.00000000000E+00  0.16145525339E+04  0.16145525339E+04  0.50400001928E-02 0. -1.
       -1   -1    0    0    0  501  0.00000000000E+00  0.00000000000E+00 -0.57719423853E+02  0.57719424073E+02  0.50400001928E-02 0.  1.
    10030    2    1    2    0    0  0.00000000000E+00  0.00000000000E+00  0.15568331101E+04  0.16722719580E+04  0.61054415804E+03 0.  0.
        3    1    3    3  502    0 -0.36323125544E+02 -0.10420633208E+03 -0.11736759039E+01  0.11036175430E+03  0.10100000352E+00 0.  1.
       -3    1    3    3    0  502  0.36323125544E+02  0.10420633208E+03  0.15580067860E+04  0.15619102037E+04  0.10100000352E+00 0. -1.
</event>
<event>
 5   0  0.3832191E-02  0.5990869E+03  0.7818609E-02  0.9907302E-01
        2   -1    0    0  501    0  0.00000000000E+00  0.00000000000E+00  0.58957235006E+03  0.58957235007E+03  0.25500000920E-02 0.  1.
       -2   -1    0    0    0  501  0.00000000000E+00  0.00000000000E+00 -0.15218876731E+03  0.15218876733E+03  0.25500000920E-02 0. -1.
    10030    2    1    2    0    0  0.00000000000E+00  0.00000000000E+00  0.43738358276E+03  0.74176111740E+03  0.59908693594E+03 0.  0.
        3    1    3    3  502    0  0.20935287808E+03 -0.21280291485E+03  0.24933628055E+03  0.38895025277E+03  0.10100000352E+00 0. -1.
       -3    1    3    3    0  502 -0.20935287808E+03  0.21280291485E+03  0.18804730220E+03  0.35281086463E+03  0.10100000352E+00 0.  1.
</event>
<event>
 5   0  0.2225808E-02  0.5981544E+03  0.7818609E-02  0.9909242E-01
       -1   -1    0    0    0  501  0.00000000000E+00  0.00000000000E+00  0.39661717690E+03  0.39661717694E+03  0.50400001928E-02 0.  1.
        1   -1    0    0  501    0  0.00000000000E+00  0.00000000000E+00 -0.22552522689E+03  0.22552522694E+03  0.50400001928E-02 0. -1.
    10030    2    1    2    0    0  0.00000000000E+00  0.00000000000E+00  0.17109195002E+03  0.62214240388E+03  0.59815442433E+03 0.  0.
        2    1    3    3  502    0  0.27613128100E+03  0.13751853785E+02 -0.33087742121E+02  0.27844639792E+03  0.25500000920E-02 0. -1.
       -2    1    3    3    0  502 -0.27613128100E+03 -0.13751853785E+02  0.20417969214E+03  0.34369600596E+03  0.25500000920E-02 0.  1.
</event>
<event>
 5   0  0.2276105E-02  0.6014397E+03  0.7818609E-02  0.9902424E-01
       -1   -1    0    0    0  501  0.00000000000E+00  0.00000000000E+00  0.12852638371E+03  0.12852638381E+03  0.50400001928E-02 0. -1.
        1   -1    0    0  501    0  0.00000000000E+00  0.00000000000E+00 -0.70360987867E+03  0.70360987869E+03  0.50400001928E-02 0.  1.
    10030    2    1    2    0    0  0.00000000000E+00  0.00000000000E+00 -0.57508349496E+03  0.83213626250E+03  0.60143971700E+03 0.  0.
        1    1    3    3  502    0  0.28099105780E+03 -0.92467405980E+02 -0.36238577204E+03  0.46779230812E+03  0.50400001928E-02 0.  1.
       -1    1    3    3    0  502 -0.28099105780E+03  0.92467405980E+02 -0.21269772292E+03  0.36434395438E+03  0.50400001928E-02 0. -1.
</event>
<event>
 5   0  0.3724066E-02  0.6004539E+03  0.7818609E-02  0.9904465E-01
        2   -1    0    0  501    0  0.00000000000E+00  0.00000000000E+00  0.25545338429E+03  0.25545338430E+03  0.25500000920E-02 0.  1.
       -2   -1    0    0    0  501  0.00000000000E+00  0.00000000000E+00 -0.35284800617E+03  0.35284800618E+03  0.25500000920E-02 0. -1.
    10030    2    1    2    0    0  0.00000000000E+00  0.00000000000E+00 -0.97394621880E+02  0.60830139048E+03  0.60045388606E+03 0.  0.
        4    1    3    3  502    0  0.19172942131E+03  0.11233611430E+03 -0.25321447523E+03  0.33689576568E+03  0.12699999809E+01 0. -1.
       -4    1    3    3    0  502 -0.19172942131E+03 -0.11233611430E+03  0.15581985334E+03  0.27140562479E+03  0.12699999809E+01 0.  1.
</event>
<event>
 5   0  0.3724066E-02  0.6252382E+03  0.7818609E-02  0.9854385E-01
        2   -1    0    0  501    0  0.00000000000E+00  0.00000000000E+00  0.12610876447E+04  0.12610876447E+04  0.25500000920E-02 0.  1.
       -2   -1    0    0    0  501  0.00000000000E+00  0.00000000000E+00 -0.77497160610E+02  0.77497160652E+02  0.25500000920E-02 0. -1.
    10030    2    1    2    0    0  0.00000000000E+00  0.00000000000E+00  0.11835904841E+04  0.13385848053E+04  0.62523823227E+03 0.  0.
        4    1    3    3  502    0  0.73704107400E+02 -0.21162747535E+03  0.12514049191E+03  0.25667146196E+03  0.12699999809E+01 0. -1.
       -4    1    3    3    0  502 -0.73704107400E+02  0.21162747535E+03  0.10584499921E+04  0.10819133434E+04  0.12699999809E+01 0.  1.
</event>
<event>
 5   0  0.3724066E-02  0.5987448E+03  0.7818609E-02  0.9908014E-01
       -2   -1    0    0    0  501  0.00000000000E+00  0.00000000000E+00  0.38966826949E+02  0.38966827032E+02  0.25500000920E-02 0. -1.
        2   -1    0    0  501    0  0.00000000000E+00  0.00000000000E+00 -0.23000037572E+04  0.23000037572E+04  0.25500000920E-02 0.  1.
    10030    2    1    2    0    0  0.00000000000E+00  0.00000000000E+00 -0.22610369303E+04  0.23389705842E+04  0.59874484879E+03 0.  0.
        4    1    3    3  502    0  0.12644930281E+03  0.61367901740E+02 -0.97951170413E+02  0.17132276624E+03  0.12699999809E+01 0. -1.
       -4    1    3    3    0  502 -0.12644930281E+03 -0.61367901740E+02 -0.21630857598E+04  0.21676478180E+04  0.12699999809E+01 0.  1.
</event>
<event>
 5   0  0.2382531E-02  0.6031669E+03  0.7818609E-02  0.9898857E-01
        1   -1    0    0  501    0  0.00000000000E+00  0.00000000000E+00  0.76524258984E+03  0.76524258986E+03  0.50400001928E-02 0.  1.
       -1   -1    0    0    0  501  0.00000000000E+00  0.00000000000E+00 -0.11885458576E+03  0.11885458587E+03  0.50400001928E-02 0. -1.
    10030    2    1    2    0    0  0.00000000000E+00  0.00000000000E+00  0.64638800408E+03  0.88409717572E+03  0.60316694563E+03 0.  0.
        5    1    3    3  502    0  0.33293484560E+02  0.10270989879E+03  0.73588439033E+03  0.74377799467E+03  0.46999998093E+01 0.  1.
       -5    1    3    3    0  502 -0.33293484560E+02 -0.10270989879E+03 -0.89496386246E+02  0.14031918106E+03  0.46999998093E+01 0. -1.
</event>
<event>
 5   0  0.2276105E-02  0.6113246E+03  0.7818609E-02  0.9882186E-01
        1   -1    0    0  501    0  0.00000000000E+00  0.00000000000E+00  0.17998575849E+04  0.17998575849E+04  0.50400001928E-02 0. -1.
       -1   -1    0    0    0  501  0.00000000000E+00  0.00000000000E+00 -0.51909356716E+02  0.51909356960E+02  0.50400001928E-02 0.  1.
    10030    2    1    2    0    0  0.00000000000E+00  0.00000000000E+00  0.17479482282E+04  0.18517669419E+04  0.61132462619E+03 0.  0.
        1    1    3    3  502    0 -0.25346837792E+03 -0.42112554474E+02  0.37247856597E+03  0.45250410825E+03  0.50400001928E-02 0.  1.
       -1    1    3    3    0  502  0.25346837792E+03  0.42112554474E+02  0.13754696622E+04  0.13992628336E+04  0.50400001928E-02 0. -1.
</event>
<event>
 5   0  0.1521750E-02  0.6009925E+03  0.7818609E-02  0.9903349E-01
       -3   -1    0    0    0  501  0.00000000000E+00  0.00000000000E+00  0.50686407344E+03  0.50686408351E+03  0.10100000352E+00 0. -1.
        3   -1    0    0  501    0  0.00000000000E+00  0.00000000000E+00 -0.17815026740E+03  0.17815029603E+03  0.10100000352E+00 0.  1.
    10030    2    1    2    0    0  0.00000000000E+00  0.00000000000E+00  0.32871380604E+03  0.68501437954E+03  0.60099245744E+03 0.  0.
        2    1    3    3  502    0 -0.16429996679E+03  0.79414558883E+02 -0.10776031735E+03  0.21192790579E+03  0.25500000920E-02 0.  1.
       -2    1    3    3    0  502  0.16429996679E+03 -0.79414558883E+02  0.43647412339E+03  0.47308647375E+03  0.25500000920E-02 0. -1.
</event>
<event>
 5   0  0.3832191E-02  0.5976402E+03  0.7818609E-02  0.9910314E-01
        2   -1    0    0  501    0  0.00000000000E+00  0.00000000000E+00  0.44364611866E+03  0.44364611867E+03  0.25500000920E-02 0.  1.
       -2   -1    0    0    0  501  0.00000000000E+00  0.00000000000E+00 -0.20127178846E+03  0.20127178848E+03  0.25500000920E-02 0. -1.
    10030    2    1    2    0    0  0.00000000000E+00  0.00000000000E+00  0.24237433020E+03  0.64491790714E+03  0.59764018524E+03 0.  0.
        3    1    3    3  502    0  0.12344866627E+03  0.25541622020E+03  0.22251079745E+03  0.36053860255E+03  0.10100000352E+00 0.  1.
       -3    1    3    3    0  502 -0.12344866627E+03 -0.25541622020E+03  0.19863532746E+02  0.28437930459E+03  0.10100000352E+00 0. -1.
</event>
<event>
 5   0  0.1521750E-02  0.5957630E+03  0.7818609E-02  0.9914236E-01
       -3   -1    0    0    0  501  0.00000000000E+00  0.00000000000E+00  0.15276767384E+03  0.15276770723E+03  0.10100000352E+00 0. -1.
        3   -1    0    0  501    0  0.00000000000E+00  0.00000000000E+00 -0.58083860105E+03  0.58083860983E+03  0.10100000352E+00 0.  1.
    10030    2    1    2    0    0  0.00000000000E+00  0.00000000000E+00 -0.42807092721E+03  0.73360631707E+03  0.59576296437E+03 0.  0.
        4    1    3    3  502    0  0.69035339533E+02  0.69622445166E+02  0.13232543824E+03  0.16469607609E+03  0.12699999809E+01 0. -1.
       -4    1    3    3    0  502 -0.69035339533E+02 -0.69622445166E+02 -0.56039636545E+03  0.56891024097E+03  0.12699999809E+01 0.  1.
</event>
<event>
 5   0  0.3934634E-02  0.6000597E+03  0.7818609E-02  0.9905282E-01
        2   -1    0    0  501    0  0.00000000000E+00  0.00000000000E+00  0.33010639642E+03  0.33010639643E+03  0.25500000920E-02 0. -1.
       -2   -1    0    0    0  501  0.00000000000E+00  0.00000000000E+00 -0.27269361835E+03  0.27269361836E+03  0.25500000920E-02 0.  1.
    10030    2    1    2    0    0  0.00000000000E+00  0.00000000000E+00  0.57412778075E+02  0.60280001479E+03  0.60005968932E+03 0.  0.
        1    1    3    3  502    0  0.22529340438E+03 -0.10022679223E+03 -0.14299925435E+03  0.28504616241E+03  0.50400001928E-02 0.  1.
       -1    1    3    3    0  502 -0.22529340438E+03  0.10022679223E+03  0.20041203242E+03  0.31775385238E+03  0.50400001928E-02 0. -1.
</event>
<event>
 5   0  0.1521750E-02  0.5995980E+03  0.7818609E-02  0.9906240E-01
       -4   -1    0    0    0  501  0.00000000000E+00  0.00000000000E+00  0.32471827888E+03  0.32472076241E+03  0.12699999809E+01 0. -1.
        4   -1    0    0  501    0  0.00000000000E+00  0.00000000000E+00 -0.27678705117E+03  0.27678996477E+03  0.12699999809E+01 0.  1.
    10030    2    1    2    0    0  0.00000000000E+00  0.00000000000E+00  0.47931227706E+02  0.60151072718E+03  0.59959799226E+03 0.  0.
        1    1    3    3  502    0  0.22508691033E+02 -0.11191231615E+03 -0.25413420606E+03  0.27859505091E+03  0.50400001928E-02 0.  1.
       -1    1    3    3    0  502 -0.22508691033E+02  0.11191231615E+03  0.30206543376E+03  0.32291567627E+03  0.50400001928E-02 0. -1.
</event>
<event>
 5   0  0.2276105E-02  0.6021811E+03  0.7818609E-02  0.9900891E-01
        1   -1    0    0  501    0  0.00000000000E+00  0.00000000000E+00  0.39801002870E+03  0.39801002873E+03  0.50400001928E-02 0.  1.
       -1   -1    0    0    0  501  0.00000000000E+00  0.00000000000E+00 -0.22777197156E+03  0.22777197162E+03  0.50400001928E-02 0. -1.
    10030    2    1    2    0    0  0.00000000000E+00  0.00000000000E+00  0.17023805714E+03  0.62578200035E+03  0.60218113210E+03 0.  0.
        1    1    3    3  502    0  0.11181100819E+03  0.12760396525E+03  0.34360661156E+03  0.38321009516E+03  0.50400001928E-02 0.  1.
       -1    1    3    3    0  502 -0.11181100819E+03 -0.12760396525E+03 -0.17336855442E+03  0.24257190519E+03  0.50400001928E-02 0. -1.
</event>
<event>
 5   0  0.2225808E-02  0.6000094E+03  0.7818609E-02  0.9905387E-01
       -1   -1    0    0    0  501  0.00000000000E+00  0.00000000000E+00  0.96791143608E+03  0.96791143609E+03  0.50400001928E-02 0.  1.
        1   -1    0    0  501    0  0.00000000000E+00  0.00000000000E+00 -0.92986632941E+02  0.92986633077E+02  0.50400001928E-02 0. -1.
    10030    2    1    2    0    0  0.00000000000E+00  0.00000000000E+00  0.87492480314E+03  0.10608980692E+04  0.60000941828E+03 0.  0.
        2    1    3    3  502    0 -0.15239521224E+03 -0.22742446372E+03  0.65442236412E+03  0.70937635856E+03  0.25500000920E-02 0. -1.
       -2    1    3    3    0  502  0.15239521224E+03  0.22742446372E+03  0.22050243902E+03  0.35152171061E+03  0.25500000920E-02 0.  1.
</event>
<event>
 5   0  0.3832191E-02  0.5986485E+03  0.7818609E-02  0.9908214E-01
        2   -1    0    0  501    0  0.00000000000E+00  0.00000000000E+00  0.22196432762E+03  0.22196432763E+03  0.25500000920E-02 0. -1.
       -2   -1    0    0    0  501  0.00000000000E+00  0.00000000000E+00 -0.40364598735E+03  0.40364598736E+03  0.25500000920E-02 0.  1.
    10030    2    1    2    0    0  0.00000000000E+00  0.00000000000E+00 -0.18168165973E+03  0.62561031499E+03  0.59864851185E+03 0.  0.
        3    1    3    3  502    0 -0.17195697973E+03 -0.16152007352E+03 -0.28335784541E+03  0.36871346027E+03  0.10100000352E+00 0.  1.
       -3    1    3    3    0  502  0.17195697973E+03  0.16152007352E+03  0.10167618568E+03  0.25689685472E+03  0.10100000352E+00 0. -1.
</event>
<event>
 5   0  0.2225808E-02  0.6196326E+03  0.7818609E-02  0.9865491E-01
        1   -1    0    0  501    0  0.00000000000E+00  0.00000000000E+00  0.45576609782E+03  0.45576609785E+03  0.50400001928E-02 0. -1.
       -1   -1    0    0    0  501  0.00000000000E+00  0.00000000000E+00 -0.21060396461E+03  0.21060396467E+03  0.50400001928E-02 0.  1.
    10030    2    1    2    0    0  0.00000000000E+00  0.00000000000E+00  0.24516213321E+03  0.66637006252E+03  0.61963262395E+03 0.  0.
        2    1    3    3  502    0  0.28375512557E+02 -0.24569538996E+03  0.32324201476E+03  0.40700957541E+03  0.25500000920E-02 0. -1.
       -2    1    3    3    0  502 -0.28375512557E+02  0.24569538996E+03 -0.78079881557E+02  0.25936048711E+03  0.25500000920E-02 0.  1.
</event>
<event>
 5   0  0.3724066E-02  0.6034782E+03  0.7818609E-02  0.9898216E-01
        2   -1    0    0  501    0  0.00000000000E+00  0.00000000000E+00  0.14674931854E+04  0.14674931854E+04  0.25500000920E-02 0.  1.
       -2   -1    0    0    0  501  0.00000000000E+00  0.00000000000E+00 -0.62042195193E+02  0.62042195245E+02  0.25500000920E-02 0. -1.
    10030    2    1    2    0    0  0.00000000000E+00  0.00000000000E+00  0.14054509902E+04  0.15295353807E+04  0.60347824715E+03 0.  0.
        4    1    3    3  502    0  0.25689823189E+03 -0.13765087020E+03  0.90068568100E+03  0.94666824837E+03  0.12699999809E+01 0. -1.
       -4    1    3    3    0  502 -0.25689823189E+03  0.13765087020E+03  0.50476530923E+03  0.58286713230E+03  0.12699999809E+01 0.  1.
</event>
<event>
 5   0  0.2295179E-02  0.5984255E+03  0.7818609E-02  0.9908678E-01
       -1   -1    0    0    0  501  0.00000000000E+00  0.00000000000E+00  0.32694548629E+03  0.32694548633E+03  0.50400001928E-02 0. -1.
        1   -1    0    0  501    0  0.00000000000E+00  0.00000000000E+00 -0.27383243236E+03  0.27383243241E+03  0.50400001928E-02 0.  1.
    10030    2    1    2    0    0  0.00000000000E+00  0.00000000000E+00  0.53113053931E+02  0.60077791874E+03  0.59842552681E+03 0.  0.
        3    1    3    3  502    0  0.11765787470E+03  0.26794672714E+03  0.89167086642E+02  0.30592417950E+03  0.10100000352E+00 0. -1.
       -3    1    3    3    0  502 -0.11765787470E+03 -0.26794672714E+03 -0.36054032712E+02  0.29485373923E+03  0.10100000352E+00 0.  1.
</event>
<event>
 5   0  0.2276105E-02  0.5983473E+03  0.7818609E-02  0.9908841E-01
       -1   -1    0    0    0  501  0.00000000000E+00  0.00000000000E+00  0.17132320851E+03  0.17132320858E+03  0.50400001928E-02 0. -1.
        1   -1    0    0  501    0  0.00000000000E+00  0.00000000000E+00 -0.52243279453E+03  0.52243279456E+03  0.50400001928E-02 0.  1.
    10030    2    1    2    0    0  0.00000000000E+00  0.00000000000E+00 -0.35110958602E+03  0.69375600314E+03  0.59834726580E+03 0.  0.
        1    1    3    3  502    0 -0.20147149254E+01 -0.14022379184E+03 -0.48196245806E+03  0.50195077635E+03  0.50400001928E-02 0.  1.
       -1    1    3    3    0  502  0.20147149254E+01  0.14022379184E+03  0.13085287204E+03  0.19180522678E+03  0.50400001928E-02 0. -1.
</event>
<event>
 5   0  0.3724066E-02  0.5946298E+03  0.7818609E-02  0.9916611E-01
        2   -1    0    0  501    0  0.00000000000E+00  0.00000000000E+00  0.10446185214E+04  0.10446185214E+04  0.25500000920E-02 0. -1.
       -2   -1    0    0    0  501  0.00000000000E+00  0.00000000000E+00 -0.84620500106E+02  0.84620500144E+02  0.25500000920E-02 0.  1.
    10030    2    1    2    0    0  0.00000000000E+00  0.00000000000E+00  0.95999802125E+03  0.11292390215E+04  0.59462977295E+03 0.  0.
        4    1    3    3  502    0  0.18981045047E+03 -0.88151585266E+02  0.78960293617E+02  0.22368515811E+03  0.12699999809E+01 0.  1.
       -4    1    3    3    0  502 -0.18981045047E+03  0.88151585266E+02  0.88103772763E+03  0.90555386339E+03  0.12699999809E+01 0. -1.
</event>
<event>
 5   0  0.3737642E-02  0.5989207E+03  0.7818609E-02  0.9907648E-01
       -2   -1    0    0    0  501  0.00000000000E+00  0.00000000000E+00  0.67224396850E+02  0.67224396899E+02  0.25500000920E-02 0.  1.
        2   -1    0    0  501    0  0.00000000000E+00  0.00000000000E+00 -0.13339875094E+04  0.13339875094E+04  0.25500000920E-02 0. -1.
    10030    2    1    2    0    0  0.00000000000E+00  0.00000000000E+00 -0.12667631125E+04  0.14012119063E+04  0.59892071516E+03 0.  0.
        5    1    3    3  502    0  0.10577150422E+03 -0.17503636968E+03 -0.11450403829E+04  0.11631701983E+04  0.46999998093E+01 0. -1.
       -5    1    3    3    0  502 -0.10577150422E+03  0.17503636968E+03 -0.12172272963E+03  0.23804170795E+03  0.46999998093E+01 0.  1.
</event>
<event>
 5   0  0.1521750E-02  0.5935440E+03  0.7818609E-02  0.9918891E-01
       -4   -1    0    0    0  501  0.00000000000E+00  0.00000000000E+00  0.33283446625E+03  0.33283688921E+03  0.12699999809E+01 0. -1.
        4   -1    0    0  501    0  0.00000000000E+00  0.00000000000E+00 -0.26461196185E+03  0.26461500951E+03  0.12699999809E+01 0.  1.
    10030    2    1    2    0    0  0.00000000000E+00  0.00000000000E+00  0.68222504392E+02  0.59745189872E+03  0.59354398420E+03 0.  0.
        5    1    3    3  502    0 -0.80856942524E+02 -0.18444865213E+03 -0.18525104307E+03  0.27367716270E+03  0.46999998093E+01 0.  1.
       -5    1    3    3    0  502  0.80856942524E+02  0.18444865213E+03  0.25347354746E+03  0.32377473602E+03  0.46999998093E+01 0. -1.
</event>
<event>
 5   0  0.2225808E-02  0.6322169E+03  0.7818609E-02  0.9840732E-01
        1   -1    0    0  501    0  0.00000000000E+00  0.00000000000E+00  0.38889340041E+03  0.38889340044E+03  0.50400001928E-02 0. -1.
       -1   -1    0    0    0  501  0.00000000000E+00  0.00000000000E+00 -0.25694590135E+03  0.25694590140E+03  0.50400001928E-02 0.  1.
    10030    2    1    2    0    0  0.00000000000E+00  0.00000000000E+00  0.13194749906E+03  0.64583930184E+03  0.63221694164E+03 0.  0.
        2    1    3    3  502    0 -0.12436748044E+03  0.44882581169E+02  0.35928912983E+03  0.38284513201E+03  0.25500000920E-02 0. -1.
       -2    1    3    3    0  502  0.12436748044E+03 -0.44882581169E+02 -0.22734163076E+03  0.26299416983E+03  0.25500000920E-02 0.  1.
</event>
<event>
 5   0  0.2276105E-02  0.5994715E+03  0.7818609E-02  0.9906503E-01
        1   -1    0    0  501    0  0.00000000000E+00  0.00000000000E+00  0.20271918264E+03  0.20271918271E+03  0.50400001928E-02 0.  1.
       -1   -1    0    0    0  501  0.00000000000E+00  0.00000000000E+00 -0.44318208192E+03  0.44318208195E+03  0.50400001928E-02 0. -1.
    10030    2    1    2    0    0  0.00000000000E+00  0.00000000000E+00 -0.24046289927E+03  0.64590126465E+03  0.59947146534E+03 0.  0.
        1    1    3    3  502    0 -0.21321077065E+03 -0.21031944477E+03 -0.13335725768E+03  0.32783724586E+03  0.50400001928E-02 0. -1.
       -1    1    3    3    0  502  0.21321077065E+03  0.21031944477E+03 -0.10710564159E+03  0.31806401880E+03  0.50400001928E-02 0.  1.
</event>
<event>
 5   0  0.2382531E-02  0.6004542E+03  0.7818609E-02  0.9904464E-01
       -1   -1    0    0    0  501  0.00000000000E+00  0.00000000000E+00  0.12057387881E+03  0.12057387891E+03  0.50400001928E-02 0. -1.
        1   -1    0    0  501    0  0.00000000000E+00  0.00000000000E+00 -0.74756081884E+03  0.74756081885E+03  0.50400001928E-02 0.  1.
    10030    2    1    2    0    0  0.00000000000E+00  0.00000000000E+00 -0.62698694003E+03  0.86813469777E+03  0.60045418685E+03 0.  0.
        5    1    3    3  502    0  0.16421590793E+03  0.31036598658E+02  0.47041050079E+02  0.17368098706E+03  0.46999998093E+01 0. -1.
       -5    1    3    3    0  502 -0.16421590793E+03 -0.31036598658E+02 -0.67402799011E+03  0.69445371071E+03  0.46999998093E+01 0.  1.
</event>
<event>
 5   0  0.2295179E-02  0.5964362E+03  0.7818609E-02  0.9912828E-01
        1   -1    0    0  501    0  0.00000000000E+00  0.00000000000E+00  0.19987658446E+04  0.19987658446E+04  0.50400001928E-02 0.  1.
       -1   -1    0    0    0  501  0.00000000000E+00  0.00000000000E+00 -0.44494472606E+02  0.44494472892E+02  0.50400001928E-02 0. -1.
    10030    2    1    2    0    0  0.00000000000E+00  0.00000000000E+00  0.19542713720E+04  0.20432603175E+04  0.59643619077E+03 0.  0.
        3    1    3    3  502    0 -0.13760717770E+03 -0.13384378519E+03  0.19530554082E+03  0.27385061378E+03  0.10100000352E+00 0. -1.
       -3    1    3    3    0  502  0.13760717770E+03  0.13384378519E+03  0.17589658311E+04  0.17694097037E+04  0.10100000352E+00 0.  1.
</event>
<event>
 5   0  0.3934634E-02  0.5984752E+03  0.7818609E-02  0.9908575E-01
       -2   -1    0    0    0  501  0.00000000000E+00  0.00000000000E+00  0.99419725954E+02  0.99419725987E+02  0.25500000920E-02 0. -1.
        2   -1    0    0  501    0  0.00000000000E+00  0.00000000000E+00 -0.90065777598E+03  0.90065777598E+03  0.25500000920E-02 0.  1.
    10030    2    1    2    0    0  0.00000000000E+00  0.00000000000E+00 -0.80123805002E+03  0.10000775020E+04  0.59847522684E+03 0.  0.
        1    1    3    3  502    0 -0.73156748175E+02  0.28443897405E+03 -0.49640503013E+03  0.57678019533E+03  0.50400001928E-02 0. -1.
       -1    1    3    3    0  502  0.73156748175E+02 -0.28443897405E+03 -0.30483301989E+03  0.42329730663E+03  0.50400001928E-02 0.  1.
</event>
<event>
 5   0  0.2295179E-02  0.6019365E+03  0.7818609E-02  0.9901396E-01
        1   -1    0    0  501    0  0.00000000000E+00  0.00000000000E+00  0.23892290626E+03  0.23892290632E+03  0.50400001928E-02 0.  1.
       -1   -1    0    0    0  501  0.00000000000E+00  0.00000000000E+00 -0.37912606226E+03  0.37912606230E+03  0.50400001928E-02 0. -1.
    10030    2    1    2    0    0  0.00000000000E+00  0.00000000000E+00 -0.14020315600E+03  0.61804896862E+03  0.60193654371E+03 0.  0.
        3    1    3    3  502    0 -0.54624333609E+02 -0.27558526993E+03  0.40726713686E+02  0.28388331094E+03  0.10100000352E+00 0.  1.
       -3    1    3    3    0  502  0.54624333609E+02  0.27558526993E+03 -0.18092986969E+03  0.33416565767E+03  0.10100000352E+00 0. -1.
</event>
<event>
 5   0  0.2276105E-02  0.5993286E+03  0.7818609E-02  0.9906800E-01
        1   -1    0    0  501    0  0.00000000000E+00  0.00000000000E+00  0.33251261400E+03  0.33251261404E+03  0.50400001928E-02 0. -1.
       -1   -1    0    0    0  501  0.00000000000E+00  0.00000000000E+00 -0.27006097796E+03  0.27006097800E+03  0.50400001928E-02 0.  1.
    10030    2    1    2    0    0  0.00000000000E+00  0.00000000000E+00  0.62451636045E+02  0.60257359204E+03  0.59932856346E+03 0.  0.
        1    1    3    3  502    0  0.59198915472E+02  0.48989085462E+01 -0.26408234182E+03  0.27068061287E+03  0.50400001928E-02 0.  1.
       -1    1    3    3    0  502 -0.59198915472E+02 -0.48989085462E+01  0.32653397786E+03  0.33189297917E+03  0.50400001928E-02 0. -1.
</event>
<event>
 5   0  0.2276105E-02  0.6008754E+03  0.7818609E-02  0.9903592E-01
       -1   -1    0    0    0  501  0.00000000000E+00  0.00000000000E+00  0.14655388114E+03  0.14655388123E+03  0.50400001928E-02 0. -1.
        1   -1    0    0  501    0  0.00000000000E+00  0.00000000000E+00 -0.61590188486E+03  0.61590188488E+03  0.50400001928E-02 0.  1.
    10030    2    1    2    0    0  0.00000000000E+00  0.00000000000E+00 -0.46934800371E+03  0.76245576610E+03  0.60087540029E+03 0.  0.
        1    1    3    3  502    0  0.11001099531E+03 -0.17091460820E+03  0.46063427238E+02  0.20841319954E+03  0.50400001928E-02 0. -1.
       -1    1    3    3    0  502 -0.11001099531E+03  0.17091460820E+03 -0.51541143095E+03  0.55404256657E+03  0.50400001928E-02 0.  1.
</event>
<event>
 5   0  0.2225808E-02  0.5981806E+03  0.7818609E-02  0.9909188E-01
       -1   -1    0    0    0  501  0.00000000000E+00  0.00000000000E+00  0.83150984394E+02  0.83150984547E+02  0.50400001928E-02 0. -1.
        1   -1    0    0  501    0  0.00000000000E+00  0.00000000000E+00 -0.10758140557E+04  0.10758140557E+04  0.50400001928E-02 0.  1.
    10030    2    1    2    0    0  0.00000000000E+00  0.00000000000E+00 -0.99266307126E+03  0.11589650402E+04  0.59818056755E+03 0.  0.
        2    1    3    3  502    0 -0.19613866409E+03  0.22190157759E+03 -0.57725046705E+03  0.64879024916E+03  0.25500000920E-02 0. -1.
       -2    1    3    3    0  502  0.19613866409E+03 -0.22190157759E+03 -0.41541260421E+03  0.51017479105E+03  0.25500000920E-02 0.  1.
</event>
<event>
 5   0  0.2295179E-02  0.5921321E+03  0.7818609E-02  0.9921865E-01
       -1   -1    0    0    0  501  0.00000000000E+00  0.00000000000E+00  0.95726308738E+02  0.95726308870E+02  0.50400001928E-02 0.  1.
        1   -1    0    0  501    0  0.00000000000E+00  0.00000000000E+00 -0.91568466792E+03  0.91568466793E+03  0.50400001928E-02 0. -1.
    10030    2    1    2    0    0  0.00000000000E+00  0.00000000000E+00 -0.81995835918E+03  0.10114109768E+04  0.59213212479E+03 0.  0.
        3    1    3    3  502    0 -0.12163506642E+03  0.22218448173E+03 -0.14816801252E+03  0.29345323893E+03  0.10100000352E+00 0.  1.
       -3    1    3    3    0  502  0.12163506642E+03 -0.22218448173E+03 -0.67179034666E+03  0.71795773788E+03  0.10100000352E+00 0. -1.
</event>
<event>
 5   0  0.3934634E-02  0.6001476E+03  0.7818609E-02  0.9905100E-01
        2   -1    0    0  501    0  0.00000000000E+00  0.00000000000E+00  0.13887150999E+04  0.13887150999E+04  0.25500000920E-02 0.  1.
       -2   -1    0    0    0  501  0.00000000000E+00  0.00000000000E+00 -0.64839996423E+02  0.64839996473E+02  0.25500000920E-02 0. -1.
    10030    2    1    2    0    0  0.00000000000E+00  0.00000000000E+00  0.13238751035E+04  0.14535550964E+04  0.60014758901E+03 0.  0.
        1    1    3    3  502    0  0.27867432661E+03  0.32145592854E+02  0.91998600365E+03  0.96180401662E+03  0.50400001928E-02 0. -1.
       -1    1    3    3    0  502 -0.27867432661E+03 -0.32145592854E+02  0.40388909982E+03  0.49175107975E+03  0.50400001928E-02 0.  1.
</event>
<event>
 5   0  0.3832191E-02  0.5947126E+03  0.7818609E-02  0.9916437E-01
       -2   -1    0    0    0  501  0.00000000000E+00  0.00000000000E+00  0.74777842324E+02  0.74777842368E+02  0.25500000920E-02 0.  1.
        2   -1    0    0  501    0  0.00000000000E+00  0.00000000000E+00 -0.11824461483E+04  0.11824461483E+04  0.25500000920E-02 0. -1.
    10030    2    1    2    0    0  0.00000000000E+00  0.00000000000E+00 -0.11076683060E+04  0.12572239907E+04  0.59471260846E+03 0.  0.
        3    1    3    3  502    0  0.28803486582E+02  0.12304081254E+03 -0.11228586190E+04  0.11299469771E+04  0.10100000352E+00 0. -1.
       -3    1    3    3    0  502 -0.28803486582E+02 -0.12304081254E+03  0.15190313045E+02  0.12727701364E+03  0.10100000352E+00 0.  1.
</event>
<event>
 5   0  0.2295179E-02  0.6011455E+03  0.7818609E-02  0.9903032E-01
        1   -1    0    0  501    0  0.00000000000E+00  0.00000000000E+00  0.20446450319E+04  0.20446450319E+04  0.50400001928E-02 0.  1.
       -1   -1    0    0    0  501  0.00000000000E+00  0.00000000000E+00 -0.44185648624E+02  0.44185648912E+02  0.50400001928E-02 0. -1.
    10030    2    1    2    0    0  0.00000000000E+00  0.00000000000E+00  0.20004593833E+04  0.20888306809E+04  0.60114546409E+03 0.  0.
        3    1    3    3  502    0 -0.50788556533E+02  0.27048547116E+03  0.58034391276E+03  0.64229349589E+03  0.10100000352E+00 0.  1.
       -3    1    3    3    0  502  0.50788556533E+02 -0.27048547116E+03  0.14201154706E+04  0.14465371850E+04  0.10100000352E+00 0. -1.
</event>
<event>
 5   0  0.1521750E-02  0.5990904E+03  0.7818609E-02  0.9907295E-01
        4   -1    0    0  501    0  0.00000000000E+00  0.00000000000E+00  0.58070685483E+02  0.58084571208E+02  0.12699999809E+01 0.  1.
       -4   -1    0    0    0  501  0.00000000000E+00  0.00000000000E+00 -0.15449408149E+04  0.15449413369E+04  0.12699999809E+01 0. -1.
    10030    2    1    2    0    0  0.00000000000E+00  0.00000000000E+00 -0.14868701295E+04  0.16030259081E+04  0.59909037741E+03 0.  0.
        2    1    3    3  502    0  0.21911318987E+02  0.43489903474E+02 -0.15342851681E+04  0.15350578017E+04  0.25500000920E-02 0. -1.
       -2    1    3    3    0  502 -0.21911318987E+02 -0.43489903474E+02  0.47415038594E+02  0.67968106457E+02  0.25500000920E-02 0.  1.
</event>
<event>
 5   0  0.2225808E-02  0.6003092E+03  0.7818609E-02  0.9904765E-01
        1   -1    0    0  501    0  0.00000000000E+00  0.00000000000E+00  0.15560831526E+03  0.15560831534E+03  0.50400001928E-02 0. -1.
       -1   -1    0    0    0  501  0.00000000000E+00  0.00000000000E+00 -0.57897156291E+03  0.57897156293E+03  0.50400001928E-02 0.  1.
    10030    2    1    2    0    0  0.00000000000E+00  0.00000000000E+00 -0.42336324765E+03  0.73457987827E+03  0.60030921873E+03 0.  0.
        2    1    3    3  502    0 -0.13246508077E+03  0.35040564845E+02  0.11510437653E+03  0.17895210619E+03  0.25500000920E-02 0. -1.
       -2    1    3    3    0  502  0.13246508077E+03 -0.35040564845E+02 -0.53846762418E+03  0.55562777208E+03  0.25500000920E-02 0.  1.
</event>
<event>
 5   0  0.2225808E-02  0.6008705E+03  0.7818609E-02  0.9903602E-01
       -1   -1    0    0    0  501  0.00000000000E+00  0.00000000000E+00  0.24002358918E+03  0.24002358923E+03  0.50400001928E-02 0.  1.
        1   -1    0    0  501    0  0.00000000000E+00  0.00000000000E+00 -0.37605199062E+03  0.37605199066E+03  0.50400001928E-02 0. -1.
    10030    2    1    2    0    0  0.00000000000E+00  0.00000000000E+00 -0.13602840144E+03  0.61607557989E+03  0.60087053026E+03 0.  0.
        2    1    3    3  502    0  0.22726495133E+03 -0.33589271793E+02 -0.26652064652E+03  0.35186766307E+03  0.25500000920E-02 0. -1.
       -2    1    3    3    0  502 -0.22726495133E+03  0.33589271793E+02  0.13049224508E+03  0.26420791683E+03  0.25500000920E-02 0.  1.
</event>
<event>
 5   0  0.2276105E-02  0.5987761E+03  0.7818609E-02  0.9907948E-01
       -1   -1    0    0    0  501  0.00000000000E+00  0.00000000000E+00  0.15056340231E+03  0.15056340239E+03  0.50400001928E-02 0.  1.
        1   -1    0    0  501    0  0.00000000000E+00  0.00000000000E+00 -0.59531873269E+03  0.59531873271E+03  0.50400001928E-02 0. -1.
    10030    2    1    2    0    0  0.00000000000E+00  0.00000000000E+00 -0.44475533039E+03  0.74588213510E+03  0.59877613142E+03 0.  0.
        1    1    3    3  502    0 -0.26886258364E+03 -0.47647866200E+02 -0.69428893730E+02  0.28174062423E+03  0.50400001928E-02 0.  1.
       -1    1    3    3    0  502  0.26886258364E+03  0.47647866200E+02 -0.37532643666E+03  0.46414151087E+03  0.50400001928E-02 0. -1.
</event>
<event>
 5   0  0.2295179E-02  0.5908218E+03  0.7818609E-02  0.9924633E-01
        1   -1    0    0  501    0  0.00000000000E+00  0.00000000000E+00  0.21715728373E+03  0.21715728378E+03  0.50400001928E-02 0. -1.
       -1   -1    0    0    0  501  0.00000000000E+00  0.00000000000E+00 -0.40186353350E+03  0.40186353354E+03  0.50400001928E-02 0.  1.
    10030    2    1    2    0    0  0.00000000000E+00  0.00000000000E+00 -0.18470624978E+03  0.61902081732E+03  0.59082177818E+03 0.  0.
        3    1    3    3  502    0 -0.13577714972E+03  0.20219970156E+03  0.82800727413E+02  0.25724720476E+03  0.10100000352E+00 0. -1.
       -3    1    3    3    0  502  0.13577714972E+03 -0.20219970156E+03 -0.26750697719E+03  0.36177361256E+03  0.10100000352E+00 0.  1.
</event>
<event>
 5   0  0.3737642E-02  0.5934926E+03  0.7818609E-02  0.9919000E-01
        2   -1    0    0  501    0  0.00000000000E+00  0.00000000000E+00  0.96483267478E+03  0.96483267478E+03  0.25500000920E-02 0.  1.
       -2   -1    0    0    0  501  0.00000000000E+00  0.00000000000E+00 -0.91268008106E+02  0.91268008142E+02  0.25500000920E-02 0. -1.
    10030    2    1    2    0    0  0.00000000000E+00  0.00000000000E+00  0.87356466667E+03  0.10561006829E+04  0.59349256576E+03 0.  0.
        5    1    3    3  502    0  0.12405318422E+03  0.15103483244E+03  0.83402847005E+03  0.85663661606E+03  0.46999998093E+01 0.  1.
       -5    1    3    3    0  502 -0.12405318422E+03 -0.15103483244E+03  0.39536196624E+02  0.19946406686E+03  0.46999998093E+01 0. -1.
</event>
<event>
 5   0  0.3724066E-02  0.5975513E+03  0.7818609E-02  0.9910499E-01
       -2   -1    0    0    0  501  0.00000000000E+00  0.00000000000E+00  0.13371233430E+03  0.13371233432E+03  0.25500000920E-02 0. -1.
        2   -1    0    0  501    0  0.00000000000E+00  0.00000000000E+00 -0.66760403256E+03  0.66760403256E+03  0.25500000920E-02 0.  1.
    10030    2    1    2    0    0  0.00000000000E+00  0.00000000000E+00 -0.53389169826E+03  0.80131636689E+03  0.59755131526E+03 0.  0.
        4    1    3    3  502    0  0.20727557658E+03 -0.32036653798E+02 -0.55228523599E+03  0.59077077334E+03  0.12699999809E+01 0.  1.
       -4    1    3    3    0  502 -0.20727557658E+03  0.32036653798E+02  0.18393537733E+02  0.21054559355E+03  0.12699999809E+01 0. -1.
</event>
<event>
 5   0  0.2382531E-02  0.5990840E+03  0.7818609E-02  0.9907308E-01
       -1   -1    0    0    0  501  0.00000000000E+00  0.00000000000E+00  0.97328979409E+02  0.97328979539E+02  0.50400001928E-02 0. -1.
        1   -1    0    0  501    0  0.00000000000E+00  0.00000000000E+00 -0.92187770006E+03  0.92187770007E+03  0.50400001928E-02 0.  1.
    10030    2    1    2    0    0  0.00000000000E+00  0.00000000000E+00 -0.82454872065E+03  0.10192066796E+04  0.59908402002E+03 0.  0.
        5    1    3    3  502    0  0.46373308428E+02  0.21852697431E+02 -0.91429551663E+03  0.91574363544E+03  0.46999998093E+01 0.  1.
       -5    1    3    3    0  502 -0.46373308428E+02 -0.21852697431E+02  0.89746795988E+02  0.10346304416E+03  0.46999998093E+01 0. -1.
</event>
<event>
 5   0  0.2382531E-02  0.6058100E+03  0.7818609E-02  0.9893425E-01
       -1   -1    0    0    0  501  0.00000000000E+00  0.00000000000E+00  0.15470617988E+03  0.15470617996E+03  0.50400001928E-02 0.  1.
        1   -1    0    0  501    0  0.00000000000E+00  0.00000000000E+00 -0.59306901094E+03  0.59306901096E+03  0.50400001928E-02 0. -1.
    10030    2    1    2    0    0  0.00000000000E+00  0.00000000000E+00 -0.43836283106E+03  0.74777519092E+03  0.60581000693E+03 0.  0.
        5    1    3    3  502    0  0.25467810289E+02 -0.16132584675E+03  0.95647049501E+02  0.18932798596E+03  0.46999998093E+01 0.  1.
       -5    1    3    3    0  502 -0.25467810289E+02  0.16132584675E+03 -0.53400988056E+03  0.55844720496E+03  0.46999998093E+01 0. -1.
</event>
<event>
 5   0  0.3934634E-02  0.6006185E+03  0.7818609E-02  0.9904124E-01
       -2   -1    0    0    0  501  0.00000000000E+00  0.00000000000E+00  0.16710390538E+03  0.16710390540E+03  0.25500000920E-02 0.  1.
        2   -1    0    0  501    0  0.00000000000E+00  0.00000000000E+00 -0.53969800764E+03  0.53969800764E+03  0.25500000920E-02 0. -1.
    10030    2    1    2    0    0  0.00000000000E+00  0.00000000000E+00 -0.37259410226E+03  0.70680191305E+03  0.60061849726E+03 0.  0.
        1    1    3    3  502    0 -0.27992855642E+03  0.47967067251E+02 -0.71448071577E+02  0.29285775249E+03  0.50400001928E-02 0.  1.
       -1    1    3    3    0  502  0.27992855642E+03 -0.47967067251E+02 -0.30114603068E+03  0.41394416055E+03  0.50400001928E-02 0. -1.
</event>
<event>
 5   0  0.3724066E-02  0.5981876E+03  0.7818609E-02  0.9909173E-01
       -2   -1    0    0    0  501  0.00000000000E+00  0.00000000000E+00  0.55982155422E+02  0.55982155480E+02  0.25500000920E-02 0.  1.
        2   -1    0    0  501    0  0.00000000000E+00  0.00000000000E+00 -0.15979575004E+04  0.15979575004E+04  0.25500000920E-02 0. -1.
    10030    2    1    2    0    0  0.00000000000E+00  0.00000000000E+00 -0.15419753450E+04  0.16539396559E+04  0.59818761337E+03 0.  0.
        4    1    3    3  502    0 -0.21909263148E+03  0.13841663559E+03 -0.35814601792E+03  0.44207570531E+03  0.12699999809E+01 0.  1.
       -4    1    3    3    0  502  0.21909263148E+03 -0.13841663559E+03 -0.11838293271E+04  0.12118639506E+04  0.12699999809E+01 0. -1.
</event>
<event>
 5   0  0.3724066E-02  0.6020726E+03  0.7818609E-02  0.9901115E-01
       -2   -1    0    0    0  501  0.00000000000E+00  0.00000000000E+00  0.20001736864E+03  0.20001736866E+03  0.25500000920E-02 0. -1.
        2   -1    0    0  501    0  0.00000000000E+00  0.00000000000E+00 -0.45307485348E+03  0.45307485349E+03  0.25500000920E-02 0.  1.
    10030    2    1    2    0    0  0.00000000000E+00  0.00000000000E+00 -0.25305748484E+03  0.65309222214E+03  0.60207255376E+03 0.  0.
        4    1    3    3  502    0 -0.53227165304E+02  0.29370205689E+03 -0.84137775776E+02  0.31012063388E+03  0.12699999809E+01 0.  1.
       -4    1    3    3    0  502  0.53227165304E+02 -0.29370205689E+03 -0.16891970907E+03  0.34297158826E+03  0.12699999809E+01 0. -1.
</event>
<event>
 5   0  0.2309055E-02  0.5998193E+03  0.7818609E-02  0.9905781E-01
        1   -1    0    0  501    0  0.00000000000E+00  0.00000000000E+00  0.85204147094E+03  0.85204147096E+03  0.50400001928E-02 0. -1.
       -1   -1    0    0    0  501  0.00000000000E+00  0.00000000000E+00 -0.10556505082E+03  0.10556505094E+03  0.50400001928E-02 0.  1.
    10030    2    1    2    0    0  0.00000000000E+00  0.00000000000E+00  0.74647642012E+03  0.95760652190E+03  0.59981931028E+03 0.  0.
        4    1    3    3  502    0 -0.89601154130E+02  0.53737726171E+01  0.83008858344E+03  0.83492868768E+03  0.12699999809E+01 0. -1.
       -4    1    3    3    0  502  0.89601154130E+02 -0.53737726171E+01 -0.83612163320E+02  0.12267783422E+03  0.12699999809E+01 0.  1.
</event>
<event>
 5   0  0.2295179E-02  0.6728827E+03  0.7818609E-02  0.9764764E-01
        1   -1    0    0  501    0  0.00000000000E+00  0.00000000000E+00  0.66349412001E+03  0.66349412003E+03  0.50400001928E-02 0.  1.
       -1   -1    0    0    0  501  0.00000000000E+00  0.00000000000E+00 -0.17060103313E+03  0.17060103321E+03  0.50400001928E-02 0. -1.
    10030    2    1    2    0    0  0.00000000000E+00  0.00000000000E+00  0.49289308688E+03  0.83409515324E+03  0.67288270120E+03 0.  0.
        3    1    3    3  502    0  0.12640172340E+03  0.47782974968E+02 -0.13548271023E+03  0.19135355588E+03  0.10100000352E+00 0. -1.
       -3    1    3    3    0  502 -0.12640172340E+03 -0.47782974968E+02  0.62837579711E+03  0.64274159736E+03  0.10100000352E+00 0.  1.
</event>
<event>
 5   0  0.2276105E-02  0.5883973E+03  0.7818609E-02  0.9929775E-01
       -1   -1    0    0    0  501  0.00000000000E+00  0.00000000000E+00  0.24077923314E+03  0.24077923319E+03  0.50400001928E-02 0.  1.
        1   -1    0    0  501    0  0.00000000000E+00  0.00000000000E+00 -0.35946977000E+03  0.35946977003E+03  0.50400001928E-02 0. -1.
    10030    2    1    2    0    0  0.00000000000E+00  0.00000000000E+00 -0.11869053685E+03  0.60024900323E+03  0.58839733373E+03 0.  0.
        1    1    3    3  502    0 -0.22501502599E+02  0.24871421025E+02 -0.35751307105E+03  0.35908286119E+03  0.50400001928E-02 0. -1.
       -1    1    3    3    0  502  0.22501502599E+02 -0.24871421025E+02  0.23882253419E+03  0.24116614204E+03  0.50400001928E-02 0.  1.
</event>
<event>
 5   0  0.3724066E-02  0.6023732E+03  0.7818609E-02  0.9900495E-01
        2   -1    0    0  501    0  0.00000000000E+00  0.00000000000E+00  0.36310754118E+03  0.36310754118E+03  0.25500000920E-02 0. -1.
       -2   -1    0    0    0  501  0.00000000000E+00  0.00000000000E+00 -0.24982504604E+03  0.24982504605E+03  0.25500000920E-02 0.  1.
    10030    2    1    2    0    0  0.00000000000E+00  0.00000000000E+00  0.11328249513E+03  0.61293258724E+03  0.60237316739E+03 0.  0.
        4    1    3    3  502    0  0.84136764710E+02  0.22016879737E+03  0.24743403754E+03  0.34172870869E+03  0.12699999809E+01 0. -1.
       -4    1    3    3    0  502 -0.84136764710E+02 -0.22016879737E+03 -0.13415154241E+03  0.27120387855E+03  0.12699999809E+01 0.  1.
</event>
<event>
 5   0  0.2309055E-02  0.6294490E+03  0.7818609E-02  0.9846125E-01
        1   -1    0    0  501    0  0.00000000000E+00  0.00000000000E+00  0.22913973081E+03  0.22913973086E+03  0.50400001928E-02 0.  1.
       -1   -1    0    0    0  501  0.00000000000E+00  0.00000000000E+00 -0.43227560316E+03  0.43227560319E+03  0.50400001928E-02 0. -1.
    10030    2    1    2    0    0  0.00000000000E+00  0.00000000000E+00 -0.20313587235E+03  0.66141533405E+03  0.62944901420E+03 0.  0.
        4    1    3    3  502    0 -0.11983187849E+03 -0.15503331690E+03  0.15722154841E+03  0.25122745996E+03  0.12699999809E+01 0.  1.
       -4    1    3    3    0  502  0.11983187849E+03  0.15503331690E+03 -0.36035742076E+03  0.41018787409E+03  0.12699999809E+01 0. -1.
</event>
<event>
 5   0  0.1521750E-02  0.6006972E+03  0.7818609E-02  0.9903961E-01
        3   -1    0    0  501    0  0.00000000000E+00  0.00000000000E+00  0.55004729180E+03  0.55004730107E+03  0.10100000352E+00 0. -1.
       -3   -1    0    0    0  501  0.00000000000E+00  0.00000000000E+00 -0.16400275658E+03  0.16400278768E+03  0.10100000352E+00 0.  1.
    10030    2    1    2    0    0  0.00000000000E+00  0.00000000000E+00  0.38604453521E+03  0.71405008875E+03  0.60069721664E+03 0.  0.
        3    1    3    3  502    0  0.20255355774E+03 -0.21354519376E+03  0.12190068769E+03  0.31857382408E+03  0.10100000352E+00 0. -1.
       -3    1    3    3    0  502 -0.20255355774E+03  0.21354519376E+03  0.26414384752E+03  0.39547626467E+03  0.10100000352E+00 0.  1.
</event>
<event>
 5   0  0.3832191E-02  0.6003964E+03  0.7818609E-02  0.9904584E-01
        2   -1    0    0  501    0  0.00000000000E+00  0.00000000000E+00  0.11710717546E+04  0.11710717546E+04  0.25500000920E-02 0.  1.
       -2   -1    0    0    0  501  0.00000000000E+00  0.00000000000E+00 -0.76954248504E+02  0.76954248546E+02  0.25500000920E-02 0. -1.
    10030    2    1    2    0    0  0.00000000000E+00  0.00000000000E+00  0.10941175061E+04  0.12480260032E+04  0.60039635859E+03 0.  0.
        3    1    3    3  502    0 -0.14334944822E+02  0.21267508647E+03  0.98645419661E+03  0.10092215194E+04  0.10100000352E+00 0.  1.
       -3    1    3    3    0  502  0.14334944822E+02 -0.21267508647E+03  0.10766330953E+03  0.23880448377E+03  0.10100000352E+00 0. -1.
</event>
<event>
 5   0  0.2295179E-02  0.6008457E+03  0.7818609E-02  0.9903653E-01
       -1   -1    0    0    0  501  0.00000000000E+00  0.00000000000E+00  0.48705965631E+03  0.48705965634E+03  0.50400001928E-02 0.  1.
        1   -1    0    0  501    0  0.00000000000E+00  0.00000000000E+00 -0.18530353128E+03  0.18530353135E+03  0.50400001928E-02 0. -1.
    10030    2    1    2    0    0  0.00000000000E+00  0.00000000000E+00  0.30175612503E+03  0.67236318769E+03  0.60084565170E+03 0.  0.
        3    1    3    3  502    0  0.22548688515E+03 -0.11471278628E+03  0.33218308684E+03  0.41755116105E+03  0.10100000352E+00 0.  1.
       -3    1    3    3    0  502 -0.22548688515E+03  0.11471278628E+03 -0.30426961811E+02  0.25481202664E+03  0.10100000352E+00 0. -1.
</event>
<event>
 5   0  0.3832191E-02  0.5994059E+03  0.7818609E-02  0.9906639E-01
        2   -1    0    0  501    0  0.00000000000E+00  0.00000000000E+00  0.94475432299E+03  0.94475432300E+03  0.25500000920E-02 0. -1.
       -2   -1    0    0    0  501  0.00000000000E+00  0.00000000000E+00 -0.95074302825E+02  0.95074302859E+02  0.25500000920E-02 0.  1.
    10030    2    1    2    0    0  0.00000000000E+00  0.00000000000E+00  0.84968002017E+03  0.10398286259E+04  0.59940590127E+03 0.  0.
        3    1    3    3  502    0  0.24983083170E+03 -0.38812328961E+01  0.71194939844E+03  0.75452134800E+03  0.10100000352E+00 0. -1.
       -3    1    3    3    0  502 -0.24983083170E+03  0.38812328961E+01  0.13773062173E+03  0.28530727786E+03  0.10100000352E+00 0.  1.
</event>
<event>
 5   0  0.3934634E-02  0.5993454E+03  0.7818609E-02  0.9906765E-01
       -2   -1    0    0    0  501  0.00000000000E+00  0.00000000000E+00  0.13304463756E+03  0.13304463758E+03  0.25500000920E-02 0.  1.
        2   -1    0    0  501    0  0.00000000000E+00  0.00000000000E+00 -0.67498936686E+03  0.67498936686E+03  0.25500000920E-02 0. -1.
    10030    2    1    2    0    0  0.00000000000E+00  0.00000000000E+00 -0.54194472930E+03  0.80803400445E+03  0.59934536182E+03 0.  0.
        1    1    3    3  502    0  0.23940701222E+03 -0.13619309984E+03 -0.11179727008E+03  0.29725899073E+03  0.50400001928E-02 0. -1.
       -1    1    3    3    0  502 -0.23940701222E+03  0.13619309984E+03 -0.43014745922E+03  0.51077501372E+03  0.50400001928E-02 0.  1.
</event>
<event>
 5   0  0.2382531E-02  0.5993551E+03  0.7818609E-02  0.9906745E-01
       -1   -1    0    0    0  501  0.00000000000E+00  0.00000000000E+00  0.44443676555E+02  0.44443676841E+02  0.50400001928E-02 0. -1.
        1   -1    0    0  501    0  0.00000000000E+00  0.00000000000E+00 -0.20206840209E+04  0.20206840210E+04  0.50400001928E-02 0.  1.
    10030    2    1    2    0    0  0.00000000000E+00  0.00000000000E+00 -0.19762403444E+04  0.20651276978E+04  0.59935507789E+03 0.  0.
        5    1    3    3  502    0 -0.57087747014E+02 -0.23432642629E+03 -0.16007817780E+04  0.16188552362E+04  0.46999998093E+01 0.  1.
       -5    1    3    3    0  502  0.57087747014E+02  0.23432642629E+03 -0.37545856635E+03  0.44627246158E+03  0.46999998093E+01 0. -1.
</event>
<event>
 5   0  0.2225808E-02  0.6014740E+03  0.7818609E-02  0.9902353E-01
        1   -1    0    0  501    0  0.00000000000E+00  0.00000000000E+00  0.90554217950E+03  0.90554217951E+03  0.50400001928E-02 0. -1.
       -1   -1    0    0    0  501  0.00000000000E+00  0.00000000000E+00 -0.99876899129E+02  0.99876899256E+02  0.50400001928E-02 0.  1.
    10030    2    1    2    0    0  0.00000000000E+00  0.00000000000E+00  0.80566528037E+03  0.10054190788E+04  0.60147400605E+03 0.  0.
        2    1    3    3  502    0 -0.55370013546E+01  0.27646773396E+03  0.60046032605E+03  0.66107311961E+03  0.25500000920E-02 0. -1.
       -2    1    3    3    0  502  0.55370013546E+01 -0.27646773396E+03  0.20520495432E+03  0.34434595916E+03  0.25500000920E-02 0.  1.
</event>
<event>
 5   0  0.3798925E-02  0.6025785E+03  0.7818609E-02  0.9900071E-01
       -2   -1    0    0    0  501  0.00000000000E+00  0.00000000000E+00  0.63602793862E+02  0.63602793913E+02  0.25500000920E-02 0.  1.
        2   -1    0    0  501    0  0.00000000000E+00  0.00000000000E+00 -0.14272205974E+04  0.14272205974E+04  0.25500000920E-02 0. -1.
    10030    2    1    2    0    0  0.00000000000E+00  0.00000000000E+00 -0.13636178035E+04  0.14908233913E+04  0.60257851767E+03 0.  0.
        2    1    3    3  502    0  0.26713571929E+03 -0.70371488140E+02 -0.97933180623E+03  0.10175482424E+04  0.25500000920E-02 0. -1.
       -2    1    3    3    0  502 -0.26713571929E+03  0.70371488140E+02 -0.38428599730E+03  0.47327514893E+03  0.25500000920E-02 0.  1.
</event>
<event>
 5   0  0.3798925E-02  0.5983929E+03  0.7818609E-02  0.9908746E-01
        2   -1    0    0  501    0  0.00000000000E+00  0.00000000000E+00  0.28266314454E+03  0.28266314455E+03  0.25500000920E-02 0.  1.
       -2   -1    0    0    0  501  0.00000000000E+00  0.00000000000E+00 -0.31669676910E+03  0.31669676911E+03  0.25500000920E-02 0. -1.
    10030    2    1    2    0    0  0.00000000000E+00  0.00000000000E+00 -0.34033624562E+02  0.59935991365E+03  0.59839286300E+03 0.  0.
        2    1    3    3  502    0 -0.14637736923E+03 -0.18551322822E+03  0.16679273586E+03  0.28924264694E+03  0.25500000920E-02 0.  1.
       -2    1    3    3    0  502  0.14637736923E+03  0.18551322822E+03 -0.20082636043E+03  0.31011726671E+03  0.25500000920E-02 0. -1.
</event>
<event>
 5   0  0.2276105E-02  0.5439393E+03  0.7818609E-02  0.1002907E+00
       -1   -1    0    0    0  501  0.00000000000E+00  0.00000000000E+00  0.14814099172E+03  0.14814099180E+03  0.50400001928E-02 0. -1.
        1   -1    0    0  501    0  0.00000000000E+00  0.00000000000E+00 -0.49930476089E+03  0.49930476092E+03  0.50400001928E-02 0.  1.
    10030    2    1    2    0    0  0.00000000000E+00  0.00000000000E+00 -0.35116376918E+03  0.64744575272E+03  0.54393934398E+03 0.  0.
        1    1    3    3  502    0  0.19715322941E+03 -0.18559073118E+03 -0.14513773140E+03  0.30721047584E+03  0.50400001928E-02 0.  1.
       -1    1    3    3    0  502 -0.19715322941E+03  0.18559073118E+03 -0.20602603778E+03  0.34023527688E+03  0.50400001928E-02 0. -1.
</event>
<event>
 5   0  0.2225808E-02  0.6003416E+03  0.7818609E-02  0.9904698E-01
       -1   -1    0    0    0  501  0.00000000000E+00  0.00000000000E+00  0.83427461050E+02  0.83427461202E+02  0.50400001928E-02 0. -1.
        1   -1    0    0  501    0  0.00000000000E+00  0.00000000000E+00 -0.10800102030E+04  0.10800102030E+04  0.50400001928E-02 0.  1.
    10030    2    1    2    0    0  0.00000000000E+00  0.00000000000E+00 -0.99658274197E+03  0.11634376642E+04  0.60034160023E+03 0.  0.
        2    1    3    3  502    0  0.17934997044E+02  0.12789966520E+03  0.26829556031E+02  0.13190835288E+03  0.25500000920E-02 0. -1.
       -2    1    3    3    0  502 -0.17934997044E+02 -0.12789966520E+03 -0.10234122980E+04  0.10315293114E+04  0.25500000920E-02 0.  1.
</event>
<event>
 5   0  0.3934634E-02  0.6144258E+03  0.7818609E-02  0.9875921E-01
       -2   -1    0    0    0  501  0.00000000000E+00  0.00000000000E+00  0.63647744931E+02  0.63647744982E+02  0.25500000920E-02 0. -1.
        2   -1    0    0  501    0  0.00000000000E+00  0.00000000000E+00 -0.14828452790E+04  0.14828452790E+04  0.25500000920E-02 0.  1.
    10030    2    1    2    0    0  0.00000000000E+00  0.00000000000E+00 -0.14191975341E+04  0.15464930240E+04  0.61442577463E+03 0.  0.
        1    1    3    3  502    0 -0.27020673805E+03  0.46096594419E+02 -0.36044480885E+03  0.45283223997E+03  0.50400001928E-02 0. -1.
       -1    1    3    3    0  502  0.27020673805E+03 -0.46096594419E+02 -0.10587527252E+04  0.10936607840E+04  0.50400001928E-02 0.  1.
</event>
<event>
 5   0  0.2309055E-02  0.6042652E+03  0.7818609E-02  0.9896596E-01
        1   -1    0    0  501    0  0.00000000000E+00  0.00000000000E+00  0.86757730967E+03  0.86757730969E+03  0.50400001928E-02 0.  1.
       -1   -1    0    0    0  501  0.00000000000E+00  0.00000000000E+00 -0.10521726554E+03  0.10521726566E+03  0.50400001928E-02 0. -1.
    10030    2    1    2    0    0  0.00000000000E+00  0.00000000000E+00  0.76236004414E+03  0.97279457535E+03  0.60426521407E+03 0.  0.
        4    1    3    3  502    0 -0.79771894933E+02 -0.26448530169E+03  0.18423127335E+03  0.33205241305E+03  0.12699999809E+01 0. -1.
       -4    1    3    3    0  502  0.79771894933E+02  0.26448530169E+03  0.57812877079E+03  0.64074216230E+03  0.12699999809E+01 0.  1.
</event>
<event>
 5   0  0.3934634E-02  0.5950149E+03  0.7818609E-02  0.9915803E-01
        2   -1    0    0  501    0  0.00000000000E+00  0.00000000000E+00  0.65009075149E+03  0.65009075149E+03  0.25500000920E-02 0.  1.
       -2   -1    0    0    0  501  0.00000000000E+00  0.00000000000E+00 -0.13615125784E+03  0.13615125786E+03  0.25500000920E-02 0. -1.
    10030    2    1    2    0    0  0.00000000000E+00  0.00000000000E+00  0.51393949365E+03  0.78624200936E+03  0.59501486884E+03 0.  0.
        1    1    3    3  502    0 -0.17273615514E+03 -0.65973032277E+02 -0.51001462700E+02  0.19181076483E+03  0.50400001928E-02 0. -1.
       -1    1    3    3    0  502  0.17273615514E+03  0.65973032277E+02  0.56494095635E+03  0.59443124453E+03  0.50400001928E-02 0.  1.
</event>
<event>
 5   0  0.2276105E-02  0.6110367E+03  0.7818609E-02  0.9882769E-01
        1   -1    0    0  501    0  0.00000000000E+00  0.00000000000E+00  0.44800700331E+03  0.44800700334E+03  0.50400001928E-02 0. -1.
       -1   -1    0    0    0  501  0.00000000000E+00  0.00000000000E+00 -0.20834822993E+03  0.20834822999E+03  0.50400001928E-02 0.  1.
    10030    2    1    2    0    0  0.00000000000E+00  0.00000000000E+00  0.23965877338E+03  0.65635523333E+03  0.61103671302E+03 0.  0.
        1    1    3    3  502    0  0.26625084173E+03  0.36463649588E+02 -0.36284970000E+02  0.27117468086E+03  0.50400001928E-02 0.  1.
       -1    1    3    3    0  502 -0.26625084173E+03 -0.36463649588E+02  0.27594374338E+03  0.38518055247E+03  0.50400001928E-02 0. -1.
</event>
<event>
 5   0  0.3724066E-02  0.5972019E+03  0.7818609E-02  0.9911228E-01
        2   -1    0    0  501    0  0.00000000000E+00  0.00000000000E+00  0.17255239541E+03  0.17255239543E+03  0.25500000920E-02 0.  1.
       -2   -1    0    0    0  501  0.00000000000E+00  0.00000000000E+00 -0.51672729703E+03  0.51672729704E+03  0.25500000920E-02 0. -1.
    10030    2    1    2    0    0  0.00000000000E+00  0.00000000000E+00 -0.34417490162E+03  0.68927969247E+03  0.59720191858E+03 0.  0.
        4    1    3    3  502    0  0.29460513040E+03  0.42056787209E+02 -0.14381673499E+03  0.33052355797E+03  0.12699999809E+01 0.  1.
       -4    1    3    3    0  502 -0.29460513040E+03 -0.42056787209E+02 -0.20035816663E+03  0.35875613450E+03  0.12699999809E+01 0. -1.
</event>
<event>
 5   0  0.2382531E-02  0.6023066E+03  0.7818609E-02  0.9900632E-01
       -1   -1    0    0    0  501  0.00000000000E+00  0.00000000000E+00  0.71203288369E+02  0.71203288548E+02  0.50400001928E-02 0.  1.
        1   -1    0    0  501    0  0.00000000000E+00  0.00000000000E+00 -0.12737236793E+04  0.12737236793E+04  0.50400001928E-02 0. -1.
    10030    2    1    2    0    0  0.00000000000E+00  0.00000000000E+00 -0.12025203910E+04  0.13449269679E+04  0.60230661483E+03 0.  0.
        5    1    3    3  502    0  0.21790157854E+02 -0.24355839942E+03 -0.99362461135E+03  0.10232826898E+04  0.46999998093E+01 0. -1.
       -5    1    3    3    0  502 -0.21790157854E+02  0.24355839942E+03 -0.20889577960E+03  0.32164427811E+03  0.46999998093E+01 0.  1.
</event>
<event>
 5   0  0.3832191E-02  0.5972295E+03  0.7818609E-02  0.9911171E-01
       -2   -1    0    0    0  501  0.00000000000E+00  0.00000000000E+00  0.94079739314E+02  0.94079739348E+02  0.25500000920E-02 0. -1.
        2   -1    0    0  501    0  0.00000000000E+00  0.00000000000E+00 -0.94782108721E+03  0.94782108721E+03  0.25500000920E-02 0.  1.
    10030    2    1    2    0    0  0.00000000000E+00  0.00000000000E+00 -0.85374134790E+03  0.10419008266E+04  0.59722947288E+03 0.  0.
        3    1    3    3  502    0  0.14683502918E+03  0.14975831581E+03 -0.56043881595E+02  0.21709215972E+03  0.10100000352E+00 0. -1.
       -3    1    3    3    0  502 -0.14683502918E+03 -0.14975831581E+03 -0.79769746630E+03  0.82480866684E+03  0.10100000352E+00 0.  1.
</event>
<event>
 5   0  0.3798925E-02  0.6002636E+03  0.7818609E-02  0.9904859E-01
        2   -1    0    0  501    0  0.00000000000E+00  0.00000000000E+00  0.83172486213E+03  0.83172486213E+03  0.25500000920E-02 0.  1.
       -2   -1    0    0    0  501  0.00000000000E+00  0.00000000000E+00 -0.10830395181E+03  0.10830395184E+03  0.25500000920E-02 0. -1.
    10030    2    1    2    0    0  0.00000000000E+00  0.00000000000E+00  0.72342091032E+03  0.94002881397E+03  0.60026357345E+03 0.  0.
        2    1    3    3  502    0 -0.28197716959E+03 -0.26733122924E+01  0.20077639480E+03  0.34616387952E+03  0.25500000920E-02 0. -1.
       -2    1    3    3    0  502  0.28197716959E+03  0.26733122924E+01  0.52264451552E+03  0.59386493445E+03  0.25500000920E-02 0.  1.
</event>
<event>
 5   0  0.3934634E-02  0.5996602E+03  0.7818609E-02  0.9906111E-01
        2   -1    0    0  501    0  0.00000000000E+00  0.00000000000E+00  0.16934946351E+03  0.16934946353E+03  0.25500000920E-02 0.  1.
       -2   -1    0    0    0  501  0.00000000000E+00  0.00000000000E+00 -0.53084366546E+03  0.53084366546E+03  0.25500000920E-02 0. -1.
    10030    2    1    2    0    0  0.00000000000E+00  0.00000000000E+00 -0.36149420195E+03  0.70019312899E+03  0.59966020366E+03 0.  0.
        1    1    3    3  502    0  0.15334269245E+03  0.72115269316E+02  0.10807456124E+03  0.20098433822E+03  0.50400001928E-02 0.  1.
       -1    1    3    3    0  502 -0.15334269245E+03 -0.72115269316E+02 -0.46956876319E+03  0.49920879077E+03  0.50400001928E-02 0. -1.
</event>
<event>
 5   0  0.2225808E-02  0.5915829E+03  0.7818609E-02  0.9923024E-01
       -1   -1    0    0    0  501  0.00000000000E+00  0.00000000000E+00  0.12812599004E+03  0.12812599014E+03  0.50400001928E-02 0. -1.
        1   -1    0    0  501    0  0.00000000000E+00  0.00000000000E+00 -0.68286356854E+03  0.68286356856E+03  0.50400001928E-02 0.  1.
    10030    2    1    2    0    0  0.00000000000E+00  0.00000000000E+00 -0.55473757850E+03  0.81098955870E+03  0.59158286260E+03 0.  0.
        2    1    3    3  502    0 -0.47892604961E+02 -0.43758718203E+02  0.11825334381E+03  0.13487913240E+03  0.25500000920E-02 0. -1.
       -2    1    3    3    0  502  0.47892604961E+02  0.43758718203E+02 -0.67299092231E+03  0.67611042629E+03  0.25500000920E-02 0.  1.
</event>
<event>
 5   0  0.3798925E-02  0.5964773E+03  0.7818609E-02  0.9912742E-01
        2   -1    0    0  501    0  0.00000000000E+00  0.00000000000E+00  0.68751869993E+03  0.68751869994E+03  0.25500000920E-02 0. -1.
       -2   -1    0    0    0  501  0.00000000000E+00  0.00000000000E+00 -0.12937289706E+03  0.12937289709E+03  0.25500000920E-02 0.  1.
    10030    2    1    2    0    0  0.00000000000E+00  0.00000000000E+00  0.55814580287E+03  0.81689159702E+03  0.59647727872E+03 0.  0.
        2    1    3    3  502    0 -0.10214216173E+03 -0.27999426228E+03  0.29385350831E+03  0.41854473174E+03  0.25500000920E-02 0.  1.
       -2    1    3    3    0  502  0.10214216173E+03  0.27999426228E+03  0.26429229456E+03  0.39834686528E+03  0.25500000920E-02 0. -1.
</event>
<event>
 5   0  0.2295179E-02  0.5972876E+03  0.7818609E-02  0.9911050E-01
       -1   -1    0    0    0  501  0.00000000000E+00  0.00000000000E+00  0.27480119150E+03  0.27480119154E+03  0.50400001928E-02 0.  1.
        1   -1    0    0  501    0  0.00000000000E+00  0.00000000000E+00 -0.32455503551E+03  0.32455503555E+03  0.50400001928E-02 0. -1.
    10030    2    1    2    0    0  0.00000000000E+00  0.00000000000E+00 -0.49753844012E+02  0.59935622709E+03  0.59728757057E+03 0.  0.
        3    1    3    3  502    0  0.29222480281E+03 -0.37788962711E+02 -0.73674133761E+02  0.30372887460E+03  0.10100000352E+00 0. -1.
       -3    1    3    3    0  502 -0.29222480281E+03  0.37788962711E+02  0.23920289749E+02  0.29562735249E+03  0.10100000352E+00 0.  1.
</event>
<event>
 5   0  0.2225808E-02  0.5996733E+03  0.7818609E-02  0.9906084E-01
       -1   -1    0    0    0  501  0.00000000000E+00  0.00000000000E+00  0.78433862692E+02  0.78433862854E+02  0.50400001928E-02 0. -1.
        1   -1    0    0  501    0  0.00000000000E+00  0.00000000000E+00 -0.11462143114E+04  0.11462143114E+04  0.50400001928E-02 0.  1.
    10030    2    1    2    0    0  0.00000000000E+00  0.00000000000E+00 -0.10677804487E+04  0.12246481742E+04  0.59967329778E+03 0.  0.
        2    1    3    3  502    0 -0.70389814582E+02 -0.15913935239E+03 -0.35235727159E+02  0.17754327910E+03  0.25500000920E-02 0. -1.
       -2    1    3    3    0  502  0.70389814582E+02  0.15913935239E+03 -0.10325447215E+04  0.10471048951E+04  0.25500000920E-02 0.  1.
</event>
<event>
 5   0  0.2225808E-02  0.6013529E+03  0.7818609E-02  0.9902603E-01
        1   -1    0    0  501    0  0.00000000000E+00  0.00000000000E+00  0.27172680675E+03  0.27172680680E+03  0.50400001928E-02 0. -1.
       -1   -1    0    0    0  501  0.00000000000E+00  0.00000000000E+00 -0.33271042876E+03  0.33271042879E+03  0.50400001928E-02 0.  1.
    10030    2    1    2    0    0  0.00000000000E+00  0.00000000000E+00 -0.60983622005E+02  0.60443723559E+03  0.60135294929E+03 0.  0.
        2    1    3    3  502    0  0.29366784530E+02  0.11037808679E+03  0.24907249087E+03  0.27401247379E+03  0.25500000920E-02 0. -1.
       -2    1    3    3    0  502 -0.29366784530E+02 -0.11037808679E+03 -0.31005611288E+03  0.33042476181E+03  0.25500000920E-02 0.  1.
</event>
<event>
 5   0  0.2382531E-02  0.5485782E+03  0.7818609E-02  0.1001824E+00
       -1   -1    0    0    0  501  0.00000000000E+00  0.00000000000E+00  0.38416013417E+03  0.38416013420E+03  0.50400001928E-02 0. -1.
        1   -1    0    0  501    0  0.00000000000E+00  0.00000000000E+00 -0.19584152775E+03  0.19584152782E+03  0.50400001928E-02 0.  1.
    10030    2    1    2    0    0  0.00000000000E+00  0.00000000000E+00  0.18831860642E+03  0.58000166202E+03  0.54857818989E+03 0.  0.
        5    1    3    3  502    0  0.19120760126E+03  0.63815339370E+01  0.30191272065E+03  0.35745552401E+03  0.46999998093E+01 0.  1.
       -5    1    3    3    0  502 -0.19120760126E+03 -0.63815339370E+01 -0.11359411423E+03  0.22254613801E+03  0.46999998093E+01 0. -1.
</event>
<event>
 5   0  0.3832191E-02  0.6012087E+03  0.7818609E-02  0.9902902E-01
       -2   -1    0    0    0  501  0.00000000000E+00  0.00000000000E+00  0.63619739157E+02  0.63619739208E+02  0.25500000920E-02 0. -1.
        2   -1    0    0  501    0  0.00000000000E+00  0.00000000000E+00 -0.14203604351E+04  0.14203604351E+04  0.25500000920E-02 0.  1.
    10030    2    1    2    0    0  0.00000000000E+00  0.00000000000E+00 -0.13567406959E+04  0.14839801743E+04  0.60120865073E+03 0.  0.
        3    1    3    3  502    0  0.46617810966E+02  0.99420725595E+02 -0.13690844391E+04  0.13734809472E+04  0.10100000352E+00 0.  1.
       -3    1    3    3    0  502 -0.46617810966E+02 -0.99420725595E+02  0.12343743154E+02  0.11049922703E+03  0.10100000352E+00 0. -1.
</event>
<event>
 5   0  0.3724066E-02  0.6061929E+03  0.7818609E-02  0.9892640E-01
        2   -1    0    0  501    0  0.00000000000E+00  0.00000000000E+00  0.46196246470E+03  0.46196246471E+03  0.25500000920E-02 0.  1.
       -2   -1    0    0    0  501  0.00000000000E+00  0.00000000000E+00 -0.19886346625E+03  0.19886346626E+03  0.25500000920E-02 0. -1.
    10030    2    1    2    0    0  0.00000000000E+00  0.00000000000E+00  0.26309899845E+03  0.66082593097E+03  0.60619289673E+03 0.  0.
        4    1    3    3  502    0  0.19487318015E+03 -0.20489845198E+03  0.25050261114E+03  0.37777255466E+03  0.12699999809E+01 0.  1.
       -4    1    3    3    0  502 -0.19487318015E+03  0.20489845198E+03  0.12596387312E+02  0.28305337631E+03  0.12699999809E+01 0. -1.
</event>
<event>
 5   0  0.3737642E-02  0.5985663E+03  0.7818609E-02  0.9908385E-01
       -2   -1    0    0    0  501  0.00000000000E+00  0.00000000000E+00  0.22938582479E+03  0.22938582480E+03  0.25500000920E-02 0.  1.
        2   -1    0    0  501    0  0.00000000000E+00  0.00000000000E+00 -0.39047924289E+03  0.39047924290E+03  0.25500000920E-02 0. -1.
    10030    2    1    2    0    0  0.00000000000E+00  0.00000000000E+00 -0.16109341810E+03  0.61986506770E+03  0.59856629775E+03 0.  0.
        5    1    3    3  502    0 -0.15576606728E+03 -0.20584299339E+03  0.76213011497E+02  0.26919308825E+03  0.46999998093E+01 0.  1.
       -5    1    3    3    0  502  0.15576606728E+03  0.20584299339E+03 -0.23730642959E+03  0.35067197945E+03  0.46999998093E+01 0. -1.
</event>
<event>
 5   0  0.2225808E-02  0.5941216E+03  0.7818609E-02  0.9917677E-01
        1   -1    0    0  501    0  0.00000000000E+00  0.00000000000E+00  0.38233927966E+03  0.38233927969E+03  0.50400001928E-02 0.  1.
       -1   -1    0    0    0  501  0.00000000000E+00  0.00000000000E+00 -0.23080317739E+03  0.23080317744E+03  0.50400001928E-02 0. -1.
    10030    2    1    2    0    0  0.00000000000E+00  0.00000000000E+00  0.15153610227E+03  0.61314245713E+03  0.59412160578E+03 0.  0.
        2    1    3    3  502    0  0.88727200917E+02  0.19858706094E+02  0.36762628825E+03  0.37870301320E+03  0.25500000920E-02 0.  1.
       -2    1    3    3    0  502 -0.88727200917E+02 -0.19858706094E+02 -0.21609018598E+03  0.23443944393E+03  0.25500000920E-02 0. -1.
</event>
<event>
 5   0  0.1521750E-02  0.5989246E+03  0.7818609E-02  0.9907640E-01
        4   -1    0    0  501    0  0.00000000000E+00  0.00000000000E+00  0.31498353687E+03  0.31498609715E+03  0.12699999809E+01 0. -1.
       -4   -1    0    0    0  501  0.00000000000E+00  0.00000000000E+00 -0.28470079150E+03  0.28470362411E+03  0.12699999809E+01 0.  1.
    10030    2    1    2    0    0  0.00000000000E+00  0.00000000000E+00  0.30282745369E+02  0.59968972126E+03  0.59892463392E+03 0.  0.
        4    1    3    3  502    0  0.29709206878E+03 -0.25613367499E+02 -0.12395112183E+02  0.29845434095E+03  0.12699999809E+01 0.  1.
       -4    1    3    3    0  502 -0.29709206878E+03  0.25613367499E+02  0.42677857551E+02  0.30123538031E+03  0.12699999809E+01 0. -1.
</event>
<event>
 5   0  0.2382531E-02  0.6035074E+03  0.7818609E-02  0.9898156E-01
        1   -1    0    0  501    0  0.00000000000E+00  0.00000000000E+00  0.11212014024E+04  0.11212014024E+04  0.50400001928E-02 0. -1.
       -1   -1    0    0    0  501  0.00000000000E+00  0.00000000000E+00 -0.81212253045E+02  0.81212253202E+02  0.50400001928E-02 0.  1.
    10030    2    1    2    0    0  0.00000000000E+00  0.00000000000E+00  0.10399891494E+04  0.12024136557E+04  0.60350738889E+03 0.  0.
        5    1    3    3  502    0  0.20924683195E+03 -0.99364064527E+02  0.90517681546E+03  0.93435786037E+03  0.46999998093E+01 0. -1.
       -5    1    3    3    0  502 -0.20924683195E+03  0.99364064527E+02  0.13481233394E+03  0.26805579528E+03  0.46999998093E+01 0.  1.
</event>
<event>
 5   0  0.2382531E-02  0.6051421E+03  0.7818609E-02  0.9894795E-01
       -1   -1    0    0    0  501  0.00000000000E+00  0.00000000000E+00  0.17012643932E+03  0.17012643939E+03  0.50400001928E-02 0.  1.
        1   -1    0    0  501    0  0.00000000000E+00  0.00000000000E+00 -0.53812479186E+03  0.53812479188E+03  0.50400001928E-02 0. -1.
    10030    2    1    2    0    0  0.00000000000E+00  0.00000000000E+00 -0.36799835254E+03  0.70825123128E+03  0.60514214787E+03 0.  0.
        5    1    3    3  502    0 -0.76974820082E+02  0.47487668874E+02  0.15389042476E+03  0.17856246653E+03  0.46999998093E+01 0.  1.
       -5    1    3    3    0  502  0.76974820082E+02 -0.47487668874E+02 -0.52188877730E+03  0.52968876474E+03  0.46999998093E+01 0. -1.
</event>
<event>
 5   0  0.2309055E-02  0.6070930E+03  0.7818609E-02  0.9890799E-01
        1   -1    0    0  501    0  0.00000000000E+00  0.00000000000E+00  0.13380447338E+04  0.13380447338E+04  0.50400001928E-02 0. -1.
       -1   -1    0    0    0  501  0.00000000000E+00  0.00000000000E+00 -0.68862032702E+02  0.68862032887E+02  0.50400001928E-02 0.  1.
    10030    2    1    2    0    0  0.00000000000E+00  0.00000000000E+00  0.12691827011E+04  0.14069067667E+04  0.60709300886E+03 0.  0.
        4    1    3    3  502    0 -0.10273680097E+03 -0.16124055697E+03  0.11809663825E+04  0.11963430014E+04  0.12699999809E+01 0. -1.
       -4    1    3    3    0  502  0.10273680097E+03  0.16124055697E+03  0.88216318576E+02  0.21056376528E+03  0.12699999809E+01 0.  1.
</event>
<event>
 5   0  0.2276105E-02  0.6027318E+03  0.7818609E-02  0.9899755E-01
       -1   -1    0    0    0  501  0.00000000000E+00  0.00000000000E+00  0.45713223366E+02  0.45713223644E+02  0.50400001928E-02 0. -1.
        1   -1    0    0  501    0  0.00000000000E+00  0.00000000000E+00 -0.19867644597E+04  0.19867644597E+04  0.50400001928E-02 0.  1.
    10030    2    1    2    0    0  0.00000000000E+00  0.00000000000E+00 -0.19410512363E+04  0.20324776833E+04  0.60273180706E+03 0.  0.
        1    1    3    3  502    0  0.21132470745E+03 -0.46646122114E+02 -0.16777641209E+04  0.16916638077E+04  0.50400001928E-02 0.  1.
       -1    1    3    3    0  502 -0.21132470745E+03  0.46646122114E+02 -0.26328711536E+03  0.34081387564E+03  0.50400001928E-02 0. -1.
</event>
<event>
 5   0  0.3724066E-02  0.6021469E+03  0.7818609E-02  0.9900962E-01
       -2   -1    0    0    0  501  0.00000000000E+00  0.00000000000E+00  0.19098393824E+03  0.19098393825E+03  0.25500000920E-02 0.  1.
        2   -1    0    0  501    0  0.00000000000E+00  0.00000000000E+00 -0.47462226587E+03  0.47462226588E+03  0.25500000920E-02 0. -1.
    10030    2    1    2    0    0  0.00000000000E+00  0.00000000000E+00 -0.28363832763E+03  0.66560620413E+03  0.60214692399E+03 0.  0.
        4    1    3    3  502    0  0.21126759872E+03  0.75627468577E+02 -0.36369708349E+03  0.42735312532E+03  0.12699999809E+01 0. -1.
       -4    1    3    3    0  502 -0.21126759872E+03 -0.75627468577E+02  0.80058755861E+02  0.23825307881E+03  0.12699999809E+01 0.  1.
</event>
<event>
 5   0  0.3737642E-02  0.6001545E+03  0.7818609E-02  0.9905086E-01
       -2   -1    0    0    0  501  0.00000000000E+00  0.00000000000E+00  0.11842194019E+03  0.11842194022E+03  0.25500000920E-02 0.  1.
        2   -1    0    0  501    0  0.00000000000E+00  0.00000000000E+00 -0.76038567690E+03  0.76038567690E+03  0.25500000920E-02 0. -1.
    10030    2    1    2    0    0  0.00000000000E+00  0.00000000000E+00 -0.64196373671E+03  0.87880761712E+03  0.60015447066E+03 0.  0.
        5    1    3    3  502    0  0.73927837145E+02  0.16938829130E+03 -0.66708589330E+03  0.69223073998E+03  0.46999998093E+01 0. -1.
       -5    1    3    3    0  502 -0.73927837145E+02 -0.16938829130E+03  0.25122156593E+02  0.18657687714E+03  0.46999998093E+01 0.  1.
</event>
<event>
 5   0  0.2382531E-02  0.6022252E+03  0.7818609E-02  0.9900800E-01
       -1   -1    0    0    0  501  0.00000000000E+00  0.00000000000E+00  0.23614124745E+03  0.23614124751E+03  0.50400001928E-02 0.  1.
        1   -1    0    0  501    0  0.00000000000E+00  0.00000000000E+00 -0.38395997423E+03  0.38395997427E+03  0.50400001928E-02 0. -1.
    10030    2    1    2    0    0  0.00000000000E+00  0.00000000000E+00 -0.14781872678E+03  0.62010122177E+03  0.60222516491E+03 0.  0.
        5    1    3    3  502    0  0.18354675114E+03 -0.22973059582E+03 -0.73282452156E+01  0.29417911157E+03  0.46999998093E+01 0. -1.
       -5    1    3    3    0  502 -0.18354675114E+03  0.22973059582E+03 -0.14049048157E+03  0.32592211020E+03  0.46999998093E+01 0.  1.
</event>
<event>
 5   0  0.3934634E-02  0.5997375E+03  0.7818609E-02  0.9905951E-01
        2   -1    0    0  501    0  0.00000000000E+00  0.00000000000E+00  0.16160669428E+04  0.16160669428E+04  0.25500000920E-02 0.  1.
       -2   -1    0    0    0  501  0.00000000000E+00  0.00000000000E+00 -0.55642036668E+02  0.55642036726E+02  0.25500000920E-02 0. -1.
    10030    2    1    2    0    0  0.00000000000E+00  0.00000000000E+00  0.15604249061E+04  0.16717089795E+04  0.59973746302E+03 0.  0.
        1    1    3    3  502    0  0.13360152782E+03 -0.16724221097E+03  0.19484536807E+03  0.28945473368E+03  0.50400001928E-02 0. -1.
       -1    1    3    3    0  502 -0.13360152782E+03  0.16724221097E+03  0.13655795380E+04  0.13822542458E+04  0.50400001928E-02 0.  1.
</event>
<event>
 5   0  0.3798925E-02  0.5749056E+03  0.7818609E-02  0.9958882E-01
        2   -1    0    0  501    0  0.00000000000E+00  0.00000000000E+00  0.74658333514E+03  0.74658333515E+03  0.25500000920E-02 0. -1.
       -2   -1    0    0    0  501  0.00000000000E+00  0.00000000000E+00 -0.11067632798E+03  0.11067632801E+03  0.25500000920E-02 0.  1.
    10030    2    1    2    0    0  0.00000000000E+00  0.00000000000E+00  0.63590700717E+03  0.85725966316E+03  0.57490556469E+03 0.  0.
        2    1    3    3  502    0 -0.10254261534E+03 -0.82850074551E+02 -0.62942192927E+02  0.14608505218E+03  0.25500000920E-02 0.  1.
       -2    1    3    3    0  502  0.10254261534E+03  0.82850074551E+02  0.69884920009E+03  0.71117461097E+03  0.25500000920E-02 0. -1.
</event>
<event>
 5   0  0.3798925E-02  0.6011414E+03  0.7818609E-02  0.9903041E-01
       -2   -1    0    0    0  501  0.00000000000E+00  0.00000000000E+00  0.36904392857E+03  0.36904392858E+03  0.25500000920E-02 0. -1.
        2   -1    0    0  501    0  0.00000000000E+00  0.00000000000E+00 -0.24480215642E+03  0.24480215643E+03  0.25500000920E-02 0.  1.
    10030    2    1    2    0    0  0.00000000000E+00  0.00000000000E+00  0.12424177215E+03  0.61384608502E+03  0.60114141277E+03 0.  0.
        2    1    3    3  502    0  0.22023704732E+03  0.14818547936E+03 -0.81853452827E+02  0.27778279474E+03  0.25500000920E-02 0.  1.
       -2    1    3    3    0  502 -0.22023704732E+03 -0.14818547936E+03  0.20609522498E+03  0.33606329028E+03  0.25500000920E-02 0. -1.
</event>
<event>
 5   0  0.2309055E-02  0.6053149E+03  0.7818609E-02  0.9894440E-01
        1   -1    0    0  501    0  0.00000000000E+00  0.00000000000E+00  0.60333760387E+03  0.60333760389E+03  0.50400001928E-02 0.  1.
       -1   -1    0    0    0  501  0.00000000000E+00  0.00000000000E+00 -0.15182467717E+03  0.15182467726E+03  0.50400001928E-02 0. -1.
    10030    2    1    2    0    0  0.00000000000E+00  0.00000000000E+00  0.45151292669E+03  0.75516228114E+03  0.60531491630E+03 0.  0.
        4    1    3    3  502    0  0.91282276021E+02  0.27359385469E+03  0.11132198727E+03  0.30916055536E+03  0.12699999809E+01 0. -1.
       -4    1    3    3    0  502 -0.91282276021E+02 -0.27359385469E+03  0.34019093942E+03  0.44600172578E+03  0.12699999809E+01 0.  1.
</event>
<event>
 5   0  0.2276105E-02  0.5969385E+03  0.7818609E-02  0.9911778E-01
        1   -1    0    0  501    0  0.00000000000E+00  0.00000000000E+00  0.57344254914E+02  0.57344255135E+02  0.50400001928E-02 0.  1.
       -1   -1    0    0    0  501  0.00000000000E+00  0.00000000000E+00 -0.15534927879E+04  0.15534927879E+04  0.50400001928E-02 0. -1.
    10030    2    1    2    0    0  0.00000000000E+00  0.00000000000E+00 -0.14961485329E+04  0.16108370430E+04  0.59693847796E+03 0.  0.
        1    1    3    3  502    0  0.65973812263E+02 -0.76511486546E+02  0.98017242284E+01  0.10150184876E+03  0.50400001928E-02 0.  1.
       -1    1    3    3    0  502 -0.65973812263E+02  0.76511486546E+02 -0.15059502572E+04  0.15093351942E+04  0.50400001928E-02 0. -1.
</event>
<event>
 5   0  0.3737642E-02  0.6081831E+03  0.7818609E-02  0.9888573E-01
        2   -1    0    0  501    0  0.00000000000E+00  0.00000000000E+00  0.11632700856E+04  0.11632700856E+04  0.25500000920E-02 0.  1.
       -2   -1    0    0    0  501  0.00000000000E+00  0.00000000000E+00 -0.79492856468E+02  0.79492856509E+02  0.25500000920E-02 0. -1.
    10030    2    1    2    0    0  0.00000000000E+00  0.00000000000E+00  0.10837772291E+04  0.12427629421E+04  0.60818307104E+03 0.  0.
        5    1    3    3  502    0  0.10134255612E+03  0.16927476754E+03  0.69136403743E+02  0.20910808910E+03  0.46999998093E+01 0. -1.
       -5    1    3    3    0  502 -0.10134255612E+03 -0.16927476754E+03  0.10146408254E+04  0.10336548530E+04  0.46999998093E+01 0.  1.
</event>
<event>
 5   0  0.2382531E-02  0.5971645E+03  0.7818609E-02  0.9911306E-01
       -1   -1    0    0    0  501  0.00000000000E+00  0.00000000000E+00  0.11492836439E+03  0.11492836450E+03  0.50400001928E-02 0. -1.
        1   -1    0    0  501    0  0.00000000000E+00  0.00000000000E+00 -0.77571252071E+03  0.77571252072E+03  0.50400001928E-02 0.  1.
    10030    2    1    2    0    0  0.00000000000E+00  0.00000000000E+00 -0.66078415631E+03  0.89064088522E+03  0.59716453779E+03 0.  0.
        5    1    3    3  502    0 -0.13230901372E+03  0.12072262315E+03 -0.68662588118E+03  0.70961737406E+03  0.46999998093E+01 0.  1.
       -5    1    3    3    0  502  0.13230901372E+03 -0.12072262315E+03  0.25841724871E+02  0.18102351117E+03  0.46999998093E+01 0. -1.
</event>
<event>
 5   0  0.3798925E-02  0.6146021E+03  0.7818609E-02  0.9875566E-01
        2   -1    0    0  501    0  0.00000000000E+00  0.00000000000E+00  0.81481745515E+03  0.81481745515E+03  0.25500000920E-02 0.  1.
       -2   -1    0    0    0  501  0.00000000000E+00  0.00000000000E+00 -0.11589580468E+03  0.11589580471E+03  0.25500000920E-02 0. -1.
    10030    2    1    2    0    0  0.00000000000E+00  0.00000000000E+00  0.69892165047E+03  0.93071325986E+03  0.61460206524E+03 0.  0.
        2    1    3    3  502    0 -0.72670030916E+02 -0.29759291695E+03  0.38628896769E+03  0.49301282354E+03  0.25500000920E-02 0.  1.
       -2    1    3    3    0  502  0.72670030916E+02  0.29759291695E+03  0.31263268278E+03  0.43770043632E+03  0.25500000920E-02 0. -1.
</event>
<event>
 5   0  0.3724066E-02  0.5951436E+03  0.7818609E-02  0.9915533E-01
       -2   -1    0    0    0  501  0.00000000000E+00  0.00000000000E+00  0.58231508410E+02  0.58231508466E+02  0.25500000920E-02 0.  1.
        2   -1    0    0  501    0  0.00000000000E+00  0.00000000000E+00 -0.15206367958E+04  0.15206367958E+04  0.25500000920E-02 0. -1.
    10030    2    1    2    0    0  0.00000000000E+00  0.00000000000E+00 -0.14624052874E+04  0.15788683043E+04  0.59514359413E+03 0.  0.
        4    1    3    3  502    0 -0.80870175686E+02  0.25180801459E+03 -0.36939163043E+03  0.45431162329E+03  0.12699999809E+01 0.  1.
       -4    1    3    3    0  502  0.80870175686E+02 -0.25180801459E+03 -0.10930136570E+04  0.11245566810E+04  0.12699999809E+01 0. -1.
</event>
<event>
 5   0  0.2309055E-02  0.6085277E+03  0.7818609E-02  0.9887870E-01
       -1   -1    0    0    0  501  0.00000000000E+00  0.00000000000E+00  0.62699974456E+03  0.62699974458E+03  0.50400001928E-02 0. -1.
        1   -1    0    0  501    0  0.00000000000E+00  0.00000000000E+00 -0.14764996900E+03  0.14764996909E+03  0.50400001928E-02 0.  1.
    10030    2    1    2    0    0  0.00000000000E+00  0.00000000000E+00  0.47934977556E+03  0.77464971367E+03  0.60852770813E+03 0.  0.
        4    1    3    3  502    0 -0.23255007467E+03 -0.87624854979E+02  0.16203570247E+02  0.24904180579E+03  0.12699999809E+01 0.  1.
       -4    1    3    3    0  502  0.23255007467E+03  0.87624854979E+02  0.46314620531E+03  0.52560790789E+03  0.12699999809E+01 0. -1.
</event>
<event>
 5   0  0.3737642E-02  0.6045408E+03  0.7818609E-02  0.9896030E-01
       -2   -1    0    0    0  501  0.00000000000E+00  0.00000000000E+00  0.70240019029E+02  0.70240019075E+02  0.25500000920E-02 0. -1.
        2   -1    0    0  501    0  0.00000000000E+00  0.00000000000E+00 -0.13007881433E+04  0.13007881433E+04  0.25500000920E-02 0.  1.
    10030    2    1    2    0    0  0.00000000000E+00  0.00000000000E+00 -0.12305481243E+04  0.13710281624E+04  0.60454076445E+03 0.  0.
        5    1    3    3  502    0 -0.52030691474E+01 -0.11236649961E+03  0.20914788819E+02  0.11451122457E+03  0.46999998093E+01 0. -1.
       -5    1    3    3    0  502  0.52030691474E+01  0.11236649961E+03 -0.12514629131E+04  0.12565169378E+04  0.46999998093E+01 0.  1.
</event>
<event>
 5   0  0.3832191E-02  0.6042620E+03  0.7818609E-02  0.9896603E-01
       -2   -1    0    0    0  501  0.00000000000E+00  0.00000000000E+00  0.23133188037E+03  0.23133188038E+03  0.25500000920E-02 0. -1.
        2   -1    0    0  501    0  0.00000000000E+00  0.00000000000E+00 -0.39459814682E+03  0.39459814683E+03  0.25500000920E-02 0.  1.
    10030    2    1    2    0    0  0.00000000000E+00  0.00000000000E+00 -0.16326626645E+03  0.62593002722E+03  0.60426196737E+03 0.  0.
        3    1    3    3  502    0 -0.76118522163E+02  0.17225923627E+03  0.16309240160E+03  0.24913132192E+03  0.10100000352E+00 0. -1.
       -3    1    3    3    0  502  0.76118522163E+02 -0.17225923627E+03 -0.32635866806E+03  0.37679870530E+03  0.10100000352E+00 0.  1.
</event>
<event>
 5   0  0.3724066E-02  0.5998395E+03  0.7818609E-02  0.9905739E-01
        2   -1    0    0  501    0  0.00000000000E+00  0.00000000000E+00  0.70050274398E+03  0.70050274398E+03  0.25500000920E-02 0.  1.
       -2   -1    0    0    0  501  0.00000000000E+00  0.00000000000E+00 -0.12841042479E+03  0.12841042481E+03  0.25500000920E-02 0. -1.
    10030    2    1    2    0    0  0.00000000000E+00  0.00000000000E+00  0.57209231919E+03  0.82891316880E+03  0.59983949497E+03 0.  0.
        4    1    3    3  502    0 -0.28622938488E+02  0.14780492702E+03  0.64449902367E+03  0.66185056732E+03  0.12699999809E+01 0.  1.
       -4    1    3    3    0  502  0.28622938488E+02 -0.14780492702E+03 -0.72406704475E+02  0.16706260148E+03  0.12699999809E+01 0. -1.
</event>
<event>
 5   0  0.2225808E-02  0.6019635E+03  0.7818609E-02  0.9901341E-01
       -1   -1    0    0    0  501  0.00000000000E+00  0.00000000000E+00  0.95573547841E+03  0.95573547843E+03  0.50400001928E-02 0.  1.
        1   -1    0    0  501    0  0.00000000000E+00  0.00000000000E+00 -0.94785650104E+02  0.94785650238E+02  0.50400001928E-02 0. -1.
    10030    2    1    2    0    0  0.00000000000E+00  0.00000000000E+00  0.86094982831E+03  0.10505211287E+04  0.60196348303E+03 0.  0.
        2    1    3    3  502    0 -0.17055525184E+03  0.97113137172E+02  0.32250172131E+02  0.19889728242E+03  0.25500000920E-02 0. -1.
       -2    1    3    3    0  502  0.17055525184E+03 -0.97113137172E+02  0.82869965618E+03  0.85162384625E+03  0.25500000920E-02 0.  1.
</event>
<event>
 5   0  0.3737642E-02  0.6002903E+03  0.7818609E-02  0.9904804E-01
       -2   -1    0    0    0  501  0.00000000000E+00  0.00000000000E+00  0.11893730226E+03  0.11893730228E+03  0.25500000920E-02 0.  1.
        2   -1    0    0  501    0  0.00000000000E+00  0.00000000000E+00 -0.75743371670E+03  0.75743371671E+03  0.25500000920E-02 0. -1.
    10030    2    1    2    0    0  0.00000000000E+00  0.00000000000E+00 -0.63849641445E+03  0.87637101899E+03  0.60029033947E+03 0.  0.
        5    1    3    3  502    0  0.23002699215E+03  0.14489901064E+03 -0.50481726855E+03  0.57338530241E+03  0.46999998093E+01 0. -1.
       -5    1    3    3    0  502 -0.23002699215E+03 -0.14489901064E+03 -0.13367914590E+03  0.30298571658E+03  0.46999998093E+01 0.  1.
</event>
<event>
 5   0  0.2295179E-02  0.5954017E+03  0.7818609E-02  0.9914992E-01
        1   -1    0    0  501    0  0.00000000000E+00  0.00000000000E+00  0.95153398848E+02  0.95153398982E+02  0.50400001928E-02 0. -1.
       -1   -1    0    0    0  501  0.00000000000E+00  0.00000000000E+00 -0.93139913528E+03  0.93139913529E+03  0.50400001928E-02 0.  1.
    10030    2    1    2    0    0  0.00000000000E+00  0.00000000000E+00 -0.83624573643E+03  0.10265525343E+04  0.59540169124E+03 0.  0.
        3    1    3    3  502    0  0.32331123345E+02  0.59744137949E+02  0.81611826732E+02  0.10618457524E+03  0.10100000352E+00 0. -1.
       -3    1    3    3    0  502 -0.32331123345E+02 -0.59744137949E+02 -0.91785756316E+03  0.92036795903E+03  0.10100000352E+00 0.  1.
</event>
<event>
 5   0  0.3724066E-02  0.5980790E+03  0.7818609E-02  0.9909400E-01
       -2   -1    0    0    0  501  0.00000000000E+00  0.00000000000E+00  0.15146869894E+03  0.15146869896E+03  0.25500000920E-02 0. -1.
        2   -1    0    0  501    0  0.00000000000E+00  0.00000000000E+00 -0.59038350509E+03  0.59038350509E+03  0.25500000920E-02 0.  1.
    10030    2    1    2    0    0  0.00000000000E+00  0.00000000000E+00 -0.43891480615E+03  0.74185220405E+03  0.59807899612E+03 0.  0.
        4    1    3    3  502    0  0.16193535207E+02 -0.23593213036E+03 -0.44647553787E+03  0.50524075403E+03  0.12699999809E+01 0.  1.
       -4    1    3    3    0  502 -0.16193535207E+02  0.23593213036E+03  0.75607317210E+01  0.23661145002E+03  0.12699999809E+01 0. -1.
</event>
<event>
 5   0  0.2276105E-02  0.6017573E+03  0.7818609E-02  0.9901767E-01
       -1   -1    0    0    0  501  0.00000000000E+00  0.00000000000E+00  0.45894517299E+03  0.45894517302E+03  0.50400001928E-02 0.  1.
        1   -1    0    0  501    0  0.00000000000E+00  0.00000000000E+00 -0.19725225801E+03  0.19725225807E+03  0.50400001928E-02 0. -1.
    10030    2    1    2    0    0  0.00000000000E+00  0.00000000000E+00  0.26169291498E+03  0.65619743110E+03  0.60175733217E+03 0.  0.
        1    1    3    3  502    0 -0.27996013162E+03  0.10586878782E+03  0.16431684569E+03  0.34144677672E+03  0.50400001928E-02 0.  1.
       -1    1    3    3    0  502  0.27996013162E+03 -0.10586878782E+03  0.97376069297E+02  0.31475065437E+03  0.50400001928E-02 0. -1.
</event>
<event>
 5   0  0.3737642E-02  0.5986697E+03  0.7818609E-02  0.9908170E-01
       -2   -1    0    0    0  501  0.00000000000E+00  0.00000000000E+00  0.51145876093E+02  0.51145876156E+02  0.25500000920E-02 0. -1.
        2   -1    0    0  501    0  0.00000000000E+00  0.00000000000E+00 -0.17518782236E+04  0.17518782236E+04  0.25500000920E-02 0.  1.
    10030    2    1    2    0    0  0.00000000000E+00  0.00000000000E+00 -0.17007323475E+04  0.18030240997E+04  0.59866968058E+03 0.  0.
        5    1    3    3  502    0  0.28625461372E+03 -0.66199963177E+02 -0.67853671967E+03  0.73943107112E+03  0.46999998093E+01 0. -1.
       -5    1    3    3    0  502 -0.28625461372E+03  0.66199963177E+02 -0.10221956278E+04  0.10635930286E+04  0.46999998093E+01 0.  1.
</event>
<event>
 5   0  0.2382531E-02  0.5985112E+03  0.7818609E-02  0.9908500E-01
        1   -1    0    0  501    0  0.00000000000E+00  0.00000000000E+00  0.41713187607E+03  0.41713187610E+03  0.50400001928E-02 0.  1.
       -1   -1    0    0    0  501  0.00000000000E+00  0.00000000000E+00 -0.21468968143E+03  0.21468968148E+03  0.50400001928E-02 0. -1.
    10030    2    1    2    0    0  0.00000000000E+00  0.00000000000E+00  0.20244219464E+03  0.63182155758E+03  0.59851118490E+03 0.  0.
        5    1    3    3  502    0  0.69434551570E+02 -0.22976283636E+03  0.28982539338E+03  0.37634155573E+03  0.46999998093E+01 0.  1.
       -5    1    3    3    0  502 -0.69434551570E+02  0.22976283636E+03 -0.87383198740E+02  0.25548000185E+03  0.46999998093E+01 0. -1.
</event>
<event>
 5   0  0.2382531E-02  0.5955757E+03  0.7818609E-02  0.9914628E-01
        1   -1    0    0  501    0  0.00000000000E+00  0.00000000000E+00  0.33559941306E+03  0.33559941310E+03  0.50400001928E-02 0.  1.
       -1   -1    0    0    0  501  0.00000000000E+00  0.00000000000E+00 -0.26423647479E+03  0.26423647484E+03  0.50400001928E-02 0. -1.
    10030    2    1    2    0    0  0.00000000000E+00  0.00000000000E+00  0.71362938269E+02  0.59983588793E+03  0.59557570761E+03 0.  0.
        5    1    3    3  502    0 -0.29335788644E+03 -0.32236661083E+02  0.75428480760E+02  0.30464667660E+03  0.46999998093E+01 0.  1.
       -5    1    3    3    0  502  0.29335788644E+03  0.32236661083E+02 -0.40655424901E+01  0.29518921134E+03  0.46999998093E+01 0. -1.
</event>
<event>
 5   0  0.3737642E-02  0.5942117E+03  0.7818609E-02  0.9917488E-01
       -2   -1    0    0    0  501  0.00000000000E+00  0.00000000000E+00  0.17636910471E+03  0.17636910473E+03  0.25500000920E-02 0. -1.
        2   -1    0    0  501    0  0.00000000000E+00  0.00000000000E+00 -0.50049517441E+03  0.50049517442E+03  0.25500000920E-02 0.  1.
    10030    2    1    2    0    0  0.00000000000E+00  0.00000000000E+00 -0.32412606970E+03  0.67686427915E+03  0.59421169908E+03 0.  0.
        5    1    3    3  502    0 -0.18064622324E+03 -0.22904288211E+03 -0.98069588326E+02  0.30778796917E+03  0.46999998093E+01 0. -1.
       -5    1    3    3    0  502  0.18064622324E+03  0.22904288211E+03 -0.22605648137E+03  0.36907630998E+03  0.46999998093E+01 0.  1.
</event>
<event>
 5   0  0.2309055E-02  0.5982879E+03  0.7818609E-02  0.9908964E-01
        1   -1    0    0  501    0  0.00000000000E+00  0.00000000000E+00  0.47974674180E+03  0.47974674183E+03  0.50400001928E-02 0.  1.
       -1   -1    0    0    0  501  0.00000000000E+00  0.00000000000E+00 -0.18652988250E+03  0.18652988257E+03  0.50400001928E-02 0. -1.
    10030    2    1    2    0    0  0.00000000000E+00  0.00000000000E+00  0.29321685930E+03  0.66627662440E+03  0.59828790197E+03 0.  0.
        4    1    3    3  502    0 -0.23442656520E+03 -0.11658785092E+03  0.30774757427E+03  0.40405287256E+03  0.12699999809E+01 0.  1.
       -4    1    3    3    0  502  0.23442656520E+03  0.11658785092E+03 -0.14530714971E+02  0.26222375184E+03  0.12699999809E+01 0. -1.
</event>
<event>
 5   0  0.2309055E-02  0.5976339E+03  0.7818609E-02  0.9910327E-01
       -1   -1    0    0    0  501  0.00000000000E+00  0.00000000000E+00  0.10654872655E+03  0.10654872667E+03  0.50400001928E-02 0. -1.
        1   -1    0    0  501    0  0.00000000000E+00  0.00000000000E+00 -0.83803506512E+03  0.83803506513E+03  0.50400001928E-02 0.  1.
    10030    2    1    2    0    0  0.00000000000E+00  0.00000000000E+00 -0.73148633857E+03  0.94458379180E+03  0.59763389815E+03 0.  0.
        4    1    3    3  502    0 -0.12084890856E+03  0.99326893212E+02  0.36657467986E+02  0.16067256541E+03  0.12699999809E+01 0. -1.
       -4    1    3    3    0  502  0.12084890856E+03 -0.99326893212E+02 -0.76814380656E+03  0.78391122639E+03  0.12699999809E+01 0.  1.
</event>
<event>
 5   0  0.2382531E-02  0.6019827E+03  0.7818609E-02  0.9901301E-01
       -1   -1    0    0    0  501  0.00000000000E+00  0.00000000000E+00  0.79090955828E+02  0.79090955989E+02  0.50400001928E-02 0. -1.
        1   -1    0    0  501    0  0.00000000000E+00  0.00000000000E+00 -0.11454633710E+04  0.11454633710E+04  0.50400001928E-02 0.  1.
    10030    2    1    2    0    0  0.00000000000E+00  0.00000000000E+00 -0.10663724152E+04  0.12245543270E+04  0.60198270070E+03 0.  0.
        5    1    3    3  502    0  0.23667673134E+03  0.49700970634E+02 -0.16879914964E+03  0.29495983550E+03  0.46999998093E+01 0. -1.
       -5    1    3    3    0  502 -0.23667673134E+03 -0.49700970634E+02 -0.89757326555E+03  0.92959449153E+03  0.46999998093E+01 0.  1.
</event>
<event>
 5   0  0.2225808E-02  0.6010645E+03  0.7818609E-02  0.9903200E-01
        1   -1    0    0  501    0  0.00000000000E+00  0.00000000000E+00  0.43020240867E+03  0.43020240870E+03  0.50400001928E-02 0.  1.
       -1   -1    0    0    0  501  0.00000000000E+00  0.00000000000E+00 -0.20994679975E+03  0.20994679981E+03  0.50400001928E-02 0. -1.
    10030    2    1    2    0    0  0.00000000000E+00  0.00000000000E+00  0.22025560893E+03  0.64014920851E+03  0.60106445236E+03 0.  0.
        2    1    3    3  502    0 -0.50099297818E+02  0.16570005508E+03 -0.15151585555E+03  0.23005108647E+03  0.25500000920E-02 0. -1.
       -2    1    3    3    0  502  0.50099297818E+02 -0.16570005508E+03  0.37177146447E+03  0.41009812204E+03  0.25500000920E-02 0.  1.
</event>
<event>
 5   0  0.2309055E-02  0.6020668E+03  0.7818609E-02  0.9901127E-01
       -1   -1    0    0    0  501  0.00000000000E+00  0.00000000000E+00  0.89481905853E+02  0.89481905995E+02  0.50400001928E-02 0.  1.
        1   -1    0    0  501    0  0.00000000000E+00  0.00000000000E+00 -0.10127311338E+04  0.10127311338E+04  0.50400001928E-02 0. -1.
    10030    2    1    2    0    0  0.00000000000E+00  0.00000000000E+00 -0.92324922795E+03  0.11022130398E+04  0.60206681375E+03 0.  0.
        4    1    3    3  502    0 -0.87031232916E+02  0.28059921550E+03 -0.58180022933E+03  0.65176949529E+03  0.12699999809E+01 0. -1.
       -4    1    3    3    0  502  0.87031232916E+02 -0.28059921550E+03 -0.34144899862E+03  0.45044354452E+03  0.12699999809E+01 0.  1.
</event>
<event>
 5   0  0.2309055E-02  0.5949038E+03  0.7818609E-02  0.9916036E-01
       -1   -1    0    0    0  501  0.00000000000E+00  0.00000000000E+00  0.21062912724E+03  0.21062912730E+03  0.50400001928E-02 0. -1.
        1   -1    0    0  501    0  0.00000000000E+00  0.00000000000E+00 -0.42006363252E+03  0.42006363255E+03  0.50400001928E-02 0.  1.
    10030    2    1    2    0    0  0.00000000000E+00  0.00000000000E+00 -0.20943450528E+03  0.63069275986E+03  0.59490381183E+03 0.  0.
        4    1    3    3  502    0 -0.17688771946E+03  0.83328191181E+01 -0.35808714870E+03  0.39948306615E+03  0.12699999809E+01 0.  1.
       -4    1    3    3    0  502  0.17688771946E+03 -0.83328191181E+01  0.14865264342E+03  0.23120969371E+03  0.12699999809E+01 0. -1.
</event>
<event>
 5   0  0.2276105E-02  0.6042454E+03  0.7818609E-02  0.9896637E-01
       -1   -1    0    0    0  501  0.00000000000E+00  0.00000000000E+00  0.11203962737E+03  0.11203962748E+03  0.50400001928E-02 0.  1.
        1   -1    0    0  501    0  0.00000000000E+00  0.00000000000E+00 -0.81469507976E+03  0.81469507977E+03  0.50400001928E-02 0. -1.
    10030    2    1    2    0    0  0.00000000000E+00  0.00000000000E+00 -0.70265545239E+03  0.92673470725E+03  0.60424542436E+03 0.  0.
        1    1    3    3  502    0  0.13499947211E+03 -0.12246528831E+03 -0.72086976508E+03  0.74355619999E+03  0.50400001928E-02 0. -1.
       -1    1    3    3    0  502 -0.13499947211E+03  0.12246528831E+03  0.18214312689E+02  0.18317850726E+03  0.50400001928E-02 0.  1.
</event>
<event>
 5   0  0.3798925E-02  0.5992010E+03  0.7818609E-02  0.9907065E-01
       -2   -1    0    0    0  501  0.00000000000E+00  0.00000000000E+00  0.85758027588E+03  0.85758027588E+03  0.25500000920E-02 0. -1.
        2   -1    0    0  501    0  0.00000000000E+00  0.00000000000E+00 -0.10466710773E+03  0.10466710776E+03  0.25500000920E-02 0.  1.
    10030    2    1    2    0    0  0.00000000000E+00  0.00000000000E+00  0.75291316815E+03  0.96224738364E+03  0.59920095840E+03 0.  0.
        2    1    3    3  502    0  0.29841044195E+03 -0.25732792379E+02  0.36516062219E+03  0.47228513472E+03  0.25500000920E-02 0.  1.
       -2    1    3    3    0  502 -0.29841044195E+03  0.25732792379E+02  0.38775254596E+03  0.48996224893E+03  0.25500000920E-02 0. -1.
</event>
<event>
 5   0  0.2276105E-02  0.5892158E+03  0.7818609E-02  0.9928036E-01
        1   -1    0    0  501    0  0.00000000000E+00  0.00000000000E+00  0.37012552019E+03  0.37012552023E+03  0.50400001928E-02 0.  1.
       -1   -1    0    0    0  501  0.00000000000E+00  0.00000000000E+00 -0.23449831720E+03  0.23449831725E+03  0.50400001928E-02 0. -1.
    10030    2    1    2    0    0  0.00000000000E+00  0.00000000000E+00  0.13562720299E+03  0.60462383748E+03  0.58921578955E+03 0.  0.
        1    1    3    3  502    0 -0.11749623058E+03  0.25591821305E+03  0.15664712331E+03  0.32223875812E+03  0.50400001928E-02 0.  1.
       -1    1    3    3    0  502  0.11749623058E+03 -0.25591821305E+03 -0.21019920311E+02  0.28238507936E+03  0.50400001928E-02 0. -1.
</event>
<event>
 5   0  0.2309055E-02  0.6001413E+03  0.7818609E-02  0.9905113E-01
        1   -1    0    0  501    0  0.00000000000E+00  0.00000000000E+00  0.48016925200E+03  0.48016925203E+03  0.50400001928E-02 0. -1.
       -1   -1    0    0    0  501  0.00000000000E+00  0.00000000000E+00 -0.18752216988E+03  0.18752216995E+03  0.50400001928E-02 0.  1.
    10030    2    1    2    0    0  0.00000000000E+00  0.00000000000E+00  0.29264708212E+03  0.66769142198E+03  0.60014125030E+03 0.  0.
        4    1    3    3  502    0 -0.37577569137E+02  0.22618474760E+03 -0.69033590715E+02  0.23945534719E+03  0.12699999809E+01 0.  1.
       -4    1    3    3    0  502  0.37577569137E+02 -0.22618474760E+03  0.36168067283E+03  0.42823607479E+03  0.12699999809E+01 0. -1.
</event>
<event>
 5   0  0.3737642E-02  0.6074166E+03  0.7818609E-02  0.9890137E-01
        2   -1    0    0  501    0  0.00000000000E+00  0.00000000000E+00  0.97880554850E+03  0.97880554850E+03  0.25500000920E-02 0.  1.
       -2   -1    0    0    0  501  0.00000000000E+00  0.00000000000E+00 -0.94235997876E+02  0.94235997911E+02  0.25500000920E-02 0. -1.
    10030    2    1    2    0    0  0.00000000000E+00  0.00000000000E+00  0.88456955062E+03  0.10730415464E+04  0.60741655430E+03 0.  0.
        5    1    3    3  502    0  0.22001368969E+03  0.85229025223E+02  0.10456732181E+03  0.25812095068E+03  0.46999998093E+01 0. -1.
       -5    1    3    3    0  502 -0.22001368969E+03 -0.85229025223E+02  0.78000222881E+03  0.81492059573E+03  0.46999998093E+01 0.  1.
</event>
<event>
 5   0  0.1521750E-02  0.6053888E+03  0.7818609E-02  0.9894289E-01
       -4   -1    0    0    0  501  0.00000000000E+00  0.00000000000E+00  0.27593516013E+03  0.27593808272E+03  0.12699999809E+01 0. -1.
        4   -1    0    0  501    0  0.00000000000E+00  0.00000000000E+00 -0.33204271655E+03  0.33204514529E+03  0.12699999809E+01 0.  1.
    10030    2    1    2    0    0  0.00000000000E+00  0.00000000000E+00 -0.56107556421E+02  0.60798322801E+03  0.60538875746E+03 0.  0.
        2    1    3    3  502    0  0.23390526058E+03 -0.19212336963E+03 -0.28966972751E+02  0.30407588790E+03  0.25500000920E-02 0.  1.
       -2    1    3    3    0  502 -0.23390526058E+03  0.19212336963E+03 -0.27140583670E+02  0.30390734011E+03  0.25500000920E-02 0. -1.
</event>
<event>
 5   0  0.2295179E-02  0.5996652E+03  0.7818609E-02  0.9906101E-01
       -1   -1    0    0    0  501  0.00000000000E+00  0.00000000000E+00  0.56856082803E+02  0.56856083026E+02  0.50400001928E-02 0.  1.
        1   -1    0    0  501    0  0.00000000000E+00  0.00000000000E+00 -0.15811779157E+04  0.15811779157E+04  0.50400001928E-02 0. -1.
    10030    2    1    2    0    0  0.00000000000E+00  0.00000000000E+00 -0.15243218329E+04  0.16380339987E+04  0.59966518221E+03 0.  0.
        3    1    3    3  502    0  0.29025140202E+03 -0.70573814095E+02 -0.83302598594E+03  0.88496262241E+03  0.10100000352E+00 0. -1.
       -3    1    3    3    0  502 -0.29025140202E+03  0.70573814095E+02 -0.69129584691E+03  0.75307137628E+03  0.10100000352E+00 0.  1.
</event>
<event>
 5   0  0.2309055E-02  0.6005414E+03  0.7818609E-02  0.9904284E-01
        1   -1    0    0  501    0  0.00000000000E+00  0.00000000000E+00  0.24916518668E+03  0.24916518673E+03  0.50400001928E-02 0. -1.
       -1   -1    0    0    0  501  0.00000000000E+00  0.00000000000E+00 -0.36185826495E+03  0.36185826499E+03  0.50400001928E-02 0.  1.
    10030    2    1    2    0    0  0.00000000000E+00  0.00000000000E+00 -0.11269307827E+03  0.61102345171E+03  0.60054136298E+03 0.  0.
        4    1    3    3  502    0  0.10338702869E+03 -0.55282169847E+02 -0.33760574369E+03  0.35738529219E+03  0.12699999809E+01 0.  1.
       -4    1    3    3    0  502 -0.10338702869E+03  0.55282169847E+02  0.22491266541E+03  0.25363815952E+03  0.12699999809E+01 0. -1.
</event>
<event>
 5   0  0.2225808E-02  0.6012675E+03  0.7818609E-02  0.9902780E-01
        1   -1    0    0  501    0  0.00000000000E+00  0.00000000000E+00  0.19967273329E+04  0.19967273329E+04  0.50400001928E-02 0.  1.
       -1   -1    0    0    0  501  0.00000000000E+00  0.00000000000E+00 -0.45264395345E+02  0.45264395625E+02  0.50400001928E-02 0. -1.
    10030    2    1    2    0    0  0.00000000000E+00  0.00000000000E+00  0.19514629375E+04  0.20419917285E+04  0.60126751346E+03 0.  0.
        2    1    3    3  502    0  0.18219945888E+03 -0.21127558942E+03  0.59532321967E+03  0.65745247234E+03  0.25500000920E-02 0. -1.
       -2    1    3    3    0  502 -0.18219945888E+03  0.21127558942E+03  0.13561397179E+04  0.13845392562E+04  0.25500000920E-02 0.  1.
</event>
<event>
 5   0  0.3724066E-02  0.6010861E+03  0.7818609E-02  0.9903155E-01
       -2   -1    0    0    0  501  0.00000000000E+00  0.00000000000E+00  0.20547987060E+03  0.20547987062E+03  0.25500000920E-02 0.  1.
        2   -1    0    0  501    0  0.00000000000E+00  0.00000000000E+00 -0.43958622118E+03  0.43958622119E+03  0.25500000920E-02 0. -1.
    10030    2    1    2    0    0  0.00000000000E+00  0.00000000000E+00 -0.23410635058E+03  0.64506609181E+03  0.60108608321E+03 0.  0.
        4    1    3    3  502    0  0.15378726317E+03  0.59712903742E+02 -0.38664763707E+03  0.42037383522E+03  0.12699999809E+01 0. -1.
       -4    1    3    3    0  502 -0.15378726317E+03 -0.59712903742E+02  0.15254128649E+03  0.22469225659E+03  0.12699999809E+01 0.  1.
</event>
<event>
 5   0  0.2382531E-02  0.6005481E+03  0.7818609E-02  0.9904269E-01
        1   -1    0    0  501    0  0.00000000000E+00  0.00000000000E+00  0.50570135795E+03  0.50570135798E+03  0.50400001928E-02 0.  1.
       -1   -1    0    0    0  501  0.00000000000E+00  0.00000000000E+00 -0.17829597716E+03  0.17829597723E+03  0.50400001928E-02 0. -1.
    10030    2    1    2    0    0  0.00000000000E+00  0.00000000000E+00  0.32740538080E+03  0.68399733520E+03  0.60054814228E+03 0.  0.
        5    1    3    3  502    0  0.34996481495E+02 -0.24142049509E+03  0.36304851807E+03  0.43741847885E+03  0.46999998093E+01 0.  1.
       -5    1    3    3    0  502 -0.34996481495E+02  0.24142049509E+03 -0.35643137278E+02  0.24657885635E+03  0.46999998093E+01 0. -1.
</event>
<event>
 5   0  0.2295179E-02  0.6062018E+03  0.7818609E-02  0.9892622E-01
        1   -1    0    0  501    0  0.00000000000E+00  0.00000000000E+00  0.35509611098E+03  0.35509611102E+03  0.50400001928E-02 0.  1.
       -1   -1    0    0    0  501  0.00000000000E+00  0.00000000000E+00 -0.25871909719E+03  0.25871909724E+03  0.50400001928E-02 0. -1.
    10030    2    1    2    0    0  0.00000000000E+00  0.00000000000E+00  0.96377013798E+02  0.61381520826E+03  0.60620176600E+03 0.  0.
        3    1    3    3  502    0  0.50497027800E+01 -0.15471642316E+03  0.31205193672E+03  0.34833761283E+03  0.10100000352E+00 0.  1.
       -3    1    3    3    0  502 -0.50497027800E+01  0.15471642316E+03 -0.21567492293E+03  0.26547759543E+03  0.10100000352E+00 0. -1.
</event>
<event>
 5   0  0.3798925E-02  0.5989354E+03  0.7818609E-02  0.9907617E-01
       -2   -1    0    0    0  501  0.00000000000E+00  0.00000000000E+00  0.32747403048E+03  0.32747403049E+03  0.25500000920E-02 0.  1.
        2   -1    0    0  501    0  0.00000000000E+00  0.00000000000E+00 -0.27385655156E+03  0.27385655157E+03  0.25500000920E-02 0. -1.
    10030    2    1    2    0    0  0.00000000000E+00  0.00000000000E+00  0.53617478921E+02  0.60133058205E+03  0.59893541794E+03 0.  0.
        2    1    3    3  502    0  0.10707014076E+03 -0.13281352911E+03 -0.22030041006E+03  0.27863187046E+03  0.25500000920E-02 0. -1.
       -2    1    3    3    0  502 -0.10707014076E+03  0.13281352911E+03  0.27391788898E+03  0.32269871160E+03  0.25500000920E-02 0.  1.
</event>
<event>
 5   0  0.3737642E-02  0.6025587E+03  0.7818609E-02  0.9900112E-01
        2   -1    0    0  501    0  0.00000000000E+00  0.00000000000E+00  0.12544149417E+04  0.12544149417E+04  0.25500000920E-02 0. -1.
       -2   -1    0    0    0  501  0.00000000000E+00  0.00000000000E+00 -0.72359828899E+02  0.72359828944E+02  0.25500000920E-02 0.  1.
    10030    2    1    2    0    0  0.00000000000E+00  0.00000000000E+00  0.11820551128E+04  0.13267747707E+04  0.60255871277E+03 0.  0.
        5    1    3    3  502    0  0.25074609234E+03  0.85323591265E+02  0.27504558078E+03  0.38187154851E+03  0.46999998093E+01 0. -1.
       -5    1    3    3    0  502 -0.25074609234E+03 -0.85323591265E+02  0.90700953206E+03  0.94490322219E+03  0.46999998093E+01 0.  1.
</event>
<event>
 5   0  0.3832191E-02  0.6014356E+03  0.7818609E-02  0.9902432E-01
       -2   -1    0    0    0  501  0.00000000000E+00  0.00000000000E+00  0.16688263985E+03  0.16688263987E+03  0.25500000920E-02 0.  1.
        2   -1    0    0  501    0  0.00000000000E+00  0.00000000000E+00 -0.54188495291E+03  0.54188495292E+03  0.25500000920E-02 0. -1.
    10030    2    1    2    0    0  0.00000000000E+00  0.00000000000E+00 -0.37500231306E+03  0.70876759278E+03  0.60143558739E+03 0.  0.
        3    1    3    3  502    0 -0.51389381610E+02 -0.23786701244E+03 -0.39569065115E+03  0.46453491339E+03  0.10100000352E+00 0. -1.
       -3    1    3    3    0  502  0.51389381610E+02  0.23786701244E+03  0.20688338084E+02  0.24423267939E+03  0.10100000352E+00 0.  1.
</event>
<event>
 5   0  0.1521750E-02  0.5993157E+03  0.7818609E-02  0.9906827E-01
       -4   -1    0    0    0  501  0.00000000000E+00  0.00000000000E+00  0.35017850387E+03  0.35018080683E+03  0.12699999809E+01 0. -1.
        4   -1    0    0  501    0  0.00000000000E+00  0.00000000000E+00 -0.25642111608E+03  0.25642426108E+03  0.12699999809E+01 0.  1.
    10030    2    1    2    0    0  0.00000000000E+00  0.00000000000E+00  0.93757387787E+02  0.60660506791E+03  0.59931566028E+03 0.  0.
        3    1    3    3  502    0  0.22504295690E+03  0.17209075659E+03  0.14571495631E+03  0.31857874953E+03  0.10100000352E+00 0. -1.
       -3    1    3    3    0  502 -0.22504295690E+03 -0.17209075659E+03 -0.51957568526E+02  0.28802631839E+03  0.10100000352E+00 0.  1.
</event>
<event>
 5   0  0.3832191E-02  0.6063088E+03  0.7818609E-02  0.9892403E-01
       -2   -1    0    0    0  501  0.00000000000E+00  0.00000000000E+00  0.18028706360E+03  0.18028706362E+03  0.25500000920E-02 0. -1.
        2   -1    0    0  501    0  0.00000000000E+00  0.00000000000E+00 -0.50975693268E+03  0.50975693269E+03  0.25500000920E-02 0.  1.
    10030    2    1    2    0    0  0.00000000000E+00  0.00000000000E+00 -0.32946986908E+03  0.69004399630E+03  0.60630876804E+03 0.  0.
        3    1    3    3  502    0  0.13730539082E+03 -0.21250038167E+03  0.25343814563E+02  0.25426659572E+03  0.10100000352E+00 0. -1.
       -3    1    3    3    0  502 -0.13730539082E+03  0.21250038167E+03 -0.35481368364E+03  0.43577740059E+03  0.10100000352E+00 0.  1.
</event>
<event>
 5   0  0.2382531E-02  0.6028039E+03  0.7818609E-02  0.9899606E-01
       -1   -1    0    0    0  501  0.00000000000E+00  0.00000000000E+00  0.38324802748E+03  0.38324802751E+03  0.50400001928E-02 0.  1.
        1   -1    0    0  501    0  0.00000000000E+00  0.00000000000E+00 -0.23703484871E+03  0.23703484877E+03  0.50400001928E-02 0. -1.
    10030    2    1    2    0    0  0.00000000000E+00  0.00000000000E+00  0.14621317877E+03  0.62028287628E+03  0.60280390921E+03 0.  0.
        5    1    3    3  502    0 -0.53945532802E+02 -0.11571924888E+03 -0.20779235431E+03  0.24392789422E+03  0.46999998093E+01 0. -1.
       -5    1    3    3    0  502  0.53945532802E+02  0.11571924888E+03  0.35400553308E+03  0.37635498206E+03  0.46999998093E+01 0.  1.
</event>
<event>
 5   0  0.2295179E-02  0.6002473E+03  0.7818609E-02  0.9904893E-01
        1   -1    0    0  501    0  0.00000000000E+00  0.00000000000E+00  0.40935527977E+03  0.40935527981E+03  0.50400001928E-02 0. -1.
       -1   -1    0    0    0  501  0.00000000000E+00  0.00000000000E+00 -0.22003922860E+03  0.22003922865E+03  0.50400001928E-02 0.  1.
    10030    2    1    2    0    0  0.00000000000E+00  0.00000000000E+00  0.18931605118E+03  0.62939450846E+03  0.60024734905E+03 0.  0.
        3    1    3    3  502    0  0.16948283542E+03  0.21114997636E+03  0.23042699162E+03  0.35553530441E+03  0.10100000352E+00 0. -1.
       -3    1    3    3    0  502 -0.16948283542E+03 -0.21114997636E+03 -0.41110940445E+02  0.27385920405E+03  0.10100000352E+00 0.  1.
</event>
<event>
 5   0  0.1521750E-02  0.5997650E+03  0.7818609E-02  0.9905894E-01
       -3   -1    0    0    0  501  0.00000000000E+00  0.00000000000E+00  0.14898406385E+03  0.14898409808E+03  0.10100000352E+00 0. -1.
        3   -1    0    0  501    0  0.00000000000E+00  0.00000000000E+00 -0.60361830885E+03  0.60361831730E+03  0.10100000352E+00 0.  1.
    10030    2    1    2    0    0  0.00000000000E+00  0.00000000000E+00 -0.45463424500E+03  0.75260241538E+03  0.59976503642E+03 0.  0.
        4    1    3    3  502    0  0.72939173207E+02 -0.27836092935E+03 -0.12141238652E+03  0.31232596830E+03  0.12699999809E+01 0. -1.
       -4    1    3    3    0  502 -0.72939173207E+02  0.27836092935E+03 -0.33322185849E+03  0.44027644708E+03  0.12699999809E+01 0.  1.
</event>
<event>
 5   0  0.2309055E-02  0.6010913E+03  0.7818609E-02  0.9903145E-01
        1   -1    0    0  501    0  0.00000000000E+00  0.00000000000E+00  0.21023134597E+03  0.21023134603E+03  0.50400001928E-02 0. -1.
       -1   -1    0    0    0  501  0.00000000000E+00  0.00000000000E+00 -0.42965853772E+03  0.42965853775E+03  0.50400001928E-02 0.  1.
    10030    2    1    2    0    0  0.00000000000E+00  0.00000000000E+00 -0.21942719175E+03  0.63988988378E+03  0.60109131659E+03 0.  0.
        4    1    3    3  502    0 -0.23428267590E+03 -0.16994158350E+03 -0.19591932282E+03  0.34950609148E+03  0.12699999809E+01 0.  1.
       -4    1    3    3    0  502  0.23428267590E+03  0.16994158350E+03 -0.23507868930E+02  0.29038379230E+03  0.12699999809E+01 0. -1.
</event>
<event>
 5   0  0.3724066E-02  0.5960327E+03  0.7818609E-02  0.9913671E-01
        2   -1    0    0  501    0  0.00000000000E+00  0.00000000000E+00  0.46310943032E+03  0.46310943033E+03  0.25500000920E-02 0. -1.
       -2   -1    0    0    0  501  0.00000000000E+00  0.00000000000E+00 -0.19177700619E+03  0.19177700621E+03  0.25500000920E-02 0.  1.
    10030    2    1    2    0    0  0.00000000000E+00  0.00000000000E+00  0.27133242413E+03  0.65488643654E+03  0.59603268399E+03 0.  0.
        4    1    3    3  502    0  0.27745950834E+03 -0.65031386420E+02  0.23144774387E+03  0.36712740435E+03  0.12699999809E+01 0. -1.
       -4    1    3    3    0  502 -0.27745950834E+03  0.65031386420E+02  0.39884680256E+02  0.28775903219E+03  0.12699999809E+01 0.  1.
</event>
<event>
 5   0  0.2309055E-02  0.6018841E+03  0.7818609E-02  0.9901505E-01
       -1   -1    0    0    0  501  0.00000000000E+00  0.00000000000E+00  0.41737131276E+02  0.41737131580E+02  0.50400001928E-02 0. -1.
        1   -1    0    0  501    0  0.00000000000E+00  0.00000000000E+00 -0.21699169272E+04  0.21699169272E+04  0.50400001928E-02 0.  1.
    10030    2    1    2    0    0  0.00000000000E+00  0.00000000000E+00 -0.21281797959E+04  0.22116540587E+04  0.60188406854E+03 0.  0.
        4    1    3    3  502    0  0.13013537221E+03 -0.89724575474E+02 -0.20050820838E+04  0.20113034307E+04  0.12699999809E+01 0.  1.
       -4    1    3    3    0  502 -0.13013537221E+03  0.89724575474E+02 -0.12309771204E+03  0.20035062803E+03  0.12699999809E+01 0. -1.
</event>
<event>
 5   0  0.1521750E-02  0.6000902E+03  0.7818609E-02  0.9905219E-01
       -4   -1    0    0    0  501  0.00000000000E+00  0.00000000000E+00  0.18171246763E+03  0.18171690563E+03  0.12699999809E+01 0. -1.
        4   -1    0    0  501    0  0.00000000000E+00  0.00000000000E+00 -0.49542554931E+03  0.49542717710E+03  0.12699999809E+01 0.  1.
    10030    2    1    2    0    0  0.00000000000E+00  0.00000000000E+00 -0.31371308168E+03  0.67714408273E+03  0.60009016919E+03 0.  0.
        2    1    3    3  502    0  0.12122344900E+03 -0.21742315484E+03  0.32160710532E+02  0.25100251823E+03  0.25500000920E-02 0. -1.
       -2    1    3    3    0  502 -0.12122344900E+03  0.21742315484E+03 -0.34587379221E+03  0.42614156450E+03  0.25500000920E-02 0.  1.
</event>
<event>
 5   0  0.2295179E-02  0.6001630E+03  0.7818609E-02  0.9905068E-01
        1   -1    0    0  501    0  0.00000000000E+00  0.00000000000E+00  0.18531544964E+03  0.18531544971E+03  0.50400001928E-02 0. -1.
       -1   -1    0    0    0  501  0.00000000000E+00  0.00000000000E+00 -0.48592221557E+03  0.48592221559E+03  0.50400001928E-02 0.  1.
    10030    2    1    2    0    0  0.00000000000E+00  0.00000000000E+00 -0.30060676593E+03  0.67123766530E+03  0.60016295753E+03 0.  0.
        3    1    3    3  502    0 -0.17138694888E+03  0.78872330351E+02 -0.41129360072E+03  0.45250057119E+03  0.10100000352E+00 0.  1.
       -3    1    3    3    0  502  0.17138694888E+03 -0.78872330351E+02  0.11068683479E+03  0.21873709411E+03  0.10100000352E+00 0. -1.
</event>
<event>
 5   0  0.3798925E-02  0.5967050E+03  0.7818609E-02  0.9912266E-01
       -2   -1    0    0    0  501  0.00000000000E+00  0.00000000000E+00  0.76360519230E+02  0.76360519273E+02  0.25500000920E-02 0.  1.
        2   -1    0    0  501    0  0.00000000000E+00  0.00000000000E+00 -0.11657098074E+04  0.11657098074E+04  0.25500000920E-02 0. -1.
    10030    2    1    2    0    0  0.00000000000E+00  0.00000000000E+00 -0.10893492881E+04  0.12420703266E+04  0.59670497297E+03 0.  0.
        2    1    3    3  502    0  0.43196808596E+02 -0.16950153227E+03 -0.10477788065E+04  0.10622792294E+04  0.25500000920E-02 0. -1.
       -2    1    3    3    0  502 -0.43196808596E+02  0.16950153227E+03 -0.41570481617E+02  0.17979109729E+03  0.25500000920E-02 0.  1.
</event>
<event>
 5   0  0.3724066E-02  0.5990466E+03  0.7818609E-02  0.9907386E-01
       -2   -1    0    0    0  501  0.00000000000E+00  0.00000000000E+00  0.20973607973E+03  0.20973607974E+03  0.25500000920E-02 0. -1.
        2   -1    0    0  501    0  0.00000000000E+00  0.00000000000E+00 -0.42774814397E+03  0.42774814398E+03  0.25500000920E-02 0.  1.
    10030    2    1    2    0    0  0.00000000000E+00  0.00000000000E+00 -0.21801206424E+03  0.63748422372E+03  0.59904663870E+03 0.  0.
        4    1    3    3  502    0  0.29386586439E+03  0.53926805477E+02 -0.13151403986E+03  0.32643958428E+03  0.12699999809E+01 0. -1.
       -4    1    3    3    0  502 -0.29386586439E+03 -0.53926805477E+02 -0.86498024383E+02  0.31104463944E+03  0.12699999809E+01 0.  1.
</event>
<event>
 5   0  0.3798925E-02  0.6009801E+03  0.7818609E-02  0.9903375E-01
        2   -1    0    0  501    0  0.00000000000E+00  0.00000000000E+00  0.11850381240E+04  0.11850381240E+04  0.25500000920E-02 0. -1.
       -2   -1    0    0    0  501  0.00000000000E+00  0.00000000000E+00 -0.76195255150E+02  0.76195255193E+02  0.25500000920E-02 0.  1.
    10030    2    1    2    0    0  0.00000000000E+00  0.00000000000E+00  0.11088428689E+04  0.12612333792E+04  0.60098014028E+03 0.  0.
        2    1    3    3  502    0  0.11670760385E+03  0.17079331342E+03  0.10118223713E+04  0.10327514376E+04  0.25500000920E-02 0. -1.
       -2    1    3    3    0  502 -0.11670760385E+03 -0.17079331342E+03  0.97020497565E+02  0.22848194165E+03  0.25500000920E-02 0.  1.
</event>
<event>
 5   0  0.2309055E-02  0.6168944E+03  0.7818609E-02  0.9870962E-01
       -1   -1    0    0    0  501  0.00000000000E+00  0.00000000000E+00  0.16586731444E+03  0.16586731452E+03  0.50400001928E-02 0.  1.
        1   -1    0    0  501    0  0.00000000000E+00  0.00000000000E+00 -0.57358910733E+03  0.57358910735E+03  0.50400001928E-02 0. -1.
    10030    2    1    2    0    0  0.00000000000E+00  0.00000000000E+00 -0.40772179289E+03  0.73945642187E+03  0.61689443137E+03 0.  0.
        4    1    3    3  502    0 -0.22625829246E+03 -0.19745457652E+02  0.46301834015E+02  0.23179337940E+03  0.12699999809E+01 0.  1.
       -4    1    3    3    0  502  0.22625829246E+03  0.19745457652E+02 -0.45402362690E+03  0.50766304247E+03  0.12699999809E+01 0. -1.
</event>
<event>
 5   0  0.3737642E-02  0.6043490E+03  0.7818609E-02  0.9896424E-01
        2   -1    0    0  501    0  0.00000000000E+00  0.00000000000E+00  0.10976841490E+04  0.10976841490E+04  0.25500000920E-02 0. -1.
       -2   -1    0    0    0  501  0.00000000000E+00  0.00000000000E+00 -0.83183711067E+02  0.83183711106E+02  0.25500000920E-02 0.  1.
    10030    2    1    2    0    0  0.00000000000E+00  0.00000000000E+00  0.10145004380E+04  0.11808678602E+04  0.60434904194E+03 0.  0.
        5    1    3    3  502    0 -0.10135157412E+03  0.14225732222E+02  0.10627113116E+04  0.10676384851E+04  0.46999998093E+01 0. -1.
       -5    1    3    3    0  502  0.10135157412E+03 -0.14225732222E+02 -0.48210873654E+02  0.11322937504E+03  0.46999998093E+01 0.  1.
</event>
<event>
 5   0  0.2225808E-02  0.5947050E+03  0.7818609E-02  0.9916453E-01
       -1   -1    0    0    0  501  0.00000000000E+00  0.00000000000E+00  0.42155226968E+03  0.42155226971E+03  0.50400001928E-02 0.  1.
        1   -1    0    0  501    0  0.00000000000E+00  0.00000000000E+00 -0.20974503382E+03  0.20974503388E+03  0.50400001928E-02 0. -1.
    10030    2    1    2    0    0  0.00000000000E+00  0.00000000000E+00  0.21180723586E+03  0.63129730359E+03  0.59470495236E+03 0.  0.
        2    1    3    3  502    0 -0.11994781101E+03 -0.11891469559E+03  0.36568658356E+03  0.40280871341E+03  0.25500000920E-02 0.  1.
       -2    1    3    3    0  502  0.11994781101E+03  0.11891469559E+03 -0.15387934770E+03  0.22848859019E+03  0.25500000920E-02 0. -1.
</event>
<event>
 5   0  0.2309055E-02  0.5971840E+03  0.7818609E-02  0.9911266E-01
        1   -1    0    0  501    0  0.00000000000E+00  0.00000000000E+00  0.19939420015E+04  0.19939420015E+04  0.50400001928E-02 0. -1.
       -1   -1    0    0    0  501  0.00000000000E+00  0.00000000000E+00 -0.44714024877E+02  0.44714025161E+02  0.50400001928E-02 0.  1.
    10030    2    1    2    0    0  0.00000000000E+00  0.00000000000E+00  0.19492279766E+04  0.20386560266E+04  0.59718396681E+03 0.  0.
        4    1    3    3  502    0  0.15054921549E+03 -0.15658585087E+03  0.27523535307E+03  0.35062844644E+03  0.12699999809E+01 0.  1.
       -4    1    3    3    0  502 -0.15054921549E+03  0.15658585087E+03  0.16739926235E+04  0.16880275802E+04  0.12699999809E+01 0. -1.
</event>
<event>
 5   0  0.2382531E-02  0.6040204E+03  0.7818609E-02  0.9897100E-01
       -1   -1    0    0    0  501  0.00000000000E+00  0.00000000000E+00  0.24977672646E+03  0.24977672651E+03  0.50400001928E-02 0.  1.
        1   -1    0    0  501    0  0.00000000000E+00  0.00000000000E+00 -0.36516676708E+03  0.36516676711E+03  0.50400001928E-02 0. -1.
    10030    2    1    2    0    0  0.00000000000E+00  0.00000000000E+00 -0.11539004062E+03  0.61494349362E+03  0.60402039607E+03 0.  0.
        5    1    3    3  502    0 -0.49779404911E+02 -0.37076803482E+02  0.24317487994E+03  0.25101551893E+03  0.46999998093E+01 0.  1.
       -5    1    3    3    0  502  0.49779404911E+02  0.37076803482E+02 -0.35856492056E+03  0.36392797469E+03  0.46999998093E+01 0. -1.
</event>
<event>
 5   0  0.2225808E-02  0.6022977E+03  0.7818609E-02  0.9900651E-01
       -1   -1    0    0    0  501  0.00000000000E+00  0.00000000000E+00  0.10064327200E+03  0.10064327213E+03  0.50400001928E-02 0. -1.
        1   -1    0    0  501    0  0.00000000000E+00  0.00000000000E+00 -0.90110957303E+03  0.90110957305E+03  0.50400001928E-02 0.  1.
    10030    2    1    2    0    0  0.00000000000E+00  0.00000000000E+00 -0.80046630103E+03  0.10017528452E+04  0.60229765376E+03 0.  0.
        2    1    3    3  502    0  0.94339402528E+02 -0.28471084699E+03 -0.35528231980E+03  0.46495775726E+03  0.25500000920E-02 0.  1.
       -2    1    3    3    0  502 -0.94339402528E+02  0.28471084699E+03 -0.44518398123E+03  0.53679508792E+03  0.25500000920E-02 0. -1.
</event>
<event>
 5   0  0.3934634E-02  0.6022355E+03  0.7818609E-02  0.9900779E-01
        2   -1    0    0  501    0  0.00000000000E+00  0.00000000000E+00  0.30554942246E+03  0.30554942247E+03  0.25500000920E-02 0.  1.
       -2   -1    0    0    0  501  0.00000000000E+00  0.00000000000E+00 -0.29675031596E+03  0.29675031597E+03  0.25500000920E-02 0. -1.
    10030    2    1    2    0    0  0.00000000000E+00  0.00000000000E+00  0.87991065052E+01  0.60229973844E+03  0.60223546114E+03 0.  0.
        1    1    3    3  502    0 -0.45623255151E+02  0.27021256602E+03  0.12921501852E+03  0.30297332107E+03  0.50400001928E-02 0.  1.
       -1    1    3    3    0  502  0.45623255151E+02 -0.27021256602E+03 -0.12041591201E+03  0.29932641737E+03  0.50400001928E-02 0. -1.
</event>
<event>
 5   0  0.2309055E-02  0.5982695E+03  0.7818609E-02  0.9909003E-01
       -1   -1    0    0    0  501  0.00000000000E+00  0.00000000000E+00  0.98803072152E+02  0.98803072281E+02  0.50400001928E-02 0.  1.
        1   -1    0    0  501    0  0.00000000000E+00  0.00000000000E+00 -0.90565600369E+03  0.90565600370E+03  0.50400001928E-02 0. -1.
    10030    2    1    2    0    0  0.00000000000E+00  0.00000000000E+00 -0.80685293154E+03  0.10044590760E+04  0.59826948961E+03 0.  0.
        4    1    3    3  502    0 -0.38127876316E+02  0.12412877772E+03 -0.85586377784E+03  0.86565934844E+03  0.12699999809E+01 0. -1.
       -4    1    3    3    0  502  0.38127876316E+02 -0.12412877772E+03  0.49010846310E+02  0.13879972754E+03  0.12699999809E+01 0.  1.
</event>
<event>
 5   0  0.3832191E-02  0.6020690E+03  0.7818609E-02  0.9901123E-01
        2   -1    0    0  501    0  0.00000000000E+00  0.00000000000E+00  0.12561429750E+04  0.12561429750E+04  0.25500000920E-02 0. -1.
       -2   -1    0    0    0  501  0.00000000000E+00  0.00000000000E+00 -0.72142881877E+02  0.72142881922E+02  0.25500000920E-02 0.  1.
    10030    2    1    2    0    0  0.00000000000E+00  0.00000000000E+00  0.11840000931E+04  0.13282858569E+04  0.60206901363E+03 0.  0.
        3    1    3    3  502    0  0.27799087696E+03  0.44474031024E+02  0.35680507946E+03  0.45449614084E+03  0.10100000352E+00 0.  1.
       -3    1    3    3    0  502 -0.27799087696E+03 -0.44474031024E+02  0.82719501362E+03  0.87378971604E+03  0.10100000352E+00 0. -1.
</event>
<event>
 5   0  0.3934634E-02  0.6014724E+03  0.7818609E-02  0.9902356E-01
        2   -1    0    0  501    0  0.00000000000E+00  0.00000000000E+00  0.12197161999E+04  0.12197161999E+04  0.25500000920E-02 0. -1.
       -2   -1    0    0    0  501  0.00000000000E+00  0.00000000000E+00 -0.74150240535E+02  0.74150240579E+02  0.25500000920E-02 0.  1.
    10030    2    1    2    0    0  0.00000000000E+00  0.00000000000E+00  0.11455659594E+04  0.12938664405E+04  0.60147235894E+03 0.  0.
        1    1    3    3  502    0  0.13396167835E+03  0.17484532742E+03  0.13231578086E+03  0.25695152398E+03  0.50400001928E-02 0.  1.
       -1    1    3    3    0  502 -0.13396167835E+03 -0.17484532742E+03  0.10132501786E+04  0.10369149165E+04  0.50400001928E-02 0. -1.
</event>
<event>
 5   0  0.3934634E-02  0.5994102E+03  0.7818609E-02  0.9906630E-01
        2   -1    0    0  501    0  0.00000000000E+00  0.00000000000E+00  0.16501621249E+03  0.16501621251E+03  0.25500000920E-02 0. -1.
       -2   -1    0    0    0  501  0.00000000000E+00  0.00000000000E+00 -0.54432929788E+03  0.54432929789E+03  0.25500000920E-02 0.  1.
    10030    2    1    2    0    0  0.00000000000E+00  0.00000000000E+00 -0.37931308539E+03  0.70934551040E+03  0.59941024047E+03 0.  0.
        1    1    3    3  502    0 -0.65055739320E+02  0.11531808318E+03  0.12852921558E+03  0.18452714925E+03  0.50400001928E-02 0. -1.
       -1    1    3    3    0  502  0.65055739320E+02 -0.11531808318E+03 -0.50784230097E+03  0.52481836115E+03  0.50400001928E-02 0.  1.
</event>
<event>
 5   0  0.3737642E-02  0.5962989E+03  0.7818609E-02  0.9913115E-01
        2   -1    0    0  501    0  0.00000000000E+00  0.00000000000E+00  0.78457679263E+03  0.78457679263E+03  0.25500000920E-02 0. -1.
       -2   -1    0    0    0  501  0.00000000000E+00  0.00000000000E+00 -0.11330067631E+03  0.11330067633E+03  0.25500000920E-02 0.  1.
    10030    2    1    2    0    0  0.00000000000E+00  0.00000000000E+00  0.67127611633E+03  0.89787746897E+03  0.59629885538E+03 0.  0.
        5    1    3    3  502    0 -0.83289871218E+02 -0.13195247827E+03 -0.46841409226E+02  0.16298732094E+03  0.46999998093E+01 0.  1.
       -5    1    3    3    0  502  0.83289871218E+02  0.13195247827E+03  0.71811752555E+03  0.73489014803E+03  0.46999998093E+01 0. -1.
</event>
<event>
 5   0  0.2382531E-02  0.6024989E+03  0.7818609E-02  0.9900235E-01
        1   -1    0    0  501    0  0.00000000000E+00  0.00000000000E+00  0.43890203599E+03  0.43890203602E+03  0.50400001928E-02 0.  1.
       -1   -1    0    0    0  501  0.00000000000E+00  0.00000000000E+00 -0.20676877302E+03  0.20676877308E+03  0.50400001928E-02 0. -1.
    10030    2    1    2    0    0  0.00000000000E+00  0.00000000000E+00  0.23213326297E+03  0.64567080910E+03  0.60249891448E+03 0.  0.
        5    1    3    3  502    0  0.21484505004E+03 -0.49577046470E+01 -0.11011642789E+03  0.24151747774E+03  0.46999998093E+01 0. -1.
       -5    1    3    3    0  502 -0.21484505004E+03  0.49577046470E+01  0.34224969086E+03  0.40415333136E+03  0.46999998093E+01 0.  1.
</event>
<event>
 5   0  0.3832191E-02  0.6007782E+03  0.7818609E-02  0.9903793E-01
       -2   -1    0    0    0  501  0.00000000000E+00  0.00000000000E+00  0.95163717274E+02  0.95163717308E+02  0.25500000920E-02 0. -1.
        2   -1    0    0  501    0  0.00000000000E+00  0.00000000000E+00 -0.94819343955E+03  0.94819343955E+03  0.25500000920E-02 0.  1.
    10030    2    1    2    0    0  0.00000000000E+00  0.00000000000E+00 -0.85302972227E+03  0.10433571569E+04  0.60077820341E+03 0.  0.
        3    1    3    3  502    0  0.25689942295E+03 -0.81391119019E+02 -0.19604168379E+03  0.33324792535E+03  0.10100000352E+00 0. -1.
       -3    1    3    3    0  502 -0.25689942295E+03  0.81391119019E+02 -0.65698803848E+03  0.71010923151E+03  0.10100000352E+00 0.  1.
</event>
<event>
 5   0  0.2225808E-02  0.6005800E+03  0.7818609E-02  0.9904204E-01
        1   -1    0    0  501    0  0.00000000000E+00  0.00000000000E+00  0.21705113756E+04  0.21705113756E+04  0.50400001928E-02 0. -1.
       -1   -1    0    0    0  501  0.00000000000E+00  0.00000000000E+00 -0.41545083073E+02  0.41545083379E+02  0.50400001928E-02 0.  1.
    10030    2    1    2    0    0  0.00000000000E+00  0.00000000000E+00  0.21289662925E+04  0.22120564590E+04  0.60057997221E+03 0.  0.
        2    1    3    3  502    0  0.93123676544E+02 -0.52550296373E+02  0.20980165305E+04  0.21007396114E+04  0.25500000920E-02 0. -1.
       -2    1    3    3    0  502 -0.93123676544E+02  0.52550296373E+02  0.30949762082E+02  0.11131684761E+03  0.25500000920E-02 0.  1.
</event>
<event>
 5   0  0.2276105E-02  0.6041037E+03  0.7818609E-02  0.9896929E-01
       -1   -1    0    0    0  501  0.00000000000E+00  0.00000000000E+00  0.66613324265E+03  0.66613324267E+03  0.50400001928E-02 0.  1.
        1   -1    0    0  501    0  0.00000000000E+00  0.00000000000E+00 -0.13696256554E+03  0.13696256563E+03  0.50400001928E-02 0. -1.
    10030    2    1    2    0    0  0.00000000000E+00  0.00000000000E+00  0.52917067711E+03  0.80309580830E+03  0.60410369292E+03 0.  0.
        1    1    3    3  502    0  0.20070747534E+03  0.59083235493E+02  0.55420250767E+03  0.59238056932E+03  0.50400001928E-02 0.  1.
       -1    1    3    3    0  502 -0.20070747534E+03 -0.59083235493E+02 -0.25031830560E+02  0.21071523898E+03  0.50400001928E-02 0. -1.
</event>
<event>
 5   0  0.2276105E-02  0.6102842E+03  0.7818609E-02  0.9884296E-01
       -1   -1    0    0    0  501  0.00000000000E+00  0.00000000000E+00  0.10658517115E+03  0.10658517127E+03  0.50400001928E-02 0.  1.
        1   -1    0    0  501    0  0.00000000000E+00  0.00000000000E+00 -0.87358978062E+03  0.87358978064E+03  0.50400001928E-02 0. -1.
    10030    2    1    2    0    0  0.00000000000E+00  0.00000000000E+00 -0.76700460947E+03  0.98017495191E+03  0.61028424968E+03 0.  0.
        1    1    3    3  502    0  0.15308776329E+03  0.34107763412E+01 -0.80741490603E+03  0.82180674563E+03  0.50400001928E-02 0. -1.
       -1    1    3    3    0  502 -0.15308776329E+03 -0.34107763412E+01  0.40410296562E+02  0.15836820628E+03  0.50400001928E-02 0.  1.
</event>
<event>
 5   0  0.2295179E-02  0.6023824E+03  0.7818609E-02  0.9900476E-01
       -1   -1    0    0    0  501  0.00000000000E+00  0.00000000000E+00  0.45649264324E+03  0.45649264326E+03  0.50400001928E-02 0. -1.
        1   -1    0    0  501    0  0.00000000000E+00  0.00000000000E+00 -0.19872420229E+03  0.19872420235E+03  0.50400001928E-02 0.  1.
    10030    2    1    2    0    0  0.00000000000E+00  0.00000000000E+00  0.25776844095E+03  0.65521684562E+03  0.60238239154E+03 0.  0.
        3    1    3    3  502    0  0.22642890718E+03  0.19738980781E+02  0.34384496754E+03  0.41217599308E+03  0.10100000352E+00 0. -1.
       -3    1    3    3    0  502 -0.22642890718E+03 -0.19738980781E+02 -0.86076526590E+02  0.24304085254E+03  0.10100000352E+00 0.  1.
</event>
<event>
 5   0  0.3798925E-02  0.6150043E+03  0.7818609E-02  0.9874757E-01
        2   -1    0    0  501    0  0.00000000000E+00  0.00000000000E+00  0.22985692938E+03  0.22985692939E+03  0.25500000920E-02 0.  1.
       -2   -1    0    0    0  501  0.00000000000E+00  0.00000000000E+00 -0.41137581782E+03  0.41137581783E+03  0.25500000920E-02 0. -1.
    10030    2    1    2    0    0  0.00000000000E+00  0.00000000000E+00 -0.18151888845E+03  0.64123274722E+03  0.61500433271E+03 0.  0.
        2    1    3    3  502    0  0.28551085999E+03 -0.10522444698E+03 -0.44494236217E+02  0.30751971071E+03  0.25500000920E-02 0.  1.
       -2    1    3    3    0  502 -0.28551085999E+03  0.10522444698E+03 -0.13702465223E+03  0.33371303651E+03  0.25500000920E-02 0. -1.
</event>
<event>
 5   0  0.2382531E-02  0.6033708E+03  0.7818609E-02  0.9898437E-01
        1   -1    0    0  501    0  0.00000000000E+00  0.00000000000E+00  0.17794331928E+03  0.17794331935E+03  0.50400001928E-02 0.  1.
       -1   -1    0    0    0  501  0.00000000000E+00  0.00000000000E+00 -0.51147784653E+03  0.51147784656E+03  0.50400001928E-02 0. -1.
    10030    2    1    2    0    0  0.00000000000E+00  0.00000000000E+00 -0.33353452725E+03  0.68942116590E+03  0.60337075097E+03 0.  0.
        5    1    3    3  502    0 -0.64763022463E+02  0.18231743271E+03 -0.43119856397E+03  0.47263959516E+03  0.46999998093E+01 0.  1.
       -5    1    3    3    0  502  0.64763022463E+02 -0.18231743271E+03  0.97664036713E+02  0.21678157074E+03  0.46999998093E+01 0. -1.
</event>
<event>
 5   0  0.3737642E-02  0.5958935E+03  0.7818609E-02  0.9913963E-01
       -2   -1    0    0    0  501  0.00000000000E+00  0.00000000000E+00  0.12420730581E+03  0.12420730584E+03  0.25500000920E-02 0. -1.
        2   -1    0    0  501    0  0.00000000000E+00  0.00000000000E+00 -0.71471048834E+03  0.71471048834E+03  0.25500000920E-02 0.  1.
    10030    2    1    2    0    0  0.00000000000E+00  0.00000000000E+00 -0.59050318253E+03  0.83891779418E+03  0.59589349453E+03 0.  0.
        5    1    3    3  502    0  0.80996404473E+02 -0.67057849615E+02 -0.68766307824E+03  0.69567217273E+03  0.46999998093E+01 0.  1.
       -5    1    3    3    0  502 -0.80996404473E+02  0.67057849615E+02  0.97159895715E+02  0.14324562146E+03  0.46999998093E+01 0. -1.
</event>
<event>
 5   0  0.1521750E-02  0.6008961E+03  0.7818609E-02  0.9903549E-01
       -4   -1    0    0    0  501  0.00000000000E+00  0.00000000000E+00  0.27105778699E+03  0.27106076217E+03  0.12699999809E+01 0.  1.
        4   -1    0    0  501    0  0.00000000000E+00  0.00000000000E+00 -0.33301905721E+03  0.33302147883E+03  0.12699999809E+01 0. -1.
    10030    2    1    2    0    0  0.00000000000E+00  0.00000000000E+00 -0.61961270213E+02  0.60408224100E+03  0.60089612654E+03 0.  0.
        3    1    3    3  502    0 -0.13843547126E+03  0.10344473297E+03  0.21609443309E+03  0.27669840386E+03  0.10100000352E+00 0.  1.
       -3    1    3    3    0  502  0.13843547126E+03 -0.10344473297E+03 -0.27805570331E+03  0.32738383715E+03  0.10100000352E+00 0. -1.
</event>
<event>
 5   0  0.1521750E-02  0.6000066E+03  0.7818609E-02  0.9905392E-01
       -4   -1    0    0    0  501  0.00000000000E+00  0.00000000000E+00  0.13990685973E+03  0.13991262380E+03  0.12699999809E+01 0. -1.
        4   -1    0    0  501    0  0.00000000000E+00  0.00000000000E+00 -0.64327966640E+03  0.64328092005E+03  0.12699999809E+01 0.  1.
    10030    2    1    2    0    0  0.00000000000E+00  0.00000000000E+00 -0.50337280667E+03  0.78319354386E+03  0.60000662050E+03 0.  0.
        4    1    3    3  502    0 -0.79335575431E+02  0.23214140698E+03 -0.26292499239E+02  0.24673198978E+03  0.12699999809E+01 0. -1.
       -4    1    3    3    0  502  0.79335575431E+02 -0.23214140698E+03 -0.47708030743E+03  0.53646155407E+03  0.12699999809E+01 0.  1.
</event>
<event>
 5   0  0.2276105E-02  0.5853621E+03  0.7818609E-02  0.9936249E-01
       -1   -1    0    0    0  501  0.00000000000E+00  0.00000000000E+00  0.19296578947E+03  0.19296578954E+03  0.50400001928E-02 0.  1.
        1   -1    0    0  501    0  0.00000000000E+00  0.00000000000E+00 -0.44392421062E+03  0.44392421065E+03  0.50400001928E-02 0. -1.
    10030    2    1    2    0    0  0.00000000000E+00  0.00000000000E+00 -0.25095842115E+03  0.63689000019E+03  0.58536206163E+03 0.  0.
        1    1    3    3  502    0 -0.11500473407E+03  0.26622916077E+03 -0.16842709987E+03  0.33536807077E+03  0.50400001928E-02 0. -1.
       -1    1    3    3    0  502  0.11500473407E+03 -0.26622916077E+03 -0.82531321282E+02  0.30152192942E+03  0.50400001928E-02 0.  1.
</event>
<event>
 5   0  0.2225808E-02  0.5981218E+03  0.7818609E-02  0.9909310E-01
        1   -1    0    0  501    0  0.00000000000E+00  0.00000000000E+00  0.32210573927E+03  0.32210573931E+03  0.50400001928E-02 0.  1.
       -1   -1    0    0    0  501  0.00000000000E+00  0.00000000000E+00 -0.27766480564E+03  0.27766480569E+03  0.50400001928E-02 0. -1.
    10030    2    1    2    0    0  0.00000000000E+00  0.00000000000E+00  0.44440933630E+02  0.59977054500E+03  0.59812181875E+03 0.  0.
        2    1    3    3  502    0 -0.31660971422E+02  0.16742991152E+03 -0.22422565773E+03  0.28162446267E+03  0.25500000920E-02 0. -1.
       -2    1    3    3    0  502  0.31660971422E+02 -0.16742991152E+03  0.26866659136E+03  0.31814608233E+03  0.25500000920E-02 0.  1.
</event>
<event>
 5   0  0.3934634E-02  0.6023811E+03  0.7818609E-02  0.9900478E-01
       -2   -1    0    0    0  501  0.00000000000E+00  0.00000000000E+00  0.12440499245E+03  0.12440499248E+03  0.25500000920E-02 0.  1.
        2   -1    0    0  501    0  0.00000000000E+00  0.00000000000E+00 -0.72919692911E+03  0.72919692911E+03  0.25500000920E-02 0. -1.
    10030    2    1    2    0    0  0.00000000000E+00  0.00000000000E+00 -0.60479193666E+03  0.85360192159E+03  0.60238107034E+03 0.  0.
        1    1    3    3  502    0  0.24279851290E+03  0.14380125023E+03 -0.45159568537E+03  0.53251157781E+03  0.50400001928E-02 0.  1.
       -1    1    3    3    0  502 -0.24279851290E+03 -0.14380125023E+03 -0.15319625128E+03  0.32109034378E+03  0.50400001928E-02 0. -1.
</event>
<event>
 5   0  0.3934634E-02  0.6018200E+03  0.7818609E-02  0.9901637E-01
       -2   -1    0    0    0  501  0.00000000000E+00  0.00000000000E+00  0.12150244421E+03  0.12150244423E+03  0.25500000920E-02 0. -1.
        2   -1    0    0  501    0  0.00000000000E+00  0.00000000000E+00 -0.74522644505E+03  0.74522644505E+03  0.25500000920E-02 0.  1.
    10030    2    1    2    0    0  0.00000000000E+00  0.00000000000E+00 -0.62372400084E+03  0.86672888928E+03  0.60182002152E+03 0.  0.
        1    1    3    3  502    0 -0.87732313045E+02 -0.21884448321E+03 -0.58112924043E+03  0.62713719447E+03  0.50400001928E-02 0.  1.
       -1    1    3    3    0  502  0.87732313045E+02  0.21884448321E+03 -0.42594760412E+02  0.23959169481E+03  0.50400001928E-02 0. -1.
</event>
<event>
 5   0  0.2382531E-02  0.5915150E+03  0.7818609E-02  0.9923168E-01
       -1   -1    0    0    0  501  0.00000000000E+00  0.00000000000E+00  0.34582857305E+03  0.34582857309E+03  0.50400001928E-02 0.  1.
        1   -1    0    0  501    0  0.00000000000E+00  0.00000000000E+00 -0.25293597005E+03  0.25293597011E+03  0.50400001928E-02 0. -1.
    10030    2    1    2    0    0  0.00000000000E+00  0.00000000000E+00  0.92892602994E+02  0.59876454319E+03  0.59151495543E+03 0.  0.
        5    1    3    3  502    0  0.11141056001E+03  0.27023722087E+03  0.10646277465E+01  0.29234173813E+03  0.46999998093E+01 0.  1.
       -5    1    3    3    0  502 -0.11141056001E+03 -0.27023722087E+03  0.91827975248E+02  0.30642280506E+03  0.46999998093E+01 0. -1.
</event>
<event>
 5   0  0.2225808E-02  0.6004901E+03  0.7818609E-02  0.9904390E-01
       -1   -1    0    0    0  501  0.00000000000E+00  0.00000000000E+00  0.51294486567E+03  0.51294486570E+03  0.50400001928E-02 0. -1.
        1   -1    0    0  501    0  0.00000000000E+00  0.00000000000E+00 -0.17574422615E+03  0.17574422622E+03  0.50400001928E-02 0.  1.
    10030    2    1    2    0    0  0.00000000000E+00  0.00000000000E+00  0.33720063952E+03  0.68868909192E+03  0.60049012818E+03 0.  0.
        2    1    3    3  502    0  0.17302524515E+03 -0.20937848917E+02  0.44899029504E+03  0.48163099363E+03  0.25500000920E-02 0. -1.
       -2    1    3    3    0  502 -0.17302524515E+03  0.20937848917E+02 -0.11178965552E+03  0.20705809829E+03  0.25500000920E-02 0.  1.
</event>
<event>
 5   0  0.3737642E-02  0.6154952E+03  0.7818609E-02  0.9873770E-01
       -2   -1    0    0    0  501  0.00000000000E+00  0.00000000000E+00  0.10234212829E+03  0.10234212832E+03  0.25500000920E-02 0. -1.
        2   -1    0    0  501    0  0.00000000000E+00  0.00000000000E+00 -0.92541166120E+03  0.92541166120E+03  0.25500000920E-02 0.  1.
    10030    2    1    2    0    0  0.00000000000E+00  0.00000000000E+00 -0.82306953292E+03  0.10277537895E+04  0.61549524439E+03 0.  0.
        5    1    3    3  502    0  0.23050056564E+03 -0.79190387712E+02 -0.97875074379E+02  0.26268469398E+03  0.46999998093E+01 0. -1.
       -5    1    3    3    0  502 -0.23050056564E+03  0.79190387712E+02 -0.72519445854E+03  0.76506909554E+03  0.46999998093E+01 0.  1.
</event>
<event>
 5   0  0.2382531E-02  0.5990942E+03  0.7818609E-02  0.9907287E-01
        1   -1    0    0  501    0  0.00000000000E+00  0.00000000000E+00  0.10250089681E+03  0.10250089693E+03  0.50400001928E-02 0.  1.
       -1   -1    0    0    0  501  0.00000000000E+00  0.00000000000E+00 -0.87539212238E+03  0.87539212240E+03  0.50400001928E-02 0. -1.
    10030    2    1    2    0    0  0.00000000000E+00  0.00000000000E+00 -0.77289122558E+03  0.97789301933E+03  0.59909424190E+03 0.  0.
        5    1    3    3  502    0 -0.20206368156E+03 -0.17585395509E+03 -0.16774342009E+03  0.31609221741E+03  0.46999998093E+01 0.  1.
       -5    1    3    3    0  502  0.20206368156E+03  0.17585395509E+03 -0.60514780549E+03  0.66180080191E+03  0.46999998093E+01 0. -1.
</event>
<event>
 5   0  0.2225808E-02  0.5985988E+03  0.7818609E-02  0.9908317E-01
        1   -1    0    0  501    0  0.00000000000E+00  0.00000000000E+00  0.33152485573E+03  0.33152485577E+03  0.50400001928E-02 0.  1.
       -1   -1    0    0    0  501  0.00000000000E+00  0.00000000000E+00 -0.27020635877E+03  0.27020635882E+03  0.50400001928E-02 0. -1.
    10030    2    1    2    0    0  0.00000000000E+00  0.00000000000E+00  0.61318496955E+02  0.60173121459E+03  0.59859877760E+03 0.  0.
        2    1    3    3  502    0 -0.28259717779E+03 -0.78806271839E+02 -0.28883566005E+02  0.29479798806E+03  0.25500000920E-02 0. -1.
       -2    1    3    3    0  502  0.28259717779E+03  0.78806271839E+02  0.90202062961E+02  0.30693322652E+03  0.25500000920E-02 0.  1.
</event>
<event>
 5   0  0.3737642E-02  0.5988844E+03  0.7818609E-02  0.9907723E-01
        2   -1    0    0  501    0  0.00000000000E+00  0.00000000000E+00  0.20872141906E+04  0.20872141906E+04  0.25500000920E-02 0.  1.
       -2   -1    0    0    0  501  0.00000000000E+00  0.00000000000E+00 -0.42959478901E+02  0.42959478976E+02  0.25500000920E-02 0. -1.
    10030    2    1    2    0    0  0.00000000000E+00  0.00000000000E+00  0.20442547117E+04  0.21301736696E+04  0.59888440976E+03 0.  0.
        5    1    3    3  502    0  0.18154348342E+03 -0.20048284374E+03  0.14789109235E+04  0.15034463797E+04  0.46999998093E+01 0.  1.
       -5    1    3    3    0  502 -0.18154348342E+03  0.20048284374E+03  0.56534378814E+03  0.62672728981E+03  0.46999998093E+01 0. -1.
</event>
<event>
 5   0  0.3934634E-02  0.6015784E+03  0.7818609E-02  0.9902137E-01
       -2   -1    0    0    0  501  0.00000000000E+00  0.00000000000E+00  0.12406017211E+03  0.12406017214E+03  0.25500000920E-02 0. -1.
        2   -1    0    0  501    0  0.00000000000E+00  0.00000000000E+00 -0.72927631260E+03  0.72927631260E+03  0.25500000920E-02 0.  1.
    10030    2    1    2    0    0  0.00000000000E+00  0.00000000000E+00 -0.60521614049E+03  0.85333648474E+03  0.60157840676E+03 0.  0.
        1    1    3    3  502    0 -0.64249955540E+01  0.27228808090E+02  0.12221061750E+03  0.12537194109E+03  0.50400001928E-02 0. -1.
       -1    1    3    3    0  502  0.64249955540E+01 -0.27228808090E+02 -0.72742675798E+03  0.72796454365E+03  0.50400001928E-02 0.  1.
</event>
<event>
 5   0  0.2225808E-02  0.5863911E+03  0.7818609E-02  0.9934049E-01
       -1   -1    0    0    0  501  0.00000000000E+00  0.00000000000E+00  0.29054128709E+03  0.29054128713E+03  0.50400001928E-02 0.  1.
        1   -1    0    0  501    0  0.00000000000E+00  0.00000000000E+00 -0.29587408429E+03  0.29587408434E+03  0.50400001928E-02 0. -1.
    10030    2    1    2    0    0  0.00000000000E+00  0.00000000000E+00 -0.53327972017E+01  0.58641537147E+03  0.58639112303E+03 0.  0.
        2    1    3    3  502    0 -0.26614296367E+03  0.93399021158E+02 -0.82720836422E+02  0.29393569203E+03  0.25500000920E-02 0. -1.
       -2    1    3    3    0  502  0.26614296367E+03 -0.93399021158E+02  0.77388039221E+02  0.29247967944E+03  0.25500000920E-02 0.  1.
</event>
<event>
 5   0  0.2382531E-02  0.5988532E+03  0.7818609E-02  0.9907788E-01
       -1   -1    0    0    0  501  0.00000000000E+00  0.00000000000E+00  0.26984083972E+03  0.26984083977E+03  0.50400001928E-02 0.  1.
        1   -1    0    0  501    0  0.00000000000E+00  0.00000000000E+00 -0.33225621704E+03  0.33225621707E+03  0.50400001928E-02 0. -1.
    10030    2    1    2    0    0  0.00000000000E+00  0.00000000000E+00 -0.62415377316E+02  0.60209705684E+03  0.59885322620E+03 0.  0.
        5    1    3    3  502    0 -0.11365983840E+03  0.21336447932E+03  0.14635940149E+03  0.28264133509E+03  0.46999998093E+01 0.  1.
       -5    1    3    3    0  502  0.11365983840E+03 -0.21336447932E+03 -0.20877477880E+03  0.31945572175E+03  0.46999998093E+01 0. -1.
</event>
<event>
 5   0  0.2295179E-02  0.5992811E+03  0.7818609E-02  0.9906899E-01
        1   -1    0    0  501    0  0.00000000000E+00  0.00000000000E+00  0.17960243084E+03  0.17960243091E+03  0.50400001928E-02 0. -1.
       -1   -1    0    0    0  501  0.00000000000E+00  0.00000000000E+00 -0.49990676643E+03  0.49990676645E+03  0.50400001928E-02 0.  1.
    10030    2    1    2    0    0  0.00000000000E+00  0.00000000000E+00 -0.32030433559E+03  0.67950919736E+03  0.59928113762E+03 0.  0.
        3    1    3    3  502    0 -0.24245652440E+03  0.10539994760E+03 -0.23919144332E+00  0.26437545762E+03  0.10100000352E+00 0.  1.
       -3    1    3    3    0  502  0.24245652440E+03 -0.10539994760E+03 -0.32006514414E+03  0.41513373974E+03  0.10100000352E+00 0. -1.
</event>
<event>
 5   0  0.2276105E-02  0.6001601E+03  0.7818609E-02  0.9905074E-01
        1   -1    0    0  501    0  0.00000000000E+00  0.00000000000E+00  0.28584436489E+03  0.28584436494E+03  0.50400001928E-02 0. -1.
       -1   -1    0    0    0  501  0.00000000000E+00  0.00000000000E+00 -0.31502469990E+03  0.31502469994E+03  0.50400001928E-02 0.  1.
    10030    2    1    2    0    0  0.00000000000E+00  0.00000000000E+00 -0.29180335008E+02  0.60086906488E+03  0.60016009629E+03 0.  0.
        1    1    3    3  502    0 -0.40634564634E+02 -0.16082620805E+03 -0.26494915577E+03  0.31259285374E+03  0.50400001928E-02 0.  1.
       -1    1    3    3    0  502  0.40634564634E+02  0.16082620805E+03  0.23576882076E+03  0.28827621114E+03  0.50400001928E-02 0. -1.
</event>
<event>
 5   0  0.2382531E-02  0.5984982E+03  0.7818609E-02  0.9908527E-01
        1   -1    0    0  501    0  0.00000000000E+00  0.00000000000E+00  0.59194078689E+03  0.59194078691E+03  0.50400001928E-02 0. -1.
       -1   -1    0    0    0  501  0.00000000000E+00  0.00000000000E+00 -0.15128207912E+03  0.15128207920E+03  0.50400001928E-02 0.  1.
    10030    2    1    2    0    0  0.00000000000E+00  0.00000000000E+00  0.44065870777E+03  0.74322286611E+03  0.59849823056E+03 0.  0.
        5    1    3    3  502    0  0.19432344944E+03 -0.39669619780E+02  0.49854163907E+03  0.53656419712E+03  0.46999998093E+01 0. -1.
       -5    1    3    3    0  502 -0.19432344944E+03  0.39669619780E+02 -0.57882931306E+02  0.20665866900E+03  0.46999998093E+01 0.  1.
</event>
<event>
 5   0  0.2309055E-02  0.5985366E+03  0.7818609E-02  0.9908447E-01
        1   -1    0    0  501    0  0.00000000000E+00  0.00000000000E+00  0.34965440883E+03  0.34965440886E+03  0.50400001928E-02 0. -1.
       -1   -1    0    0    0  501  0.00000000000E+00  0.00000000000E+00 -0.25614295712E+03  0.25614295717E+03  0.50400001928E-02 0.  1.
    10030    2    1    2    0    0  0.00000000000E+00  0.00000000000E+00  0.93511451708E+02  0.60579736603E+03  0.59853659628E+03 0.  0.
        4    1    3    3  502    0  0.37906887514E+01 -0.25081724066E+02 -0.25505015795E+03  0.25631164268E+03  0.12699999809E+01 0.  1.
       -4    1    3    3    0  502 -0.37906887514E+01  0.25081724066E+02  0.34856160965E+03  0.34948572335E+03  0.12699999809E+01 0. -1.
</event>
<event>
 5   0  0.2295179E-02  0.5895763E+03  0.7818609E-02  0.9927271E-01
        1   -1    0    0  501    0  0.00000000000E+00  0.00000000000E+00  0.26827530754E+03  0.26827530759E+03  0.50400001928E-02 0. -1.
       -1   -1    0    0    0  501  0.00000000000E+00  0.00000000000E+00 -0.32392121343E+03  0.32392121347E+03  0.50400001928E-02 0.  1.
    10030    2    1    2    0    0  0.00000000000E+00  0.00000000000E+00 -0.55645905884E+02  0.59219652106E+03  0.58957633324E+03 0.  0.
        3    1    3    3  502    0 -0.17328697543E+03 -0.14980902220E+03  0.15855202197E+03  0.27858548573E+03  0.10100000352E+00 0. -1.
       -3    1    3    3    0  502  0.17328697543E+03  0.14980902220E+03 -0.21419792785E+03  0.31361103533E+03  0.10100000352E+00 0.  1.
</event>
<event>
 5   0  0.3724066E-02  0.5986048E+03  0.7818609E-02  0.9908305E-01
        2   -1    0    0  501    0  0.00000000000E+00  0.00000000000E+00  0.70401023495E+03  0.70401023495E+03  0.25500000920E-02 0.  1.
       -2   -1    0    0    0  501  0.00000000000E+00  0.00000000000E+00 -0.12724518390E+03  0.12724518392E+03  0.25500000920E-02 0. -1.
    10030    2    1    2    0    0  0.00000000000E+00  0.00000000000E+00  0.57676505105E+03  0.83125541888E+03  0.59860475048E+03 0.  0.
        4    1    3    3  502    0 -0.34771573791E+02 -0.19252191331E+03 -0.26160988539E+02  0.19738226787E+03  0.12699999809E+01 0. -1.
       -4    1    3    3    0  502  0.34771573791E+02  0.19252191331E+03  0.60292603959E+03  0.63387315101E+03  0.12699999809E+01 0.  1.
</event>
<event>
 5   0  0.2295179E-02  0.5973594E+03  0.7818609E-02  0.9910900E-01
        1   -1    0    0  501    0  0.00000000000E+00  0.00000000000E+00  0.12888126767E+04  0.12888126767E+04  0.50400001928E-02 0.  1.
       -1   -1    0    0    0  501  0.00000000000E+00  0.00000000000E+00 -0.69218420172E+02  0.69218420356E+02  0.50400001928E-02 0. -1.
    10030    2    1    2    0    0  0.00000000000E+00  0.00000000000E+00  0.12195942565E+04  0.13580310970E+04  0.59735944793E+03 0.  0.
        3    1    3    3  502    0  0.14948504140E+03  0.20397990474E+03  0.97108731082E+03  0.10034760359E+04  0.10100000352E+00 0.  1.
       -3    1    3    3    0  502 -0.14948504140E+03 -0.20397990474E+03  0.24850694566E+03  0.35455506115E+03  0.10100000352E+00 0. -1.
</event>
<event>
 5   0  0.3832191E-02  0.6011083E+03  0.7818609E-02  0.9903109E-01
        2   -1    0    0  501    0  0.00000000000E+00  0.00000000000E+00  0.15065419953E+03  0.15065419955E+03  0.25500000920E-02 0. -1.
       -2   -1    0    0    0  501  0.00000000000E+00  0.00000000000E+00 -0.59960355240E+03  0.59960355241E+03  0.25500000920E-02 0.  1.
    10030    2    1    2    0    0  0.00000000000E+00  0.00000000000E+00 -0.44894935287E+03  0.75025775196E+03  0.60110828720E+03 0.  0.
        3    1    3    3  502    0  0.12798529525E+03 -0.36556031966E+02 -0.56081159931E+03  0.57639070030E+03  0.10100000352E+00 0.  1.
       -3    1    3    3    0  502 -0.12798529525E+03  0.36556031966E+02  0.11186224644E+03  0.17386705166E+03  0.10100000352E+00 0. -1.
</event>
<event>
 5   0  0.3832191E-02  0.6000533E+03  0.7818609E-02  0.9905295E-01
        2   -1    0    0  501    0  0.00000000000E+00  0.00000000000E+00  0.62797169719E+03  0.62797169719E+03  0.25500000920E-02 0. -1.
       -2   -1    0    0    0  501  0.00000000000E+00  0.00000000000E+00 -0.14334402166E+03  0.14334402168E+03  0.25500000920E-02 0.  1.
    10030    2    1    2    0    0  0.00000000000E+00  0.00000000000E+00  0.48462767553E+03  0.77131571888E+03  0.60005329288E+03 0.  0.
        3    1    3    3  502    0  0.20631774885E+03 -0.47387713019E+02  0.51560636911E+03  0.55737110340E+03  0.10100000352E+00 0. -1.
       -3    1    3    3    0  502 -0.20631774885E+03  0.47387713019E+02 -0.30978693585E+02  0.21394461548E+03  0.10100000352E+00 0.  1.
</event>
<event>
 5   0  0.1521750E-02  0.6179567E+03  0.7818609E-02  0.9868836E-01
       -4   -1    0    0    0  501  0.00000000000E+00  0.00000000000E+00  0.25301740861E+03  0.25302059592E+03  0.12699999809E+01 0.  1.
        4   -1    0    0  501    0  0.00000000000E+00  0.00000000000E+00 -0.37730977340E+03  0.37731191076E+03  0.12699999809E+01 0. -1.
    10030    2    1    2    0    0  0.00000000000E+00  0.00000000000E+00 -0.12429236479E+03  0.63033250668E+03  0.61795669511E+03 0.  0.
        4    1    3    3  502    0  0.10041881083E+03  0.22482179753E+03 -0.25253150273E+03  0.35270745808E+03  0.12699999809E+01 0. -1.
       -4    1    3    3    0  502 -0.10041881083E+03 -0.22482179753E+03  0.12823913793E+03  0.27762504860E+03  0.12699999809E+01 0.  1.
</event>
<event>
 5   0  0.3737642E-02  0.5993494E+03  0.7818609E-02  0.9906757E-01
        2   -1    0    0  501    0  0.00000000000E+00  0.00000000000E+00  0.54234713148E+03  0.54234713148E+03  0.25500000920E-02 0. -1.
       -2   -1    0    0    0  501  0.00000000000E+00  0.00000000000E+00 -0.16558567392E+03  0.16558567394E+03  0.25500000920E-02 0.  1.
    10030    2    1    2    0    0  0.00000000000E+00  0.00000000000E+00  0.37676145755E+03  0.70793280543E+03  0.59934936481E+03 0.  0.
        5    1    3    3  502    0 -0.12545983308E+03  0.54760249256E+02 -0.12644890314E+03  0.18641424226E+03  0.46999998093E+01 0.  1.
       -5    1    3    3    0  502  0.12545983308E+03 -0.54760249256E+02  0.50321036069E+03  0.52151856316E+03  0.46999998093E+01 0. -1.
</event>
<event>
 5   0  0.2382531E-02  0.5996124E+03  0.7818609E-02  0.9906211E-01
       -1   -1    0    0    0  501  0.00000000000E+00  0.00000000000E+00  0.98928258948E+02  0.98928259076E+02  0.50400001928E-02 0. -1.
        1   -1    0    0  501    0  0.00000000000E+00  0.00000000000E+00 -0.90857502547E+03  0.90857502549E+03  0.50400001928E-02 0.  1.
    10030    2    1    2    0    0  0.00000000000E+00  0.00000000000E+00 -0.80964676652E+03  0.10075032846E+04  0.59961235966E+03 0.  0.
        5    1    3    3  502    0  0.23915648620E+03  0.17049376058E+03 -0.30404001676E+03  0.42276041569E+03  0.46999998093E+01 0.  1.
       -5    1    3    3    0  502 -0.23915648620E+03 -0.17049376058E+03 -0.50560674977E+03  0.58474286887E+03  0.46999998093E+01 0. -1.
</event>
<event>
 5   0  0.2225808E-02  0.6044673E+03  0.7818609E-02  0.9896181E-01
        1   -1    0    0  501    0  0.00000000000E+00  0.00000000000E+00  0.19285814426E+04  0.19285814426E+04  0.50400001928E-02 0. -1.
       -1   -1    0    0    0  501  0.00000000000E+00  0.00000000000E+00 -0.47363923592E+02  0.47363923860E+02  0.50400001928E-02 0.  1.
    10030    2    1    2    0    0  0.00000000000E+00  0.00000000000E+00  0.18812175190E+04  0.19759453665E+04  0.60446731710E+03 0.  0.
        2    1    3    3  502    0 -0.25157516019E+03  0.47412084312E+02  0.14657458560E+04  0.14879344345E+04  0.25500000920E-02 0. -1.
       -2    1    3    3    0  502  0.25157516019E+03 -0.47412084312E+02  0.41547166305E+03  0.48801093201E+03  0.25500000920E-02 0.  1.
</event>
<event>
 5   0  0.3737642E-02  0.6069208E+03  0.7818609E-02  0.9891151E-01
        2   -1    0    0  501    0  0.00000000000E+00  0.00000000000E+00  0.10173449201E+04  0.10173449201E+04  0.25500000920E-02 0.  1.
       -2   -1    0    0    0  501  0.00000000000E+00  0.00000000000E+00 -0.90518192482E+02  0.90518192518E+02  0.25500000920E-02 0. -1.
    10030    2    1    2    0    0  0.00000000000E+00  0.00000000000E+00  0.92682672765E+03  0.11078631127E+04  0.60692082951E+03 0.  0.
        5    1    3    3  502    0  0.26122259699E+03 -0.13086080134E+03  0.61287579310E+03  0.67897026612E+03  0.46999998093E+01 0.  1.
       -5    1    3    3    0  502 -0.26122259699E+03  0.13086080134E+03  0.31395093455E+03  0.42889284654E+03  0.46999998093E+01 0. -1.
</event>
<event>
 5   0  0.3934634E-02  0.5972616E+03  0.7818609E-02  0.9911104E-01
        2   -1    0    0  501    0  0.00000000000E+00  0.00000000000E+00  0.37982421199E+03  0.37982421200E+03  0.25500000920E-02 0.  1.
       -2   -1    0    0    0  501  0.00000000000E+00  0.00000000000E+00 -0.23479375348E+03  0.23479375349E+03  0.25500000920E-02 0. -1.
    10030    2    1    2    0    0  0.00000000000E+00  0.00000000000E+00  0.14503045851E+03  0.61461796549E+03  0.59726159228E+03 0.  0.
        1    1    3    3  502    0  0.11407731383E+03  0.24995176463E+03  0.19292330573E+03  0.33572149185E+03  0.50400001928E-02 0.  1.
       -1    1    3    3    0  502 -0.11407731383E+03 -0.24995176463E+03 -0.47892847218E+02  0.27889647364E+03  0.50400001928E-02 0. -1.
</event>
<event>
 5   0  0.2225808E-02  0.6010854E+03  0.7818609E-02  0.9903157E-01
       -1   -1    0    0    0  501  0.00000000000E+00  0.00000000000E+00  0.15017621326E+03  0.15017621334E+03  0.50400001928E-02 0.  1.
        1   -1    0    0  501    0  0.00000000000E+00  0.00000000000E+00 -0.60146612176E+03  0.60146612178E+03  0.50400001928E-02 0. -1.
    10030    2    1    2    0    0  0.00000000000E+00  0.00000000000E+00 -0.45128990850E+03  0.75164233513E+03  0.60108536701E+03 0.  0.
        2    1    3    3  502    0 -0.13764661758E+03  0.11533966908E+03 -0.52699669368E+03  0.55675429567E+03  0.25500000920E-02 0. -1.
       -2    1    3    3    0  502  0.13764661758E+03 -0.11533966908E+03  0.75706785176E+02  0.19488803945E+03  0.25500000920E-02 0.  1.
</event>
<event>
 5   0  0.3934634E-02  0.6036640E+03  0.7818609E-02  0.9897833E-01
       -2   -1    0    0    0  501  0.00000000000E+00  0.00000000000E+00  0.17006186621E+03  0.17006186623E+03  0.25500000920E-02 0. -1.
        2   -1    0    0  501    0  0.00000000000E+00  0.00000000000E+00 -0.53570242361E+03  0.53570242361E+03  0.25500000920E-02 0.  1.
    10030    2    1    2    0    0  0.00000000000E+00  0.00000000000E+00 -0.36564055739E+03  0.70576428985E+03  0.60366399231E+03 0.  0.
        1    1    3    3  502    0  0.22709922461E+03  0.16995910002E+03 -0.30343052530E+03  0.41536759287E+03  0.50400001928E-02 0. -1.
       -1    1    3    3    0  502 -0.22709922461E+03 -0.16995910002E+03 -0.62210032094E+02  0.29039669698E+03  0.50400001928E-02 0.  1.
</event>
<event>
 5   0  0.2309055E-02  0.5976759E+03  0.7818609E-02  0.9910240E-01
        1   -1    0    0  501    0  0.00000000000E+00  0.00000000000E+00  0.55660215851E+03  0.55660215853E+03  0.50400001928E-02 0. -1.
       -1   -1    0    0    0  501  0.00000000000E+00  0.00000000000E+00 -0.16044513130E+03  0.16044513138E+03  0.50400001928E-02 0.  1.
    10030    2    1    2    0    0  0.00000000000E+00  0.00000000000E+00  0.39615702721E+03  0.71704728991E+03  0.59767585342E+03 0.  0.
        4    1    3    3  502    0 -0.21537415466E+03 -0.20668623175E+03  0.18122807831E+03  0.34921405206E+03  0.12699999809E+01 0.  1.
       -4    1    3    3    0  502  0.21537415466E+03  0.20668623175E+03  0.21492894890E+03  0.36783323784E+03  0.12699999809E+01 0. -1.
</event>
<event>
 5   0  0.1521750E-02  0.6016876E+03  0.7818609E-02  0.9901911E-01
       -3   -1    0    0    0  501  0.00000000000E+00  0.00000000000E+00  0.19958715909E+03  0.19958718464E+03  0.10100000352E+00 0.  1.
        3   -1    0    0  501    0  0.00000000000E+00  0.00000000000E+00 -0.45347093270E+03  0.45347094395E+03  0.10100000352E+00 0. -1.
    10030    2    1    2    0    0  0.00000000000E+00  0.00000000000E+00 -0.25388377361E+03  0.65305812859E+03  0.60168758406E+03 0.  0.
        4    1    3    3  502    0  0.20724168233E+03  0.62791569408E+02  0.99726603141E+02  0.23840911131E+03  0.12699999809E+01 0.  1.
       -4    1    3    3    0  502 -0.20724168233E+03 -0.62791569408E+02 -0.35361037675E+03  0.41464901728E+03  0.12699999809E+01 0. -1.
</event>
<event>
 5   0  0.3832191E-02  0.6012486E+03  0.7818609E-02  0.9902819E-01
        2   -1    0    0  501    0  0.00000000000E+00  0.00000000000E+00  0.82617387671E+03  0.82617387671E+03  0.25500000920E-02 0. -1.
       -2   -1    0    0    0  501  0.00000000000E+00  0.00000000000E+00 -0.10938976995E+03  0.10938976998E+03  0.25500000920E-02 0.  1.
    10030    2    1    2    0    0  0.00000000000E+00  0.00000000000E+00  0.71678410676E+03  0.93556364669E+03  0.60124860191E+03 0.  0.
        3    1    3    3  502    0  0.48552895204E+02  0.27062799522E+03  0.54755150237E+03  0.61270674337E+03  0.10100000352E+00 0.  1.
       -3    1    3    3    0  502 -0.48552895204E+02 -0.27062799522E+03  0.16923260439E+03  0.32285690331E+03  0.10100000352E+00 0. -1.
</event>
<event>
 5   0  0.2309055E-02  0.5998416E+03  0.7818609E-02  0.9905735E-01
       -1   -1    0    0    0  501  0.00000000000E+00  0.00000000000E+00  0.86414179859E+02  0.86414180006E+02  0.50400001928E-02 0.  1.
        1   -1    0    0  501    0  0.00000000000E+00  0.00000000000E+00 -0.10409458161E+04  0.10409458161E+04  0.50400001928E-02 0. -1.
    10030    2    1    2    0    0  0.00000000000E+00  0.00000000000E+00 -0.95453163620E+03  0.11273599961E+04  0.59984157596E+03 0.  0.
        4    1    3    3  502    0  0.49797552191E+02 -0.20428297438E+03 -0.87921572722E+03  0.90400953409E+03  0.12699999809E+01 0. -1.
       -4    1    3    3    0  502 -0.49797552191E+02  0.20428297438E+03 -0.75315908974E+02  0.22335046199E+03  0.12699999809E+01 0.  1.
</event>
<event>
 5   0  0.3832191E-02  0.5993975E+03  0.7818609E-02  0.9906657E-01
        2   -1    0    0  501    0  0.00000000000E+00  0.00000000000E+00  0.72942459940E+02  0.72942459985E+02  0.25500000920E-02 0. -1.
       -2   -1    0    0    0  501  0.00000000000E+00  0.00000000000E+00 -0.12313725235E+04  0.12313725235E+04  0.25500000920E-02 0.  1.
    10030    2    1    2    0    0  0.00000000000E+00  0.00000000000E+00 -0.11584300636E+04  0.13043149835E+04  0.59939750083E+03 0.  0.
        3    1    3    3  502    0 -0.16866205343E+03 -0.21117537682E+03 -0.29735732081E+03  0.40182497992E+03  0.10100000352E+00 0. -1.
       -3    1    3    3    0  502  0.16866205343E+03  0.21117537682E+03 -0.86107274279E+03  0.90249000361E+03  0.10100000352E+00 0.  1.
</event>
<event>
 5   0  0.3724066E-02  0.6062819E+03  0.7818609E-02  0.9892458E-01
       -2   -1    0    0    0  501  0.00000000000E+00  0.00000000000E+00  0.50975026888E+03  0.50975026888E+03  0.25500000920E-02 0.  1.
        2   -1    0    0  501    0  0.00000000000E+00  0.00000000000E+00 -0.18027344341E+03  0.18027344343E+03  0.25500000920E-02 0. -1.
    10030    2    1    2    0    0  0.00000000000E+00  0.00000000000E+00  0.32947682547E+03  0.69002371231E+03  0.60628190228E+03 0.  0.
        4    1    3    3  502    0 -0.10802081821E+03  0.20410631337E+03  0.38824263674E+03  0.45173204691E+03  0.12699999809E+01 0.  1.
       -4    1    3    3    0  502  0.10802081821E+03 -0.20410631337E+03 -0.58765811276E+02  0.23829166540E+03  0.12699999809E+01 0. -1.
</event>
<event>
 5   0  0.3798925E-02  0.6002643E+03  0.7818609E-02  0.9904858E-01
       -2   -1    0    0    0  501  0.00000000000E+00  0.00000000000E+00  0.13389132563E+03  0.13389132565E+03  0.25500000920E-02 0. -1.
        2   -1    0    0  501    0  0.00000000000E+00  0.00000000000E+00 -0.67277927852E+03  0.67277927852E+03  0.25500000920E-02 0.  1.
    10030    2    1    2    0    0  0.00000000000E+00  0.00000000000E+00 -0.53888795289E+03  0.80667060417E+03  0.60026430667E+03 0.  0.
        2    1    3    3  502    0  0.16663090365E+03  0.13954846017E+03  0.87045821128E+01  0.21752103472E+03  0.25500000920E-02 0. -1.
       -2    1    3    3    0  502 -0.16663090365E+03 -0.13954846017E+03 -0.54759253500E+03  0.58914956945E+03  0.25500000920E-02 0.  1.
</event>
<event>
 5   0  0.3798925E-02  0.5969165E+03  0.7818609E-02  0.9911824E-01
        2   -1    0    0  501    0  0.00000000000E+00  0.00000000000E+00  0.93523596729E+03  0.93523596729E+03  0.25500000920E-02 0. -1.
       -2   -1    0    0    0  501  0.00000000000E+00  0.00000000000E+00 -0.95245816866E+02  0.95245816900E+02  0.25500000920E-02 0.  1.
    10030    2    1    2    0    0  0.00000000000E+00  0.00000000000E+00  0.83999015042E+03  0.10304817842E+04  0.59691645541E+03 0.  0.
        2    1    3    3  502    0 -0.90818728776E+02 -0.16841321318E+03  0.24567611852E+02  0.19291091060E+03  0.25500000920E-02 0.  1.
       -2    1    3    3    0  502  0.90818728776E+02  0.16841321318E+03  0.81542253857E+03  0.83757087359E+03  0.25500000920E-02 0. -1.
</event>
<event>
 5   0  0.2225808E-02  0.6019501E+03  0.7818609E-02  0.9901369E-01
       -1   -1    0    0    0  501  0.00000000000E+00  0.00000000000E+00  0.30967945757E+03  0.30967945761E+03  0.50400001928E-02 0. -1.
        1   -1    0    0  501    0  0.00000000000E+00  0.00000000000E+00 -0.29251526846E+03  0.29251526850E+03  0.50400001928E-02 0.  1.
    10030    2    1    2    0    0  0.00000000000E+00  0.00000000000E+00  0.17164189105E+02  0.60219472611E+03  0.60195006335E+03 0.  0.
        2    1    3    3  502    0  0.15662513338E+03 -0.22785830698E+03 -0.11035747839E+03  0.29770726143E+03  0.25500000920E-02 0.  1.
       -2    1    3    3    0  502 -0.15662513338E+03  0.22785830698E+03  0.12752166749E+03  0.30448746468E+03  0.25500000920E-02 0. -1.
</event>
<event>
 5   0  0.3798925E-02  0.5991226E+03  0.7818609E-02  0.9907228E-01
       -2   -1    0    0    0  501  0.00000000000E+00  0.00000000000E+00  0.13301440578E+03  0.13301440581E+03  0.25500000920E-02 0.  1.
        2   -1    0    0  501    0  0.00000000000E+00  0.00000000000E+00 -0.67464107220E+03  0.67464107221E+03  0.25500000920E-02 0. -1.
    10030    2    1    2    0    0  0.00000000000E+00  0.00000000000E+00 -0.54162666642E+03  0.80765547801E+03  0.59912262968E+03 0.  0.
        2    1    3    3  502    0  0.27492548757E+03  0.94464281234E+02 -0.17332812457E+03  0.33845260070E+03  0.25500000920E-02 0.  1.
       -2    1    3    3    0  502 -0.27492548757E+03 -0.94464281234E+02 -0.36829854185E+03  0.46920287732E+03  0.25500000920E-02 0. -1.
</event>
<event>
 5   0  0.3737642E-02  0.5955258E+03  0.7818609E-02  0.9914732E-01
        2   -1    0    0  501    0  0.00000000000E+00  0.00000000000E+00  0.11605026500E+04  0.11605026500E+04  0.25500000920E-02 0.  1.
       -2   -1    0    0    0  501  0.00000000000E+00  0.00000000000E+00 -0.76400306619E+02  0.76400306661E+02  0.25500000920E-02 0. -1.
    10030    2    1    2    0    0  0.00000000000E+00  0.00000000000E+00  0.10841023434E+04  0.12369029567E+04  0.59552584603E+03 0.  0.
        5    1    3    3  502    0  0.68514028536E+02 -0.23623075135E+03  0.89047580591E+03  0.92383352987E+03  0.46999998093E+01 0.  1.
       -5    1    3    3    0  502 -0.68514028536E+02  0.23623075135E+03  0.19362653748E+03  0.31306942681E+03  0.46999998093E+01 0. -1.
</event>
<event>
 5   0  0.3737642E-02  0.6032504E+03  0.7818609E-02  0.9898685E-01
       -2   -1    0    0    0  501  0.00000000000E+00  0.00000000000E+00  0.91681279421E+02  0.91681279457E+02  0.25500000920E-02 0.  1.
        2   -1    0    0  501    0  0.00000000000E+00  0.00000000000E+00 -0.99232643813E+03  0.99232643813E+03  0.25500000920E-02 0. -1.
    10030    2    1    2    0    0  0.00000000000E+00  0.00000000000E+00 -0.90064515871E+03  0.10840077176E+04  0.60325038739E+03 0.  0.
        5    1    3    3  502    0 -0.11097278202E+03 -0.30411669321E+02 -0.95126699087E+03  0.95821229689E+03  0.46999998093E+01 0. -1.
       -5    1    3    3    0  502  0.11097278202E+03  0.30411669321E+02  0.50621832167E+02  0.12579542070E+03  0.46999998093E+01 0.  1.
</event>
<event>
 5   0  0.3832191E-02  0.6009634E+03  0.7818609E-02  0.9903409E-01
        2   -1    0    0  501    0  0.00000000000E+00  0.00000000000E+00  0.60002211634E+02  0.60002211688E+02  0.25500000920E-02 0. -1.
       -2   -1    0    0    0  501  0.00000000000E+00  0.00000000000E+00 -0.15047651835E+04  0.15047651835E+04  0.25500000920E-02 0.  1.
    10030    2    1    2    0    0  0.00000000000E+00  0.00000000000E+00 -0.14447629718E+04  0.15647673952E+04  0.60096335676E+03 0.  0.
        3    1    3    3  502    0  0.37679976571E+02 -0.21479252673E+03 -0.18412827251E+03  0.28540995272E+03  0.10100000352E+00 0. -1.
       -3    1    3    3    0  502 -0.37679976571E+02  0.21479252673E+03 -0.12606346993E+04  0.12793574424E+04  0.10100000352E+00 0.  1.
</event>
<event>
 5   0  0.2295179E-02  0.5970563E+03  0.7818609E-02  0.9911532E-01
        1   -1    0    0  501    0  0.00000000000E+00  0.00000000000E+00  0.45776210957E+03  0.45776210960E+03  0.50400001928E-02 0.  1.
       -1   -1    0    0    0  501  0.00000000000E+00  0.00000000000E+00 -0.19468424416E+03  0.19468424422E+03  0.50400001928E-02 0. -1.
    10030    2    1    2    0    0  0.00000000000E+00  0.00000000000E+00  0.26307786541E+03  0.65244635382E+03  0.59705634688E+03 0.  0.
        3    1    3    3  502    0 -0.23789262969E+03 -0.11670900053E+02 -0.65129477679E+02  0.24692300871E+03  0.10100000352E+00 0. -1.
       -3    1    3    3    0  502  0.23789262969E+03  0.11670900053E+02  0.32820734309E+03  0.40552334511E+03  0.10100000352E+00 0.  1.
</event>
<event>
 5   0  0.1521750E-02  0.5939740E+03  0.7818609E-02  0.9917988E-01
        3   -1    0    0  501    0  0.00000000000E+00  0.00000000000E+00  0.20079797241E+03  0.20079799781E+03  0.10100000352E+00 0. -1.
       -3   -1    0    0    0  501  0.00000000000E+00  0.00000000000E+00 -0.43925371955E+03  0.43925373116E+03  0.10100000352E+00 0.  1.
    10030    2    1    2    0    0  0.00000000000E+00  0.00000000000E+00 -0.23845574714E+03  0.64005172897E+03  0.59397396611E+03 0.  0.
        5    1    3    3  502    0  0.10251358124E+03 -0.10583850218E+02  0.18086889427E+03  0.20822271522E+03  0.46999998093E+01 0. -1.
       -5    1    3    3    0  502 -0.10251358124E+03  0.10583850218E+02 -0.41932464141E+03  0.43182901375E+03  0.46999998093E+01 0.  1.
</event>
<event>
 5   0  0.2276105E-02  0.6119131E+03  0.7818609E-02  0.9880994E-01
       -1   -1    0    0    0  501  0.00000000000E+00  0.00000000000E+00  0.36294107519E+03  0.36294107522E+03  0.50400001928E-02 0. -1.
        1   -1    0    0  501    0  0.00000000000E+00  0.00000000000E+00 -0.25791905541E+03  0.25791905546E+03  0.50400001928E-02 0.  1.
    10030    2    1    2    0    0  0.00000000000E+00  0.00000000000E+00  0.10502201978E+03  0.62086013069E+03  0.61191312883E+03 0.  0.
        1    1    3    3  502    0  0.18014834701E+03  0.24502884109E+03  0.18602925932E+02  0.30469432022E+03  0.50400001928E-02 0. -1.
       -1    1    3    3    0  502 -0.18014834701E+03 -0.24502884109E+03  0.86419093844E+02  0.31616581046E+03  0.50400001928E-02 0.  1.
</event>
<event>
 5   0  0.3832191E-02  0.5986540E+03  0.7818609E-02  0.9908202E-01
        2   -1    0    0  501    0  0.00000000000E+00  0.00000000000E+00  0.15691075139E+04  0.15691075139E+04  0.25500000920E-02 0. -1.
       -2   -1    0    0    0  501  0.00000000000E+00  0.00000000000E+00 -0.57100395743E+02  0.57100395799E+02  0.25500000920E-02 0.  1.
    10030    2    1    2    0    0  0.00000000000E+00  0.00000000000E+00  0.15120071181E+04  0.16262079097E+04  0.59865402380E+03 0.  0.
        3    1    3    3  502    0 -0.23740330581E+03 -0.26832835858E+02  0.26616738761E+03  0.35766663127E+03  0.10100000352E+00 0.  1.
       -3    1    3    3    0  502  0.23740330581E+03  0.26832835858E+02  0.12458397305E+04  0.12685412784E+04  0.10100000352E+00 0. -1.
</event>
<event>
 5   0  0.1521750E-02  0.5983019E+03  0.7818609E-02  0.9908935E-01
        4   -1    0    0  501    0  0.00000000000E+00  0.00000000000E+00  0.71198985222E+02  0.71210311027E+02  0.12699999809E+01 0. -1.
       -4   -1    0    0    0  501  0.00000000000E+00  0.00000000000E+00 -0.12568063053E+04  0.12568069469E+04  0.12699999809E+01 0.  1.
    10030    2    1    2    0    0  0.00000000000E+00  0.00000000000E+00 -0.11856073200E+04  0.13280172580E+04  0.59830186369E+03 0.  0.
        1    1    3    3  502    0  0.51259730475E+02 -0.10401606274E+03  0.19288647083E+02  0.11755404377E+03  0.50400001928E-02 0. -1.
       -1    1    3    3    0  502 -0.51259730475E+02  0.10401606274E+03 -0.12048959671E+04  0.12104632142E+04  0.50400001928E-02 0.  1.
</event>
<event>
 5   0  0.3724066E-02  0.5972637E+03  0.7818609E-02  0.9911099E-01
        2   -1    0    0  501    0  0.00000000000E+00  0.00000000000E+00  0.30118992878E+03  0.30118992879E+03  0.25500000920E-02 0.  1.
       -2   -1    0    0    0  501  0.00000000000E+00  0.00000000000E+00 -0.29609550655E+03  0.29609550656E+03  0.25500000920E-02 0. -1.
    10030    2    1    2    0    0  0.00000000000E+00  0.00000000000E+00  0.50944222288E+01  0.59728543535E+03  0.59726370904E+03 0.  0.
        4    1    3    3  502    0 -0.77503731870E+02 -0.25916579106E+02  0.28978731345E+03  0.30109267255E+03  0.12699999809E+01 0.  1.
       -4    1    3    3    0  502  0.77503731870E+02  0.25916579106E+02 -0.28469289122E+03  0.29619276280E+03  0.12699999809E+01 0. -1.
</event>
<event>
 5   0  0.1521750E-02  0.6049985E+03  0.7818609E-02  0.9895090E-01
       -3   -1    0    0    0  501  0.00000000000E+00  0.00000000000E+00  0.35313075893E+03  0.35313077338E+03  0.10100000352E+00 0. -1.
        3   -1    0    0  501    0  0.00000000000E+00  0.00000000000E+00 -0.25912718600E+03  0.25912720569E+03  0.10100000352E+00 0.  1.
    10030    2    1    2    0    0  0.00000000000E+00  0.00000000000E+00  0.94003572931E+02  0.61225797906E+03  0.60499848033E+03 0.  0.
        2    1    3    3  502    0  0.19915344766E+03 -0.14184932598E+03  0.22724695059E+03  0.33380309099E+03  0.25500000920E-02 0. -1.
       -2    1    3    3    0  502 -0.19915344766E+03  0.14184932598E+03 -0.13324337766E+03  0.27845488807E+03  0.25500000920E-02 0.  1.
</event>
<event>
 5   0  0.2309055E-02  0.6038734E+03  0.7818609E-02  0.9897403E-01
        1   -1    0    0  501    0  0.00000000000E+00  0.00000000000E+00  0.53806587563E+03  0.53806587566E+03  0.50400001928E-02 0.  1.
       -1   -1    0    0    0  501  0.00000000000E+00  0.00000000000E+00 -0.16943233337E+03  0.16943233345E+03  0.50400001928E-02 0. -1.
    10030    2    1    2    0    0  0.00000000000E+00  0.00000000000E+00  0.36863354226E+03  0.70749820911E+03  0.60387335378E+03 0.  0.
        4    1    3    3  502    0 -0.12879112561E+02  0.30005424392E+03  0.14790801914E+03  0.33477875658E+03  0.12699999809E+01 0.  1.
       -4    1    3    3    0  502  0.12879112561E+02 -0.30005424392E+03  0.22072552312E+03  0.37271945253E+03  0.12699999809E+01 0. -1.
</event>
<event>
 5   0  0.3724066E-02  0.5987430E+03  0.7818609E-02  0.9908017E-01
       -2   -1    0    0    0  501  0.00000000000E+00  0.00000000000E+00  0.11785367921E+03  0.11785367923E+03  0.25500000920E-02 0. -1.
        2   -1    0    0  501    0  0.00000000000E+00  0.00000000000E+00 -0.76046235022E+03  0.76046235022E+03  0.25500000920E-02 0.  1.
    10030    2    1    2    0    0  0.00000000000E+00  0.00000000000E+00 -0.64260867101E+03  0.87831602946E+03  0.59874296952E+03 0.  0.
        4    1    3    3  502    0  0.23288964525E+03 -0.15453599889E+03 -0.16397471710E+03  0.32404981494E+03  0.12699999809E+01 0. -1.
       -4    1    3    3    0  502 -0.23288964525E+03  0.15453599889E+03 -0.47863395391E+03  0.55426621452E+03  0.12699999809E+01 0.  1.
</event>
<event>
 5   0  0.3934634E-02  0.6069865E+03  0.7818609E-02  0.9891016E-01
       -2   -1    0    0    0  501  0.00000000000E+00  0.00000000000E+00  0.37478300787E+03  0.37478300788E+03  0.25500000920E-02 0.  1.
        2   -1    0    0  501    0  0.00000000000E+00  0.00000000000E+00 -0.24576394533E+03  0.24576394534E+03  0.25500000920E-02 0. -1.
    10030    2    1    2    0    0  0.00000000000E+00  0.00000000000E+00  0.12901906254E+03  0.62054695322E+03  0.60698649297E+03 0.  0.
        1    1    3    3  502    0  0.36855927642E+00  0.29023928930E+03 -0.26180609808E+02  0.29141792197E+03  0.50400001928E-02 0. -1.
       -1    1    3    3    0  502 -0.36855927642E+00 -0.29023928930E+03  0.15519967235E+03  0.32912903125E+03  0.50400001928E-02 0.  1.
</event>
<event>
 5   0  0.3798925E-02  0.6056008E+03  0.7818609E-02  0.9893854E-01
        2   -1    0    0  501    0  0.00000000000E+00  0.00000000000E+00  0.12886447999E+04  0.12886447999E+04  0.25500000920E-02 0. -1.
       -2   -1    0    0    0  501  0.00000000000E+00  0.00000000000E+00 -0.71150788804E+02  0.71150788850E+02  0.25500000920E-02 0.  1.
    10030    2    1    2    0    0  0.00000000000E+00  0.00000000000E+00  0.12174940111E+04  0.13597955888E+04  0.60560083895E+03 0.  0.
        2    1    3    3  502    0  0.11354889598E+03 -0.80959522364E+02  0.12122465189E+04  0.12202415411E+04  0.25500000920E-02 0. -1.
       -2    1    3    3    0  502 -0.11354889598E+03  0.80959522364E+02  0.52474922171E+01  0.13955404767E+03  0.25500000920E-02 0.  1.
</event>
<event>
 5   0  0.2295179E-02  0.5971201E+03  0.7818609E-02  0.9911399E-01
        1   -1    0    0  501    0  0.00000000000E+00  0.00000000000E+00  0.73657958736E+02  0.73657958909E+02  0.50400001928E-02 0.  1.
       -1   -1    0    0    0  501  0.00000000000E+00  0.00000000000E+00 -0.12101627304E+04  0.12101627304E+04  0.50400001928E-02 0. -1.
    10030    2    1    2    0    0  0.00000000000E+00  0.00000000000E+00 -0.11365047716E+04  0.12838206893E+04  0.59712014394E+03 0.  0.
        3    1    3    3  502    0  0.25110056326E+03  0.11039054625E+03 -0.31476374879E+03  0.41750903382E+03  0.10100000352E+00 0. -1.
       -3    1    3    3    0  502 -0.25110056326E+03 -0.11039054625E+03 -0.82174102286E+03  0.86631165548E+03  0.10100000352E+00 0.  1.
</event>
<event>
 5   0  0.1521750E-02  0.5960510E+03  0.7818609E-02  0.9913633E-01
        3   -1    0    0  501    0  0.00000000000E+00  0.00000000000E+00  0.20034633608E+03  0.20034636154E+03  0.10100000352E+00 0. -1.
       -3   -1    0    0    0  501  0.00000000000E+00  0.00000000000E+00 -0.44332821703E+03  0.44332822854E+03  0.10100000352E+00 0.  1.
    10030    2    1    2    0    0  0.00000000000E+00  0.00000000000E+00 -0.24298188096E+03  0.64367459007E+03  0.59605099063E+03 0.  0.
        2    1    3    3  502    0 -0.15065273086E+03 -0.74788429760E+02 -0.38717591931E+03  0.42213119648E+03  0.25500000920E-02 0.  1.
       -2    1    3    3    0  502  0.15065273086E+03  0.74788429760E+02  0.14419403835E+03  0.22154339359E+03  0.25500000920E-02 0. -1.
</event>
<event>
 5   0  0.2309055E-02  0.6003978E+03  0.7818609E-02  0.9904581E-01
       -1   -1    0    0    0  501  0.00000000000E+00  0.00000000000E+00  0.26814306638E+03  0.26814306643E+03  0.50400001928E-02 0.  1.
        1   -1    0    0  501    0  0.00000000000E+00  0.00000000000E+00 -0.33608698004E+03  0.33608698008E+03  0.50400001928E-02 0. -1.
    10030    2    1    2    0    0  0.00000000000E+00  0.00000000000E+00 -0.67943913660E+02  0.60423004651E+03  0.60039784618E+03 0.  0.
        4    1    3    3  502    0 -0.12402716510E+03 -0.27327340146E+03 -0.26394562968E+02  0.30126296732E+03  0.12699999809E+01 0.  1.
       -4    1    3    3    0  502  0.12402716510E+03  0.27327340146E+03 -0.41549350692E+02  0.30296707918E+03  0.12699999809E+01 0. -1.
</event>
<event>
 5   0  0.2225808E-02  0.6008419E+03  0.7818609E-02  0.9903661E-01
       -1   -1    0    0    0  501  0.00000000000E+00  0.00000000000E+00  0.45696623947E+03  0.45696623950E+03  0.50400001928E-02 0.  1.
        1   -1    0    0  501    0  0.00000000000E+00  0.00000000000E+00 -0.19750416326E+03  0.19750416333E+03  0.50400001928E-02 0. -1.
    10030    2    1    2    0    0  0.00000000000E+00  0.00000000000E+00  0.25946207621E+03  0.65447040283E+03  0.60084185872E+03 0.  0.
        2    1    3    3  502    0  0.20696205881E+02  0.23516529251E+03  0.33211487996E+03  0.40746943595E+03  0.25500000920E-02 0.  1.
       -2    1    3    3    0  502 -0.20696205881E+02 -0.23516529251E+03 -0.72652803748E+02  0.24700096688E+03  0.25500000920E-02 0. -1.
</event>
<event>
 5   0  0.3798925E-02  0.5983887E+03  0.7818609E-02  0.9908755E-01
        2   -1    0    0  501    0  0.00000000000E+00  0.00000000000E+00  0.92381960993E+03  0.92381960993E+03  0.25500000920E-02 0. -1.
       -2   -1    0    0    0  501  0.00000000000E+00  0.00000000000E+00 -0.96899061976E+02  0.96899062010E+02  0.25500000920E-02 0.  1.
    10030    2    1    2    0    0  0.00000000000E+00  0.00000000000E+00  0.82692054796E+03  0.10207186719E+04  0.59838868190E+03 0.  0.
        2    1    3    3  502    0 -0.34498837191E+02 -0.63910557966E+02  0.90855508562E+03  0.91145327516E+03  0.25500000920E-02 0. -1.
       -2    1    3    3    0  502  0.34498837191E+02  0.63910557966E+02 -0.81634537668E+02  0.10926539678E+03  0.25500000920E-02 0.  1.
</event>
<event>
 5   0  0.3737642E-02  0.5921564E+03  0.7818609E-02  0.9921814E-01
        2   -1    0    0  501    0  0.00000000000E+00  0.00000000000E+00  0.11445464948E+04  0.11445464948E+04  0.25500000920E-02 0. -1.
       -2   -1    0    0    0  501  0.00000000000E+00  0.00000000000E+00 -0.76591305665E+02  0.76591305707E+02  0.25500000920E-02 0.  1.
    10030    2    1    2    0    0  0.00000000000E+00  0.00000000000E+00  0.10679551891E+04  0.12211378005E+04  0.59215643358E+03 0.  0.
        5    1    3    3  502    0 -0.22177269248E+03  0.10641174178E+03  0.19428802742E+03  0.31349085076E+03  0.46999998093E+01 0.  1.
       -5    1    3    3    0  502  0.22177269248E+03 -0.10641174178E+03  0.87366716170E+03  0.90764694973E+03  0.46999998093E+01 0. -1.
</event>
<event>
 5   0  0.2276105E-02  0.5962460E+03  0.7818609E-02  0.9913225E-01
        1   -1    0    0  501    0  0.00000000000E+00  0.00000000000E+00  0.12301092820E+03  0.12301092831E+03  0.50400001928E-02 0. -1.
       -1   -1    0    0    0  501  0.00000000000E+00  0.00000000000E+00 -0.72251564748E+03  0.72251564749E+03  0.50400001928E-02 0.  1.
    10030    2    1    2    0    0  0.00000000000E+00  0.00000000000E+00 -0.59950471927E+03  0.84552657580E+03  0.59624599114E+03 0.  0.
        1    1    3    3  502    0  0.15413001537E+03 -0.37854598281E+02 -0.65762753887E+03  0.67650795424E+03  0.50400001928E-02 0.  1.
       -1    1    3    3    0  502 -0.15413001537E+03  0.37854598281E+02  0.58122819599E+02  0.16901862156E+03  0.50400001928E-02 0. -1.
</event>
<event>
 5   0  0.3934634E-02  0.5923433E+03  0.7818609E-02  0.9921420E-01
        2   -1    0    0  501    0  0.00000000000E+00  0.00000000000E+00  0.20247301305E+03  0.20247301307E+03  0.25500000920E-02 0.  1.
       -2   -1    0    0    0  501  0.00000000000E+00  0.00000000000E+00 -0.43323131055E+03  0.43323131056E+03  0.25500000920E-02 0. -1.
    10030    2    1    2    0    0  0.00000000000E+00  0.00000000000E+00 -0.23075829749E+03  0.63570432363E+03  0.59234330858E+03 0.  0.
        1    1    3    3  502    0  0.23042170695E+02  0.57819730179E+01 -0.43220713462E+03  0.43285953851E+03  0.50400001928E-02 0. -1.
       -1    1    3    3    0  502 -0.23042170695E+02 -0.57819730179E+01  0.20144883712E+03  0.20284478511E+03  0.50400001928E-02 0.  1.
</event>
<event>
 5   0  0.2309055E-02  0.5958873E+03  0.7818609E-02  0.9913976E-01
       -1   -1    0    0    0  501  0.00000000000E+00  0.00000000000E+00  0.11584299260E+03  0.11584299271E+03  0.50400001928E-02 0. -1.
        1   -1    0    0  501    0  0.00000000000E+00  0.00000000000E+00 -0.76629942906E+03  0.76629942908E+03  0.50400001928E-02 0.  1.
    10030    2    1    2    0    0  0.00000000000E+00  0.00000000000E+00 -0.65045643646E+03  0.88214242179E+03  0.59588730192E+03 0.  0.
        4    1    3    3  502    0  0.27757129000E+03  0.82157332181E+02 -0.42962586387E+03  0.51804984709E+03  0.12699999809E+01 0.  1.
       -4    1    3    3    0  502 -0.27757129000E+03 -0.82157332181E+02 -0.22083057260E+03  0.36409257470E+03  0.12699999809E+01 0. -1.
</event>
<event>
 5   0  0.3737642E-02  0.5964251E+03  0.7818609E-02  0.9912851E-01
       -2   -1    0    0    0  501  0.00000000000E+00  0.00000000000E+00  0.23586898110E+03  0.23586898111E+03  0.25500000920E-02 0. -1.
        2   -1    0    0  501    0  0.00000000000E+00  0.00000000000E+00 -0.37703446977E+03  0.37703446978E+03  0.25500000920E-02 0.  1.
    10030    2    1    2    0    0  0.00000000000E+00  0.00000000000E+00 -0.14116548867E+03  0.61290345089E+03  0.59642513773E+03 0.  0.
        5    1    3    3  502    0 -0.22385448098E+01 -0.22601348537E+02  0.23494074650E+03  0.23608277447E+03  0.46999998093E+01 0. -1.
       -5    1    3    3    0  502  0.22385448098E+01  0.22601348537E+02 -0.37610623517E+03  0.37682067641E+03  0.46999998093E+01 0.  1.
</event>
<event>
 5   0  0.3724066E-02  0.6115163E+03  0.7818609E-02  0.9881797E-01
        2   -1    0    0  501    0  0.00000000000E+00  0.00000000000E+00  0.11163674037E+04  0.11163674037E+04  0.25500000920E-02 0. -1.
       -2   -1    0    0    0  501  0.00000000000E+00  0.00000000000E+00 -0.83743089797E+02  0.83743089836E+02  0.25500000920E-02 0.  1.
    10030    2    1    2    0    0  0.00000000000E+00  0.00000000000E+00  0.10326243139E+04  0.12001104935E+04  0.61151633097E+03 0.  0.
        4    1    3    3  502    0  0.41932970399E+02  0.23909439129E+03  0.88116037978E+03  0.91398562885E+03  0.12699999809E+01 0. -1.
       -4    1    3    3    0  502 -0.41932970399E+02 -0.23909439129E+03  0.15146393414E+03  0.28612486470E+03  0.12699999809E+01 0.  1.
</event>
<event>
 5   0  0.3737642E-02  0.6001317E+03  0.7818609E-02  0.9905133E-01
       -2   -1    0    0    0  501  0.00000000000E+00  0.00000000000E+00  0.55874982707E+02  0.55874982765E+02  0.25500000920E-02 0.  1.
        2   -1    0    0  501    0  0.00000000000E+00  0.00000000000E+00 -0.16114457495E+04  0.16114457495E+04  0.25500000920E-02 0. -1.
    10030    2    1    2    0    0  0.00000000000E+00  0.00000000000E+00 -0.15555707668E+04  0.16673207323E+04  0.60013166368E+03 0.  0.
        5    1    3    3  502    0 -0.19666593890E+03  0.24819333707E+01 -0.14072541056E+04  0.14209397803E+04  0.46999998093E+01 0. -1.
       -5    1    3    3    0  502  0.19666593890E+03 -0.24819333707E+01 -0.14831666124E+03  0.24638095202E+03  0.46999998093E+01 0.  1.
</event>
<event>
 5   0  0.3737642E-02  0.6003035E+03  0.7818609E-02  0.9904777E-01
        2   -1    0    0  501    0  0.00000000000E+00  0.00000000000E+00  0.84234651459E+03  0.84234651460E+03  0.25500000920E-02 0. -1.
       -2   -1    0    0    0  501  0.00000000000E+00  0.00000000000E+00 -0.10695249985E+03  0.10695249988E+03  0.25500000920E-02 0.  1.
    10030    2    1    2    0    0  0.00000000000E+00  0.00000000000E+00  0.73539401474E+03  0.94929901448E+03  0.60030347490E+03 0.  0.
        5    1    3    3  502    0  0.15133126906E+03 -0.25873661611E+03  0.39132167079E+03  0.49295083887E+03  0.46999998093E+01 0. -1.
       -5    1    3    3    0  502 -0.15133126906E+03  0.25873661611E+03  0.34407234395E+03  0.45634817561E+03  0.46999998093E+01 0.  1.
</event>
<event>
 5   0  0.1521750E-02  0.6018058E+03  0.7818609E-02  0.9901667E-01
        4   -1    0    0  501    0  0.00000000000E+00  0.00000000000E+00  0.29636277994E+03  0.29636550109E+03  0.12699999809E+01 0.  1.
       -4   -1    0    0    0  501  0.00000000000E+00  0.00000000000E+00 -0.30550710917E+03  0.30550974887E+03  0.12699999809E+01 0. -1.
    10030    2    1    2    0    0  0.00000000000E+00  0.00000000000E+00 -0.91443292256E+01  0.60187524996E+03  0.60180578076E+03 0.  0.
        4    1    3    3  502    0  0.22145374876E+03 -0.69957749111E+02 -0.19591880950E+03  0.30384476681E+03  0.12699999809E+01 0. -1.
       -4    1    3    3    0  502 -0.22145374876E+03  0.69957749111E+02  0.18677448028E+03  0.29803048315E+03  0.12699999809E+01 0.  1.
</event>
<event>
 5   0  0.3832191E-02  0.5894697E+03  0.7818609E-02  0.9927497E-01
       -2   -1    0    0    0  501  0.00000000000E+00  0.00000000000E+00  0.29433692681E+03  0.29433692682E+03  0.25500000920E-02 0. -1.
        2   -1    0    0  501    0  0.00000000000E+00  0.00000000000E+00 -0.29513329309E+03  0.29513329311E+03  0.25500000920E-02 0.  1.
    10030    2    1    2    0    0  0.00000000000E+00  0.00000000000E+00 -0.79636628889E+00  0.58947021992E+03  0.58946968198E+03 0.  0.
        3    1    3    3  502    0  0.12306685937E+03  0.14899345103E+03  0.22214216456E+03  0.29443446096E+03  0.10100000352E+00 0. -1.
       -3    1    3    3    0  502 -0.12306685937E+03 -0.14899345103E+03 -0.22293853085E+03  0.29503575896E+03  0.10100000352E+00 0.  1.
</event>
<event>
 5   0  0.2225808E-02  0.5967302E+03  0.7818609E-02  0.9912213E-01
        1   -1    0    0  501    0  0.00000000000E+00  0.00000000000E+00  0.96061123970E+02  0.96061124102E+02  0.50400001928E-02 0. -1.
       -1   -1    0    0    0  501  0.00000000000E+00  0.00000000000E+00 -0.92671971667E+03  0.92671971668E+03  0.50400001928E-02 0.  1.
    10030    2    1    2    0    0  0.00000000000E+00  0.00000000000E+00 -0.83065859270E+03  0.10227808408E+04  0.59673021597E+03 0.  0.
        2    1    3    3  502    0 -0.86390015483E+02  0.53532374555E+02 -0.89613766723E+03  0.90188229195E+03  0.25500000920E-02 0.  1.
       -2    1    3    3    0  502  0.86390015483E+02 -0.53532374555E+02  0.65479074535E+02  0.12089854883E+03  0.25500000920E-02 0. -1.
</event>
<event>
 5   0  0.3724066E-02  0.6061740E+03  0.7818609E-02  0.9892679E-01
       -2   -1    0    0    0  501  0.00000000000E+00  0.00000000000E+00  0.24982129413E+03  0.24982129415E+03  0.25500000920E-02 0. -1.
        2   -1    0    0  501    0  0.00000000000E+00  0.00000000000E+00 -0.36770976779E+03  0.36770976779E+03  0.25500000920E-02 0.  1.
    10030    2    1    2    0    0  0.00000000000E+00  0.00000000000E+00 -0.11788847365E+03  0.61753106194E+03  0.60617400162E+03 0.  0.
        4    1    3    3  502    0  0.26417651684E+02 -0.20179231387E+03 -0.28774529293E+03  0.35244431725E+03  0.12699999809E+01 0.  1.
       -4    1    3    3    0  502 -0.26417651684E+02  0.20179231387E+03  0.16985681927E+03  0.26508674469E+03  0.12699999809E+01 0. -1.
</event>
<event>
 5   0  0.2295179E-02  0.5990967E+03  0.7818609E-02  0.9907282E-01
        1   -1    0    0  501    0  0.00000000000E+00  0.00000000000E+00  0.20058386100E+03  0.20058386106E+03  0.50400001928E-02 0.  1.
       -1   -1    0    0    0  501  0.00000000000E+00  0.00000000000E+00 -0.44734011242E+03  0.44734011245E+03  0.50400001928E-02 0. -1.
    10030    2    1    2    0    0  0.00000000000E+00  0.00000000000E+00 -0.24675625142E+03  0.64792397351E+03  0.59909667654E+03 0.  0.
        3    1    3    3  502    0  0.24617272070E+03 -0.12258494851E+03  0.50481604636E+01  0.27505194444E+03  0.10100000352E+00 0.  1.
       -3    1    3    3    0  502 -0.24617272070E+03  0.12258494851E+03 -0.25180441189E+03  0.37287202907E+03  0.10100000352E+00 0. -1.
</event>
<event>
 5   0  0.3832191E-02  0.6033962E+03  0.7818609E-02  0.9898385E-01
        2   -1    0    0  501    0  0.00000000000E+00  0.00000000000E+00  0.23488079365E+03  0.23488079367E+03  0.25500000920E-02 0. -1.
       -2   -1    0    0    0  501  0.00000000000E+00  0.00000000000E+00 -0.38752308837E+03  0.38752308838E+03  0.25500000920E-02 0.  1.
    10030    2    1    2    0    0  0.00000000000E+00  0.00000000000E+00 -0.15264229472E+03  0.62240388205E+03  0.60339615698E+03 0.  0.
        3    1    3    3  502    0 -0.11238482500E+03  0.47382719733E+02 -0.36095988930E+03  0.38100856015E+03  0.10100000352E+00 0.  1.
       -3    1    3    3    0  502  0.11238482500E+03 -0.47382719733E+02  0.20831759459E+03  0.24139532190E+03  0.10100000352E+00 0. -1.
</event>
<event>
 5   0  0.2309055E-02  0.5993982E+03  0.7818609E-02  0.9906655E-01
        1   -1    0    0  501    0  0.00000000000E+00  0.00000000000E+00  0.78470925300E+03  0.78470925301E+03  0.50400001928E-02 0. -1.
       -1   -1    0    0    0  501  0.00000000000E+00  0.00000000000E+00 -0.11446218817E+03  0.11446218828E+03  0.50400001928E-02 0.  1.
    10030    2    1    2    0    0  0.00000000000E+00  0.00000000000E+00  0.67024706483E+03  0.89917144130E+03  0.59939815894E+03 0.  0.
        4    1    3    3  502    0  0.91847215096E+02  0.10020788944E+03  0.73580093498E+03  0.74825273862E+03  0.12699999809E+01 0. -1.
       -4    1    3    3    0  502 -0.91847215096E+02 -0.10020788944E+03 -0.65553870154E+02  0.15091870268E+03  0.12699999809E+01 0.  1.
</event>
<event>
 5   0  0.3934634E-02  0.6085960E+03  0.7818609E-02  0.9887731E-01
       -2   -1    0    0    0  501  0.00000000000E+00  0.00000000000E+00  0.19699135205E+03  0.19699135206E+03  0.25500000920E-02 0.  1.
        2   -1    0    0  501    0  0.00000000000E+00  0.00000000000E+00 -0.47005751413E+03  0.47005751413E+03  0.25500000920E-02 0. -1.
    10030    2    1    2    0    0  0.00000000000E+00  0.00000000000E+00 -0.27306616208E+03  0.66704886620E+03  0.60859597519E+03 0.  0.
        1    1    3    3  502    0 -0.16902731631E+03 -0.11209244942E+03 -0.38517436000E+03  0.43530935954E+03  0.50400001928E-02 0. -1.
       -1    1    3    3    0  502  0.16902731631E+03  0.11209244942E+03  0.11210819792E+03  0.23173950665E+03  0.50400001928E-02 0.  1.
</event>
<event>
 5   0  0.2382531E-02  0.6052245E+03  0.7818609E-02  0.9894626E-01
        1   -1    0    0  501    0  0.00000000000E+00  0.00000000000E+00  0.36647334130E+03  0.36647334133E+03  0.50400001928E-02 0.  1.
       -1   -1    0    0    0  501  0.00000000000E+00  0.00000000000E+00 -0.24987949519E+03  0.24987949524E+03  0.50400001928E-02 0. -1.
    10030    2    1    2    0    0  0.00000000000E+00  0.00000000000E+00  0.11659384611E+03  0.61635283657E+03  0.60522449901E+03 0.  0.
        5    1    3    3  502    0 -0.20820945603E+03 -0.16586981346E+03 -0.88181385979E+02  0.28046750156E+03  0.46999998093E+01 0. -1.
       -5    1    3    3    0  502  0.20820945603E+03  0.16586981346E+03  0.20477523209E+03  0.33588533501E+03  0.46999998093E+01 0.  1.
</event>
<event>
 5   0  0.2309055E-02  0.6080662E+03  0.7818609E-02  0.9888811E-01
       -1   -1    0    0    0  501  0.00000000000E+00  0.00000000000E+00  0.96319671491E+03  0.96319671493E+03  0.50400001928E-02 0. -1.
        1   -1    0    0  501    0  0.00000000000E+00  0.00000000000E+00 -0.95968077968E+02  0.95968078100E+02  0.50400001928E-02 0.  1.
    10030    2    1    2    0    0  0.00000000000E+00  0.00000000000E+00  0.86722863695E+03  0.10591647930E+04  0.60806623821E+03 0.  0.
        4    1    3    3  502    0 -0.69715364404E+02  0.28028866510E+03  0.26825196185E+03  0.39418611816E+03  0.12699999809E+01 0.  1.
       -4    1    3    3    0  502  0.69715364404E+02 -0.28028866510E+03  0.59897667510E+03  0.66497867487E+03  0.12699999809E+01 0. -1.
</event>
<event>
 5   0  0.3832191E-02  0.5937078E+03  0.7818609E-02  0.9918547E-01
        2   -1    0    0  501    0  0.00000000000E+00  0.00000000000E+00  0.39645119096E+03  0.39645119097E+03  0.25500000920E-02 0. -1.
       -2   -1    0    0    0  501  0.00000000000E+00  0.00000000000E+00 -0.22227761636E+03  0.22227761638E+03  0.25500000920E-02 0.  1.
    10030    2    1    2    0    0  0.00000000000E+00  0.00000000000E+00  0.17417357460E+03  0.61872880735E+03  0.59370775888E+03 0.  0.
        3    1    3    3  502    0  0.26927627674E+02 -0.28779154964E+03  0.16611805425E+02  0.28952553507E+03  0.10100000352E+00 0. -1.
       -3    1    3    3    0  502 -0.26927627674E+02  0.28779154964E+03  0.15756176917E+03  0.32920327228E+03  0.10100000352E+00 0.  1.
</event>
<event>
 5   0  0.2382531E-02  0.6183956E+03  0.7818609E-02  0.9867959E-01
        1   -1    0    0  501    0  0.00000000000E+00  0.00000000000E+00  0.30656636846E+03  0.30656636850E+03  0.50400001928E-02 0. -1.
       -1   -1    0    0    0  501  0.00000000000E+00  0.00000000000E+00 -0.31185182537E+03  0.31185182541E+03  0.50400001928E-02 0.  1.
    10030    2    1    2    0    0  0.00000000000E+00  0.00000000000E+00 -0.52854569046E+01  0.61841819391E+03  0.61839560679E+03 0.  0.
        5    1    3    3  502    0  0.81601508581E+02 -0.23510934488E+03 -0.18607783764E+03  0.31077686836E+03  0.46999998093E+01 0.  1.
       -5    1    3    3    0  502 -0.81601508581E+02  0.23510934488E+03  0.18079238074E+03  0.30764132554E+03  0.46999998093E+01 0. -1.
</event>
<event>
 5   0  0.2295179E-02  0.5868149E+03  0.7818609E-02  0.9933145E-01
       -1   -1    0    0    0  501  0.00000000000E+00  0.00000000000E+00  0.11948594441E+03  0.11948594451E+03  0.50400001928E-02 0. -1.
        1   -1    0    0  501    0  0.00000000000E+00  0.00000000000E+00 -0.72048590565E+03  0.72048590567E+03  0.50400001928E-02 0.  1.
    10030    2    1    2    0    0  0.00000000000E+00  0.00000000000E+00 -0.60099996125E+03  0.83997185018E+03  0.58681492456E+03 0.  0.
        3    1    3    3  502    0 -0.13871243672E+03  0.11663078080E+03  0.29792830044E+02  0.18366137878E+03  0.10100000352E+00 0. -1.
       -3    1    3    3    0  502  0.13871243672E+03 -0.11663078080E+03 -0.63079279129E+03  0.65631047141E+03  0.10100000352E+00 0.  1.
</event>
<event>
 5   0  0.2225808E-02  0.5911011E+03  0.7818609E-02  0.9924042E-01
        1   -1    0    0  501    0  0.00000000000E+00  0.00000000000E+00  0.53412629442E+03  0.53412629444E+03  0.50400001928E-02 0.  1.
       -1   -1    0    0    0  501  0.00000000000E+00  0.00000000000E+00 -0.16353836695E+03  0.16353836702E+03  0.50400001928E-02 0. -1.
    10030    2    1    2    0    0  0.00000000000E+00  0.00000000000E+00  0.37058792747E+03  0.69766466147E+03  0.59110114860E+03 0.  0.
        2    1    3    3  502    0  0.21239129892E+03  0.10950801305E+03 -0.19979958072E+02  0.23979421909E+03  0.25500000920E-02 0. -1.
       -2    1    3    3    0  502 -0.21239129892E+03 -0.10950801305E+03  0.39056788555E+03  0.45787044238E+03  0.25500000920E-02 0.  1.
</event>
<event>
 5   0  0.3798925E-02  0.5961603E+03  0.7818609E-02  0.9913404E-01
        2   -1    0    0  501    0  0.00000000000E+00  0.00000000000E+00  0.26988303171E+03  0.26988303173E+03  0.25500000920E-02 0.  1.
       -2   -1    0    0    0  501  0.00000000000E+00  0.00000000000E+00 -0.32922329058E+03  0.32922329059E+03  0.25500000920E-02 0. -1.
    10030    2    1    2    0    0  0.00000000000E+00  0.00000000000E+00 -0.59340258868E+02  0.59910632232E+03  0.59616031327E+03 0.  0.
        2    1    3    3  502    0  0.12937127413E+03 -0.40285583300E+02 -0.29648530454E+03  0.32598065987E+03  0.25500000920E-02 0. -1.
       -2    1    3    3    0  502 -0.12937127413E+03  0.40285583300E+02  0.23714504568E+03  0.27312566245E+03  0.25500000920E-02 0.  1.
</event>
<event>
 5   0  0.2225808E-02  0.6019829E+03  0.7818609E-02  0.9901301E-01
        1   -1    0    0  501    0  0.00000000000E+00  0.00000000000E+00  0.76423608157E+03  0.76423608159E+03  0.50400001928E-02 0. -1.
       -1   -1    0    0    0  501  0.00000000000E+00  0.00000000000E+00 -0.11854433528E+03  0.11854433539E+03  0.50400001928E-02 0.  1.
    10030    2    1    2    0    0  0.00000000000E+00  0.00000000000E+00  0.64569174630E+03  0.88278041698E+03  0.60198291784E+03 0.  0.
        2    1    3    3  502    0 -0.13963980342E+02 -0.75381750863E+02 -0.10398668762E+03  0.12919223010E+03  0.25500000920E-02 0.  1.
       -2    1    3    3    0  502  0.13963980342E+02  0.75381750863E+02  0.74967843392E+03  0.75358818687E+03  0.25500000920E-02 0. -1.
</event>
<event>
 5   0  0.2225808E-02  0.5985737E+03  0.7818609E-02  0.9908370E-01
        1   -1    0    0  501    0  0.00000000000E+00  0.00000000000E+00  0.22186684603E+03  0.22186684609E+03  0.50400001928E-02 0. -1.
       -1   -1    0    0    0  501  0.00000000000E+00  0.00000000000E+00 -0.40372241164E+03  0.40372241167E+03  0.50400001928E-02 0.  1.
    10030    2    1    2    0    0  0.00000000000E+00  0.00000000000E+00 -0.18185556561E+03  0.62558925776E+03  0.59857369862E+03 0.  0.
        2    1    3    3  502    0  0.14764132707E+03  0.18178817905E+03  0.10383669686E+03  0.25617760074E+03  0.25500000920E-02 0. -1.
       -2    1    3    3    0  502 -0.14764132707E+03 -0.18178817905E+03 -0.28569226247E+03  0.36941165702E+03  0.25500000920E-02 0.  1.
</event>
<event>
 5   0  0.2295179E-02  0.6029455E+03  0.7818609E-02  0.9899314E-01
       -1   -1    0    0    0  501  0.00000000000E+00  0.00000000000E+00  0.13162733969E+03  0.13162733979E+03  0.50400001928E-02 0.  1.
        1   -1    0    0  501    0  0.00000000000E+00  0.00000000000E+00 -0.69047839216E+03  0.69047839218E+03  0.50400001928E-02 0. -1.
    10030    2    1    2    0    0  0.00000000000E+00  0.00000000000E+00 -0.55885105247E+03  0.82210573197E+03  0.60294554952E+03 0.  0.
        3    1    3    3  502    0 -0.19739985691E+03 -0.19750614562E+03 -0.43435004255E+03  0.51636745707E+03  0.10100000352E+00 0.  1.
       -3    1    3    3    0  502  0.19739985691E+03  0.19750614562E+03 -0.12450100993E+03  0.30573827490E+03  0.10100000352E+00 0. -1.
</event>
<event>
 5   0  0.3934634E-02  0.6060842E+03  0.7818609E-02  0.9892863E-01
       -2   -1    0    0    0  501  0.00000000000E+00  0.00000000000E+00  0.21581949352E+03  0.21581949353E+03  0.25500000920E-02 0. -1.
        2   -1    0    0  501    0  0.00000000000E+00  0.00000000000E+00 -0.42551531461E+03  0.42551531462E+03  0.25500000920E-02 0.  1.
    10030    2    1    2    0    0  0.00000000000E+00  0.00000000000E+00 -0.20969582110E+03  0.64133480815E+03  0.60608415155E+03 0.  0.
        1    1    3    3  502    0 -0.24661611477E+03  0.48411694548E+02 -0.28402215098E+03  0.37925160844E+03  0.50400001928E-02 0.  1.
       -1    1    3    3    0  502  0.24661611477E+03 -0.48411694548E+02  0.74326329887E+02  0.26208319971E+03  0.50400001928E-02 0. -1.
</event>
<event>
 5   0  0.1521750E-02  0.6151167E+03  0.7818609E-02  0.9874531E-01
        3   -1    0    0  501    0  0.00000000000E+00  0.00000000000E+00  0.35958106735E+03  0.35958108154E+03  0.10100000352E+00 0. -1.
       -3   -1    0    0    0  501  0.00000000000E+00  0.00000000000E+00 -0.26306203349E+03  0.26306205288E+03  0.10100000352E+00 0.  1.
    10030    2    1    2    0    0  0.00000000000E+00  0.00000000000E+00  0.96519033861E+02  0.62264313442E+03  0.61511669539E+03 0.  0.
        1    1    3    3  502    0 -0.40533993950E+02  0.29766795832E+03 -0.18447659820E+02  0.30098095331E+03  0.50400001928E-02 0.  1.
       -1    1    3    3    0  502  0.40533993950E+02 -0.29766795832E+03  0.11496669368E+03  0.32166218111E+03  0.50400001928E-02 0. -1.
</event>
<event>
 5   0  0.3724066E-02  0.5891116E+03  0.7818609E-02  0.9928257E-01
        2   -1    0    0  501    0  0.00000000000E+00  0.00000000000E+00  0.93307287785E+03  0.93307287786E+03  0.25500000920E-02 0.  1.
       -2   -1    0    0    0  501  0.00000000000E+00  0.00000000000E+00 -0.92986425664E+02  0.92986425699E+02  0.25500000920E-02 0. -1.
    10030    2    1    2    0    0  0.00000000000E+00  0.00000000000E+00  0.84008645219E+03  0.10260593036E+04  0.58911157454E+03 0.  0.
        4    1    3    3  502    0  0.24059047160E+03  0.16965060967E+03  0.40294302938E+03  0.49902885909E+03  0.12699999809E+01 0. -1.
       -4    1    3    3    0  502 -0.24059047160E+03 -0.16965060967E+03  0.43714342281E+03  0.52703044446E+03  0.12699999809E+01 0.  1.
</event>
<event>
 5   0  0.2276105E-02  0.5806696E+03  0.7818609E-02  0.9946342E-01
        1   -1    0    0  501    0  0.00000000000E+00  0.00000000000E+00  0.55818293785E+03  0.55818293787E+03  0.50400001928E-02 0.  1.
       -1   -1    0    0    0  501  0.00000000000E+00  0.00000000000E+00 -0.15101552744E+03  0.15101552752E+03  0.50400001928E-02 0. -1.
    10030    2    1    2    0    0  0.00000000000E+00  0.00000000000E+00  0.40716741041E+03  0.70919846540E+03  0.58066958179E+03 0.  0.
        1    1    3    3  502    0 -0.24111144393E+01 -0.16704496949E+03  0.49359733320E+03  0.52110283311E+03  0.50400001928E-02 0.  1.
       -1    1    3    3    0  502  0.24111144393E+01  0.16704496949E+03 -0.86429922791E+02  0.18809563229E+03  0.50400001928E-02 0. -1.
</event>
<event>
 5   0  0.3934634E-02  0.6006176E+03  0.7818609E-02  0.9904126E-01
       -2   -1    0    0    0  501  0.00000000000E+00  0.00000000000E+00  0.99851322951E+02  0.99851322983E+02  0.25500000920E-02 0.  1.
        2   -1    0    0  501    0  0.00000000000E+00  0.00000000000E+00 -0.90319650361E+03  0.90319650361E+03  0.25500000920E-02 0. -1.
    10030    2    1    2    0    0  0.00000000000E+00  0.00000000000E+00 -0.80334518065E+03  0.10030478266E+04  0.60061756813E+03 0.  0.
        1    1    3    3  502    0  0.29009633096E+03 -0.75381030825E+02 -0.43279003374E+03  0.52644600329E+03  0.50400001928E-02 0. -1.
       -1    1    3    3    0  502 -0.29009633096E+03  0.75381030825E+02 -0.37055514691E+03  0.47660182330E+03  0.50400001928E-02 0.  1.
</event>
<event>
 5   0  0.1521750E-02  0.6011444E+03  0.7818609E-02  0.9903035E-01
       -3   -1    0    0    0  501  0.00000000000E+00  0.00000000000E+00  0.30220361135E+03  0.30220362823E+03  0.10100000352E+00 0. -1.
        3   -1    0    0  501    0  0.00000000000E+00  0.00000000000E+00 -0.29894957181E+03  0.29894958887E+03  0.10100000352E+00 0.  1.
    10030    2    1    2    0    0  0.00000000000E+00  0.00000000000E+00  0.32540395416E+01  0.60115321709E+03  0.60114440998E+03 0.  0.
        3    1    3    3  502    0 -0.23902284996E+02  0.22653167144E+03 -0.19447716077E+03  0.29951509754E+03  0.10100000352E+00 0.  1.
       -3    1    3    3    0  502  0.23902284996E+02 -0.22653167144E+03  0.19773120031E+03  0.30163811956E+03  0.10100000352E+00 0. -1.
</event>
<event>
 5   0  0.3724066E-02  0.6009977E+03  0.7818609E-02  0.9903338E-01
       -2   -1    0    0    0  501  0.00000000000E+00  0.00000000000E+00  0.72640735141E+02  0.72640735186E+02  0.25500000920E-02 0. -1.
        2   -1    0    0  501    0  0.00000000000E+00  0.00000000000E+00 -0.12430982334E+04  0.12430982334E+04  0.25500000920E-02 0.  1.
    10030    2    1    2    0    0  0.00000000000E+00  0.00000000000E+00 -0.11704574982E+04  0.13157389686E+04  0.60099773563E+03 0.  0.
        4    1    3    3  502    0 -0.20657140018E+03 -0.18856738270E+03 -0.34472350679E+03  0.44392038726E+03  0.12699999809E+01 0. -1.
       -4    1    3    3    0  502  0.20657140018E+03  0.18856738270E+03 -0.82573399145E+03  0.87181858132E+03  0.12699999809E+01 0.  1.
</event>
<event>
 5   0  0.3737642E-02  0.6007701E+03  0.7818609E-02  0.9903810E-01
       -2   -1    0    0    0  501  0.00000000000E+00  0.00000000000E+00  0.31461997179E+03  0.31461997180E+03  0.25500000920E-02 0.  1.
        2   -1    0    0  501    0  0.00000000000E+00  0.00000000000E+00 -0.28679418193E+03  0.28679418194E+03  0.25500000920E-02 0. -1.
    10030    2    1    2    0    0  0.00000000000E+00  0.00000000000E+00  0.27825789859E+02  0.60141415374E+03  0.60077009724E+03 0.  0.
        5    1    3    3  502    0  0.14027004716E+03  0.13688401841E+03 -0.21391880316E+03  0.29016592662E+03  0.46999998093E+01 0. -1.
       -5    1    3    3    0  502 -0.14027004716E+03 -0.13688401841E+03  0.24174459302E+03  0.31124822711E+03  0.46999998093E+01 0.  1.
</event>
<event>
 5   0  0.3934634E-02  0.5990619E+03  0.7818609E-02  0.9907354E-01
        2   -1    0    0  501    0  0.00000000000E+00  0.00000000000E+00  0.35977601546E+03  0.35977601546E+03  0.25500000920E-02 0. -1.
       -2   -1    0    0    0  501  0.00000000000E+00  0.00000000000E+00 -0.24937402731E+03  0.24937402732E+03  0.25500000920E-02 0.  1.
    10030    2    1    2    0    0  0.00000000000E+00  0.00000000000E+00  0.11040198815E+03  0.60915004278E+03  0.59906191302E+03 0.  0.
        1    1    3    3  502    0 -0.59370753486E+02  0.90149206115E+02  0.33931091125E+03  0.35606693226E+03  0.50400001928E-02 0. -1.
       -1    1    3    3    0  502  0.59370753486E+02 -0.90149206115E+02 -0.22890892310E+03  0.25308311052E+03  0.50400001928E-02 0.  1.
</event>
<event>
 5   0  0.3737642E-02  0.6047353E+03  0.7818609E-02  0.9895630E-01
        2   -1    0    0  501    0  0.00000000000E+00  0.00000000000E+00  0.85102007601E+03  0.85102007601E+03  0.25500000920E-02 0. -1.
       -2   -1    0    0    0  501  0.00000000000E+00  0.00000000000E+00 -0.10743131184E+03  0.10743131187E+03  0.25500000920E-02 0.  1.
    10030    2    1    2    0    0  0.00000000000E+00  0.00000000000E+00  0.74358876417E+03  0.95845138788E+03  0.60473532453E+03 0.  0.
        5    1    3    3  502    0 -0.49707740399E+02 -0.99439234274E+02 -0.73802566846E+02  0.13352127036E+03  0.46999998093E+01 0.  1.
       -5    1    3    3    0  502  0.49707740399E+02  0.99439234274E+02  0.81739133102E+03  0.82493011752E+03  0.46999998093E+01 0. -1.
</event>
<event>
 5   0  0.3934634E-02  0.6485788E+03  0.7818609E-02  0.9809450E-01
       -2   -1    0    0    0  501  0.00000000000E+00  0.00000000000E+00  0.79732132873E+02  0.79732132914E+02  0.25500000920E-02 0. -1.
        2   -1    0    0  501    0  0.00000000000E+00  0.00000000000E+00 -0.13189615859E+04  0.13189615859E+04  0.25500000920E-02 0.  1.
    10030    2    1    2    0    0  0.00000000000E+00  0.00000000000E+00 -0.12392294531E+04  0.13986937189E+04  0.64857881697E+03 0.  0.
        1    1    3    3  502    0 -0.41811779487E+02 -0.18983249883E+02  0.72685486247E+02  0.85975395413E+02  0.50400001928E-02 0. -1.
       -1    1    3    3    0  502  0.41811779487E+02  0.18983249883E+02 -0.13119149393E+04  0.13127183234E+04  0.50400001928E-02 0.  1.
</event>
<event>
 5   0  0.2309055E-02  0.6017911E+03  0.7818609E-02  0.9901697E-01
        1   -1    0    0  501    0  0.00000000000E+00  0.00000000000E+00  0.33764271846E+03  0.33764271850E+03  0.50400001928E-02 0. -1.
       -1   -1    0    0    0  501  0.00000000000E+00  0.00000000000E+00 -0.26814773829E+03  0.26814773834E+03  0.50400001928E-02 0.  1.
    10030    2    1    2    0    0  0.00000000000E+00  0.00000000000E+00  0.69494980163E+02  0.60579045684E+03  0.60179109775E+03 0.  0.
        4    1    3    3  502    0  0.60573641186E+02 -0.14059983795E+03 -0.22600881315E+03  0.27298182533E+03  0.12699999809E+01 0.  1.
       -4    1    3    3    0  502 -0.60573641186E+02  0.14059983795E+03  0.29550379332E+03  0.33280863150E+03  0.12699999809E+01 0. -1.
</event>
<event>
 5   0  0.2295179E-02  0.6007008E+03  0.7818609E-02  0.9903953E-01
        1   -1    0    0  501    0  0.00000000000E+00  0.00000000000E+00  0.22514837401E+03  0.22514837407E+03  0.50400001928E-02 0. -1.
       -1   -1    0    0    0  501  0.00000000000E+00  0.00000000000E+00 -0.40067069209E+03  0.40067069212E+03  0.50400001928E-02 0.  1.
    10030    2    1    2    0    0  0.00000000000E+00  0.00000000000E+00 -0.17552231808E+03  0.62581906619E+03  0.60070077365E+03 0.  0.
        3    1    3    3  502    0  0.16463634012E+03 -0.27759474560E+02 -0.34787011028E+03  0.38586181043E+03  0.10100000352E+00 0.  1.
       -3    1    3    3    0  502 -0.16463634012E+03  0.27759474560E+02  0.17234779220E+03  0.23995725576E+03  0.10100000352E+00 0. -1.
</event>
<event>
 5   0  0.3934634E-02  0.6003280E+03  0.7818609E-02  0.9904726E-01
       -2   -1    0    0    0  501  0.00000000000E+00  0.00000000000E+00  0.62818967466E+02  0.62818967518E+02  0.25500000920E-02 0. -1.
        2   -1    0    0  501    0  0.00000000000E+00  0.00000000000E+00 -0.14342552726E+04  0.14342552726E+04  0.25500000920E-02 0.  1.
    10030    2    1    2    0    0  0.00000000000E+00  0.00000000000E+00 -0.13714363052E+04  0.14970742401E+04  0.60032802816E+03 0.  0.
        1    1    3    3  502    0  0.61758071397E+02  0.16956189890E+03 -0.87563135282E+02  0.20058065617E+03  0.50400001928E-02 0. -1.
       -1    1    3    3    0  502 -0.61758071397E+02 -0.16956189890E+03 -0.12838731699E+04  0.12964935840E+04  0.50400001928E-02 0.  1.
</event>
<event>
 5   0  0.2225808E-02  0.5845733E+03  0.7818609E-02  0.9937939E-01
       -1   -1    0    0    0  501  0.00000000000E+00  0.00000000000E+00  0.49559562271E+02  0.49559562528E+02  0.50400001928E-02 0. -1.
        1   -1    0    0  501    0  0.00000000000E+00  0.00000000000E+00 -0.17238141479E+04  0.17238141479E+04  0.50400001928E-02 0.  1.
    10030    2    1    2    0    0  0.00000000000E+00  0.00000000000E+00 -0.16742545856E+04  0.17733737104E+04  0.58457326261E+03 0.  0.
        2    1    3    3  502    0 -0.49694965421E+02 -0.25787548251E+03 -0.44789917152E+03  0.51921384990E+03  0.25500000920E-02 0. -1.
       -2    1    3    3    0  502  0.49694965421E+02  0.25787548251E+03 -0.12263554141E+04  0.12541598605E+04  0.25500000920E-02 0.  1.
</event>
<event>
 5   0  0.3798925E-02  0.6061297E+03  0.7818609E-02  0.9892770E-01
        2   -1    0    0  501    0  0.00000000000E+00  0.00000000000E+00  0.15720741206E+04  0.15720741206E+04  0.25500000920E-02 0. -1.
       -2   -1    0    0    0  501  0.00000000000E+00  0.00000000000E+00 -0.58424912265E+02  0.58424912321E+02  0.25500000920E-02 0.  1.
    10030    2    1    2    0    0  0.00000000000E+00  0.00000000000E+00  0.15136492084E+04  0.16304990330E+04  0.60612966474E+03 0.  0.
        2    1    3    3  502    0  0.30809423299E+02 -0.14459326517E+03  0.14684947908E+04  0.14759178105E+04  0.25500000920E-02 0. -1.
       -2    1    3    3    0  502 -0.30809423299E+02  0.14459326517E+03  0.45154417606E+02  0.15458122244E+03  0.25500000920E-02 0.  1.
</event>
<event>
 5   0  0.2309055E-02  0.5992717E+03  0.7818609E-02  0.9906918E-01
       -1   -1    0    0    0  501  0.00000000000E+00  0.00000000000E+00  0.34582522296E+03  0.34582522300E+03  0.50400001928E-02 0. -1.
        1   -1    0    0  501    0  0.00000000000E+00  0.00000000000E+00 -0.25961565591E+03  0.25961565596E+03  0.50400001928E-02 0.  1.
    10030    2    1    2    0    0  0.00000000000E+00  0.00000000000E+00  0.86209567053E+02  0.60544087896E+03  0.59927169837E+03 0.  0.
        4    1    3    3  502    0  0.18282398891E+03  0.10525052499E+03  0.25808097715E+03  0.33333119806E+03  0.12699999809E+01 0. -1.
       -4    1    3    3    0  502 -0.18282398891E+03 -0.10525052499E+03 -0.17187141010E+03  0.27210968090E+03  0.12699999809E+01 0.  1.
</event>
<event>
 5   0  0.3737642E-02  0.6125282E+03  0.7818609E-02  0.9879750E-01
        2   -1    0    0  501    0  0.00000000000E+00  0.00000000000E+00  0.11880618185E+04  0.11880618185E+04  0.25500000920E-02 0. -1.
       -2   -1    0    0    0  501  0.00000000000E+00  0.00000000000E+00 -0.78950173926E+02  0.78950173967E+02  0.25500000920E-02 0.  1.
    10030    2    1    2    0    0  0.00000000000E+00  0.00000000000E+00  0.11091116445E+04  0.12670119924E+04  0.61252816174E+03 0.  0.
        5    1    3    3  502    0  0.26276393238E+03  0.15351957663E+03  0.62508069373E+03  0.69524176244E+03  0.46999998093E+01 0.  1.
       -5    1    3    3    0  502 -0.26276393238E+03 -0.15351957663E+03  0.48403095082E+03  0.57177023000E+03  0.46999998093E+01 0. -1.
</event>
<event>
 5   0  0.2309055E-02  0.6038806E+03  0.7818609E-02  0.9897388E-01
        1   -1    0    0  501    0  0.00000000000E+00  0.00000000000E+00  0.27524886862E+03  0.27524886867E+03  0.50400001928E-02 0.  1.
       -1   -1    0    0    0  501  0.00000000000E+00  0.00000000000E+00 -0.33122004360E+03  0.33122004364E+03  0.50400001928E-02 0. -1.
    10030    2    1    2    0    0  0.00000000000E+00  0.00000000000E+00 -0.55971174982E+02  0.60646891231E+03  0.60388059181E+03 0.  0.
        4    1    3    3  502    0  0.87392270343E+01  0.29925389436E+03  0.11387834940E+02  0.29960067267E+03  0.12699999809E+01 0.  1.
       -4    1    3    3    0  502 -0.87392270343E+01 -0.29925389436E+03 -0.67359009921E+02  0.30686823964E+03  0.12699999809E+01 0. -1.
</event>
<event>
 5   0  0.3934634E-02  0.5994266E+03  0.7818609E-02  0.9906596E-01
        2   -1    0    0  501    0  0.00000000000E+00  0.00000000000E+00  0.17230741745E+03  0.17230741747E+03  0.25500000920E-02 0. -1.
       -2   -1    0    0    0  501  0.00000000000E+00  0.00000000000E+00 -0.52132437428E+03  0.52132437428E+03  0.25500000920E-02 0.  1.
    10030    2    1    2    0    0  0.00000000000E+00  0.00000000000E+00 -0.34901695682E+03  0.69363179176E+03  0.59942658131E+03 0.  0.
        1    1    3    3  502    0 -0.17699433065E+03  0.23038280271E+03 -0.89279758176E+02  0.30393108448E+03  0.50400001928E-02 0.  1.
       -1    1    3    3    0  502  0.17699433065E+03 -0.23038280271E+03 -0.25973719865E+03  0.38970070728E+03  0.50400001928E-02 0. -1.
</event>
<event>
 5   0  0.2225808E-02  0.6001393E+03  0.7818609E-02  0.9905117E-01
        1   -1    0    0  501    0  0.00000000000E+00  0.00000000000E+00  0.57766402583E+03  0.57766402585E+03  0.50400001928E-02 0. -1.
       -1   -1    0    0    0  501  0.00000000000E+00  0.00000000000E+00 -0.15587226247E+03  0.15587226255E+03  0.50400001928E-02 0.  1.
    10030    2    1    2    0    0  0.00000000000E+00  0.00000000000E+00  0.42179176336E+03  0.73353628840E+03  0.60013931280E+03 0.  0.
        2    1    3    3  502    0 -0.98759075475E+02 -0.19212999031E+03  0.46545392276E+03  0.51314193200E+03  0.25500000920E-02 0. -1.
       -2    1    3    3    0  502  0.98759075475E+02  0.19212999031E+03 -0.43662159395E+02  0.22039435640E+03  0.25500000920E-02 0.  1.
</event>
<event>
 5   0  0.1521750E-02  0.5799011E+03  0.7818609E-02  0.9948005E-01
       -4   -1    0    0    0  501  0.00000000000E+00  0.00000000000E+00  0.20577514850E+03  0.20577906755E+03  0.12699999809E+01 0. -1.
        4   -1    0    0  501    0  0.00000000000E+00  0.00000000000E+00 -0.40855039712E+03  0.40855237104E+03  0.12699999809E+01 0.  1.
    10030    2    1    2    0    0  0.00000000000E+00  0.00000000000E+00 -0.20277524861E+03  0.61433143859E+03  0.57990112518E+03 0.  0.
        5    1    3    3  502    0 -0.17889123691E+03 -0.14103827793E+02  0.13983377072E+03  0.22754464624E+03  0.46999998093E+01 0. -1.
       -5    1    3    3    0  502  0.17889123691E+03  0.14103827793E+02 -0.34260901934E+03  0.38678679234E+03  0.46999998093E+01 0.  1.
</event>
<event>
 5   0  0.2295179E-02  0.5956681E+03  0.7818609E-02  0.9914434E-01
        1   -1    0    0  501    0  0.00000000000E+00  0.00000000000E+00  0.85477338915E+03  0.85477338917E+03  0.50400001928E-02 0.  1.
       -1   -1    0    0    0  501  0.00000000000E+00  0.00000000000E+00 -0.10377617222E+03  0.10377617234E+03  0.50400001928E-02 0. -1.
    10030    2    1    2    0    0  0.00000000000E+00  0.00000000000E+00  0.75099721693E+03  0.95854956151E+03  0.59566806362E+03 0.  0.
        3    1    3    3  502    0  0.20630331852E+03 -0.21092501307E+03  0.44095729048E+03  0.53055985770E+03  0.10100000352E+00 0. -1.
       -3    1    3    3    0  502 -0.20630331852E+03  0.21092501307E+03  0.31003992645E+03  0.42798970381E+03  0.10100000352E+00 0.  1.
</event>
<event>
 5   0  0.2382531E-02  0.5984082E+03  0.7818609E-02  0.9908714E-01
       -1   -1    0    0    0  501  0.00000000000E+00  0.00000000000E+00  0.47261050032E+02  0.47261050300E+02  0.50400001928E-02 0. -1.
        1   -1    0    0  501    0  0.00000000000E+00  0.00000000000E+00 -0.18942257905E+04  0.18942257905E+04  0.50400001928E-02 0.  1.
    10030    2    1    2    0    0  0.00000000000E+00  0.00000000000E+00 -0.18469647405E+04  0.19414868408E+04  0.59840822228E+03 0.  0.
        5    1    3    3  502    0  0.58799722752E+02  0.25712280635E+03 -0.46543909469E+03  0.53500017365E+03  0.46999998093E+01 0. -1.
       -5    1    3    3    0  502 -0.58799722752E+02 -0.25712280635E+03 -0.13815256458E+04  0.14064866671E+04  0.46999998093E+01 0.  1.
</event>
<event>
 5   0  0.2309055E-02  0.5827269E+03  0.7818609E-02  0.9941905E-01
       -1   -1    0    0    0  501  0.00000000000E+00  0.00000000000E+00  0.33922480943E+02  0.33922481317E+02  0.50400001928E-02 0.  1.
        1   -1    0    0  501    0  0.00000000000E+00  0.00000000000E+00 -0.25025487800E+04  0.25025487800E+04  0.50400001928E-02 0. -1.
    10030    2    1    2    0    0  0.00000000000E+00  0.00000000000E+00 -0.24686262991E+04  0.25364712613E+04  0.58272691298E+03 0.  0.
        4    1    3    3  502    0  0.60732948716E+02 -0.17938013578E+03 -0.21980869543E+04  0.22062306307E+04  0.12699999809E+01 0. -1.
       -4    1    3    3    0  502 -0.60732948716E+02  0.17938013578E+03 -0.27053934478E+03  0.33024063067E+03  0.12699999809E+01 0.  1.
</event>
<event>
 5   0  0.3724066E-02  0.6044323E+03  0.7818609E-02  0.9896253E-01
        2   -1    0    0  501    0  0.00000000000E+00  0.00000000000E+00  0.12476921490E+04  0.12476921490E+04  0.25500000920E-02 0.  1.
       -2   -1    0    0    0  501  0.00000000000E+00  0.00000000000E+00 -0.73202824600E+02  0.73202824645E+02  0.25500000920E-02 0. -1.
    10030    2    1    2    0    0  0.00000000000E+00  0.00000000000E+00  0.11744893244E+04  0.13208949737E+04  0.60443226113E+03 0.  0.
        4    1    3    3  502    0  0.19554581245E+03 -0.16054614258E+03  0.94845402231E+03  0.98162104399E+03  0.12699999809E+01 0.  1.
       -4    1    3    3    0  502 -0.19554581245E+03  0.16054614258E+03  0.22603530213E+03  0.33927392970E+03  0.12699999809E+01 0. -1.
</event>
<event>
 5   0  0.3934634E-02  0.5984321E+03  0.7818609E-02  0.9908664E-01
       -2   -1    0    0    0  501  0.00000000000E+00  0.00000000000E+00  0.35141566644E+03  0.35141566645E+03  0.25500000920E-02 0. -1.
        2   -1    0    0  501    0  0.00000000000E+00  0.00000000000E+00 -0.25477023102E+03  0.25477023104E+03  0.25500000920E-02 0.  1.
    10030    2    1    2    0    0  0.00000000000E+00  0.00000000000E+00  0.96645435420E+02  0.60618589749E+03  0.59843211990E+03 0.  0.
        1    1    3    3  502    0  0.91548750126E+02  0.23950980455E+03  0.20454197599E+03  0.32799929893E+03  0.50400001928E-02 0.  1.
       -1    1    3    3    0  502 -0.91548750126E+02 -0.23950980455E+03 -0.10789654057E+03  0.27818659856E+03  0.50400001928E-02 0. -1.
</event>
<event>
 5   0  0.3737642E-02  0.6001876E+03  0.7818609E-02  0.9905017E-01
       -2   -1    0    0    0  501  0.00000000000E+00  0.00000000000E+00  0.12993138144E+03  0.12993138146E+03  0.25500000920E-02 0.  1.
        2   -1    0    0  501    0  0.00000000000E+00  0.00000000000E+00 -0.69310659490E+03  0.69310659490E+03  0.25500000920E-02 0. -1.
    10030    2    1    2    0    0  0.00000000000E+00  0.00000000000E+00 -0.56317521346E+03  0.82303797637E+03  0.60018762857E+03 0.  0.
        5    1    3    3  502    0  0.14711683481E+03 -0.14986956354E+02  0.76440803917E+02  0.16653305512E+03  0.46999998093E+01 0.  1.
       -5    1    3    3    0  502 -0.14711683481E+03  0.14986956354E+02 -0.63961601738E+03  0.65650492125E+03  0.46999998093E+01 0. -1.
</event>
<event>
 5   0  0.3798925E-02  0.6027733E+03  0.7818609E-02  0.9899669E-01
       -2   -1    0    0    0  501  0.00000000000E+00  0.00000000000E+00  0.59394210332E+03  0.59394210333E+03  0.25500000920E-02 0. -1.
        2   -1    0    0  501    0  0.00000000000E+00  0.00000000000E+00 -0.15293392742E+03  0.15293392744E+03  0.25500000920E-02 0.  1.
    10030    2    1    2    0    0  0.00000000000E+00  0.00000000000E+00  0.44100817591E+03  0.74687603077E+03  0.60277325266E+03 0.  0.
        2    1    3    3  502    0 -0.27927425275E+03 -0.92000030968E+02  0.13854020662E+03  0.32504077098E+03  0.25500000920E-02 0.  1.
       -2    1    3    3    0  502  0.27927425275E+03  0.92000030968E+02  0.30246796929E+03  0.42183525978E+03  0.25500000920E-02 0. -1.
</event>
<event>
 5   0  0.1521750E-02  0.5925193E+03  0.7818609E-02  0.9921049E-01
        4   -1    0    0  501    0  0.00000000000E+00  0.00000000000E+00  0.82028516352E+02  0.82038347100E+02  0.12699999809E+01 0.  1.
       -4   -1    0    0    0  501  0.00000000000E+00  0.00000000000E+00 -0.10699166977E+04  0.10699174515E+04  0.12699999809E+01 0. -1.
    10030    2    1    2    0    0  0.00000000000E+00  0.00000000000E+00 -0.98788818135E+03  0.11519557986E+04  0.59251928489E+03 0.  0.
        5    1    3    3  502    0 -0.18779444798E+03 -0.22548875092E+03 -0.41531335208E+03  0.50854616496E+03  0.46999998093E+01 0.  1.
       -5    1    3    3    0  502  0.18779444798E+03  0.22548875092E+03 -0.57257482928E+03  0.64340963360E+03  0.46999998093E+01 0. -1.
</event>
<event>
 5   0  0.2276105E-02  0.5722320E+03  0.7818609E-02  0.9964752E-01
        1   -1    0    0  501    0  0.00000000000E+00  0.00000000000E+00  0.40645224803E+03  0.40645224806E+03  0.50400001928E-02 0. -1.
       -1   -1    0    0    0  501  0.00000000000E+00  0.00000000000E+00 -0.20140712105E+03  0.20140712112E+03  0.50400001928E-02 0.  1.
    10030    2    1    2    0    0  0.00000000000E+00  0.00000000000E+00  0.20504512698E+03  0.60785936918E+03  0.57223204087E+03 0.  0.
        1    1    3    3  502    0 -0.26575110569E+03 -0.10566845025E+03  0.93452479673E+02  0.30087013401E+03  0.50400001928E-02 0. -1.
       -1    1    3    3    0  502  0.26575110569E+03  0.10566845025E+03  0.11159264731E+03  0.30698923517E+03  0.50400001928E-02 0.  1.
</event>
<event>
 5   0  0.3737642E-02  0.5951931E+03  0.7818609E-02  0.9915429E-01
       -2   -1    0    0    0  501  0.00000000000E+00  0.00000000000E+00  0.89977894790E+02  0.89977894826E+02  0.25500000920E-02 0.  1.
        2   -1    0    0  501    0  0.00000000000E+00  0.00000000000E+00 -0.98428309556E+03  0.98428309556E+03  0.25500000920E-02 0. -1.
    10030    2    1    2    0    0  0.00000000000E+00  0.00000000000E+00 -0.89430520077E+03  0.10742609904E+04  0.59519314794E+03 0.  0.
        5    1    3    3  502    0 -0.57576141853E+02 -0.23539186424E+03 -0.75881611210E+03  0.79658541528E+03  0.46999998093E+01 0. -1.
       -5    1    3    3    0  502  0.57576141853E+02  0.23539186424E+03 -0.13548908867E+03  0.27767557510E+03  0.46999998093E+01 0.  1.
</event>
<event>
 5   0  0.3934634E-02  0.5925603E+03  0.7818609E-02  0.9920962E-01
       -2   -1    0    0    0  501  0.00000000000E+00  0.00000000000E+00  0.32933710034E+03  0.32933710035E+03  0.25500000920E-02 0. -1.
        2   -1    0    0  501    0  0.00000000000E+00  0.00000000000E+00 -0.26654130121E+03  0.26654130122E+03  0.25500000920E-02 0.  1.
    10030    2    1    2    0    0  0.00000000000E+00  0.00000000000E+00  0.62795799134E+02  0.59587840157E+03  0.59256034045E+03 0.  0.
        1    1    3    3  502    0 -0.27585422068E+02 -0.28509353128E+03  0.10760258882E+03  0.30596992375E+03  0.50400001928E-02 0.  1.
       -1    1    3    3    0  502  0.27585422068E+02  0.28509353128E+03 -0.44806789687E+02  0.28990847783E+03  0.50400001928E-02 0. -1.
</event>
<event>
 5   0  0.2382531E-02  0.6095768E+03  0.7818609E-02  0.9885734E-01
       -1   -1    0    0    0  501  0.00000000000E+00  0.00000000000E+00  0.44133391871E+03  0.44133391874E+03  0.50400001928E-02 0.  1.
        1   -1    0    0  501    0  0.00000000000E+00  0.00000000000E+00 -0.21048907027E+03  0.21048907033E+03  0.50400001928E-02 0. -1.
    10030    2    1    2    0    0  0.00000000000E+00  0.00000000000E+00  0.23084484844E+03  0.65182298907E+03  0.60957679174E+03 0.  0.
        5    1    3    3  502    0 -0.24000605977E+03  0.16764080802E+03  0.20595104817E+03  0.35797244793E+03  0.46999998093E+01 0.  1.
       -5    1    3    3    0  502  0.24000605977E+03 -0.16764080802E+03  0.24893800267E+02  0.29385054114E+03  0.46999998093E+01 0. -1.
</event>
<event>
 5   0  0.2276105E-02  0.5880322E+03  0.7818609E-02  0.9930551E-01
        1   -1    0    0  501    0  0.00000000000E+00  0.00000000000E+00  0.44705419421E+03  0.44705419424E+03  0.50400001928E-02 0.  1.
       -1   -1    0    0    0  501  0.00000000000E+00  0.00000000000E+00 -0.19336685048E+03  0.19336685055E+03  0.50400001928E-02 0. -1.
    10030    2    1    2    0    0  0.00000000000E+00  0.00000000000E+00  0.25368734373E+03  0.64042104479E+03  0.58803218129E+03 0.  0.
        1    1    3    3  502    0 -0.12026084384E+03 -0.13398897704E+03  0.37999543665E+03  0.42049048554E+03  0.50400001928E-02 0.  1.
       -1    1    3    3    0  502  0.12026084384E+03  0.13398897704E+03 -0.12630809292E+03  0.21993055925E+03  0.50400001928E-02 0. -1.
</event>
<event>
 5   0  0.3737642E-02  0.6091986E+03  0.7818609E-02  0.9886503E-01
       -2   -1    0    0    0  501  0.00000000000E+00  0.00000000000E+00  0.17076879128E+03  0.17076879130E+03  0.25500000920E-02 0.  1.
        2   -1    0    0  501    0  0.00000000000E+00  0.00000000000E+00 -0.54331207645E+03  0.54331207645E+03  0.25500000920E-02 0. -1.
    10030    2    1    2    0    0  0.00000000000E+00  0.00000000000E+00 -0.37254328516E+03  0.71408086775E+03  0.60919864278E+03 0.  0.
        5    1    3    3  502    0  0.17990273490E+03  0.23449202422E+03 -0.27246480303E+03  0.40200828640E+03  0.46999998093E+01 0. -1.
       -5    1    3    3    0  502 -0.17990273490E+03 -0.23449202422E+03 -0.10007848213E+03  0.31207258135E+03  0.46999998093E+01 0.  1.
</event>
<event>
 5   0  0.2295179E-02  0.5696625E+03  0.7818609E-02  0.9970426E-01
       -1   -1    0    0    0  501  0.00000000000E+00  0.00000000000E+00  0.55297654729E+03  0.55297654732E+03  0.50400001928E-02 0.  1.
        1   -1    0    0  501    0  0.00000000000E+00  0.00000000000E+00 -0.14671298676E+03  0.14671298685E+03  0.50400001928E-02 0. -1.
    10030    2    1    2    0    0  0.00000000000E+00  0.00000000000E+00  0.40626356053E+03  0.69968953416E+03  0.56966249973E+03 0.  0.
        3    1    3    3  502    0  0.17831758436E+02  0.27047516762E+03  0.95675156886E+02  0.28745179379E+03  0.10100000352E+00 0. -1.
       -3    1    3    3    0  502 -0.17831758436E+02 -0.27047516762E+03  0.31058840365E+03  0.41223774037E+03  0.10100000352E+00 0.  1.
</event>
<event>
 5   0  0.3737642E-02  0.6006420E+03  0.7818609E-02  0.9904075E-01
       -2   -1    0    0    0  501  0.00000000000E+00  0.00000000000E+00  0.22179838705E+03  0.22179838706E+03  0.25500000920E-02 0.  1.
        2   -1    0    0  501    0  0.00000000000E+00  0.00000000000E+00 -0.40664270509E+03  0.40664270510E+03  0.25500000920E-02 0. -1.
    10030    2    1    2    0    0  0.00000000000E+00  0.00000000000E+00 -0.18484431804E+03  0.62844109216E+03  0.60064197689E+03 0.  0.
        5    1    3    3  502    0 -0.92293065946E+02 -0.27256803541E+03 -0.18217868424E+03  0.34062076704E+03  0.46999998093E+01 0.  1.
       -5    1    3    3    0  502  0.92293065946E+02  0.27256803541E+03 -0.26656338005E+01  0.28782032512E+03  0.46999998093E+01 0. -1.
</event>
<event>
 5   0  0.2225808E-02  0.5994976E+03  0.7818609E-02  0.9906449E-01
        1   -1    0    0  501    0  0.00000000000E+00  0.00000000000E+00  0.30158850621E+03  0.30158850625E+03  0.50400001928E-02 0. -1.
       -1   -1    0    0    0  501  0.00000000000E+00  0.00000000000E+00 -0.29792026857E+03  0.29792026862E+03  0.50400001928E-02 0.  1.
    10030    2    1    2    0    0  0.00000000000E+00  0.00000000000E+00  0.36682376354E+01  0.59950877487E+03  0.59949755227E+03 0.  0.
        2    1    3    3  502    0  0.52126636940E+02 -0.16489822102E+03 -0.24299840234E+03  0.29825632117E+03  0.25500000920E-02 0.  1.
       -2    1    3    3    0  502 -0.52126636940E+02  0.16489822102E+03  0.24666663997E+03  0.30125245369E+03  0.25500000920E-02 0. -1.
</event>
<event>
 5   0  0.3934634E-02  0.5979745E+03  0.7818609E-02  0.9909617E-01
        2   -1    0    0  501    0  0.00000000000E+00  0.00000000000E+00  0.71412077897E+03  0.71412077897E+03  0.25500000920E-02 0. -1.
       -2   -1    0    0    0  501  0.00000000000E+00  0.00000000000E+00 -0.12517964921E+03  0.12517964924E+03  0.25500000920E-02 0.  1.
    10030    2    1    2    0    0  0.00000000000E+00  0.00000000000E+00  0.58894112976E+03  0.83930042821E+03  0.59797454333E+03 0.  0.
        1    1    3    3  502    0  0.27638223978E+03 -0.97823325393E+02  0.21218671483E+03  0.36191124248E+03  0.50400001928E-02 0.  1.
       -1    1    3    3    0  502 -0.27638223978E+03  0.97823325393E+02  0.37675441493E+03  0.47738918573E+03  0.50400001928E-02 0. -1.
</event>
<event>
 5   0  0.2225808E-02  0.6000888E+03  0.7818609E-02  0.9905222E-01
        1   -1    0    0  501    0  0.00000000000E+00  0.00000000000E+00  0.75546173595E+03  0.75546173597E+03  0.50400001928E-02 0.  1.
       -1   -1    0    0    0  501  0.00000000000E+00  0.00000000000E+00 -0.11916768683E+03  0.11916768694E+03  0.50400001928E-02 0. -1.
    10030    2    1    2    0    0  0.00000000000E+00  0.00000000000E+00  0.63629404912E+03  0.87462942291E+03  0.60008875216E+03 0.  0.
        2    1    3    3  502    0  0.19836164560E+03 -0.14668148844E+03  0.56705043459E+03  0.61839226780E+03  0.25500000920E-02 0.  1.
       -2    1    3    3    0  502 -0.19836164560E+03  0.14668148844E+03  0.69243614526E+02  0.25623715511E+03  0.25500000920E-02 0. -1.
</event>
<event>
 5   0  0.1521750E-02  0.5978573E+03  0.7818609E-02  0.9909861E-01
       -3   -1    0    0    0  501  0.00000000000E+00  0.00000000000E+00  0.35103732110E+03  0.35103733563E+03  0.10100000352E+00 0.  1.
        3   -1    0    0  501    0  0.00000000000E+00  0.00000000000E+00 -0.25455509399E+03  0.25455511403E+03  0.10100000352E+00 0. -1.
    10030    2    1    2    0    0  0.00000000000E+00  0.00000000000E+00  0.96482227111E+02  0.60559244966E+03  0.59785733660E+03 0.  0.
        3    1    3    3  502    0  0.93004363114E+02 -0.10312584493E+03 -0.21989793477E+03  0.26007664903E+03  0.10100000352E+00 0. -1.
       -3    1    3    3    0  502 -0.93004363114E+02  0.10312584493E+03  0.31638016188E+03  0.34551580063E+03  0.10100000352E+00 0.  1.
</event>
<event>
 5   0  0.3724066E-02  0.5895460E+03  0.7818609E-02  0.9927335E-01
       -2   -1    0    0    0  501  0.00000000000E+00  0.00000000000E+00  0.65389364869E+02  0.65389364918E+02  0.25500000920E-02 0.  1.
        2   -1    0    0  501    0  0.00000000000E+00  0.00000000000E+00 -0.13288263011E+04  0.13288263011E+04  0.25500000920E-02 0. -1.
    10030    2    1    2    0    0  0.00000000000E+00  0.00000000000E+00 -0.12634369362E+04  0.13942156660E+04  0.58954595371E+03 0.  0.
        4    1    3    3  502    0  0.88273902427E+01  0.14342347194E+03 -0.12403811186E+04  0.12486773592E+04  0.12699999809E+01 0. -1.
       -4    1    3    3    0  502 -0.88273902427E+01 -0.14342347194E+03 -0.23055817627E+02  0.14553830681E+03  0.12699999809E+01 0.  1.
</event>
<event>
 5   0  0.2225808E-02  0.5966208E+03  0.7818609E-02  0.9912442E-01
        1   -1    0    0  501    0  0.00000000000E+00  0.00000000000E+00  0.86953546691E+03  0.86953546692E+03  0.50400001928E-02 0. -1.
       -1   -1    0    0    0  501  0.00000000000E+00  0.00000000000E+00 -0.10234096993E+03  0.10234097006E+03  0.50400001928E-02 0.  1.
    10030    2    1    2    0    0  0.00000000000E+00  0.00000000000E+00  0.76719449698E+03  0.97187643698E+03  0.59662082813E+03 0.  0.
        2    1    3    3  502    0 -0.58250536361E+01  0.10182626353E+03 -0.73056311555E+02  0.12545813588E+03  0.25500000920E-02 0.  1.
       -2    1    3    3    0  502  0.58250536361E+01 -0.10182626353E+03  0.84025080853E+03  0.84641830110E+03  0.25500000920E-02 0. -1.
</event>
<event>
 5   0  0.1521750E-02  0.5954618E+03  0.7818609E-02  0.9914866E-01
       -4   -1    0    0    0  501  0.00000000000E+00  0.00000000000E+00  0.30173556427E+03  0.30173823696E+03  0.12699999809E+01 0. -1.
        4   -1    0    0  501    0  0.00000000000E+00  0.00000000000E+00 -0.29377405669E+03  0.29377680182E+03  0.12699999809E+01 0.  1.
    10030    2    1    2    0    0  0.00000000000E+00  0.00000000000E+00  0.79615075765E+01  0.59551503878E+03  0.59546181726E+03 0.  0.
        4    1    3    3  502    0 -0.28271618547E+03  0.11663447898E+02  0.96604384047E+02  0.29899581513E+03  0.12699999809E+01 0.  1.
       -4    1    3    3    0  502  0.28271618547E+03 -0.11663447898E+02 -0.88642876471E+02  0.29651922365E+03  0.12699999809E+01 0. -1.
</event>
<event>
 5   0  0.2295179E-02  0.5811960E+03  0.7818609E-02  0.9945205E-01
        1   -1    0    0  501    0  0.00000000000E+00  0.00000000000E+00  0.89254064821E+03  0.89254064823E+03  0.50400001928E-02 0. -1.
       -1   -1    0    0    0  501  0.00000000000E+00  0.00000000000E+00 -0.94614393907E+02  0.94614394041E+02  0.50400001928E-02 0.  1.
    10030    2    1    2    0    0  0.00000000000E+00  0.00000000000E+00  0.79792625431E+03  0.98715504227E+03  0.58119598258E+03 0.  0.
        3    1    3    3  502    0 -0.94226767648E+02 -0.27268126445E+03  0.33979749306E+03  0.44575340965E+03  0.10100000352E+00 0.  1.
       -3    1    3    3    0  502  0.94226767648E+02  0.27268126445E+03  0.45812876125E+03  0.54140163262E+03  0.10100000352E+00 0. -1.
</event>
<event>
 5   0  0.2225808E-02  0.5980932E+03  0.7818609E-02  0.9909370E-01
        1   -1    0    0  501    0  0.00000000000E+00  0.00000000000E+00  0.57112823448E+03  0.57112823450E+03  0.50400001928E-02 0. -1.
       -1   -1    0    0    0  501  0.00000000000E+00  0.00000000000E+00 -0.15658281442E+03  0.15658281450E+03  0.50400001928E-02 0.  1.
    10030    2    1    2    0    0  0.00000000000E+00  0.00000000000E+00  0.41454542006E+03  0.72771104900E+03  0.59809319136E+03 0.  0.
        2    1    3    3  502    0 -0.21795900371E+03  0.11442990854E+03  0.41385895317E+03  0.48153874652E+03  0.25500000920E-02 0. -1.
       -2    1    3    3    0  502  0.21795900371E+03 -0.11442990854E+03  0.68646688586E+00  0.24617230249E+03  0.25500000920E-02 0.  1.
</event>
<event>
 5   0  0.2276105E-02  0.6020511E+03  0.7818609E-02  0.9901160E-01
        1   -1    0    0  501    0  0.00000000000E+00  0.00000000000E+00  0.63812114382E+03  0.63812114384E+03  0.50400001928E-02 0.  1.
       -1   -1    0    0    0  501  0.00000000000E+00  0.00000000000E+00 -0.14200497814E+03  0.14200497823E+03  0.50400001928E-02 0. -1.
    10030    2    1    2    0    0  0.00000000000E+00  0.00000000000E+00  0.49611616568E+03  0.78012612207E+03  0.60205109127E+03 0.  0.
        1    1    3    3  502    0 -0.27828452765E+03 -0.57733045659E+02  0.37660184442E+03  0.47180963549E+03  0.50400001928E-02 0.  1.
       -1    1    3    3    0  502  0.27828452765E+03  0.57733045659E+02  0.11951432126E+03  0.30831648659E+03  0.50400001928E-02 0. -1.
</event>
<event>
 5   0  0.2295179E-02  0.6009580E+03  0.7818609E-02  0.9903421E-01
        1   -1    0    0  501    0  0.00000000000E+00  0.00000000000E+00  0.16852078729E+04  0.16852078729E+04  0.50400001928E-02 0.  1.
       -1   -1    0    0    0  501  0.00000000000E+00  0.00000000000E+00 -0.53576547161E+02  0.53576547398E+02  0.50400001928E-02 0. -1.
    10030    2    1    2    0    0  0.00000000000E+00  0.00000000000E+00  0.16316313257E+04  0.17387844203E+04  0.60095796622E+03 0.  0.
        3    1    3    3  502    0  0.17039083184E+03 -0.20360891522E+03  0.12229259897E+04  0.12514142450E+04  0.10100000352E+00 0.  1.
       -3    1    3    3    0  502 -0.17039083184E+03  0.20360891522E+03  0.40870533599E+03  0.48737017533E+03  0.10100000352E+00 0. -1.
</event>
<event>
 5   0  0.2382531E-02  0.5976496E+03  0.7818609E-02  0.9910294E-01
       -1   -1    0    0    0  501  0.00000000000E+00  0.00000000000E+00  0.18174678055E+03  0.18174678062E+03  0.50400001928E-02 0.  1.
        1   -1    0    0  501    0  0.00000000000E+00  0.00000000000E+00 -0.49132242483E+03  0.49132242485E+03  0.50400001928E-02 0. -1.
    10030    2    1    2    0    0  0.00000000000E+00  0.00000000000E+00 -0.30957564428E+03  0.67306920547E+03  0.59764962631E+03 0.  0.
        5    1    3    3  502    0  0.75772529354E+02 -0.16409280994E+03 -0.42273258367E+03  0.45977478592E+03  0.46999998093E+01 0. -1.
       -5    1    3    3    0  502 -0.75772529354E+02  0.16409280994E+03  0.11315693939E+03  0.21329441955E+03  0.46999998093E+01 0.  1.
</event>
<event>
 5   0  0.2382531E-02  0.5979112E+03  0.7818609E-02  0.9909749E-01
        1   -1    0    0  501    0  0.00000000000E+00  0.00000000000E+00  0.99205200776E+03  0.99205200777E+03  0.50400001928E-02 0.  1.
       -1   -1    0    0    0  501  0.00000000000E+00  0.00000000000E+00 -0.90090480466E+02  0.90090480607E+02  0.50400001928E-02 0. -1.
    10030    2    1    2    0    0  0.00000000000E+00  0.00000000000E+00  0.90196152729E+03  0.10821424884E+04  0.59791117102E+03 0.  0.
        5    1    3    3  502    0 -0.54351230063E+02  0.20127619211E+03  0.63287028698E+02  0.21793003400E+03  0.46999998093E+01 0. -1.
       -5    1    3    3    0  502  0.54351230063E+02 -0.20127619211E+03  0.83867449859E+03  0.86421245438E+03  0.46999998093E+01 0.  1.
</event>
<event>
 5   0  0.3724066E-02  0.6238599E+03  0.7818609E-02  0.9857104E-01
       -2   -1    0    0    0  501  0.00000000000E+00  0.00000000000E+00  0.98874874763E+02  0.98874874796E+02  0.25500000920E-02 0. -1.
        2   -1    0    0  501    0  0.00000000000E+00  0.00000000000E+00 -0.98407516023E+03  0.98407516024E+03  0.25500000920E-02 0.  1.
    10030    2    1    2    0    0  0.00000000000E+00  0.00000000000E+00 -0.88520028547E+03  0.10829500350E+04  0.62385994661E+03 0.  0.
        4    1    3    3  502    0  0.91082167264E+02  0.26795512097E+03 -0.67027796343E+03  0.72757822205E+03  0.12699999809E+01 0.  1.
       -4    1    3    3    0  502 -0.91082167264E+02 -0.26795512097E+03 -0.21492232204E+03  0.35537181298E+03  0.12699999809E+01 0. -1.
</event>
<event>
 5   0  0.2309055E-02  0.5989080E+03  0.7818609E-02  0.9907674E-01
        1   -1    0    0  501    0  0.00000000000E+00  0.00000000000E+00  0.10515346064E+03  0.10515346076E+03  0.50400001928E-02 0. -1.
       -1   -1    0    0    0  501  0.00000000000E+00  0.00000000000E+00 -0.85277930865E+03  0.85277930867E+03  0.50400001928E-02 0.  1.
    10030    2    1    2    0    0  0.00000000000E+00  0.00000000000E+00 -0.74762584801E+03  0.95793276942E+03  0.59890799136E+03 0.  0.
        4    1    3    3  502    0 -0.23894044060E+03 -0.17212254202E+03 -0.28690467976E+03  0.41113819063E+03  0.12699999809E+01 0. -1.
       -4    1    3    3    0  502  0.23894044060E+03  0.17212254202E+03 -0.46072116825E+03  0.54679457880E+03  0.12699999809E+01 0.  1.
</event>
<event>
 5   0  0.3832191E-02  0.6046302E+03  0.7818609E-02  0.9895846E-01
        2   -1    0    0  501    0  0.00000000000E+00  0.00000000000E+00  0.62267414729E+03  0.62267414730E+03  0.25500000920E-02 0.  1.
       -2   -1    0    0    0  501  0.00000000000E+00  0.00000000000E+00 -0.14677727477E+03  0.14677727479E+03  0.25500000920E-02 0. -1.
    10030    2    1    2    0    0  0.00000000000E+00  0.00000000000E+00  0.47589687252E+03  0.76945142209E+03  0.60463018257E+03 0.  0.
        3    1    3    3  502    0 -0.39206996258E+02 -0.27388101945E+03  0.82887642082E+02  0.28882238969E+03  0.10100000352E+00 0.  1.
       -3    1    3    3    0  502  0.39206996258E+02  0.27388101945E+03  0.39300923044E+03  0.48062903240E+03  0.10100000352E+00 0. -1.
</event>
<event>
 5   0  0.1521750E-02  0.6002758E+03  0.7818609E-02  0.9904834E-01
       -3   -1    0    0    0  501  0.00000000000E+00  0.00000000000E+00  0.38733273017E+03  0.38733274333E+03  0.10100000352E+00 0. -1.
        3   -1    0    0  501    0  0.00000000000E+00  0.00000000000E+00 -0.23257203085E+03  0.23257205278E+03  0.10100000352E+00 0.  1.
    10030    2    1    2    0    0  0.00000000000E+00  0.00000000000E+00  0.15476069931E+03  0.61990479612E+03  0.60027583842E+03 0.  0.
        5    1    3    3  502    0 -0.13591232604E+03  0.26750960910E+03  0.72001458243E+02  0.30860954509E+03  0.46999998093E+01 0.  1.
       -5    1    3    3    0  502  0.13591232604E+03 -0.26750960910E+03  0.82759241071E+02  0.31129525103E+03  0.46999998093E+01 0. -1.
</event>
<event>
 5   0  0.3934634E-02  0.6050594E+03  0.7818609E-02  0.9894965E-01
        2   -1    0    0  501    0  0.00000000000E+00  0.00000000000E+00  0.92618796728E+03  0.92618796729E+03  0.25500000920E-02 0. -1.
       -2   -1    0    0    0  501  0.00000000000E+00  0.00000000000E+00 -0.98818182250E+02  0.98818182283E+02  0.25500000920E-02 0.  1.
    10030    2    1    2    0    0  0.00000000000E+00  0.00000000000E+00  0.82736978503E+03  0.10250061496E+04  0.60505937351E+03 0.  0.
        1    1    3    3  502    0 -0.11353208689E+03 -0.19738266844E+03  0.75111639454E+03  0.78487278633E+03  0.50400001928E-02 0. -1.
       -1    1    3    3    0  502  0.11353208689E+03  0.19738266844E+03  0.76253390497E+02  0.24013336324E+03  0.50400001928E-02 0.  1.
</event>
<event>
 5   0  0.2225808E-02  0.6004253E+03  0.7818609E-02  0.9904524E-01
        1   -1    0    0  501    0  0.00000000000E+00  0.00000000000E+00  0.16207031188E+04  0.16207031188E+04  0.50400001928E-02 0. -1.
       -1   -1    0    0    0  501  0.00000000000E+00  0.00000000000E+00 -0.55610208795E+02  0.55610209024E+02  0.50400001928E-02 0.  1.
    10030    2    1    2    0    0  0.00000000000E+00  0.00000000000E+00  0.15650929100E+04  0.16763133278E+04  0.60042531269E+03 0.  0.
        2    1    3    3  502    0 -0.19705565821E+03  0.18241562722E+03  0.11573369834E+04  0.11880805051E+04  0.25500000920E-02 0. -1.
       -2    1    3    3    0  502  0.19705565821E+03 -0.18241562722E+03  0.40775592660E+03  0.48823282271E+03  0.25500000920E-02 0.  1.
</event>
<event>
 5   0  0.3934634E-02  0.5973924E+03  0.7818609E-02  0.9910831E-01
       -2   -1    0    0    0  501  0.00000000000E+00  0.00000000000E+00  0.24573311192E+03  0.24573311194E+03  0.25500000920E-02 0.  1.
        2   -1    0    0  501    0  0.00000000000E+00  0.00000000000E+00 -0.36307442991E+03  0.36307442992E+03  0.25500000920E-02 0. -1.
    10030    2    1    2    0    0  0.00000000000E+00  0.00000000000E+00 -0.11734131799E+03  0.60880754186E+03  0.59739236530E+03 0.  0.
        1    1    3    3  502    0  0.27797946146E+03  0.68881715889E+02  0.27816387591E+02  0.28773429275E+03  0.50400001928E-02 0. -1.
       -1    1    3    3    0  502 -0.27797946146E+03 -0.68881715889E+02 -0.14515770558E+03  0.32107324911E+03  0.50400001928E-02 0.  1.
</event>
<event>
 5   0  0.3832191E-02  0.5958535E+03  0.7818609E-02  0.9914046E-01
        2   -1    0    0  501    0  0.00000000000E+00  0.00000000000E+00  0.19019928956E+04  0.19019928956E+04  0.25500000920E-02 0.  1.
       -2   -1    0    0    0  501  0.00000000000E+00  0.00000000000E+00 -0.46667016581E+02  0.46667016650E+02  0.25500000920E-02 0. -1.
    10030    2    1    2    0    0  0.00000000000E+00  0.00000000000E+00  0.18553258791E+04  0.19486599123E+04  0.59585345201E+03 0.  0.
        3    1    3    3  502    0 -0.27562953320E+03  0.48557889183E+02  0.12616700613E+04  0.12923392983E+04  0.10100000352E+00 0. -1.
       -3    1    3    3    0  502  0.27562953320E+03 -0.48557889183E+02  0.59365581775E+03  0.65632061397E+03  0.10100000352E+00 0.  1.
</event>
<event>
 5   0  0.2225808E-02  0.5972852E+03  0.7818609E-02  0.9911054E-01
       -1   -1    0    0    0  501  0.00000000000E+00  0.00000000000E+00  0.14555448692E+03  0.14555448701E+03  0.50400001928E-02 0.  1.
        1   -1    0    0  501    0  0.00000000000E+00  0.00000000000E+00 -0.61274245451E+03  0.61274245453E+03  0.50400001928E-02 0. -1.
    10030    2    1    2    0    0  0.00000000000E+00  0.00000000000E+00 -0.46718796759E+03  0.75829694154E+03  0.59728523713E+03 0.  0.
        2    1    3    3  502    0  0.17971326959E+03  0.41176494996E+02 -0.53186262221E+03  0.56291225952E+03  0.25500000920E-02 0. -1.
       -2    1    3    3    0  502 -0.17971326959E+03 -0.41176494996E+02  0.64674654628E+02  0.19538468201E+03  0.25500000920E-02 0.  1.
</event>
<event>
 5   0  0.3832191E-02  0.5962509E+03  0.7818609E-02  0.9913215E-01
        2   -1    0    0  501    0  0.00000000000E+00  0.00000000000E+00  0.58603056386E+03  0.58603056386E+03  0.25500000920E-02 0.  1.
       -2   -1    0    0    0  501  0.00000000000E+00  0.00000000000E+00 -0.15166234519E+03  0.15166234521E+03  0.25500000920E-02 0. -1.
    10030    2    1    2    0    0  0.00000000000E+00  0.00000000000E+00  0.43436821867E+03  0.73769290907E+03  0.59625085216E+03 0.  0.
        3    1    3    3  502    0 -0.16070963081E+03  0.31467127170E+02 -0.91032443987E+02  0.18736243376E+03  0.10100000352E+00 0. -1.
       -3    1    3    3    0  502  0.16070963081E+03 -0.31467127170E+02  0.52540066266E+03  0.55033047530E+03  0.10100000352E+00 0.  1.
</event>
<event>
 5   0  0.2309055E-02  0.5945959E+03  0.7818609E-02  0.9916682E-01
       -1   -1    0    0    0  501  0.00000000000E+00  0.00000000000E+00  0.19466242550E+03  0.19466242557E+03  0.50400001928E-02 0. -1.
        1   -1    0    0  501    0  0.00000000000E+00  0.00000000000E+00 -0.45404785415E+03  0.45404785418E+03  0.50400001928E-02 0.  1.
    10030    2    1    2    0    0  0.00000000000E+00  0.00000000000E+00 -0.25938542865E+03  0.64871027975E+03  0.59459585136E+03 0.  0.
        4    1    3    3  502    0 -0.12148098166E+03  0.11973380332E+03 -0.39535012910E+03  0.43057769339E+03  0.12699999809E+01 0.  1.
       -4    1    3    3    0  502  0.12148098166E+03 -0.11973380332E+03  0.13596470045E+03  0.21813258636E+03  0.12699999809E+01 0. -1.
</event>
<event>
 5   0  0.1521750E-02  0.6005687E+03  0.7818609E-02  0.9904227E-01
       -4   -1    0    0    0  501  0.00000000000E+00  0.00000000000E+00  0.17301397705E+03  0.17301863817E+03  0.12699999809E+01 0.  1.
        4   -1    0    0  501    0  0.00000000000E+00  0.00000000000E+00 -0.52116339070E+03  0.52116493810E+03  0.12699999809E+01 0. -1.
    10030    2    1    2    0    0  0.00000000000E+00  0.00000000000E+00 -0.34814941365E+03  0.69418357627E+03  0.60056874989E+03 0.  0.
        3    1    3    3  502    0  0.25658900940E+02  0.27430722421E+03 -0.36007330441E+02  0.27784774697E+03  0.10100000352E+00 0.  1.
       -3    1    3    3    0  502 -0.25658900940E+02 -0.27430722421E+03 -0.31214208321E+03  0.41633582930E+03  0.10100000352E+00 0. -1.
</event>
<event>
 5   0  0.2309055E-02  0.5961963E+03  0.7818609E-02  0.9913329E-01
       -1   -1    0    0    0  501  0.00000000000E+00  0.00000000000E+00  0.17692712533E+03  0.17692712540E+03  0.50400001928E-02 0.  1.
        1   -1    0    0  501    0  0.00000000000E+00  0.00000000000E+00 -0.50225485142E+03  0.50225485144E+03  0.50400001928E-02 0. -1.
    10030    2    1    2    0    0  0.00000000000E+00  0.00000000000E+00 -0.32532772609E+03  0.67918197684E+03  0.59619630014E+03 0.  0.
        4    1    3    3  502    0  0.24602127309E+03  0.12275648867E+03 -0.29387024305E+03  0.40243875929E+03  0.12699999809E+01 0.  1.
       -4    1    3    3    0  502 -0.24602127309E+03 -0.12275648867E+03 -0.31457483038E+02  0.27674321756E+03  0.12699999809E+01 0. -1.
</event>
<event>
 5   0  0.3934634E-02  0.5995639E+03  0.7818609E-02  0.9906311E-01
       -2   -1    0    0    0  501  0.00000000000E+00  0.00000000000E+00  0.36449425031E+03  0.36449425032E+03  0.25500000920E-02 0. -1.
        2   -1    0    0  501    0  0.00000000000E+00  0.00000000000E+00 -0.24655866206E+03  0.24655866208E+03  0.25500000920E-02 0.  1.
    10030    2    1    2    0    0  0.00000000000E+00  0.00000000000E+00  0.11793558824E+03  0.61105291239E+03  0.59956389048E+03 0.  0.
        1    1    3    3  502    0 -0.28995735942E+03  0.67409684070E+02  0.94998876933E+02  0.31248059529E+03  0.50400001928E-02 0. -1.
       -1    1    3    3    0  502  0.28995735942E+03 -0.67409684070E+02  0.22936711309E+02  0.29857231710E+03  0.50400001928E-02 0.  1.
</event>
<event>
 5   0  0.2276105E-02  0.5995860E+03  0.7818609E-02  0.9906265E-01
       -1   -1    0    0    0  501  0.00000000000E+00  0.00000000000E+00  0.14608826191E+03  0.14608826200E+03  0.50400001928E-02 0.  1.
        1   -1    0    0  501    0  0.00000000000E+00  0.00000000000E+00 -0.61521612839E+03  0.61521612842E+03  0.50400001928E-02 0. -1.
    10030    2    1    2    0    0  0.00000000000E+00  0.00000000000E+00 -0.46912786648E+03  0.76130439041E+03  0.59958604033E+03 0.  0.
        1    1    3    3  502    0 -0.21195797367E+03 -0.46880652708E+02  0.27969376312E+02  0.21887499683E+03  0.50400001928E-02 0.  1.
       -1    1    3    3    0  502  0.21195797367E+03  0.46880652708E+02 -0.49709724279E+03  0.54242939358E+03  0.50400001928E-02 0. -1.
</event>
<event>
 5   0  0.2225808E-02  0.5909225E+03  0.7818609E-02  0.9924420E-01
        1   -1    0    0  501    0  0.00000000000E+00  0.00000000000E+00  0.89252533374E+03  0.89252533375E+03  0.50400001928E-02 0.  1.
       -1   -1    0    0    0  501  0.00000000000E+00  0.00000000000E+00 -0.97809385657E+02  0.97809385787E+02  0.50400001928E-02 0. -1.
    10030    2    1    2    0    0  0.00000000000E+00  0.00000000000E+00  0.79471594808E+03  0.99033471954E+03  0.59092251488E+03 0.  0.
        2    1    3    3  502    0  0.94891452943E+02  0.13692446260E+03 -0.11594529648E+02  0.16699439938E+03  0.25500000920E-02 0. -1.
       -2    1    3    3    0  502 -0.94891452943E+02 -0.13692446260E+03  0.80631047773E+03  0.82334032016E+03  0.25500000920E-02 0.  1.
</event>
<event>
 5   0  0.3798925E-02  0.5988838E+03  0.7818609E-02  0.9907725E-01
       -2   -1    0    0    0  501  0.00000000000E+00  0.00000000000E+00  0.64316527509E+03  0.64316527509E+03  0.25500000920E-02 0. -1.
        2   -1    0    0  501    0  0.00000000000E+00  0.00000000000E+00 -0.13941275274E+03  0.13941275277E+03  0.25500000920E-02 0.  1.
    10030    2    1    2    0    0  0.00000000000E+00  0.00000000000E+00  0.50375252234E+03  0.78257802786E+03  0.59888376662E+03 0.  0.
        2    1    3    3  502    0  0.14606082963E+03  0.14192293621E+03  0.53873069702E+03  0.57593979693E+03  0.25500000920E-02 0. -1.
       -2    1    3    3    0  502 -0.14606082963E+03 -0.14192293621E+03 -0.34978174672E+02  0.20663823093E+03  0.25500000920E-02 0.  1.
</event>
<event>
 5   0  0.3798925E-02  0.5991560E+03  0.7818609E-02  0.9907159E-01
        2   -1    0    0  501    0  0.00000000000E+00  0.00000000000E+00  0.89818179733E+03  0.89818179734E+03  0.25500000920E-02 0.  1.
       -2   -1    0    0    0  501  0.00000000000E+00  0.00000000000E+00 -0.99920729447E+02  0.99920729480E+02  0.25500000920E-02 0. -1.
    10030    2    1    2    0    0  0.00000000000E+00  0.00000000000E+00  0.79826106789E+03  0.99810252682E+03  0.59915600768E+03 0.  0.
        2    1    3    3  502    0 -0.54559749316E+02 -0.61348703516E+02  0.87907547739E+03  0.88290097102E+03  0.25500000920E-02 0.  1.
       -2    1    3    3    0  502  0.54559749316E+02  0.61348703516E+02 -0.80814409504E+02  0.11520155580E+03  0.25500000920E-02 0. -1.
</event>
<event>
 5   0  0.1521750E-02  0.5984853E+03  0.7818609E-02  0.9908554E-01
       -4   -1    0    0    0  501  0.00000000000E+00  0.00000000000E+00  0.54212154210E+03  0.54212302968E+03  0.12699999809E+01 0.  1.
        4   -1    0    0  501    0  0.00000000000E+00  0.00000000000E+00 -0.16517312416E+03  0.16517800654E+03  0.12699999809E+01 0. -1.
    10030    2    1    2    0    0  0.00000000000E+00  0.00000000000E+00  0.37694841794E+03  0.70730103622E+03  0.59848529309E+03 0.  0.
        2    1    3    3  502    0  0.63200877844E+02 -0.20593421433E+03 -0.56999807541E+02  0.22282780270E+03  0.25500000920E-02 0. -1.
       -2    1    3    3    0  502 -0.63200877844E+02  0.20593421433E+03  0.43394822548E+03  0.48447323351E+03  0.25500000920E-02 0.  1.
</event>
<event>
 5   0  0.3934634E-02  0.6418954E+03  0.7818609E-02  0.9822107E-01
        2   -1    0    0  501    0  0.00000000000E+00  0.00000000000E+00  0.10687279231E+04  0.10687279231E+04  0.25500000920E-02 0.  1.
       -2   -1    0    0    0  501  0.00000000000E+00  0.00000000000E+00 -0.96383213654E+02  0.96383213688E+02  0.25500000920E-02 0. -1.
    10030    2    1    2    0    0  0.00000000000E+00  0.00000000000E+00  0.97234470947E+03  0.11651111368E+04  0.64189541757E+03 0.  0.
        1    1    3    3  502    0  0.27432463250E+03 -0.13071486284E+03  0.29870515503E+03  0.42610462217E+03  0.50400001928E-02 0. -1.
       -1    1    3    3    0  502 -0.27432463250E+03  0.13071486284E+03  0.67363955444E+03  0.73900651465E+03  0.50400001928E-02 0.  1.
</event>
<event>
 5   0  0.2276105E-02  0.6175279E+03  0.7818609E-02  0.9869694E-01
       -1   -1    0    0    0  501  0.00000000000E+00  0.00000000000E+00  0.22397228162E+03  0.22397228167E+03  0.50400001928E-02 0.  1.
        1   -1    0    0  501    0  0.00000000000E+00  0.00000000000E+00 -0.42565619907E+03  0.42565619910E+03  0.50400001928E-02 0. -1.
    10030    2    1    2    0    0  0.00000000000E+00  0.00000000000E+00 -0.20168391745E+03  0.64962848078E+03  0.61752794307E+03 0.  0.
        1    1    3    3  502    0 -0.17431992016E+02  0.98207157658E+02 -0.40824168816E+03  0.42024968309E+03  0.50400001928E-02 0. -1.
       -1    1    3    3    0  502  0.17431992016E+02 -0.98207157658E+02  0.20655777071E+03  0.22937879768E+03  0.50400001928E-02 0.  1.
</event>
<event>
 5   0  0.3724066E-02  0.6166030E+03  0.7818609E-02  0.9871547E-01
       -2   -1    0    0    0  501  0.00000000000E+00  0.00000000000E+00  0.18906283288E+03  0.18906283290E+03  0.25500000920E-02 0. -1.
        2   -1    0    0  501    0  0.00000000000E+00  0.00000000000E+00 -0.50274187268E+03  0.50274187268E+03  0.25500000920E-02 0.  1.
    10030    2    1    2    0    0  0.00000000000E+00  0.00000000000E+00 -0.31367903980E+03  0.69180470558E+03  0.61660296030E+03 0.  0.
        4    1    3    3  502    0 -0.30659541484E+03 -0.27174924278E+01 -0.12065636819E+03  0.32949613844E+03  0.12699999809E+01 0. -1.
       -4    1    3    3    0  502  0.30659541484E+03  0.27174924278E+01 -0.19302267161E+03  0.36230856714E+03  0.12699999809E+01 0.  1.
</event>
<event>
 5   0  0.3737642E-02  0.6018108E+03  0.7818609E-02  0.9901656E-01
        2   -1    0    0  501    0  0.00000000000E+00  0.00000000000E+00  0.45755843500E+03  0.45755843501E+03  0.25500000920E-02 0.  1.
       -2   -1    0    0    0  501  0.00000000000E+00  0.00000000000E+00 -0.19788521712E+03  0.19788521714E+03  0.25500000920E-02 0. -1.
    10030    2    1    2    0    0  0.00000000000E+00  0.00000000000E+00  0.25967321788E+03  0.65544365215E+03  0.60181076848E+03 0.  0.
        5    1    3    3  502    0  0.12272885334E+03 -0.25488300288E+03  0.24140751993E+03  0.37192391329E+03  0.46999998093E+01 0.  1.
       -5    1    3    3    0  502 -0.12272885334E+03  0.25488300288E+03  0.18265697951E+02  0.28351973886E+03  0.46999998093E+01 0. -1.
</event>
<event>
 5   0  0.3832191E-02  0.6046487E+03  0.7818609E-02  0.9895808E-01
        2   -1    0    0  501    0  0.00000000000E+00  0.00000000000E+00  0.30959398523E+03  0.30959398524E+03  0.25500000920E-02 0. -1.
       -2   -1    0    0    0  501  0.00000000000E+00  0.00000000000E+00 -0.29522538732E+03  0.29522538733E+03  0.25500000920E-02 0.  1.
    10030    2    1    2    0    0  0.00000000000E+00  0.00000000000E+00  0.14368597908E+02  0.60481937257E+03  0.60464867223E+03 0.  0.
        3    1    3    3  502    0  0.27740633430E+03 -0.10108051980E+03 -0.57860578203E+02  0.30086442545E+03  0.10100000352E+00 0.  1.
       -3    1    3    3    0  502 -0.27740633430E+03  0.10108051980E+03  0.72229176111E+02  0.30395494711E+03  0.10100000352E+00 0. -1.
</event>
<event>
 5   0  0.2276105E-02  0.6047917E+03  0.7818609E-02  0.9895514E-01
       -1   -1    0    0    0  501  0.00000000000E+00  0.00000000000E+00  0.12005977752E+03  0.12005977763E+03  0.50400001928E-02 0.  1.
        1   -1    0    0  501    0  0.00000000000E+00  0.00000000000E+00 -0.76164763684E+03  0.76164763686E+03  0.50400001928E-02 0. -1.
    10030    2    1    2    0    0  0.00000000000E+00  0.00000000000E+00 -0.64158785932E+03  0.88170741449E+03  0.60479168606E+03 0.  0.
        1    1    3    3  502    0  0.16262103102E+03  0.21077338251E+03 -0.11169137531E+03  0.28869704164E+03  0.50400001928E-02 0.  1.
       -1    1    3    3    0  502 -0.16262103102E+03 -0.21077338251E+03 -0.52989648402E+03  0.59301037285E+03  0.50400001928E-02 0. -1.
</event>
<event>
 5   0  0.1521750E-02  0.5985094E+03  0.7818609E-02  0.9908503E-01
       -4   -1    0    0    0  501  0.00000000000E+00  0.00000000000E+00  0.74602631326E+03  0.74602739426E+03  0.12699999809E+01 0.  1.
        4   -1    0    0  501    0  0.00000000000E+00  0.00000000000E+00 -0.12003597260E+03  0.12004269081E+03  0.12699999809E+01 0. -1.
    10030    2    1    2    0    0  0.00000000000E+00  0.00000000000E+00  0.62599034066E+03  0.86607008507E+03  0.59850938644E+03 0.  0.
        1    1    3    3  502    0 -0.18265076752E+03 -0.10735658310E+03  0.61882065885E+03  0.65408389879E+03  0.50400001928E-02 0.  1.
       -1    1    3    3    0  502  0.18265076752E+03  0.10735658310E+03  0.71696818170E+01  0.21198618628E+03  0.50400001928E-02 0. -1.
</event>
<event>
 5   0  0.2225808E-02  0.6275999E+03  0.7818609E-02  0.9849744E-01
        1   -1    0    0  501    0  0.00000000000E+00  0.00000000000E+00  0.37875586374E+03  0.37875586377E+03  0.50400001928E-02 0.  1.
       -1   -1    0    0    0  501  0.00000000000E+00  0.00000000000E+00 -0.25998389157E+03  0.25998389162E+03  0.50400001928E-02 0. -1.
    10030    2    1    2    0    0  0.00000000000E+00  0.00000000000E+00  0.11877197217E+03  0.63873975540E+03  0.62759994722E+03 0.  0.
        2    1    3    3  502    0  0.14612576788E+03 -0.17165318771E+03 -0.16278409041E+03  0.27805793818E+03  0.25500000920E-02 0. -1.
       -2    1    3    3    0  502 -0.14612576788E+03  0.17165318771E+03  0.28155606258E+03  0.36068181721E+03  0.25500000920E-02 0.  1.
</event>
<event>
 5   0  0.3798925E-02  0.6024470E+03  0.7818609E-02  0.9900342E-01
        2   -1    0    0  501    0  0.00000000000E+00  0.00000000000E+00  0.21914446920E+03  0.21914446922E+03  0.25500000920E-02 0. -1.
       -2   -1    0    0    0  501  0.00000000000E+00  0.00000000000E+00 -0.41404459783E+03  0.41404459784E+03  0.25500000920E-02 0.  1.
    10030    2    1    2    0    0  0.00000000000E+00  0.00000000000E+00 -0.19490012862E+03  0.63318906706E+03  0.60244695576E+03 0.  0.
        2    1    3    3  502    0 -0.26463418578E+03 -0.11946712583E+03 -0.13158232812E+02  0.29064890424E+03  0.25500000920E-02 0. -1.
       -2    1    3    3    0  502  0.26463418578E+03  0.11946712583E+03 -0.18174189581E+03  0.34254016281E+03  0.25500000920E-02 0.  1.
</event>
<event>
 5   0  0.3724066E-02  0.6032587E+03  0.7818609E-02  0.9898668E-01
        2   -1    0    0  501    0  0.00000000000E+00  0.00000000000E+00  0.70456851094E+02  0.70456851140E+02  0.25500000920E-02 0. -1.
       -2   -1    0    0    0  501  0.00000000000E+00  0.00000000000E+00 -0.12912903514E+04  0.12912903514E+04  0.25500000920E-02 0.  1.
    10030    2    1    2    0    0  0.00000000000E+00  0.00000000000E+00 -0.12208335003E+04  0.13617472025E+04  0.60325865776E+03 0.  0.
        4    1    3    3  502    0  0.15169737984E+03  0.27398881514E+02 -0.11956496879E+04  0.12055465909E+04  0.12699999809E+01 0.  1.
       -4    1    3    3    0  502 -0.15169737984E+03 -0.27398881514E+02 -0.25183812368E+02  0.15620061160E+03  0.12699999809E+01 0. -1.
</event>
<event>
 5   0  0.3737642E-02  0.6013692E+03  0.7818609E-02  0.9902570E-01
        2   -1    0    0  501    0  0.00000000000E+00  0.00000000000E+00  0.18226552948E+03  0.18226552950E+03  0.25500000920E-02 0. -1.
       -2   -1    0    0    0  501  0.00000000000E+00  0.00000000000E+00 -0.49604124090E+03  0.49604124091E+03  0.25500000920E-02 0.  1.
    10030    2    1    2    0    0  0.00000000000E+00  0.00000000000E+00 -0.31377571142E+03  0.67830677040E+03  0.60136916922E+03 0.  0.
        5    1    3    3  502    0 -0.14493667168E+03 -0.22509136258E+03 -0.31119846771E+03  0.41053542674E+03  0.46999998093E+01 0.  1.
       -5    1    3    3    0  502  0.14493667168E+03  0.22509136258E+03 -0.25772437165E+01  0.26777134367E+03  0.46999998093E+01 0. -1.
</event>
<event>
 5   0  0.2309055E-02  0.5998186E+03  0.7818609E-02  0.9905783E-01
        1   -1    0    0  501    0  0.00000000000E+00  0.00000000000E+00  0.14942464230E+03  0.14942464238E+03  0.50400001928E-02 0.  1.
       -1   -1    0    0    0  501  0.00000000000E+00  0.00000000000E+00 -0.60194605819E+03  0.60194605821E+03  0.50400001928E-02 0. -1.
    10030    2    1    2    0    0  0.00000000000E+00  0.00000000000E+00 -0.45252141589E+03  0.75137070059E+03  0.59981855412E+03 0.  0.
        4    1    3    3  502    0 -0.29684366834E+03 -0.42699350807E+02 -0.22358470325E+03  0.37407369651E+03  0.12699999809E+01 0. -1.
       -4    1    3    3    0  502  0.29684366834E+03  0.42699350807E+02 -0.22893671264E+03  0.37729700408E+03  0.12699999809E+01 0.  1.
</event>
<event>
 5   0  0.2309055E-02  0.6045157E+03  0.7818609E-02  0.9896082E-01
        1   -1    0    0  501    0  0.00000000000E+00  0.00000000000E+00  0.76936913204E+03  0.76936913206E+03  0.50400001928E-02 0.  1.
       -1   -1    0    0    0  501  0.00000000000E+00  0.00000000000E+00 -0.11874638079E+03  0.11874638090E+03  0.50400001928E-02 0. -1.
    10030    2    1    2    0    0  0.00000000000E+00  0.00000000000E+00  0.65062275125E+03  0.88811551295E+03  0.60451567383E+03 0.  0.
        4    1    3    3  502    0 -0.10011939593E+03  0.24902320395E+03  0.52952512520E+03  0.59366229514E+03  0.12699999809E+01 0.  1.
       -4    1    3    3    0  502  0.10011939593E+03 -0.24902320395E+03  0.12109762605E+03  0.29445321782E+03  0.12699999809E+01 0. -1.
</event>
<event>
 5   0  0.3798925E-02  0.6006139E+03  0.7818609E-02  0.9904133E-01
       -2   -1    0    0    0  501  0.00000000000E+00  0.00000000000E+00  0.68075391466E+02  0.68075391514E+02  0.25500000920E-02 0.  1.
        2   -1    0    0  501    0  0.00000000000E+00  0.00000000000E+00 -0.13247704879E+04  0.13247704880E+04  0.25500000920E-02 0. -1.
    10030    2    1    2    0    0  0.00000000000E+00  0.00000000000E+00 -0.12566950965E+04  0.13928458795E+04  0.60061391794E+03 0.  0.
        2    1    3    3  502    0  0.30910379675E+02 -0.20706046327E+02 -0.13194053029E+04  0.13199297501E+04  0.25500000920E-02 0. -1.
       -2    1    3    3    0  502 -0.30910379675E+02  0.20706046327E+02  0.62710206406E+02  0.72916129355E+02  0.25500000920E-02 0.  1.
</event>
<event>
 5   0  0.3934634E-02  0.5978029E+03  0.7818609E-02  0.9909975E-01
        2   -1    0    0  501    0  0.00000000000E+00  0.00000000000E+00  0.24639853837E+03  0.24639853838E+03  0.25500000920E-02 0.  1.
       -2   -1    0    0    0  501  0.00000000000E+00  0.00000000000E+00 -0.36259174596E+03  0.36259174597E+03  0.25500000920E-02 0. -1.
    10030    2    1    2    0    0  0.00000000000E+00  0.00000000000E+00 -0.11619320760E+03  0.60899028436E+03  0.59780289808E+03 0.  0.
        1    1    3    3  502    0 -0.11804413535E+03  0.19586166648E+03 -0.25417160361E+03  0.34190556356E+03  0.50400001928E-02 0. -1.
       -1    1    3    3    0  502  0.11804413535E+03 -0.19586166648E+03  0.13797839602E+03  0.26708472079E+03  0.50400001928E-02 0.  1.
</event>
<event>
 5   0  0.3934634E-02  0.6212879E+03  0.7818609E-02  0.9862199E-01
       -2   -1    0    0    0  501  0.00000000000E+00  0.00000000000E+00  0.43739150879E+02  0.43739150953E+02  0.25500000920E-02 0. -1.
        2   -1    0    0  501    0  0.00000000000E+00  0.00000000000E+00 -0.22062534730E+04  0.22062534730E+04  0.25500000920E-02 0.  1.
    10030    2    1    2    0    0  0.00000000000E+00  0.00000000000E+00 -0.21625143221E+04  0.22499926239E+04  0.62128786763E+03 0.  0.
        1    1    3    3  502    0 -0.13335406208E+03  0.14350673939E+02 -0.66524047686E+02  0.14971538552E+03  0.50400001928E-02 0. -1.
       -1    1    3    3    0  502  0.13335406208E+03 -0.14350673939E+02 -0.20959902744E+04  0.21002772384E+04  0.50400001928E-02 0.  1.
</event>
<event>
 5   0  0.1521750E-02  0.5933139E+03  0.7818609E-02  0.9919375E-01
       -4   -1    0    0    0  501  0.00000000000E+00  0.00000000000E+00  0.23306165284E+03  0.23306511306E+03  0.12699999809E+01 0.  1.
        4   -1    0    0  501    0  0.00000000000E+00  0.00000000000E+00 -0.37759810746E+03  0.37760024319E+03  0.12699999809E+01 0. -1.
    10030    2    1    2    0    0  0.00000000000E+00  0.00000000000E+00 -0.14453645461E+03  0.61066535625E+03  0.59331390563E+03 0.  0.
        5    1    3    3  502    0  0.55592628774E+02 -0.15172370882E+03  0.18374833169E+03  0.24473692731E+03  0.46999998093E+01 0.  1.
       -5    1    3    3    0  502 -0.55592628774E+02  0.15172370882E+03 -0.32828478630E+03  0.36592842894E+03  0.46999998093E+01 0. -1.
</event>
<event>
 5   0  0.3737642E-02  0.5988871E+03  0.7818609E-02  0.9907718E-01
       -2   -1    0    0    0  501  0.00000000000E+00  0.00000000000E+00  0.54730112840E+02  0.54730112900E+02  0.25500000920E-02 0.  1.
        2   -1    0    0  501    0  0.00000000000E+00  0.00000000000E+00 -0.16383383671E+04  0.16383383671E+04  0.25500000920E-02 0. -1.
    10030    2    1    2    0    0  0.00000000000E+00  0.00000000000E+00 -0.15836082543E+04  0.16930684800E+04  0.59888711376E+03 0.  0.
        5    1    3    3  502    0 -0.13660319502E+03  0.41535038192E+02 -0.47814438443E+02  0.15064495613E+03  0.46999998093E+01 0.  1.
       -5    1    3    3    0  502  0.13660319502E+03 -0.41535038192E+02 -0.15357938159E+04  0.15424235239E+04  0.46999998093E+01 0. -1.
</event>
<event>
 5   0  0.2309055E-02  0.6009858E+03  0.7818609E-02  0.9903363E-01
       -1   -1    0    0    0  501  0.00000000000E+00  0.00000000000E+00  0.13941688486E+03  0.13941688495E+03  0.50400001928E-02 0. -1.
        1   -1    0    0  501    0  0.00000000000E+00  0.00000000000E+00 -0.64766890855E+03  0.64766890856E+03  0.50400001928E-02 0.  1.
    10030    2    1    2    0    0  0.00000000000E+00  0.00000000000E+00 -0.50825202369E+03  0.78708579351E+03  0.60098579581E+03 0.  0.
        4    1    3    3  502    0  0.10525896982E+03  0.27443788799E+03 -0.17235086684E+03  0.34073749323E+03  0.12699999809E+01 0. -1.
       -4    1    3    3    0  502 -0.10525896982E+03 -0.27443788799E+03 -0.33590115685E+03  0.44634830028E+03  0.12699999809E+01 0.  1.
</event>
<event>
 5   0  0.2276105E-02  0.6014322E+03  0.7818609E-02  0.9902439E-01
        1   -1    0    0  501    0  0.00000000000E+00  0.00000000000E+00  0.16747017917E+04  0.16747017917E+04  0.50400001928E-02 0.  1.
       -1   -1    0    0    0  501  0.00000000000E+00  0.00000000000E+00 -0.53997770039E+02  0.53997770274E+02  0.50400001928E-02 0. -1.
    10030    2    1    2    0    0  0.00000000000E+00  0.00000000000E+00  0.16207040216E+04  0.17286995620E+04  0.60143216555E+03 0.  0.
        1    1    3    3  502    0  0.18058028863E+03  0.22576179851E+03  0.57241696738E+03  0.64127904603E+03  0.50400001928E-02 0. -1.
       -1    1    3    3    0  502 -0.18058028863E+03 -0.22576179851E+03  0.10482870543E+04  0.10874205159E+04  0.50400001928E-02 0.  1.
</event>
<event>
 5   0  0.2276105E-02  0.5953941E+03  0.7818609E-02  0.9915008E-01
        1   -1    0    0  501    0  0.00000000000E+00  0.00000000000E+00  0.37604806680E+03  0.37604806684E+03  0.50400001928E-02 0. -1.
       -1   -1    0    0    0  501  0.00000000000E+00  0.00000000000E+00 -0.23567079274E+03  0.23567079279E+03  0.50400001928E-02 0.  1.
    10030    2    1    2    0    0  0.00000000000E+00  0.00000000000E+00  0.14037727407E+03  0.61171885963E+03  0.59539414185E+03 0.  0.
        1    1    3    3  502    0  0.24706480181E+03  0.10341028519E+03  0.20370892415E+03  0.33649967189E+03  0.50400001928E-02 0. -1.
       -1    1    3    3    0  502 -0.24706480181E+03 -0.10341028519E+03 -0.63331650084E+02  0.27521918774E+03  0.50400001928E-02 0.  1.
</event>
<event>
 5   0  0.1521750E-02  0.5916166E+03  0.7818609E-02  0.9922953E-01
        4   -1    0    0  501    0  0.00000000000E+00  0.00000000000E+00  0.17091394904E+03  0.17091866743E+03  0.12699999809E+01 0. -1.
       -4   -1    0    0    0  501  0.00000000000E+00  0.00000000000E+00 -0.51195581120E+03  0.51195738643E+03  0.12699999809E+01 0.  1.
    10030    2    1    2    0    0  0.00000000000E+00  0.00000000000E+00 -0.34104186216E+03  0.68287605386E+03  0.59161655926E+03 0.  0.
        5    1    3    3  502    0  0.14587254492E+03  0.58706496231E+02 -0.45967306946E+03  0.48584634695E+03  0.46999998093E+01 0.  1.
       -5    1    3    3    0  502 -0.14587254492E+03 -0.58706496231E+02  0.11863120730E+03  0.19702970691E+03  0.46999998093E+01 0. -1.
</event>
<event>
 5   0  0.1521750E-02  0.5932216E+03  0.7818609E-02  0.9919570E-01
        3   -1    0    0  501    0  0.00000000000E+00  0.00000000000E+00  0.34520364450E+03  0.34520365928E+03  0.10100000352E+00 0. -1.
       -3   -1    0    0    0  501  0.00000000000E+00  0.00000000000E+00 -0.25485814183E+03  0.25485816185E+03  0.10100000352E+00 0.  1.
    10030    2    1    2    0    0  0.00000000000E+00  0.00000000000E+00  0.90345502669E+02  0.60006182112E+03  0.59322161063E+03 0.  0.
        4    1    3    3  502    0 -0.19109237724E+03 -0.19975051962E+03  0.15392894719E+03  0.31640527873E+03  0.12699999809E+01 0. -1.
       -4    1    3    3    0  502  0.19109237724E+03  0.19975051962E+03 -0.63583444522E+02  0.28365654239E+03  0.12699999809E+01 0.  1.
</event>
<event>
 5   0  0.2276105E-02  0.6022859E+03  0.7818609E-02  0.9900675E-01
        1   -1    0    0  501    0  0.00000000000E+00  0.00000000000E+00  0.29924956794E+03  0.29924956798E+03  0.50400001928E-02 0.  1.
       -1   -1    0    0    0  501  0.00000000000E+00  0.00000000000E+00 -0.30304835524E+03  0.30304835528E+03  0.50400001928E-02 0. -1.
    10030    2    1    2    0    0  0.00000000000E+00  0.00000000000E+00 -0.37987873044E+01  0.60229792326E+03  0.60228594337E+03 0.  0.
        1    1    3    3  502    0  0.13774937721E+02  0.58412949121E+02  0.29320860733E+03  0.29928766926E+03  0.50400001928E-02 0.  1.
       -1    1    3    3    0  502 -0.13774937721E+02 -0.58412949121E+02 -0.29700739464E+03  0.30301025400E+03  0.50400001928E-02 0. -1.
</event>
<event>
 5   0  0.3832191E-02  0.5971375E+03  0.7818609E-02  0.9911363E-01
        2   -1    0    0  501    0  0.00000000000E+00  0.00000000000E+00  0.46337719645E+03  0.46337719646E+03  0.25500000920E-02 0.  1.
       -2   -1    0    0    0  501  0.00000000000E+00  0.00000000000E+00 -0.19237742123E+03  0.19237742124E+03  0.25500000920E-02 0. -1.
    10030    2    1    2    0    0  0.00000000000E+00  0.00000000000E+00  0.27099977522E+03  0.65575461770E+03  0.59713753898E+03 0.  0.
        3    1    3    3  502    0  0.19476415591E+03  0.82450559225E+02 -0.95929112384E+02  0.23223603499E+03  0.10100000352E+00 0. -1.
       -3    1    3    3    0  502 -0.19476415591E+03 -0.82450559225E+02  0.36692888761E+03  0.42351858271E+03  0.10100000352E+00 0.  1.
</event>
<event>
 5   0  0.2276105E-02  0.5961554E+03  0.7818609E-02  0.9913415E-01
        1   -1    0    0  501    0  0.00000000000E+00  0.00000000000E+00  0.30395949144E+03  0.30395949149E+03  0.50400001928E-02 0.  1.
       -1   -1    0    0    0  501  0.00000000000E+00  0.00000000000E+00 -0.29230977280E+03  0.29230977285E+03  0.50400001928E-02 0. -1.
    10030    2    1    2    0    0  0.00000000000E+00  0.00000000000E+00  0.11649718641E+02  0.59626926433E+03  0.59615544923E+03 0.  0.
        1    1    3    3  502    0  0.25508090354E+03 -0.99715907337E+01  0.15975235616E+03  0.30114201849E+03  0.50400001928E-02 0.  1.
       -1    1    3    3    0  502 -0.25508090354E+03  0.99715907337E+01 -0.14810263752E+03  0.29512724584E+03  0.50400001928E-02 0. -1.
</event>
<event>
 5   0  0.3724066E-02  0.5989384E+03  0.7818609E-02  0.9907611E-01
        2   -1    0    0  501    0  0.00000000000E+00  0.00000000000E+00  0.89671517781E+03  0.89671517782E+03  0.25500000920E-02 0.  1.
       -2   -1    0    0    0  501  0.00000000000E+00  0.00000000000E+00 -0.10001145970E+03  0.10001145973E+03  0.25500000920E-02 0. -1.
    10030    2    1    2    0    0  0.00000000000E+00  0.00000000000E+00  0.79670371812E+03  0.99672663755E+03  0.59893837374E+03 0.  0.
        4    1    3    3  502    0  0.44804008503E+02 -0.13177623752E+03 -0.42909294260E+02  0.14565437305E+03  0.12699999809E+01 0. -1.
       -4    1    3    3    0  502 -0.44804008503E+02  0.13177623752E+03  0.83961301238E+03  0.85107226450E+03  0.12699999809E+01 0.  1.
</event>
<event>
 5   0  0.3832191E-02  0.6083641E+03  0.7818609E-02  0.9888204E-01
       -2   -1    0    0    0  501  0.00000000000E+00  0.00000000000E+00  0.17347470259E+03  0.17347470261E+03  0.25500000920E-02 0.  1.
        2   -1    0    0  501    0  0.00000000000E+00  0.00000000000E+00 -0.53337292834E+03  0.53337292834E+03  0.25500000920E-02 0. -1.
    10030    2    1    2    0    0  0.00000000000E+00  0.00000000000E+00 -0.35989822575E+03  0.70684763095E+03  0.60836406903E+03 0.  0.
        3    1    3    3  502    0 -0.41389584862E+02 -0.68865043871E+02 -0.52082101158E+03  0.52698199998E+03  0.10100000352E+00 0. -1.
       -3    1    3    3    0  502  0.41389584862E+02  0.68865043871E+02  0.16092278583E+03  0.17986563097E+03  0.10100000352E+00 0.  1.
</event>
<event>
 5   0  0.3798925E-02  0.5993368E+03  0.7818609E-02  0.9906783E-01
        2   -1    0    0  501    0  0.00000000000E+00  0.00000000000E+00  0.16887455239E+04  0.16887455240E+04  0.25500000920E-02 0. -1.
       -2   -1    0    0    0  501  0.00000000000E+00  0.00000000000E+00 -0.53176251534E+02  0.53176251595E+02  0.25500000920E-02 0.  1.
    10030    2    1    2    0    0  0.00000000000E+00  0.00000000000E+00  0.16355692724E+04  0.17419217755E+04  0.59933682287E+03 0.  0.
        2    1    3    3  502    0  0.27285011605E+03 -0.51843694767E+02  0.49068437056E+03  0.56383162915E+03  0.25500000920E-02 0.  1.
       -2    1    3    3    0  502 -0.27285011605E+03  0.51843694767E+02  0.11448849019E+04  0.11780901464E+04  0.25500000920E-02 0. -1.
</event>
<event>
 5   0  0.2382531E-02  0.6129513E+03  0.7818609E-02  0.9878895E-01
        1   -1    0    0  501    0  0.00000000000E+00  0.00000000000E+00  0.46364183943E+03  0.46364183946E+03  0.50400001928E-02 0.  1.
       -1   -1    0    0    0  501  0.00000000000E+00  0.00000000000E+00 -0.20258592109E+03  0.20258592115E+03  0.50400001928E-02 0. -1.
    10030    2    1    2    0    0  0.00000000000E+00  0.00000000000E+00  0.26105591834E+03  0.66622776061E+03  0.61295125133E+03 0.  0.
        5    1    3    3  502    0  0.30539969694E+03  0.25221457923E+02  0.13014785638E+03  0.33296494012E+03  0.46999998093E+01 0.  1.
       -5    1    3    3    0  502 -0.30539969694E+03 -0.25221457923E+02  0.13090806196E+03  0.33326282048E+03  0.46999998093E+01 0. -1.
</event>
<event>
 5   0  0.2276105E-02  0.5554473E+03  0.7818609E-02  0.1000241E+00
        1   -1    0    0  501    0  0.00000000000E+00  0.00000000000E+00  0.40120048681E+03  0.40120048684E+03  0.50400001928E-02 0. -1.
       -1   -1    0    0    0  501  0.00000000000E+00  0.00000000000E+00 -0.19224911718E+03  0.19224911724E+03  0.50400001928E-02 0.  1.
    10030    2    1    2    0    0  0.00000000000E+00  0.00000000000E+00  0.20895136963E+03  0.59344960408E+03  0.55544734918E+03 0.  0.
        1    1    3    3  502    0 -0.17000873465E+02 -0.19981827029E+03 -0.10079971336E+03  0.22444810777E+03  0.50400001928E-02 0.  1.
       -1    1    3    3    0  502  0.17000873465E+02  0.19981827029E+03  0.30975108299E+03  0.36900149631E+03  0.50400001928E-02 0. -1.
</event>
<event>
 5   0  0.3724066E-02  0.6122828E+03  0.7818609E-02  0.9880246E-01
       -2   -1    0    0    0  501  0.00000000000E+00  0.00000000000E+00  0.35417012187E+03  0.35417012188E+03  0.25500000920E-02 0. -1.
        2   -1    0    0  501    0  0.00000000000E+00  0.00000000000E+00 -0.26462577794E+03  0.26462577796E+03  0.25500000920E-02 0.  1.
    10030    2    1    2    0    0  0.00000000000E+00  0.00000000000E+00  0.89544343930E+02  0.61879589984E+03  0.61228275831E+03 0.  0.
        4    1    3    3  502    0  0.19737934563E+03 -0.16949270816E+03  0.20784079706E+03  0.33299518619E+03  0.12699999809E+01 0.  1.
       -4    1    3    3    0  502 -0.19737934563E+03  0.16949270816E+03 -0.11829645313E+03  0.28580071365E+03  0.12699999809E+01 0. -1.
</event>
<event>
 5   0  0.3724066E-02  0.5973645E+03  0.7818609E-02  0.9910889E-01
       -2   -1    0    0    0  501  0.00000000000E+00  0.00000000000E+00  0.16760219843E+03  0.16760219845E+03  0.25500000920E-02 0. -1.
        2   -1    0    0  501    0  0.00000000000E+00  0.00000000000E+00 -0.53227866273E+03  0.53227866274E+03  0.25500000920E-02 0.  1.
    10030    2    1    2    0    0  0.00000000000E+00  0.00000000000E+00 -0.36467646431E+03  0.69988086119E+03  0.59736445847E+03 0.  0.
        4    1    3    3  502    0 -0.18077086392E+03 -0.20608394770E+03 -0.32126603675E+03  0.42232946619E+03  0.12699999809E+01 0.  1.
       -4    1    3    3    0  502  0.18077086392E+03  0.20608394770E+03 -0.43410427557E+02  0.27755139500E+03  0.12699999809E+01 0. -1.
</event>
<event>
 5   0  0.3737642E-02  0.5888962E+03  0.7818609E-02  0.9928714E-01
       -2   -1    0    0    0  501  0.00000000000E+00  0.00000000000E+00  0.57555178346E+03  0.57555178347E+03  0.25500000920E-02 0. -1.
        2   -1    0    0  501    0  0.00000000000E+00  0.00000000000E+00 -0.15063752451E+03  0.15063752453E+03  0.25500000920E-02 0.  1.
    10030    2    1    2    0    0  0.00000000000E+00  0.00000000000E+00  0.42491425895E+03  0.72618930799E+03  0.58889624178E+03 0.  0.
        5    1    3    3  502    0  0.24565728244E+03  0.10069516595E+03  0.55550102995E+02  0.27128383807E+03  0.46999998093E+01 0.  1.
       -5    1    3    3    0  502 -0.24565728244E+03 -0.10069516595E+03  0.36936415596E+03  0.45490546992E+03  0.46999998093E+01 0. -1.
</event>
<event>
 5   0  0.3832191E-02  0.5988308E+03  0.7818609E-02  0.9907835E-01
       -2   -1    0    0    0  501  0.00000000000E+00  0.00000000000E+00  0.73558141945E+02  0.73558141989E+02  0.25500000920E-02 0. -1.
        2   -1    0    0  501    0  0.00000000000E+00  0.00000000000E+00 -0.12187580103E+04  0.12187580103E+04  0.25500000920E-02 0.  1.
    10030    2    1    2    0    0  0.00000000000E+00  0.00000000000E+00 -0.11451998683E+04  0.12923161523E+04  0.59883077659E+03 0.  0.
        3    1    3    3  502    0  0.47178141648E+02  0.10830703732E+03 -0.11663362175E+04  0.11723038744E+04  0.10100000352E+00 0.  1.
       -3    1    3    3    0  502 -0.47178141648E+02 -0.10830703732E+03  0.21136349204E+02  0.12001227788E+03  0.10100000352E+00 0. -1.
</event>
<event>
 5   0  0.1521750E-02  0.6003078E+03  0.7818609E-02  0.9904768E-01
       -3   -1    0    0    0  501  0.00000000000E+00  0.00000000000E+00  0.12951332752E+04  0.12951332792E+04  0.10100000352E+00 0.  1.
        3   -1    0    0  501    0  0.00000000000E+00  0.00000000000E+00 -0.69562194531E+02  0.69562267854E+02  0.10100000352E+00 0. -1.
    10030    2    1    2    0    0  0.00000000000E+00  0.00000000000E+00  0.12255710807E+04  0.13646955470E+04  0.60030780623E+03 0.  0.
        3    1    3    3  502    0  0.10241257166E+03  0.22856795158E+03  0.23675295451E+03  0.34464998911E+03  0.10100000352E+00 0. -1.
       -3    1    3    3    0  502 -0.10241257166E+03 -0.22856795158E+03  0.98881812620E+03  0.10200455579E+04  0.10100000352E+00 0.  1.
</event>
<event>
 5   0  0.3724066E-02  0.5986074E+03  0.7818609E-02  0.9908299E-01
        2   -1    0    0  501    0  0.00000000000E+00  0.00000000000E+00  0.35022602172E+03  0.35022602173E+03  0.25500000920E-02 0. -1.
       -2   -1    0    0    0  501  0.00000000000E+00  0.00000000000E+00 -0.25578541416E+03  0.25578541417E+03  0.25500000920E-02 0.  1.
    10030    2    1    2    0    0  0.00000000000E+00  0.00000000000E+00  0.94440607563E+02  0.60601143590E+03  0.59860741065E+03 0.  0.
        4    1    3    3  502    0 -0.16402271038E+03  0.16960956061E+03 -0.13920470782E+03  0.27395331016E+03  0.12699999809E+01 0. -1.
       -4    1    3    3    0  502  0.16402271038E+03 -0.16960956061E+03  0.23364531538E+03  0.33205812574E+03  0.12699999809E+01 0.  1.
</event>
<event>
 5   0  0.1521750E-02  0.6055688E+03  0.7818609E-02  0.9893919E-01
       -3   -1    0    0    0  501  0.00000000000E+00  0.00000000000E+00  0.19545901113E+03  0.19545903722E+03  0.10100000352E+00 0. -1.
        3   -1    0    0  501    0  0.00000000000E+00  0.00000000000E+00 -0.46904146439E+03  0.46904147527E+03  0.10100000352E+00 0.  1.
    10030    2    1    2    0    0  0.00000000000E+00  0.00000000000E+00 -0.27358245326E+03  0.66450051249E+03  0.60556880069E+03 0.  0.
        1    1    3    3  502    0 -0.89451386653E+02  0.48351775867E+02 -0.44974565737E+03  0.46109717105E+03  0.50400001928E-02 0.  1.
       -1    1    3    3    0  502  0.89451386653E+02 -0.48351775867E+02  0.17616320410E+03  0.20340334144E+03  0.50400001928E-02 0. -1.
</event>
<event>
 5   0  0.2382531E-02  0.6557345E+03  0.7818609E-02  0.9796078E-01
        1   -1    0    0  501    0  0.00000000000E+00  0.00000000000E+00  0.27202291750E+03  0.27202291755E+03  0.50400001928E-02 0.  1.
       -1   -1    0    0    0  501  0.00000000000E+00  0.00000000000E+00 -0.39517602710E+03  0.39517602713E+03  0.50400001928E-02 0. -1.
    10030    2    1    2    0    0  0.00000000000E+00  0.00000000000E+00 -0.12315310959E+03  0.66719894468E+03  0.65573450678E+03 0.  0.
        5    1    3    3  502    0  0.17525387639E+03 -0.10379649557E+03  0.19979432686E+03  0.28535503627E+03  0.46999998093E+01 0.  1.
       -5    1    3    3    0  502 -0.17525387639E+03  0.10379649557E+03 -0.32294743645E+03  0.38184390841E+03  0.46999998093E+01 0. -1.
</event>
<event>
 5   0  0.2225808E-02  0.5939963E+03  0.7818609E-02  0.9917941E-01
       -1   -1    0    0    0  501  0.00000000000E+00  0.00000000000E+00  0.54132899004E+02  0.54132899239E+02  0.50400001928E-02 0. -1.
        1   -1    0    0  501    0  0.00000000000E+00  0.00000000000E+00 -0.16294696234E+04  0.16294696234E+04  0.50400001928E-02 0.  1.
    10030    2    1    2    0    0  0.00000000000E+00  0.00000000000E+00 -0.15753367243E+04  0.16836025226E+04  0.59399634597E+03 0.  0.
        2    1    3    3  502    0  0.49135450087E+00  0.28696864468E+03 -0.10045791653E+04  0.10447633913E+04  0.25500000920E-02 0.  1.
       -2    1    3    3    0  502 -0.49135450087E+00 -0.28696864468E+03 -0.57075755910E+03  0.63883913134E+03  0.25500000920E-02 0. -1.
</event>
<event>
 5   0  0.1521750E-02  0.6020093E+03  0.7818609E-02  0.9901246E-01
       -3   -1    0    0    0  501  0.00000000000E+00  0.00000000000E+00  0.50362500546E+03  0.50362501559E+03  0.10100000352E+00 0.  1.
        3   -1    0    0  501    0  0.00000000000E+00  0.00000000000E+00 -0.17990329699E+03  0.17990332534E+03  0.10100000352E+00 0. -1.
    10030    2    1    2    0    0  0.00000000000E+00  0.00000000000E+00  0.32372170848E+03  0.68352834093E+03  0.60200934238E+03 0.  0.
        4    1    3    3  502    0 -0.21082492026E+03  0.16965423897E+03  0.12208226249E+02  0.27088809773E+03  0.12699999809E+01 0. -1.
       -4    1    3    3    0  502  0.21082492026E+03 -0.16965423897E+03  0.31151348223E+03  0.41264024320E+03  0.12699999809E+01 0.  1.
</event>
<event>
 5   0  0.3724066E-02  0.5975314E+03  0.7818609E-02  0.9910541E-01
        2   -1    0    0  501    0  0.00000000000E+00  0.00000000000E+00  0.12803281937E+04  0.12803281937E+04  0.25500000920E-02 0. -1.
       -2   -1    0    0    0  501  0.00000000000E+00  0.00000000000E+00 -0.69717248134E+02  0.69717248180E+02  0.25500000920E-02 0.  1.
    10030    2    1    2    0    0  0.00000000000E+00  0.00000000000E+00  0.12106109455E+04  0.13500454419E+04  0.59753144990E+03 0.  0.
        4    1    3    3  502    0  0.10943949566E+03  0.37594494730E+02 -0.17023166720E+02  0.11696901449E+03  0.12699999809E+01 0.  1.
       -4    1    3    3    0  502 -0.10943949566E+03 -0.37594494730E+02  0.12276341123E+04  0.12330764274E+04  0.12699999809E+01 0. -1.
</event>
<event>
 5   0  0.3832191E-02  0.5983845E+03  0.7818609E-02  0.9908763E-01
       -2   -1    0    0    0  501  0.00000000000E+00  0.00000000000E+00  0.85644439070E+02  0.85644439108E+02  0.25500000920E-02 0. -1.
        2   -1    0    0  501    0  0.00000000000E+00  0.00000000000E+00 -0.10452051254E+04  0.10452051254E+04  0.25500000920E-02 0.  1.
    10030    2    1    2    0    0  0.00000000000E+00  0.00000000000E+00 -0.95956068635E+03  0.11308495645E+04  0.59838451418E+03 0.  0.
        3    1    3    3  502    0  0.12671589676E+03  0.27049964698E+03 -0.44765204800E+03  0.53816293424E+03  0.10100000352E+00 0.  1.
       -3    1    3    3    0  502 -0.12671589676E+03 -0.27049964698E+03 -0.51190863835E+03  0.59268663029E+03  0.10100000352E+00 0. -1.
</event>
<event>
 5   0  0.2382531E-02  0.5977487E+03  0.7818609E-02  0.9910088E-01
        1   -1    0    0  501    0  0.00000000000E+00  0.00000000000E+00  0.37563699910E+03  0.37563699914E+03  0.50400001928E-02 0.  1.
       -1   -1    0    0    0  501  0.00000000000E+00  0.00000000000E+00 -0.23779837161E+03  0.23779837167E+03  0.50400001928E-02 0. -1.
    10030    2    1    2    0    0  0.00000000000E+00  0.00000000000E+00  0.13783862749E+03  0.61343537080E+03  0.59774866535E+03 0.  0.
        5    1    3    3  502    0 -0.17387901163E+03  0.22657848069E+03  0.15915903687E+03  0.32699450701E+03  0.46999998093E+01 0. -1.
       -5    1    3    3    0  502  0.17387901163E+03 -0.22657848069E+03 -0.21320409382E+02  0.28644086379E+03  0.46999998093E+01 0.  1.
</event>
<event>
 5   0  0.3798925E-02  0.5994482E+03  0.7818609E-02  0.9906551E-01
        2   -1    0    0  501    0  0.00000000000E+00  0.00000000000E+00  0.63789887359E+03  0.63789887359E+03  0.25500000920E-02 0.  1.
       -2   -1    0    0    0  501  0.00000000000E+00  0.00000000000E+00 -0.14082882136E+03  0.14082882138E+03  0.25500000920E-02 0. -1.
    10030    2    1    2    0    0  0.00000000000E+00  0.00000000000E+00  0.49707005223E+03  0.77872769498E+03  0.59944823471E+03 0.  0.
        2    1    3    3  502    0  0.25253254125E+03  0.72747465847E+02  0.61316545828E+02  0.26986032864E+03  0.25500000920E-02 0. -1.
       -2    1    3    3    0  502 -0.25253254125E+03 -0.72747465847E+02  0.43575350640E+03  0.50886736633E+03  0.25500000920E-02 0.  1.
</event>
<event>
 5   0  0.1521750E-02  0.5838720E+03  0.7818609E-02  0.9939443E-01
       -3   -1    0    0    0  501  0.00000000000E+00  0.00000000000E+00  0.52369034633E+03  0.52369035607E+03  0.10100000352E+00 0.  1.
        3   -1    0    0  501    0  0.00000000000E+00  0.00000000000E+00 -0.16274240429E+03  0.16274243563E+03  0.10100000352E+00 0. -1.
    10030    2    1    2    0    0  0.00000000000E+00  0.00000000000E+00  0.36094794204E+03  0.68643279170E+03  0.58387204134E+03 0.  0.
        1    1    3    3  502    0 -0.71264852678E+02 -0.22519690434E+03  0.38217462695E+03  0.44927694183E+03  0.50400001928E-02 0.  1.
       -1    1    3    3    0  502  0.71264852678E+02  0.22519690434E+03 -0.21226684903E+02  0.23715584987E+03  0.50400001928E-02 0. -1.
</event>
<event>
 5   0  0.3724066E-02  0.5944453E+03  0.7818609E-02  0.9916998E-01
       -2   -1    0    0    0  501  0.00000000000E+00  0.00000000000E+00  0.18515612674E+03  0.18515612676E+03  0.25500000920E-02 0. -1.
        2   -1    0    0  501    0  0.00000000000E+00  0.00000000000E+00 -0.47711783623E+03  0.47711783624E+03  0.25500000920E-02 0.  1.
    10030    2    1    2    0    0  0.00000000000E+00  0.00000000000E+00 -0.29196170949E+03  0.66227396300E+03  0.59444525589E+03 0.  0.
        4    1    3    3  502    0 -0.13768081684E+03  0.88942591012E+02  0.13024709289E+03  0.20936262782E+03  0.12699999809E+01 0. -1.
       -4    1    3    3    0  502  0.13768081684E+03 -0.88942591012E+02 -0.42220880238E+03  0.45291133518E+03  0.12699999809E+01 0.  1.
</event>
<event>
 5   0  0.2276105E-02  0.5920606E+03  0.7818609E-02  0.9922016E-01
        1   -1    0    0  501    0  0.00000000000E+00  0.00000000000E+00  0.14398819033E+04  0.14398819033E+04  0.50400001928E-02 0. -1.
       -1   -1    0    0    0  501  0.00000000000E+00  0.00000000000E+00 -0.60861893754E+02  0.60861893963E+02  0.50400001928E-02 0.  1.
    10030    2    1    2    0    0  0.00000000000E+00  0.00000000000E+00  0.13790200096E+04  0.15007437973E+04  0.59206060360E+03 0.  0.
        1    1    3    3  502    0  0.21541801659E+03 -0.19654900566E+03  0.81869696465E+03  0.86908063691E+03  0.50400001928E-02 0. -1.
       -1    1    3    3    0  502 -0.21541801659E+03  0.19654900566E+03  0.56032304492E+03  0.63166316039E+03  0.50400001928E-02 0.  1.
</event>
<event>
 5   0  0.3798925E-02  0.5987270E+03  0.7818609E-02  0.9908051E-01
        2   -1    0    0  501    0  0.00000000000E+00  0.00000000000E+00  0.11576006937E+04  0.11576006937E+04  0.25500000920E-02 0.  1.
       -2   -1    0    0    0  501  0.00000000000E+00  0.00000000000E+00 -0.77417449282E+02  0.77417449324E+02  0.25500000920E-02 0. -1.
    10030    2    1    2    0    0  0.00000000000E+00  0.00000000000E+00  0.10801832444E+04  0.12350181430E+04  0.59872695953E+03 0.  0.
        2    1    3    3  502    0  0.11259590496E+03 -0.27696048114E+03  0.57161492744E+03  0.64508028276E+03  0.25500000920E-02 0.  1.
       -2    1    3    3    0  502 -0.11259590496E+03  0.27696048114E+03  0.50856831693E+03  0.58993786022E+03  0.25500000920E-02 0. -1.
</event>
<event>
 5   0  0.2382531E-02  0.6006894E+03  0.7818609E-02  0.9903977E-01
        1   -1    0    0  501    0  0.00000000000E+00  0.00000000000E+00  0.82775881874E+03  0.82775881876E+03  0.50400001928E-02 0.  1.
       -1   -1    0    0    0  501  0.00000000000E+00  0.00000000000E+00 -0.10897733049E+03  0.10897733061E+03  0.50400001928E-02 0. -1.
    10030    2    1    2    0    0  0.00000000000E+00  0.00000000000E+00  0.71878148825E+03  0.93673614937E+03  0.60068942531E+03 0.  0.
        5    1    3    3  502    0  0.25874410721E+03 -0.13310550002E+03  0.24353753050E+03  0.37947095530E+03  0.46999998093E+01 0. -1.
       -5    1    3    3    0  502 -0.25874410721E+03  0.13310550002E+03  0.47524395774E+03  0.55726519407E+03  0.46999998093E+01 0.  1.
</event>
<event>
 5   0  0.1521750E-02  0.5965067E+03  0.7818609E-02  0.9912680E-01
       -3   -1    0    0    0  501  0.00000000000E+00  0.00000000000E+00  0.21906581044E+03  0.21906583372E+03  0.10100000352E+00 0.  1.
        3   -1    0    0  501    0  0.00000000000E+00  0.00000000000E+00 -0.40606540598E+03  0.40606541854E+03  0.10100000352E+00 0. -1.
    10030    2    1    2    0    0  0.00000000000E+00  0.00000000000E+00 -0.18699959554E+03  0.62513125226E+03  0.59650669218E+03 0.  0.
        2    1    3    3  502    0 -0.29718254140E+02 -0.61440354953E+02 -0.39777171030E+03  0.40358447117E+03  0.25500000920E-02 0. -1.
       -2    1    3    3    0  502  0.29718254140E+02  0.61440354953E+02  0.21077211476E+03  0.22154678109E+03  0.25500000920E-02 0.  1.
</event>
<event>
 5   0  0.2276105E-02  0.6012501E+03  0.7818609E-02  0.9902816E-01
       -1   -1    0    0    0  501  0.00000000000E+00  0.00000000000E+00  0.13740373066E+03  0.13740373075E+03  0.50400001928E-02 0. -1.
        1   -1    0    0  501    0  0.00000000000E+00  0.00000000000E+00 -0.65773633702E+03  0.65773633704E+03  0.50400001928E-02 0.  1.
    10030    2    1    2    0    0  0.00000000000E+00  0.00000000000E+00 -0.52033260636E+03  0.79514006779E+03  0.60125011947E+03 0.  0.
        1    1    3    3  502    0  0.18522772082E+03 -0.33970896811E+02  0.49734337328E+02  0.19477380400E+03  0.50400001928E-02 0. -1.
       -1    1    3    3    0  502 -0.18522772082E+03  0.33970896811E+02 -0.57006694369E+03  0.60036626379E+03  0.50400001928E-02 0.  1.
</event>
<event>
 5   0  0.3737642E-02  0.6069243E+03  0.7818609E-02  0.9891144E-01
       -2   -1    0    0    0  501  0.00000000000E+00  0.00000000000E+00  0.25547127573E+03  0.25547127574E+03  0.25500000920E-02 0.  1.
        2   -1    0    0  501    0  0.00000000000E+00  0.00000000000E+00 -0.36046823617E+03  0.36046823618E+03  0.25500000920E-02 0. -1.
    10030    2    1    2    0    0  0.00000000000E+00  0.00000000000E+00 -0.10499696044E+03  0.61593951192E+03  0.60692431212E+03 0.  0.
        5    1    3    3  502    0  0.30169615522E+03  0.31650722206E+02 -0.59295113242E+02  0.30912835318E+03  0.46999998093E+01 0.  1.
       -5    1    3    3    0  502 -0.30169615522E+03 -0.31650722206E+02 -0.45701847195E+02  0.30681115874E+03  0.46999998093E+01 0. -1.
</event>
<event>
 5   0  0.2382531E-02  0.6014061E+03  0.7818609E-02  0.9902493E-01
       -1   -1    0    0    0  501  0.00000000000E+00  0.00000000000E+00  0.23803555223E+03  0.23803555229E+03  0.50400001928E-02 0. -1.
        1   -1    0    0  501    0  0.00000000000E+00  0.00000000000E+00 -0.37986892794E+03  0.37986892797E+03  0.50400001928E-02 0.  1.
    10030    2    1    2    0    0  0.00000000000E+00  0.00000000000E+00 -0.14183337570E+03  0.61790448026E+03  0.60140605273E+03 0.  0.
        5    1    3    3  502    0 -0.12421247447E+03 -0.10396944203E+03  0.18933403367E+03  0.24921446586E+03  0.46999998093E+01 0. -1.
       -5    1    3    3    0  502  0.12421247447E+03  0.10396944203E+03 -0.33116740937E+03  0.36869001440E+03  0.46999998093E+01 0.  1.
</event>
<event>
 5   0  0.3832191E-02  0.6064705E+03  0.7818609E-02  0.9892072E-01
        2   -1    0    0  501    0  0.00000000000E+00  0.00000000000E+00  0.47053549932E+03  0.47053549933E+03  0.25500000920E-02 0. -1.
       -2   -1    0    0    0  501  0.00000000000E+00  0.00000000000E+00 -0.19541907661E+03  0.19541907663E+03  0.25500000920E-02 0.  1.
    10030    2    1    2    0    0  0.00000000000E+00  0.00000000000E+00  0.27511642271E+03  0.66595457596E+03  0.60647048667E+03 0.  0.
        3    1    3    3  502    0 -0.19545718078E+03  0.23966284605E+02  0.39076970715E+03  0.43758298246E+03  0.10100000352E+00 0. -1.
       -3    1    3    3    0  502  0.19545718078E+03 -0.23966284605E+02 -0.11565328444E+03  0.22837159350E+03  0.10100000352E+00 0.  1.
</event>
<event>
 5   0  0.2276105E-02  0.5999093E+03  0.7818609E-02  0.9905594E-01
        1   -1    0    0  501    0  0.00000000000E+00  0.00000000000E+00  0.25003339104E+03  0.25003339109E+03  0.50400001928E-02 0.  1.
       -1   -1    0    0    0  501  0.00000000000E+00  0.00000000000E+00 -0.35984311697E+03  0.35984311701E+03  0.50400001928E-02 0. -1.
    10030    2    1    2    0    0  0.00000000000E+00  0.00000000000E+00 -0.10980972593E+03  0.60987650810E+03  0.59990930916E+03 0.  0.
        1    1    3    3  502    0  0.59394474025E+02  0.56850503747E+02 -0.34816442689E+03  0.35774034089E+03  0.50400001928E-02 0. -1.
       -1    1    3    3    0  502 -0.59394474025E+02 -0.56850503747E+02  0.23835470096E+03  0.25213616721E+03  0.50400001928E-02 0.  1.
</event>
<event>
 5   0  0.2295179E-02  0.6002940E+03  0.7818609E-02  0.9904796E-01
        1   -1    0    0  501    0  0.00000000000E+00  0.00000000000E+00  0.36533067082E+03  0.36533067085E+03  0.50400001928E-02 0.  1.
       -1   -1    0    0    0  501  0.00000000000E+00  0.00000000000E+00 -0.24659360664E+03  0.24659360669E+03  0.50400001928E-02 0. -1.
    10030    2    1    2    0    0  0.00000000000E+00  0.00000000000E+00  0.11873706418E+03  0.61192427754E+03  0.60029395385E+03 0.  0.
        3    1    3    3  502    0  0.49277785228E+02  0.41303593817E+01  0.36114955733E+03  0.36451937253E+03  0.10100000352E+00 0.  1.
       -3    1    3    3    0  502 -0.49277785228E+02 -0.41303593817E+01 -0.24241249316E+03  0.24740490501E+03  0.10100000352E+00 0. -1.
</event>
<event>
 5   0  0.3832191E-02  0.6003682E+03  0.7818609E-02  0.9904642E-01
        2   -1    0    0  501    0  0.00000000000E+00  0.00000000000E+00  0.37418945787E+03  0.37418945788E+03  0.25500000920E-02 0.  1.
       -2   -1    0    0    0  501  0.00000000000E+00  0.00000000000E+00 -0.24081514657E+03  0.24081514658E+03  0.25500000920E-02 0. -1.
    10030    2    1    2    0    0  0.00000000000E+00  0.00000000000E+00  0.13337431131E+03  0.61500460446E+03  0.60036818420E+03 0.  0.
        3    1    3    3  502    0  0.25584807180E+03  0.55563969272E+02 -0.83742792485E+02  0.27487898431E+03  0.10100000352E+00 0. -1.
       -3    1    3    3    0  502 -0.25584807180E+03 -0.55563969272E+02  0.21711710379E+03  0.34012562015E+03  0.10100000352E+00 0.  1.
</event>
<event>
 5   0  0.3737642E-02  0.5928163E+03  0.7818609E-02  0.9920423E-01
        2   -1    0    0  501    0  0.00000000000E+00  0.00000000000E+00  0.64423041603E+03  0.64423041603E+03  0.25500000920E-02 0.  1.
       -2   -1    0    0    0  501  0.00000000000E+00  0.00000000000E+00 -0.13637634692E+03  0.13637634694E+03  0.25500000920E-02 0. -1.
    10030    2    1    2    0    0  0.00000000000E+00  0.00000000000E+00  0.50785406911E+03  0.78060676297E+03  0.59281629776E+03 0.  0.
        5    1    3    3  502    0  0.29506401459E+03 -0.24151307641E+02  0.27206046001E+03  0.40210078620E+03  0.46999998093E+01 0. -1.
       -5    1    3    3    0  502 -0.29506401459E+03  0.24151307641E+02  0.23579360909E+03  0.37850597677E+03  0.46999998093E+01 0.  1.
</event>
<event>
 5   0  0.3737642E-02  0.5963067E+03  0.7818609E-02  0.9913098E-01
        2   -1    0    0  501    0  0.00000000000E+00  0.00000000000E+00  0.15045496880E+04  0.15045496880E+04  0.25500000920E-02 0.  1.
       -2   -1    0    0    0  501  0.00000000000E+00  0.00000000000E+00 -0.59084412881E+02  0.59084412936E+02  0.25500000920E-02 0. -1.
    10030    2    1    2    0    0  0.00000000000E+00  0.00000000000E+00  0.14454652751E+04  0.15636341009E+04  0.59630674995E+03 0.  0.
        5    1    3    3  502    0 -0.54728671739E+02 -0.27403349565E+03  0.99503444876E+03  0.10335401436E+04  0.46999998093E+01 0.  1.
       -5    1    3    3    0  502  0.54728671739E+02  0.27403349565E+03  0.45043082632E+03  0.53009395728E+03  0.46999998093E+01 0. -1.
</event>
<event>
 5   0  0.2309055E-02  0.5981925E+03  0.7818609E-02  0.9909163E-01
        1   -1    0    0  501    0  0.00000000000E+00  0.00000000000E+00  0.30864296288E+03  0.30864296292E+03  0.50400001928E-02 0. -1.
       -1   -1    0    0    0  501  0.00000000000E+00  0.00000000000E+00 -0.28984483761E+03  0.28984483765E+03  0.50400001928E-02 0.  1.
    10030    2    1    2    0    0  0.00000000000E+00  0.00000000000E+00  0.18798125273E+02  0.59848780057E+03  0.59819250908E+03 0.  0.
        4    1    3    3  502    0  0.31865654760E+02 -0.29587133558E+03  0.39442029284E+02  0.30018753097E+03  0.12699999809E+01 0. -1.
       -4    1    3    3    0  502 -0.31865654760E+02  0.29587133558E+03 -0.20643904011E+02  0.29830026961E+03  0.12699999809E+01 0.  1.
</event>
<event>
 5   0  0.2382531E-02  0.6014918E+03  0.7818609E-02  0.9902316E-01
       -1   -1    0    0    0  501  0.00000000000E+00  0.00000000000E+00  0.18049403575E+03  0.18049403582E+03  0.50400001928E-02 0.  1.
        1   -1    0    0  501    0  0.00000000000E+00  0.00000000000E+00 -0.50111412678E+03  0.50111412680E+03  0.50400001928E-02 0. -1.
    10030    2    1    2    0    0  0.00000000000E+00  0.00000000000E+00 -0.32062009103E+03  0.68160816262E+03  0.60149184914E+03 0.  0.
        5    1    3    3  502    0  0.61674560893E+02 -0.14032089335E+03 -0.45348236592E+03  0.47870873271E+03  0.46999998093E+01 0. -1.
       -5    1    3    3    0  502 -0.61674560893E+02  0.14032089335E+03  0.13286227489E+03  0.20289942991E+03  0.46999998093E+01 0.  1.
</event>
<event>
 5   0  0.2225808E-02  0.6022900E+03  0.7818609E-02  0.9900666E-01
        1   -1    0    0  501    0  0.00000000000E+00  0.00000000000E+00  0.57680777972E+03  0.57680777975E+03  0.50400001928E-02 0. -1.
       -1   -1    0    0    0  501  0.00000000000E+00  0.00000000000E+00 -0.15722450046E+03  0.15722450054E+03  0.50400001928E-02 0.  1.
    10030    2    1    2    0    0  0.00000000000E+00  0.00000000000E+00  0.41958327926E+03  0.73403228029E+03  0.60229001342E+03 0.  0.
        2    1    3    3  502    0  0.27833789228E+03  0.10100805837E+03  0.27669683775E+03  0.40526010186E+03  0.25500000920E-02 0. -1.
       -2    1    3    3    0  502 -0.27833789228E+03 -0.10100805837E+03  0.14288644151E+03  0.32877217843E+03  0.25500000920E-02 0.  1.
</event>
<event>
 5   0  0.2276105E-02  0.6009898E+03  0.7818609E-02  0.9903355E-01
        1   -1    0    0  501    0  0.00000000000E+00  0.00000000000E+00  0.75310776478E+03  0.75310776480E+03  0.50400001928E-02 0. -1.
       -1   -1    0    0    0  501  0.00000000000E+00  0.00000000000E+00 -0.11989941960E+03  0.11989941971E+03  0.50400001928E-02 0.  1.
    10030    2    1    2    0    0  0.00000000000E+00  0.00000000000E+00  0.63320834518E+03  0.87300718450E+03  0.60098979674E+03 0.  0.
        1    1    3    3  502    0 -0.22677513025E+03  0.14025397818E+03  0.11532884527E+03  0.29051485447E+03  0.50400001928E-02 0.  1.
       -1    1    3    3    0  502  0.22677513025E+03 -0.14025397818E+03  0.51787949991E+03  0.58249233003E+03  0.50400001928E-02 0. -1.
</event>
<event>
 5   0  0.1521750E-02  0.6012136E+03  0.7818609E-02  0.9902891E-01
       -3   -1    0    0    0  501  0.00000000000E+00  0.00000000000E+00  0.45420178328E+03  0.45420179451E+03  0.10100000352E+00 0. -1.
        3   -1    0    0  501    0  0.00000000000E+00  0.00000000000E+00 -0.19895218493E+03  0.19895221057E+03  0.10100000352E+00 0.  1.
    10030    2    1    2    0    0  0.00000000000E+00  0.00000000000E+00  0.25524959835E+03  0.65315400508E+03  0.60121360338E+03 0.  0.
        4    1    3    3  502    0  0.23413249213E+03  0.79494697529E+02  0.31334838861E+03  0.39915693199E+03  0.12699999809E+01 0. -1.
       -4    1    3    3    0  502 -0.23413249213E+03 -0.79494697529E+02 -0.58098790262E+02  0.25399707309E+03  0.12699999809E+01 0.  1.
</event>
<event>
 5   0  0.2309055E-02  0.5867516E+03  0.7818609E-02  0.9933280E-01
        1   -1    0    0  501    0  0.00000000000E+00  0.00000000000E+00  0.13819683002E+04  0.13819683002E+04  0.50400001928E-02 0.  1.
       -1   -1    0    0    0  501  0.00000000000E+00  0.00000000000E+00 -0.62280279835E+02  0.62280280039E+02  0.50400001928E-02 0. -1.
    10030    2    1    2    0    0  0.00000000000E+00  0.00000000000E+00  0.13196880203E+04  0.14442485802E+04  0.58675164290E+03 0.  0.
        4    1    3    3  502    0  0.55899138988E+02  0.16494362543E+03  0.78734407467E+02  0.19113302469E+03  0.12699999809E+01 0. -1.
       -4    1    3    3    0  502 -0.55899138988E+02 -0.16494362543E+03  0.12409536129E+04  0.12531155555E+04  0.12699999809E+01 0.  1.
</event>
<event>
 5   0  0.3832191E-02  0.5972040E+03  0.7818609E-02  0.9911224E-01
       -2   -1    0    0    0  501  0.00000000000E+00  0.00000000000E+00  0.34500689129E+03  0.34500689130E+03  0.25500000920E-02 0.  1.
        2   -1    0    0  501    0  0.00000000000E+00  0.00000000000E+00 -0.25843874093E+03  0.25843874094E+03  0.25500000920E-02 0. -1.
    10030    2    1    2    0    0  0.00000000000E+00  0.00000000000E+00  0.86568150366E+02  0.60344563224E+03  0.59720397387E+03 0.  0.
        3    1    3    3  502    0  0.46370107097E+02  0.29017868574E+03 -0.10272520837E+02  0.29403977856E+03  0.10100000352E+00 0. -1.
       -3    1    3    3    0  502 -0.46370107097E+02 -0.29017868574E+03  0.96840671203E+02  0.30940585368E+03  0.10100000352E+00 0.  1.
</event>
<event>
 5   0  0.3737642E-02  0.6099089E+03  0.7818609E-02  0.9885059E-01
        2   -1    0    0  501    0  0.00000000000E+00  0.00000000000E+00  0.53199865410E+03  0.53199865410E+03  0.25500000920E-02 0. -1.
       -2   -1    0    0    0  501  0.00000000000E+00  0.00000000000E+00 -0.17480725999E+03  0.17480726001E+03  0.25500000920E-02 0.  1.
    10030    2    1    2    0    0  0.00000000000E+00  0.00000000000E+00  0.35719139411E+03  0.70680591411E+03  0.60990893434E+03 0.  0.
        5    1    3    3  502    0 -0.49630413744E+01 -0.14372045687E+02 -0.17432568631E+03  0.17505062805E+03  0.46999998093E+01 0.  1.
       -5    1    3    3    0  502  0.49630413744E+01  0.14372045687E+02  0.53151708042E+03  0.53175528606E+03  0.46999998093E+01 0. -1.
</event>
<event>
 5   0  0.3737642E-02  0.5641932E+03  0.7818609E-02  0.9982611E-01
        2   -1    0    0  501    0  0.00000000000E+00  0.00000000000E+00  0.17205866336E+04  0.17205866336E+04  0.25500000920E-02 0. -1.
       -2   -1    0    0    0  501  0.00000000000E+00  0.00000000000E+00 -0.46250787485E+02  0.46250787555E+02  0.25500000920E-02 0.  1.
    10030    2    1    2    0    0  0.00000000000E+00  0.00000000000E+00  0.16743358461E+04  0.17668374211E+04  0.56419318253E+03 0.  0.
        5    1    3    3  502    0  0.18076979240E+03  0.18919066952E+02  0.15126162010E+04  0.15235043520E+04  0.46999998093E+01 0. -1.
       -5    1    3    3    0  502 -0.18076979240E+03 -0.18919066952E+02  0.16171964505E+03  0.24333306913E+03  0.46999998093E+01 0.  1.
</event>
<event>
 5   0  0.2276105E-02  0.5805899E+03  0.7818609E-02  0.9946515E-01
        1   -1    0    0  501    0  0.00000000000E+00  0.00000000000E+00  0.91987317041E+03  0.91987317042E+03  0.50400001928E-02 0. -1.
       -1   -1    0    0    0  501  0.00000000000E+00  0.00000000000E+00 -0.91611702671E+02  0.91611702810E+02  0.50400001928E-02 0.  1.
    10030    2    1    2    0    0  0.00000000000E+00  0.00000000000E+00  0.82826146774E+03  0.10114848732E+04  0.58058986371E+03 0.  0.
        1    1    3    3  502    0 -0.27358517394E+02 -0.15925591693E+03  0.83427934564E+03  0.84978406794E+03  0.50400001928E-02 0. -1.
       -1    1    3    3    0  502  0.27358517394E+02  0.15925591693E+03 -0.60178778986E+01  0.16170080529E+03  0.50400001928E-02 0.  1.
</event>
<event>
 5   0  0.3934634E-02  0.5897614E+03  0.7818609E-02  0.9926879E-01
        2   -1    0    0  501    0  0.00000000000E+00  0.00000000000E+00  0.77746414826E+03  0.77746414827E+03  0.25500000920E-02 0. -1.
       -2   -1    0    0    0  501  0.00000000000E+00  0.00000000000E+00 -0.11184391023E+03  0.11184391026E+03  0.25500000920E-02 0.  1.
    10030    2    1    2    0    0  0.00000000000E+00  0.00000000000E+00  0.66562023803E+03  0.88930805852E+03  0.58976141080E+03 0.  0.
        1    1    3    3  502    0  0.24120406101E+03  0.86320894348E+02  0.55300617995E+03  0.60946413425E+03  0.50400001928E-02 0. -1.
       -1    1    3    3    0  502 -0.24120406101E+03 -0.86320894348E+02  0.11261405809E+03  0.27984392428E+03  0.50400001928E-02 0.  1.
</event>
<event>
 5   0  0.3934634E-02  0.5989649E+03  0.7818609E-02  0.9907556E-01
        2   -1    0    0  501    0  0.00000000000E+00  0.00000000000E+00  0.38657940583E+03  0.38657940584E+03  0.25500000920E-02 0.  1.
       -2   -1    0    0    0  501  0.00000000000E+00  0.00000000000E+00 -0.23200861412E+03  0.23200861413E+03  0.25500000920E-02 0. -1.
    10030    2    1    2    0    0  0.00000000000E+00  0.00000000000E+00  0.15457079171E+03  0.61858801997E+03  0.59896494789E+03 0.  0.
        1    1    3    3  502    0 -0.23580911087E+03 -0.25823290415E+02  0.26607742379E+03  0.35646875680E+03  0.50400001928E-02 0.  1.
       -1    1    3    3    0  502  0.23580911087E+03  0.25823290415E+02 -0.11150663208E+03  0.26211926317E+03  0.50400001928E-02 0. -1.
</event>
<event>
 5   0  0.2276105E-02  0.5986304E+03  0.7818609E-02  0.9908252E-01
       -1   -1    0    0    0  501  0.00000000000E+00  0.00000000000E+00  0.16705327056E+03  0.16705327064E+03  0.50400001928E-02 0.  1.
        1   -1    0    0  501    0  0.00000000000E+00  0.00000000000E+00 -0.53629349593E+03  0.53629349595E+03  0.50400001928E-02 0. -1.
    10030    2    1    2    0    0  0.00000000000E+00  0.00000000000E+00 -0.36924022536E+03  0.70334676659E+03  0.59863037849E+03 0.  0.
        1    1    3    3  502    0  0.15060413821E+03  0.58556962532E+02 -0.48064347048E+03  0.50707856398E+03  0.50400001928E-02 0. -1.
       -1    1    3    3    0  502 -0.15060413821E+03 -0.58556962532E+02  0.11140324512E+03  0.19626820261E+03  0.50400001928E-02 0.  1.
</event>
<event>
 5   0  0.3724066E-02  0.6063029E+03  0.7818609E-02  0.9892415E-01
        2   -1    0    0  501    0  0.00000000000E+00  0.00000000000E+00  0.15181636664E+04  0.15181636664E+04  0.25500000920E-02 0.  1.
       -2   -1    0    0    0  501  0.00000000000E+00  0.00000000000E+00 -0.60534177934E+02  0.60534177988E+02  0.25500000920E-02 0. -1.
    10030    2    1    2    0    0  0.00000000000E+00  0.00000000000E+00  0.14576294885E+04  0.15786978444E+04  0.60630286016E+03 0.  0.
        4    1    3    3  502    0 -0.15501374817E+03 -0.15167364467E+03  0.17729212055E+03  0.28012187618E+03  0.12699999809E+01 0. -1.
       -4    1    3    3    0  502  0.15501374817E+03  0.15167364467E+03  0.12803373680E+04  0.12985759682E+04  0.12699999809E+01 0.  1.
</event>
<event>
 5   0  0.2225808E-02  0.6046619E+03  0.7818609E-02  0.9895781E-01
       -1   -1    0    0    0  501  0.00000000000E+00  0.00000000000E+00  0.24262210564E+03  0.24262210570E+03  0.50400001928E-02 0.  1.
        1   -1    0    0  501    0  0.00000000000E+00  0.00000000000E+00 -0.37673397199E+03  0.37673397202E+03  0.50400001928E-02 0. -1.
    10030    2    1    2    0    0  0.00000000000E+00  0.00000000000E+00 -0.13411186634E+03  0.61935607772E+03  0.60466185452E+03 0.  0.
        2    1    3    3  502    0 -0.80031909372E+02 -0.17878433701E+03 -0.30294580709E+03  0.36075629962E+03  0.25500000920E-02 0. -1.
       -2    1    3    3    0  502  0.80031909372E+02  0.17878433701E+03  0.16883394074E+03  0.25859977810E+03  0.25500000920E-02 0.  1.
</event>
<event>
 5   0  0.3798925E-02  0.5975436E+03  0.7818609E-02  0.9910515E-01
        2   -1    0    0  501    0  0.00000000000E+00  0.00000000000E+00  0.58156438500E+03  0.58156438501E+03  0.25500000920E-02 0.  1.
       -2   -1    0    0    0  501  0.00000000000E+00  0.00000000000E+00 -0.15349047564E+03  0.15349047566E+03  0.25500000920E-02 0. -1.
    10030    2    1    2    0    0  0.00000000000E+00  0.00000000000E+00  0.42807390936E+03  0.73505486067E+03  0.59754361876E+03 0.  0.
        2    1    3    3  502    0 -0.51457921206E+02  0.13932224154E+03  0.53293666927E+03  0.55324506152E+03  0.25500000920E-02 0.  1.
       -2    1    3    3    0  502  0.51457921206E+02 -0.13932224154E+03 -0.10486275991E+03  0.18180979915E+03  0.25500000920E-02 0. -1.
</event>
<event>
 5   0  0.2276105E-02  0.5994114E+03  0.7818609E-02  0.9906628E-01
        1   -1    0    0  501    0  0.00000000000E+00  0.00000000000E+00  0.47953035382E+03  0.47953035385E+03  0.50400001928E-02 0.  1.
       -1   -1    0    0    0  501  0.00000000000E+00  0.00000000000E+00 -0.18731558609E+03  0.18731558616E+03  0.50400001928E-02 0. -1.
    10030    2    1    2    0    0  0.00000000000E+00  0.00000000000E+00  0.29221476773E+03  0.66684594001E+03  0.59941140899E+03 0.  0.
        1    1    3    3  502    0 -0.14955837671E+03  0.25599443058E+03  0.19488841014E+03  0.35479902616E+03  0.50400001928E-02 0.  1.
       -1    1    3    3    0  502  0.14955837671E+03 -0.25599443058E+03  0.97326357595E+02  0.31204691385E+03  0.50400001928E-02 0. -1.
</event>
<event>
 5   0  0.3798925E-02  0.5997278E+03  0.7818609E-02  0.9905971E-01
        2   -1    0    0  501    0  0.00000000000E+00  0.00000000000E+00  0.23539306247E+03  0.23539306248E+03  0.25500000920E-02 0. -1.
       -2   -1    0    0    0  501  0.00000000000E+00  0.00000000000E+00 -0.38199239496E+03  0.38199239497E+03  0.25500000920E-02 0.  1.
    10030    2    1    2    0    0  0.00000000000E+00  0.00000000000E+00 -0.14659933249E+03  0.61738545745E+03  0.59972780391E+03 0.  0.
        2    1    3    3  502    0  0.13315357039E+01 -0.24166664045E+03 -0.25604771471E+03  0.35208659490E+03  0.25500000920E-02 0. -1.
       -2    1    3    3    0  502 -0.13315357039E+01  0.24166664045E+03  0.10944838222E+03  0.26529886255E+03  0.25500000920E-02 0.  1.
</event>
<event>
 5   0  0.3737642E-02  0.6013436E+03  0.7818609E-02  0.9902623E-01
        2   -1    0    0  501    0  0.00000000000E+00  0.00000000000E+00  0.33839068311E+03  0.33839068312E+03  0.25500000920E-02 0. -1.
       -2   -1    0    0    0  501  0.00000000000E+00  0.00000000000E+00 -0.26715723806E+03  0.26715723807E+03  0.25500000920E-02 0.  1.
    10030    2    1    2    0    0  0.00000000000E+00  0.00000000000E+00  0.71233445058E+02  0.60554792119E+03  0.60134356333E+03 0.  0.
        5    1    3    3  502    0  0.12120399814E+03 -0.26167777143E+03 -0.49922843628E+02  0.29271153981E+03  0.46999998093E+01 0.  1.
       -5    1    3    3    0  502 -0.12120399814E+03  0.26167777143E+03  0.12115628869E+03  0.31283638138E+03  0.46999998093E+01 0. -1.
</event>
<event>
 5   0  0.3737642E-02  0.5906637E+03  0.7818609E-02  0.9924967E-01
        2   -1    0    0  501    0  0.00000000000E+00  0.00000000000E+00  0.15778244099E+04  0.15778244099E+04  0.25500000920E-02 0.  1.
       -2   -1    0    0    0  501  0.00000000000E+00  0.00000000000E+00 -0.55279226925E+02  0.55279226984E+02  0.25500000920E-02 0. -1.
    10030    2    1    2    0    0  0.00000000000E+00  0.00000000000E+00  0.15225451829E+04  0.16331036369E+04  0.59066374072E+03 0.  0.
        5    1    3    3  502    0  0.29056780798E+03  0.51296484257E+02  0.72881126240E+03  0.78628806842E+03  0.46999998093E+01 0. -1.
       -5    1    3    3    0  502 -0.29056780798E+03 -0.51296484257E+02  0.79373392054E+03  0.84681556843E+03  0.46999998093E+01 0.  1.
</event>
<event>
 5   0  0.1521750E-02  0.5993649E+03  0.7818609E-02  0.9906724E-01
        4   -1    0    0  501    0  0.00000000000E+00  0.00000000000E+00  0.12892411247E+03  0.12893036755E+03  0.12699999809E+01 0.  1.
       -4   -1    0    0    0  501  0.00000000000E+00  0.00000000000E+00 -0.69658437416E+03  0.69658553188E+03  0.12699999809E+01 0. -1.
    10030    2    1    2    0    0  0.00000000000E+00  0.00000000000E+00 -0.56766026169E+03  0.82551589943E+03  0.59936493683E+03 0.  0.
        2    1    3    3  502    0  0.45077805360E+02  0.24758127042E+03 -0.50796117816E+03  0.56688010419E+03  0.25500000920E-02 0. -1.
       -2    1    3    3    0  502 -0.45077805360E+02 -0.24758127042E+03 -0.59699083531E+02  0.25863579524E+03  0.25500000920E-02 0.  1.
</event>
<event>
 5   0  0.2276105E-02  0.5960648E+03  0.7818609E-02  0.9913604E-01
        1   -1    0    0  501    0  0.00000000000E+00  0.00000000000E+00  0.25232461183E+03  0.25232461188E+03  0.50400001928E-02 0. -1.
       -1   -1    0    0    0  501  0.00000000000E+00  0.00000000000E+00 -0.35201996241E+03  0.35201996245E+03  0.50400001928E-02 0.  1.
    10030    2    1    2    0    0  0.00000000000E+00  0.00000000000E+00 -0.99695350585E+02  0.60434457432E+03  0.59606476291E+03 0.  0.
        1    1    3    3  502    0  0.78592695506E+02  0.27072108208E+03 -0.14792076241E+03  0.31835085684E+03  0.50400001928E-02 0. -1.
       -1    1    3    3    0  502 -0.78592695506E+02 -0.27072108208E+03  0.48225411824E+02  0.28599371749E+03  0.50400001928E-02 0.  1.
</event>
<event>
 5   0  0.1521750E-02  0.6027630E+03  0.7818609E-02  0.9899690E-01
       -3   -1    0    0    0  501  0.00000000000E+00  0.00000000000E+00  0.13305069939E+03  0.13305073773E+03  0.10100000352E+00 0. -1.
        3   -1    0    0  501    0  0.00000000000E+00  0.00000000000E+00 -0.68267809611E+03  0.68267810358E+03  0.10100000352E+00 0.  1.
    10030    2    1    2    0    0  0.00000000000E+00  0.00000000000E+00 -0.54962739671E+03  0.81572884131E+03  0.60276302750E+03 0.  0.
        3    1    3    3  502    0  0.18964892707E+03 -0.95942421887E+02  0.14362862861E+02  0.21302104565E+03  0.10100000352E+00 0. -1.
       -3    1    3    3    0  502 -0.18964892707E+03  0.95942421887E+02 -0.56399025957E+03  0.60270779566E+03  0.10100000352E+00 0.  1.
</event>
<event>
 5   0  0.2276105E-02  0.5869998E+03  0.7818609E-02  0.9932751E-01
       -1   -1    0    0    0  501  0.00000000000E+00  0.00000000000E+00  0.17045158473E+03  0.17045158480E+03  0.50400001928E-02 0.  1.
        1   -1    0    0  501    0  0.00000000000E+00  0.00000000000E+00 -0.50537628558E+03  0.50537628561E+03  0.50400001928E-02 0. -1.
    10030    2    1    2    0    0  0.00000000000E+00  0.00000000000E+00 -0.33492470086E+03  0.67582787041E+03  0.58699979146E+03 0.  0.
        1    1    3    3  502    0  0.18985015087E+03 -0.13854324679E+03 -0.36986288988E+03  0.43821897307E+03  0.50400001928E-02 0. -1.
       -1    1    3    3    0  502 -0.18985015087E+03  0.13854324679E+03  0.34938189029E+02  0.23760889734E+03  0.50400001928E-02 0.  1.
</event>
<event>
 5   0  0.2295179E-02  0.6295663E+03  0.7818609E-02  0.9845895E-01
        1   -1    0    0  501    0  0.00000000000E+00  0.00000000000E+00  0.77483702464E+03  0.77483702466E+03  0.50400001928E-02 0. -1.
       -1   -1    0    0    0  501  0.00000000000E+00  0.00000000000E+00 -0.12788293426E+03  0.12788293436E+03  0.50400001928E-02 0.  1.
    10030    2    1    2    0    0  0.00000000000E+00  0.00000000000E+00  0.64695409038E+03  0.90271995902E+03  0.62956630259E+03 0.  0.
        3    1    3    3  502    0 -0.13472430730E+03  0.76982903145E+02 -0.69235930931E+02  0.16991359771E+03  0.10100000352E+00 0.  1.
       -3    1    3    3    0  502  0.13472430730E+03 -0.76982903145E+02  0.71619002131E+03  0.73280636131E+03  0.10100000352E+00 0. -1.
</event>
<event>
 5   0  0.3934634E-02  0.5981645E+03  0.7818609E-02  0.9909221E-01
        2   -1    0    0  501    0  0.00000000000E+00  0.00000000000E+00  0.27430130508E+03  0.27430130510E+03  0.25500000920E-02 0. -1.
       -2   -1    0    0    0  501  0.00000000000E+00  0.00000000000E+00 -0.32610198872E+03  0.32610198873E+03  0.25500000920E-02 0.  1.
    10030    2    1    2    0    0  0.00000000000E+00  0.00000000000E+00 -0.51800683633E+02  0.60040329382E+03  0.59816452955E+03 0.  0.
        1    1    3    3  502    0 -0.95936935599E+02 -0.12935543250E+03  0.22706169877E+03  0.27837697211E+03  0.50400001928E-02 0. -1.
       -1    1    3    3    0  502  0.95936935599E+02  0.12935543250E+03 -0.27886238240E+03  0.32202632171E+03  0.50400001928E-02 0.  1.
</event>
<event>
 5   0  0.2295179E-02  0.5916310E+03  0.7818609E-02  0.9922923E-01
        1   -1    0    0  501    0  0.00000000000E+00  0.00000000000E+00  0.65447777786E+03  0.65447777788E+03  0.50400001928E-02 0.  1.
       -1   -1    0    0    0  501  0.00000000000E+00  0.00000000000E+00 -0.13370480671E+03  0.13370480680E+03  0.50400001928E-02 0. -1.
    10030    2    1    2    0    0  0.00000000000E+00  0.00000000000E+00  0.52077297115E+03  0.78818258468E+03  0.59163104999E+03 0.  0.
        3    1    3    3  502    0 -0.15003857348E+03 -0.10839223099E+03 -0.47025545263E+02  0.19097607541E+03  0.10100000352E+00 0. -1.
       -3    1    3    3    0  502  0.15003857348E+03  0.10839223099E+03  0.56779851641E+03  0.59720650927E+03  0.10100000352E+00 0.  1.
</event>
<event>
 5   0  0.3934634E-02  0.5979805E+03  0.7818609E-02  0.9909605E-01
        2   -1    0    0  501    0  0.00000000000E+00  0.00000000000E+00  0.55760363621E+03  0.55760363622E+03  0.25500000920E-02 0. -1.
       -2   -1    0    0    0  501  0.00000000000E+00  0.00000000000E+00 -0.16032027901E+03  0.16032027903E+03  0.25500000920E-02 0.  1.
    10030    2    1    2    0    0  0.00000000000E+00  0.00000000000E+00  0.39728335720E+03  0.71792391525E+03  0.59798050318E+03 0.  0.
        1    1    3    3  502    0 -0.19104819028E+03  0.14185725900E+03  0.41598420383E+03  0.47923454676E+03  0.50400001928E-02 0. -1.
       -1    1    3    3    0  502  0.19104819028E+03 -0.14185725900E+03 -0.18700846632E+02  0.23868936849E+03  0.50400001928E-02 0.  1.
</event>
<event>
 5   0  0.3832191E-02  0.5927569E+03  0.7818609E-02  0.9920548E-01
       -2   -1    0    0    0  501  0.00000000000E+00  0.00000000000E+00  0.11877172237E+03  0.11877172240E+03  0.25500000920E-02 0.  1.
        2   -1    0    0  501    0  0.00000000000E+00  0.00000000000E+00 -0.73957156736E+03  0.73957156737E+03  0.25500000920E-02 0. -1.
    10030    2    1    2    0    0  0.00000000000E+00  0.00000000000E+00 -0.62079984499E+03  0.85834328977E+03  0.59275691101E+03 0.  0.
        3    1    3    3  502    0 -0.60548793764E+02  0.22054310198E+03 -0.58336752058E+03  0.62659643354E+03  0.10100000352E+00 0.  1.
       -3    1    3    3    0  502  0.60548793764E+02 -0.22054310198E+03 -0.37432324405E+02  0.23174685622E+03  0.10100000352E+00 0. -1.
</event>
<event>
 5   0  0.3798925E-02  0.5986256E+03  0.7818609E-02  0.9908262E-01
        2   -1    0    0  501    0  0.00000000000E+00  0.00000000000E+00  0.71160076935E+03  0.71160076936E+03  0.25500000920E-02 0. -1.
       -2   -1    0    0    0  501  0.00000000000E+00  0.00000000000E+00 -0.12589662971E+03  0.12589662974E+03  0.25500000920E-02 0.  1.
    10030    2    1    2    0    0  0.00000000000E+00  0.00000000000E+00  0.58570413964E+03  0.83749739909E+03  0.59862555433E+03 0.  0.
        2    1    3    3  502    0 -0.70024354473E+02 -0.32548889003E+01 -0.11425026832E+03  0.13404151722E+03  0.25500000920E-02 0.  1.
       -2    1    3    3    0  502  0.70024354473E+02  0.32548889003E+01  0.69995440796E+03  0.70345588188E+03  0.25500000920E-02 0. -1.
</event>
<event>
 5   0  0.2225808E-02  0.6028811E+03  0.7818609E-02  0.9899447E-01
        1   -1    0    0  501    0  0.00000000000E+00  0.00000000000E+00  0.48954149454E+03  0.48954149457E+03  0.50400001928E-02 0. -1.
       -1   -1    0    0    0  501  0.00000000000E+00  0.00000000000E+00 -0.18561534253E+03  0.18561534260E+03  0.50400001928E-02 0.  1.
    10030    2    1    2    0    0  0.00000000000E+00  0.00000000000E+00  0.30392615201E+03  0.67515683716E+03  0.60288112335E+03 0.  0.
        2    1    3    3  502    0 -0.24402122286E+03 -0.45218811279E+02  0.34357554450E+03  0.42383399213E+03  0.25500000920E-02 0. -1.
       -2    1    3    3    0  502  0.24402122286E+03  0.45218811279E+02 -0.39649392489E+02  0.25132284503E+03  0.25500000920E-02 0.  1.
</event>
<event>
 5   0  0.3737642E-02  0.6005560E+03  0.7818609E-02  0.9904253E-01
       -2   -1    0    0    0  501  0.00000000000E+00  0.00000000000E+00  0.10526559884E+03  0.10526559887E+03  0.25500000920E-02 0. -1.
        2   -1    0    0  501    0  0.00000000000E+00  0.00000000000E+00 -0.85656559829E+03  0.85656559829E+03  0.25500000920E-02 0.  1.
    10030    2    1    2    0    0  0.00000000000E+00  0.00000000000E+00 -0.75129999945E+03  0.96183119717E+03  0.60055604457E+03 0.  0.
        5    1    3    3  502    0 -0.12539088963E+03  0.16200366759E+03 -0.72718130650E+03  0.75550169161E+03  0.46999998093E+01 0.  1.
       -5    1    3    3    0  502  0.12539088963E+03 -0.16200366759E+03 -0.24118692953E+02  0.20632950555E+03  0.46999998093E+01 0. -1.
</event>
<event>
 5   0  0.2382531E-02  0.5972177E+03  0.7818609E-02  0.9911195E-01
       -1   -1    0    0    0  501  0.00000000000E+00  0.00000000000E+00  0.12323776639E+03  0.12323776649E+03  0.50400001928E-02 0.  1.
        1   -1    0    0  501    0  0.00000000000E+00  0.00000000000E+00 -0.72353831186E+03  0.72353831188E+03  0.50400001928E-02 0. -1.
    10030    2    1    2    0    0  0.00000000000E+00  0.00000000000E+00 -0.60030054548E+03  0.84677607837E+03  0.59721770068E+03 0.  0.
        5    1    3    3  502    0 -0.59857384080E+02 -0.49637416583E+02 -0.70887619039E+03  0.71314397063E+03  0.46999998093E+01 0. -1.
       -5    1    3    3    0  502  0.59857384080E+02  0.49637416583E+02  0.10857564491E+03  0.13363210774E+03  0.46999998093E+01 0.  1.
</event>
<event>
 5   0  0.3737642E-02  0.5995859E+03  0.7818609E-02  0.9906265E-01
       -2   -1    0    0    0  501  0.00000000000E+00  0.00000000000E+00  0.59301537365E+02  0.59301537419E+02  0.25500000920E-02 0. -1.
        2   -1    0    0  501    0  0.00000000000E+00  0.00000000000E+00 -0.15155732189E+04  0.15155732189E+04  0.25500000920E-02 0.  1.
    10030    2    1    2    0    0  0.00000000000E+00  0.00000000000E+00 -0.14562716815E+04  0.15748747563E+04  0.59958593017E+03 0.  0.
        5    1    3    3  502    0 -0.24578930908E+02 -0.29843393337E+03 -0.69223721896E+03  0.75424226462E+03  0.46999998093E+01 0. -1.
       -5    1    3    3    0  502  0.24578930908E+02  0.29843393337E+03 -0.76403446258E+03  0.82063249170E+03  0.46999998093E+01 0.  1.
</event>
<event>
 5   0  0.3934634E-02  0.5978407E+03  0.7818609E-02  0.9909896E-01
        2   -1    0    0  501    0  0.00000000000E+00  0.00000000000E+00  0.99922437257E+03  0.99922437258E+03  0.25500000920E-02 0. -1.
       -2   -1    0    0    0  501  0.00000000000E+00  0.00000000000E+00 -0.89422725996E+02  0.89422726032E+02  0.25500000920E-02 0.  1.
    10030    2    1    2    0    0  0.00000000000E+00  0.00000000000E+00  0.90980164658E+03  0.10886470986E+04  0.59784067208E+03 0.  0.
        1    1    3    3  502    0  0.17251741430E+03 -0.19807372458E+03  0.19508341711E+03  0.32718954485E+03  0.50400001928E-02 0.  1.
       -1    1    3    3    0  502 -0.17251741430E+03  0.19807372458E+03  0.71471822947E+03  0.76145755375E+03  0.50400001928E-02 0. -1.
</event>
<event>
 5   0  0.3724066E-02  0.5960849E+03  0.7818609E-02  0.9913562E-01
        2   -1    0    0  501    0  0.00000000000E+00  0.00000000000E+00  0.87650949696E+03  0.87650949696E+03  0.25500000920E-02 0.  1.
       -2   -1    0    0    0  501  0.00000000000E+00  0.00000000000E+00 -0.10134436724E+03  0.10134436727E+03  0.25500000920E-02 0. -1.
    10030    2    1    2    0    0  0.00000000000E+00  0.00000000000E+00  0.77516512972E+03  0.97785386423E+03  0.59608489451E+03 0.  0.
        4    1    3    3  502    0 -0.25311287140E+03  0.13232860520E+03  0.52726952597E+03  0.59965969628E+03  0.12699999809E+01 0.  1.
       -4    1    3    3    0  502  0.25311287140E+03 -0.13232860520E+03  0.24789560375E+03  0.37819416796E+03  0.12699999809E+01 0. -1.
</event>
<event>
 5   0  0.2225808E-02  0.6005490E+03  0.7818609E-02  0.9904268E-01
        1   -1    0    0  501    0  0.00000000000E+00  0.00000000000E+00  0.12121180927E+04  0.12121180927E+04  0.50400001928E-02 0. -1.
       -1   -1    0    0    0  501  0.00000000000E+00  0.00000000000E+00 -0.74386126756E+02  0.74386126927E+02  0.50400001928E-02 0.  1.
    10030    2    1    2    0    0  0.00000000000E+00  0.00000000000E+00  0.11377319659E+04  0.12865042196E+04  0.60054898286E+03 0.  0.
        2    1    3    3  502    0 -0.14156602250E+03  0.49965833887E+02  0.11778201629E+02  0.15058635172E+03  0.25500000920E-02 0.  1.
       -2    1    3    3    0  502  0.14156602250E+03 -0.49965833887E+02  0.11259537643E+04  0.11359178679E+04  0.25500000920E-02 0. -1.
</event>
<event>
 5   0  0.2225808E-02  0.5978990E+03  0.7818609E-02  0.9909775E-01
        1   -1    0    0  501    0  0.00000000000E+00  0.00000000000E+00  0.85566108010E+03  0.85566108011E+03  0.50400001928E-02 0. -1.
       -1   -1    0    0    0  501  0.00000000000E+00  0.00000000000E+00 -0.10444650083E+03  0.10444650095E+03  0.50400001928E-02 0.  1.
    10030    2    1    2    0    0  0.00000000000E+00  0.00000000000E+00  0.75121457926E+03  0.96010758106E+03  0.59789900745E+03 0.  0.
        2    1    3    3  502    0  0.26788329861E+03 -0.48993581337E+02  0.57364231674E+03  0.63500184271E+03  0.25500000920E-02 0. -1.
       -2    1    3    3    0  502 -0.26788329861E+03  0.48993581337E+02  0.17757226253E+03  0.32510573836E+03  0.25500000920E-02 0.  1.
</event>
<event>
 5   0  0.3737642E-02  0.5988129E+03  0.7818609E-02  0.9907872E-01
        2   -1    0    0  501    0  0.00000000000E+00  0.00000000000E+00  0.38977322679E+03  0.38977322680E+03  0.25500000920E-02 0. -1.
       -2   -1    0    0    0  501  0.00000000000E+00  0.00000000000E+00 -0.22999069250E+03  0.22999069251E+03  0.25500000920E-02 0.  1.
    10030    2    1    2    0    0  0.00000000000E+00  0.00000000000E+00  0.15978253429E+03  0.61976391931E+03  0.59881287345E+03 0.  0.
        5    1    3    3  502    0  0.13721077810E+03  0.17895507816E+03 -0.12389989201E+03  0.25734216690E+03  0.46999998093E+01 0.  1.
       -5    1    3    3    0  502 -0.13721077810E+03 -0.17895507816E+03  0.28368242630E+03  0.36242175241E+03  0.46999998093E+01 0. -1.
</event>
<event>
 5   0  0.3832191E-02  0.5986055E+03  0.7818609E-02  0.9908303E-01
       -2   -1    0    0    0  501  0.00000000000E+00  0.00000000000E+00  0.17955075563E+03  0.17955075565E+03  0.25500000920E-02 0. -1.
        2   -1    0    0  501    0  0.00000000000E+00  0.00000000000E+00 -0.49892374684E+03  0.49892374685E+03  0.25500000920E-02 0.  1.
    10030    2    1    2    0    0  0.00000000000E+00  0.00000000000E+00 -0.31937299121E+03  0.67847450250E+03  0.59860549867E+03 0.  0.
        3    1    3    3  502    0 -0.61260399425E+02  0.14220517517E+02  0.17197752467E+03  0.18311564338E+03  0.10100000352E+00 0. -1.
       -3    1    3    3    0  502  0.61260399425E+02 -0.14220517517E+02 -0.49135051588E+03  0.49535885913E+03  0.10100000352E+00 0.  1.
</event>
<event>
 5   0  0.2225808E-02  0.5983418E+03  0.7818609E-02  0.9908852E-01
        1   -1    0    0  501    0  0.00000000000E+00  0.00000000000E+00  0.90105512859E+03  0.90105512861E+03  0.50400001928E-02 0. -1.
       -1   -1    0    0    0  501  0.00000000000E+00  0.00000000000E+00 -0.99331586016E+02  0.99331586144E+02  0.50400001928E-02 0.  1.
    10030    2    1    2    0    0  0.00000000000E+00  0.00000000000E+00  0.80172354258E+03  0.10003867148E+04  0.59834182566E+03 0.  0.
        2    1    3    3  502    0 -0.46127921987E+02 -0.96000305400E+02  0.86828375855E+03  0.87479170617E+03  0.25500000920E-02 0. -1.
       -2    1    3    3    0  502  0.46127921987E+02  0.96000305400E+02 -0.66560215970E+02  0.12559500858E+03  0.25500000920E-02 0.  1.
</event>
<event>
 5   0  0.3724066E-02  0.6026022E+03  0.7818609E-02  0.9900022E-01
        2   -1    0    0  501    0  0.00000000000E+00  0.00000000000E+00  0.30786740783E+03  0.30786740784E+03  0.25500000920E-02 0.  1.
       -2   -1    0    0    0  501  0.00000000000E+00  0.00000000000E+00 -0.29487484824E+03  0.29487484825E+03  0.25500000920E-02 0. -1.
    10030    2    1    2    0    0  0.00000000000E+00  0.00000000000E+00  0.12992559591E+02  0.60274225609E+03  0.60260220766E+03 0.  0.
        4    1    3    3  502    0  0.88948416300E+02 -0.28682008077E+03 -0.18068800343E+02  0.30084160939E+03  0.12699999809E+01 0. -1.
       -4    1    3    3    0  502 -0.88948416300E+02  0.28682008077E+03  0.31061359934E+02  0.30190064670E+03  0.12699999809E+01 0.  1.
</event>
<event>
 5   0  0.2225808E-02  0.5995971E+03  0.7818609E-02  0.9906242E-01
       -1   -1    0    0    0  501  0.00000000000E+00  0.00000000000E+00  0.10111526379E+03  0.10111526392E+03  0.50400001928E-02 0.  1.
        1   -1    0    0  501    0  0.00000000000E+00  0.00000000000E+00 -0.88887850602E+03  0.88887850603E+03  0.50400001928E-02 0. -1.
    10030    2    1    2    0    0  0.00000000000E+00  0.00000000000E+00 -0.78776324223E+03  0.98999376995E+03  0.59959714703E+03 0.  0.
        2    1    3    3  502    0 -0.38095034831E+02 -0.28696017707E+03 -0.26511914493E+03  0.39253730513E+03  0.25500000920E-02 0. -1.
       -2    1    3    3    0  502  0.38095034831E+02  0.28696017707E+03 -0.52264409730E+03  0.59745646482E+03  0.25500000920E-02 0.  1.
</event>
<event>
 5   0  0.1521750E-02  0.5977924E+03  0.7818609E-02  0.9909997E-01
       -3   -1    0    0    0  501  0.00000000000E+00  0.00000000000E+00  0.15043965999E+03  0.15043969389E+03  0.10100000352E+00 0. -1.
        3   -1    0    0  501    0  0.00000000000E+00  0.00000000000E+00 -0.59385213796E+03  0.59385214655E+03  0.10100000352E+00 0.  1.
    10030    2    1    2    0    0  0.00000000000E+00  0.00000000000E+00 -0.44341247797E+03  0.74429184044E+03  0.59779237041E+03 0.  0.
        1    1    3    3  502    0 -0.77161170945E+02 -0.92507997644E+02  0.11887685223E+03  0.16924326265E+03  0.50400001928E-02 0. -1.
       -1    1    3    3    0  502  0.77161170945E+02  0.92507997644E+02 -0.56228933021E+03  0.57504857779E+03  0.50400001928E-02 0.  1.
</event>
<event>
 5   0  0.2295179E-02  0.6252566E+03  0.7818609E-02  0.9854349E-01
       -1   -1    0    0    0  501  0.00000000000E+00  0.00000000000E+00  0.28258155596E+03  0.28258155601E+03  0.50400001928E-02 0.  1.
        1   -1    0    0  501    0  0.00000000000E+00  0.00000000000E+00 -0.34586986163E+03  0.34586986167E+03  0.50400001928E-02 0. -1.
    10030    2    1    2    0    0  0.00000000000E+00  0.00000000000E+00 -0.63288305671E+02  0.62845141768E+03  0.62525656714E+03 0.  0.
        3    1    3    3  502    0  0.13221003964E+03 -0.46564195380E+02  0.24922729015E+03  0.28594050295E+03  0.10100000352E+00 0.  1.
       -3    1    3    3    0  502 -0.13221003964E+03  0.46564195380E+02 -0.31251559582E+03  0.34251091472E+03  0.10100000352E+00 0. -1.
</event>
<event>
 5   0  0.3934634E-02  0.5921089E+03  0.7818609E-02  0.9921914E-01
        2   -1    0    0  501    0  0.00000000000E+00  0.00000000000E+00  0.13218266868E+04  0.13218266868E+04  0.25500000920E-02 0. -1.
       -2   -1    0    0    0  501  0.00000000000E+00  0.00000000000E+00 -0.66308427982E+02  0.66308428031E+02  0.25500000920E-02 0.  1.
    10030    2    1    2    0    0  0.00000000000E+00  0.00000000000E+00  0.12555182588E+04  0.13881351148E+04  0.59210894166E+03 0.  0.
        1    1    3    3  502    0 -0.26884788914E+03  0.11976163933E+03  0.55265762272E+03  0.62614094717E+03  0.50400001928E-02 0.  1.
       -1    1    3    3    0  502  0.26884788914E+03 -0.11976163933E+03  0.70286063606E+03  0.76199416763E+03  0.50400001928E-02 0. -1.
</event>
<event>
 5   0  0.2225808E-02  0.5982537E+03  0.7818609E-02  0.9909036E-01
       -1   -1    0    0    0  501  0.00000000000E+00  0.00000000000E+00  0.13596479874E+04  0.13596479874E+04  0.50400001928E-02 0.  1.
        1   -1    0    0  501    0  0.00000000000E+00  0.00000000000E+00 -0.65808848648E+02  0.65808848841E+02  0.50400001928E-02 0. -1.
    10030    2    1    2    0    0  0.00000000000E+00  0.00000000000E+00  0.12938391387E+04  0.14254568362E+04  0.59825368787E+03 0.  0.
        2    1    3    3  502    0  0.83264803370E+02 -0.26275316348E+03  0.92381118935E+03  0.96405361157E+03  0.25500000920E-02 0.  1.
       -2    1    3    3    0  502 -0.83264803370E+02  0.26275316348E+03  0.37002794939E+03  0.46140322467E+03  0.25500000920E-02 0. -1.
</event>
<event>
 5   0  0.3934634E-02  0.5994558E+03  0.7818609E-02  0.9906536E-01
       -2   -1    0    0    0  501  0.00000000000E+00  0.00000000000E+00  0.19868150441E+03  0.19868150443E+03  0.25500000920E-02 0. -1.
        2   -1    0    0  501    0  0.00000000000E+00  0.00000000000E+00 -0.45216494102E+03  0.45216494103E+03  0.25500000920E-02 0.  1.
    10030    2    1    2    0    0  0.00000000000E+00  0.00000000000E+00 -0.25348343661E+03  0.65084644546E+03  0.59945578897E+03 0.  0.
        1    1    3    3  502    0 -0.42016990295E+02 -0.17304115618E+03 -0.38850853861E+03  0.42737285104E+03  0.50400001928E-02 0.  1.
       -1    1    3    3    0  502  0.42016990295E+02  0.17304115618E+03  0.13502510201E+03  0.22347359442E+03  0.50400001928E-02 0. -1.
</event>
<event>
 5   0  0.1521750E-02  0.6015529E+03  0.7818609E-02  0.9902190E-01
        3   -1    0    0  501    0  0.00000000000E+00  0.00000000000E+00  0.88229388206E+03  0.88229388784E+03  0.10100000352E+00 0.  1.
       -3   -1    0    0    0  501  0.00000000000E+00  0.00000000000E+00 -0.10253549409E+03  0.10253554383E+03  0.10100000352E+00 0. -1.
    10030    2    1    2    0    0  0.00000000000E+00  0.00000000000E+00  0.77975838797E+03  0.98482943168E+03  0.60155287871E+03 0.  0.
        3    1    3    3  502    0  0.13470363626E+03 -0.22594017157E+03  0.62865796660E+03  0.68147258193E+03  0.10100000352E+00 0.  1.
       -3    1    3    3    0  502 -0.13470363626E+03  0.22594017157E+03  0.15110042137E+03  0.30335684975E+03  0.10100000352E+00 0. -1.
</event>
<event>
 5   0  0.3832191E-02  0.5990078E+03  0.7818609E-02  0.9907467E-01
        2   -1    0    0  501    0  0.00000000000E+00  0.00000000000E+00  0.15243852623E+04  0.15243852623E+04  0.25500000920E-02 0. -1.
       -2   -1    0    0    0  501  0.00000000000E+00  0.00000000000E+00 -0.58845096915E+02  0.58845096971E+02  0.25500000920E-02 0.  1.
    10030    2    1    2    0    0  0.00000000000E+00  0.00000000000E+00  0.14655401654E+04  0.15832303593E+04  0.59900784150E+03 0.  0.
        3    1    3    3  502    0 -0.26442781951E+03 -0.34597207137E+02  0.37246039425E+03  0.45808928602E+03  0.10100000352E+00 0.  1.
       -3    1    3    3    0  502  0.26442781951E+03  0.34597207137E+02  0.10930797712E+04  0.11251410733E+04  0.10100000352E+00 0. -1.
</event>
<event>
 5   0  0.2276105E-02  0.5952532E+03  0.7818609E-02  0.9915303E-01
        1   -1    0    0  501    0  0.00000000000E+00  0.00000000000E+00  0.78442098715E+03  0.78442098716E+03  0.50400001928E-02 0.  1.
       -1   -1    0    0    0  501  0.00000000000E+00  0.00000000000E+00 -0.11292609690E+03  0.11292609701E+03  0.50400001928E-02 0. -1.
    10030    2    1    2    0    0  0.00000000000E+00  0.00000000000E+00  0.67149489025E+03  0.89734708418E+03  0.59525322498E+03 0.  0.
        1    1    3    3  502    0  0.14729944915E+02  0.16371096445E+03  0.70978896968E+03  0.72857301121E+03  0.50400001928E-02 0.  1.
       -1    1    3    3    0  502 -0.14729944915E+02 -0.16371096445E+03 -0.38294079437E+02  0.16877407296E+03  0.50400001928E-02 0. -1.
</event>
<event>
 5   0  0.2276105E-02  0.6005426E+03  0.7818609E-02  0.9904281E-01
       -1   -1    0    0    0  501  0.00000000000E+00  0.00000000000E+00  0.10823873961E+04  0.10823873961E+04  0.50400001928E-02 0.  1.
        1   -1    0    0  501    0  0.00000000000E+00  0.00000000000E+00 -0.83299985156E+02  0.83299985308E+02  0.50400001928E-02 0. -1.
    10030    2    1    2    0    0  0.00000000000E+00  0.00000000000E+00  0.99908741096E+03  0.11656873814E+04  0.60054260173E+03 0.  0.
        1    1    3    3  502    0  0.15854433388E+03  0.97022743085E+02  0.41795168041E+02  0.19051654673E+03  0.50400001928E-02 0. -1.
       -1    1    3    3    0  502 -0.15854433388E+03 -0.97022743085E+02  0.95729224291E+03  0.97517083470E+03  0.50400001928E-02 0.  1.
</event>
<event>
 5   0  0.3934634E-02  0.5947415E+03  0.7818609E-02  0.9916376E-01
        2   -1    0    0  501    0  0.00000000000E+00  0.00000000000E+00  0.69681723000E+03  0.69681723001E+03  0.25500000920E-02 0.  1.
       -2   -1    0    0    0  501  0.00000000000E+00  0.00000000000E+00 -0.12690466554E+03  0.12690466557E+03  0.25500000920E-02 0. -1.
    10030    2    1    2    0    0  0.00000000000E+00  0.00000000000E+00  0.56991256446E+03  0.82372189558E+03  0.59474148176E+03 0.  0.
        1    1    3    3  502    0  0.80735272249E+02 -0.60708542162E+02  0.67232715268E+03  0.67987315841E+03  0.50400001928E-02 0.  1.
       -1    1    3    3    0  502 -0.80735272249E+02  0.60708542162E+02 -0.10241458822E+03  0.14384873716E+03  0.50400001928E-02 0. -1.
</event>
<event>
 5   0  0.1521750E-02  0.6010929E+03  0.7818609E-02  0.9903141E-01
       -4   -1    0    0    0  501  0.00000000000E+00  0.00000000000E+00  0.10892112006E+03  0.10892852379E+03  0.12699999809E+01 0.  1.
        4   -1    0    0  501    0  0.00000000000E+00  0.00000000000E+00 -0.82926295928E+03  0.82926393177E+03  0.12699999809E+01 0. -1.
    10030    2    1    2    0    0  0.00000000000E+00  0.00000000000E+00 -0.72034183922E+03  0.93819245556E+03  0.60109293652E+03 0.  0.
        5    1    3    3  502    0  0.10802046456E+03  0.11067317515E+03 -0.76233081411E+03  0.77787359681E+03  0.46999998093E+01 0. -1.
       -5    1    3    3    0  502 -0.10802046456E+03 -0.11067317515E+03  0.41988974899E+02  0.16031885875E+03  0.46999998093E+01 0.  1.
</event>
<event>
 5   0  0.2276105E-02  0.5824814E+03  0.7818609E-02  0.9942433E-01
        1   -1    0    0  501    0  0.00000000000E+00  0.00000000000E+00  0.24397948161E+03  0.24397948166E+03  0.50400001928E-02 0.  1.
       -1   -1    0    0    0  501  0.00000000000E+00  0.00000000000E+00 -0.34765692527E+03  0.34765692530E+03  0.50400001928E-02 0. -1.
    10030    2    1    2    0    0  0.00000000000E+00  0.00000000000E+00 -0.10367744366E+03  0.59163640696E+03  0.58248143809E+03 0.  0.
        1    1    3    3  502    0  0.12719152718E+03  0.15861768439E+03 -0.26364413479E+03  0.33293465458E+03  0.50400001928E-02 0. -1.
       -1    1    3    3    0  502 -0.12719152718E+03 -0.15861768439E+03  0.15996669113E+03  0.25870175238E+03  0.50400001928E-02 0.  1.
</event>
<event>
 5   0  0.3832191E-02  0.6013509E+03  0.7818609E-02  0.9902607E-01
       -2   -1    0    0    0  501  0.00000000000E+00  0.00000000000E+00  0.16262918366E+03  0.16262918368E+03  0.25500000920E-02 0.  1.
        2   -1    0    0  501    0  0.00000000000E+00  0.00000000000E+00 -0.55590099575E+03  0.55590099576E+03  0.25500000920E-02 0. -1.
    10030    2    1    2    0    0  0.00000000000E+00  0.00000000000E+00 -0.39327181210E+03  0.71853017944E+03  0.60135089638E+03 0.  0.
        3    1    3    3  502    0  0.11306617394E+03  0.45896403926E+02 -0.52498396739E+03  0.53897923504E+03  0.10100000352E+00 0. -1.
       -3    1    3    3    0  502 -0.11306617394E+03 -0.45896403926E+02  0.13171215530E+03  0.17955094440E+03  0.10100000352E+00 0.  1.
</event>
<event>
 5   0  0.2309055E-02  0.5986921E+03  0.7818609E-02  0.9908123E-01
        1   -1    0    0  501    0  0.00000000000E+00  0.00000000000E+00  0.11509002900E+03  0.11509002911E+03  0.50400001928E-02 0. -1.
       -1   -1    0    0    0  501  0.00000000000E+00  0.00000000000E+00 -0.77859101230E+03  0.77859101231E+03  0.50400001928E-02 0.  1.
    10030    2    1    2    0    0  0.00000000000E+00  0.00000000000E+00 -0.66350098329E+03  0.89368104143E+03  0.59869211534E+03 0.  0.
        4    1    3    3  502    0 -0.21171360041E+03  0.83333359090E+02 -0.41381088702E+02  0.23125982084E+03  0.12699999809E+01 0. -1.
       -4    1    3    3    0  502  0.21171360041E+03 -0.83333359090E+02 -0.62211989459E+03  0.66242122058E+03  0.12699999809E+01 0.  1.
</event>
<event>
 5   0  0.2309055E-02  0.5697958E+03  0.7818609E-02  0.9970131E-01
       -1   -1    0    0    0  501  0.00000000000E+00  0.00000000000E+00  0.10984959533E+03  0.10984959544E+03  0.50400001928E-02 0. -1.
        1   -1    0    0  501    0  0.00000000000E+00  0.00000000000E+00 -0.73889049246E+03  0.73889049248E+03  0.50400001928E-02 0.  1.
    10030    2    1    2    0    0  0.00000000000E+00  0.00000000000E+00 -0.62904089713E+03  0.84874008792E+03  0.56979582885E+03 0.  0.
        4    1    3    3  502    0 -0.25483784127E+03  0.10122990728E+03 -0.19937718061E+03  0.33903199336E+03  0.12699999809E+01 0. -1.
       -4    1    3    3    0  502  0.25483784127E+03 -0.10122990728E+03 -0.42966371652E+03  0.50970809456E+03  0.12699999809E+01 0.  1.
</event>
<event>
 5   0  0.2309055E-02  0.6205380E+03  0.7818609E-02  0.9863689E-01
       -1   -1    0    0    0  501  0.00000000000E+00  0.00000000000E+00  0.10825527349E+03  0.10825527360E+03  0.50400001928E-02 0.  1.
        1   -1    0    0  501    0  0.00000000000E+00  0.00000000000E+00 -0.88925787561E+03  0.88925787562E+03  0.50400001928E-02 0. -1.
    10030    2    1    2    0    0  0.00000000000E+00  0.00000000000E+00 -0.78100260212E+03  0.99751314923E+03  0.62053800718E+03 0.  0.
        4    1    3    3  502    0 -0.25539037855E+03  0.27865942514E+02 -0.67015263170E+03  0.71770949477E+03  0.12699999809E+01 0. -1.
       -4    1    3    3    0  502  0.25539037855E+03 -0.27865942514E+02 -0.11084997043E+03  0.27980365446E+03  0.12699999809E+01 0.  1.
</event>
<event>
 5   0  0.3798925E-02  0.6023171E+03  0.7818609E-02  0.9900610E-01
       -2   -1    0    0    0  501  0.00000000000E+00  0.00000000000E+00  0.14047689450E+03  0.14047689452E+03  0.25500000920E-02 0.  1.
        2   -1    0    0  501    0  0.00000000000E+00  0.00000000000E+00 -0.64563268838E+03  0.64563268838E+03  0.25500000920E-02 0. -1.
    10030    2    1    2    0    0  0.00000000000E+00  0.00000000000E+00 -0.50515579388E+03  0.78610958291E+03  0.60231710938E+03 0.  0.
        2    1    3    3  502    0 -0.30310698723E+02  0.26456485204E+03 -0.43614966646E+03  0.51101842525E+03  0.25500000920E-02 0. -1.
       -2    1    3    3    0  502  0.30310698723E+02 -0.26456485204E+03 -0.69006127422E+02  0.27509115766E+03  0.25500000920E-02 0.  1.
</event>
<event>
 5   0  0.3724066E-02  0.5969542E+03  0.7818609E-02  0.9911745E-01
        2   -1    0    0  501    0  0.00000000000E+00  0.00000000000E+00  0.19340681005E+04  0.19340681005E+04  0.25500000920E-02 0. -1.
       -2   -1    0    0    0  501  0.00000000000E+00  0.00000000000E+00 -0.46062793403E+02  0.46062793473E+02  0.25500000920E-02 0.  1.
    10030    2    1    2    0    0  0.00000000000E+00  0.00000000000E+00  0.18880053071E+04  0.19801308940E+04  0.59695420063E+03 0.  0.
        4    1    3    3  502    0 -0.16922778025E+03 -0.82413952481E+02  0.17564125953E+03  0.25745206568E+03  0.12699999809E+01 0.  1.
       -4    1    3    3    0  502  0.16922778025E+03  0.82413952481E+02  0.17123640476E+04  0.17226788283E+04  0.12699999809E+01 0. -1.
</event>
<event>
 5   0  0.3832191E-02  0.5866462E+03  0.7818609E-02  0.9933505E-01
       -2   -1    0    0    0  501  0.00000000000E+00  0.00000000000E+00  0.14879826675E+03  0.14879826677E+03  0.25500000920E-02 0.  1.
        2   -1    0    0  501    0  0.00000000000E+00  0.00000000000E+00 -0.57822197887E+03  0.57822197887E+03  0.25500000920E-02 0. -1.
    10030    2    1    2    0    0  0.00000000000E+00  0.00000000000E+00 -0.42942371212E+03  0.72702024564E+03  0.58664615659E+03 0.  0.
        3    1    3    3  502    0  0.28023829982E+03 -0.52421938737E+02 -0.12923861479E+03  0.31302427078E+03  0.10100000352E+00 0.  1.
       -3    1    3    3    0  502 -0.28023829982E+03  0.52421938737E+02 -0.30018509732E+03  0.41399597486E+03  0.10100000352E+00 0. -1.
</event>
<event>
 5   0  0.2295179E-02  0.6018979E+03  0.7818609E-02  0.9901476E-01
        1   -1    0    0  501    0  0.00000000000E+00  0.00000000000E+00  0.10481182638E+03  0.10481182650E+03  0.50400001928E-02 0.  1.
       -1   -1    0    0    0  501  0.00000000000E+00  0.00000000000E+00 -0.86412258030E+03  0.86412258032E+03  0.50400001928E-02 0. -1.
    10030    2    1    2    0    0  0.00000000000E+00  0.00000000000E+00 -0.75931075392E+03  0.96893440682E+03  0.60189788478E+03 0.  0.
        3    1    3    3  502    0 -0.91596837167E+02  0.79619840787E+02 -0.82298164049E+03  0.83188225754E+03  0.10100000352E+00 0. -1.
       -3    1    3    3    0  502  0.91596837167E+02 -0.79619840787E+02  0.63670886566E+02  0.13705214928E+03  0.10100000352E+00 0.  1.
</event>
<event>
 5   0  0.3737642E-02  0.6243703E+03  0.7818609E-02  0.9856097E-01
       -2   -1    0    0    0  501  0.00000000000E+00  0.00000000000E+00  0.14610284224E+03  0.14610284227E+03  0.25500000920E-02 0. -1.
        2   -1    0    0  501    0  0.00000000000E+00  0.00000000000E+00 -0.66706139849E+03  0.66706139850E+03  0.25500000920E-02 0.  1.
    10030    2    1    2    0    0  0.00000000000E+00  0.00000000000E+00 -0.52095855625E+03  0.81316424076E+03  0.62437029488E+03 0.  0.
        5    1    3    3  502    0 -0.24216308631E+03 -0.19148571001E+03 -0.20040408252E+03  0.36809458539E+03  0.46999998093E+01 0.  1.
       -5    1    3    3    0  502  0.24216308631E+03  0.19148571001E+03 -0.32055447373E+03  0.44506965537E+03  0.46999998093E+01 0. -1.
</event>
<event>
 5   0  0.1521750E-02  0.5759667E+03  0.7818609E-02  0.9956561E-01
        3   -1    0    0  501    0  0.00000000000E+00  0.00000000000E+00  0.40674057412E+03  0.40674058666E+03  0.10100000352E+00 0. -1.
       -3   -1    0    0    0  501  0.00000000000E+00  0.00000000000E+00 -0.20390000407E+03  0.20390002908E+03  0.10100000352E+00 0.  1.
    10030    2    1    2    0    0  0.00000000000E+00  0.00000000000E+00  0.20284057005E+03  0.61064061574E+03  0.57596672190E+03 0.  0.
        4    1    3    3  502    0  0.60195512019E+02  0.11301718745E+03  0.37489552196E+03  0.39616240308E+03  0.12699999809E+01 0. -1.
       -4    1    3    3    0  502 -0.60195512019E+02 -0.11301718745E+03 -0.17205495191E+03  0.21447821266E+03  0.12699999809E+01 0.  1.
</event>
<event>
 5   0  0.3798925E-02  0.6022282E+03  0.7818609E-02  0.9900794E-01
        2   -1    0    0  501    0  0.00000000000E+00  0.00000000000E+00  0.31308633409E+03  0.31308633410E+03  0.25500000920E-02 0.  1.
       -2   -1    0    0    0  501  0.00000000000E+00  0.00000000000E+00 -0.28959970887E+03  0.28959970889E+03  0.25500000920E-02 0. -1.
    10030    2    1    2    0    0  0.00000000000E+00  0.00000000000E+00  0.23486625211E+02  0.60268604298E+03  0.60222823318E+03 0.  0.
        2    1    3    3  502    0 -0.27664297898E+03  0.61285428354E+02  0.11371517647E+03  0.30531685659E+03  0.25500000920E-02 0.  1.
       -2    1    3    3    0  502  0.27664297898E+03 -0.61285428354E+02 -0.90228551264E+02  0.29736918640E+03  0.25500000920E-02 0. -1.
</event>
<event>
 5   0  0.2295179E-02  0.5980887E+03  0.7818609E-02  0.9909379E-01
        1   -1    0    0  501    0  0.00000000000E+00  0.00000000000E+00  0.40387371620E+03  0.40387371623E+03  0.50400001928E-02 0.  1.
       -1   -1    0    0    0  501  0.00000000000E+00  0.00000000000E+00 -0.22142449541E+03  0.22142449546E+03  0.50400001928E-02 0. -1.
    10030    2    1    2    0    0  0.00000000000E+00  0.00000000000E+00  0.18244922080E+03  0.62529821170E+03  0.59808873538E+03 0.  0.
        3    1    3    3  502    0 -0.24675704891E+01 -0.94719318943E+02 -0.20531570065E+03  0.22612471209E+03  0.10100000352E+00 0. -1.
       -3    1    3    3    0  502  0.24675704891E+01  0.94719318943E+02  0.38776492144E+03  0.39917349961E+03  0.10100000352E+00 0.  1.
</event>
<event>
 5   0  0.3737642E-02  0.5936376E+03  0.7818609E-02  0.9918695E-01
       -2   -1    0    0    0  501  0.00000000000E+00  0.00000000000E+00  0.37382991579E+03  0.37382991580E+03  0.25500000920E-02 0.  1.
        2   -1    0    0  501    0  0.00000000000E+00  0.00000000000E+00 -0.23567239070E+03  0.23567239072E+03  0.25500000920E-02 0. -1.
    10030    2    1    2    0    0  0.00000000000E+00  0.00000000000E+00  0.13815752509E+03  0.60950230652E+03  0.59363756612E+03 0.  0.
        5    1    3    3  502    0 -0.22711071338E+03 -0.50036062620E+02 -0.12022992600E+03  0.26184004430E+03  0.46999998093E+01 0. -1.
       -5    1    3    3    0  502  0.22711071338E+03  0.50036062620E+02  0.25838745109E+03  0.34766226222E+03  0.46999998093E+01 0.  1.
</event>
<event>
 5   0  0.2382531E-02  0.5963490E+03  0.7818609E-02  0.9913010E-01
        1   -1    0    0  501    0  0.00000000000E+00  0.00000000000E+00  0.10210144470E+03  0.10210144483E+03  0.50400001928E-02 0.  1.
       -1   -1    0    0    0  501  0.00000000000E+00  0.00000000000E+00 -0.87078130308E+03  0.87078130310E+03  0.50400001928E-02 0. -1.
    10030    2    1    2    0    0  0.00000000000E+00  0.00000000000E+00 -0.76867985838E+03  0.97288274793E+03  0.59634898887E+03 0.  0.
        5    1    3    3  502    0 -0.64278611216E+02 -0.78094907447E+02  0.73194989515E+02  0.12494058955E+03  0.46999998093E+01 0.  1.
       -5    1    3    3    0  502  0.64278611216E+02  0.78094907447E+02 -0.84187484790E+03  0.84794215837E+03  0.46999998093E+01 0. -1.
</event>
<event>
 5   0  0.3737642E-02  0.5854530E+03  0.7818609E-02  0.9936055E-01
       -2   -1    0    0    0  501  0.00000000000E+00  0.00000000000E+00  0.59122574296E+02  0.59122574351E+02  0.25500000920E-02 0.  1.
        2   -1    0    0  501    0  0.00000000000E+00  0.00000000000E+00 -0.14493414742E+04  0.14493414742E+04  0.25500000920E-02 0. -1.
    10030    2    1    2    0    0  0.00000000000E+00  0.00000000000E+00 -0.13902188999E+04  0.15084640485E+04  0.58545298370E+03 0.  0.
        5    1    3    3  502    0  0.25501861649E+03  0.98834789706E+02 -0.96366602670E+03  0.10017370470E+04  0.46999998093E+01 0. -1.
       -5    1    3    3    0  502 -0.25501861649E+03 -0.98834789706E+02 -0.42655287318E+03  0.50672700148E+03  0.46999998093E+01 0.  1.
</event>
<event>
 5   0  0.3934634E-02  0.6035234E+03  0.7818609E-02  0.9898123E-01
        2   -1    0    0  501    0  0.00000000000E+00  0.00000000000E+00  0.91074822803E+03  0.91074822803E+03  0.25500000920E-02 0.  1.
       -2   -1    0    0    0  501  0.00000000000E+00  0.00000000000E+00 -0.99983870583E+02  0.99983870616E+02  0.25500000920E-02 0. -1.
    10030    2    1    2    0    0  0.00000000000E+00  0.00000000000E+00  0.81076435744E+03  0.10107320986E+04  0.60352343114E+03 0.  0.
        1    1    3    3  502    0  0.28497927694E+03  0.74632358858E+02  0.29585817847E+03  0.41751076521E+03  0.50400001928E-02 0.  1.
       -1    1    3    3    0  502 -0.28497927694E+03 -0.74632358858E+02  0.51490617897E+03  0.59322133344E+03  0.50400001928E-02 0. -1.
</event>
<event>
 5   0  0.3724066E-02  0.5994196E+03  0.7818609E-02  0.9906611E-01
       -2   -1    0    0    0  501  0.00000000000E+00  0.00000000000E+00  0.11777235677E+03  0.11777235680E+03  0.25500000920E-02 0.  1.
        2   -1    0    0  501    0  0.00000000000E+00  0.00000000000E+00 -0.76270847624E+03  0.76270847624E+03  0.25500000920E-02 0. -1.
    10030    2    1    2    0    0  0.00000000000E+00  0.00000000000E+00 -0.64493611947E+03  0.88048083305E+03  0.59941963529E+03 0.  0.
        4    1    3    3  502    0 -0.45124692261E+02 -0.14656003839E+02  0.11221714896E+03  0.12184144500E+03  0.12699999809E+01 0.  1.
       -4    1    3    3    0  502  0.45124692261E+02  0.14656003839E+02 -0.75715326843E+03  0.75863938804E+03  0.12699999809E+01 0. -1.
</event>
<event>
 5   0  0.2295179E-02  0.6006302E+03  0.7818609E-02  0.9904099E-01
       -1   -1    0    0    0  501  0.00000000000E+00  0.00000000000E+00  0.21572954899E+03  0.21572954905E+03  0.50400001928E-02 0.  1.
        1   -1    0    0  501    0  0.00000000000E+00  0.00000000000E+00 -0.41806586507E+03  0.41806586510E+03  0.50400001928E-02 0. -1.
    10030    2    1    2    0    0  0.00000000000E+00  0.00000000000E+00 -0.20233631608E+03  0.63379541415E+03  0.60063020420E+03 0.  0.
        3    1    3    3  502    0 -0.14805132096E+03  0.21576298269E+03  0.54333405775E+02  0.26725453695E+03  0.10100000352E+00 0.  1.
       -3    1    3    3    0  502  0.14805132096E+03 -0.21576298269E+03 -0.25666972185E+03  0.36654087720E+03  0.10100000352E+00 0. -1.
</event>
<event>
 5   0  0.2309055E-02  0.5955558E+03  0.7818609E-02  0.9914669E-01
        1   -1    0    0  501    0  0.00000000000E+00  0.00000000000E+00  0.27692207366E+03  0.27692207370E+03  0.50400001928E-02 0. -1.
       -1   -1    0    0    0  501  0.00000000000E+00  0.00000000000E+00 -0.32020443381E+03  0.32020443385E+03  0.50400001928E-02 0.  1.
    10030    2    1    2    0    0  0.00000000000E+00  0.00000000000E+00 -0.43282360151E+02  0.59712650755E+03  0.59555579363E+03 0.  0.
        4    1    3    3  502    0  0.11818606683E+03 -0.14758883286E+03  0.20900825253E+03  0.28184476668E+03  0.12699999809E+01 0. -1.
       -4    1    3    3    0  502 -0.11818606683E+03  0.14758883286E+03 -0.25229061268E+03  0.31528174087E+03  0.12699999809E+01 0.  1.
</event>
<event>
 5   0  0.3934634E-02  0.5934981E+03  0.7818609E-02  0.9918988E-01
       -2   -1    0    0    0  501  0.00000000000E+00  0.00000000000E+00  0.21851042920E+03  0.21851042922E+03  0.25500000920E-02 0.  1.
        2   -1    0    0  501    0  0.00000000000E+00  0.00000000000E+00 -0.40300135645E+03  0.40300135645E+03  0.25500000920E-02 0. -1.
    10030    2    1    2    0    0  0.00000000000E+00  0.00000000000E+00 -0.18449092724E+03  0.62151178567E+03  0.59349810235E+03 0.  0.
        1    1    3    3  502    0 -0.25304648237E+03  0.13644796129E+03 -0.15225053775E+02  0.28789298475E+03  0.50400001928E-02 0.  1.
       -1    1    3    3    0  502  0.25304648237E+03 -0.13644796129E+03 -0.16926587347E+03  0.33361880092E+03  0.50400001928E-02 0. -1.
</event>
<event>
 5   0  0.2309055E-02  0.6092611E+03  0.7818609E-02  0.9886376E-01
        1   -1    0    0  501    0  0.00000000000E+00  0.00000000000E+00  0.45162516149E+03  0.45162516152E+03  0.50400001928E-02 0. -1.
       -1   -1    0    0    0  501  0.00000000000E+00  0.00000000000E+00 -0.20547960184E+03  0.20547960190E+03  0.50400001928E-02 0.  1.
    10030    2    1    2    0    0  0.00000000000E+00  0.00000000000E+00  0.24614555965E+03  0.65710476342E+03  0.60926105536E+03 0.  0.
        4    1    3    3  502    0  0.80083785524E+02  0.29377156479E+03  0.11324689711E+03  0.32487169404E+03  0.12699999809E+01 0.  1.
       -4    1    3    3    0  502 -0.80083785524E+02 -0.29377156479E+03  0.13289866254E+03  0.33223306938E+03  0.12699999809E+01 0. -1.
</event>
<event>
 5   0  0.3724066E-02  0.6026624E+03  0.7818609E-02  0.9899898E-01
        2   -1    0    0  501    0  0.00000000000E+00  0.00000000000E+00  0.68166659707E+03  0.68166659707E+03  0.25500000920E-02 0.  1.
       -2   -1    0    0    0  501  0.00000000000E+00  0.00000000000E+00 -0.13320366941E+03  0.13320366943E+03  0.25500000920E-02 0. -1.
    10030    2    1    2    0    0  0.00000000000E+00  0.00000000000E+00  0.54846292766E+03  0.81487026650E+03  0.60266239987E+03 0.  0.
        4    1    3    3  502    0 -0.21001761861E+03  0.17397048829E+03  0.10094008571E+03  0.29079828873E+03  0.12699999809E+01 0. -1.
       -4    1    3    3    0  502  0.21001761861E+03 -0.17397048829E+03  0.44752284195E+03  0.52407197778E+03  0.12699999809E+01 0.  1.
</event>
<event>
 5   0  0.3737642E-02  0.6009631E+03  0.7818609E-02  0.9903410E-01
        2   -1    0    0  501    0  0.00000000000E+00  0.00000000000E+00  0.27977531529E+03  0.27977531530E+03  0.25500000920E-02 0.  1.
       -2   -1    0    0    0  501  0.00000000000E+00  0.00000000000E+00 -0.32272024374E+03  0.32272024375E+03  0.25500000920E-02 0. -1.
    10030    2    1    2    0    0  0.00000000000E+00  0.00000000000E+00 -0.42944928458E+02  0.60249555905E+03  0.60096308688E+03 0.  0.
        5    1    3    3  502    0  0.50885429540E+02 -0.20094364439E+02  0.27470252958E+03  0.28013689542E+03  0.46999998093E+01 0.  1.
       -5    1    3    3    0  502 -0.50885429540E+02  0.20094364439E+02 -0.31764745804E+03  0.32235866363E+03  0.46999998093E+01 0. -1.
</event>
<event>
 5   0  0.3737642E-02  0.5976825E+03  0.7818609E-02  0.9910226E-01
        2   -1    0    0  501    0  0.00000000000E+00  0.00000000000E+00  0.11885969082E+04  0.11885969082E+04  0.25500000920E-02 0.  1.
       -2   -1    0    0    0  501  0.00000000000E+00  0.00000000000E+00 -0.75135721243E+02  0.75135721286E+02  0.25500000920E-02 0. -1.
    10030    2    1    2    0    0  0.00000000000E+00  0.00000000000E+00  0.11134611869E+04  0.12637326295E+04  0.59768247755E+03 0.  0.
        5    1    3    3  502    0  0.12030528759E+03 -0.23540034285E+03  0.85121035658E+03  0.89132925722E+03  0.46999998093E+01 0.  1.
       -5    1    3    3    0  502 -0.12030528759E+03  0.23540034285E+03  0.26225083036E+03  0.37240337225E+03  0.46999998093E+01 0. -1.
</event>
<event>
 5   0  0.2225808E-02  0.6011912E+03  0.7818609E-02  0.9902938E-01
       -1   -1    0    0    0  501  0.00000000000E+00  0.00000000000E+00  0.36400671072E+03  0.36400671076E+03  0.50400001928E-02 0. -1.
        1   -1    0    0  501    0  0.00000000000E+00  0.00000000000E+00 -0.24823093196E+03  0.24823093201E+03  0.50400001928E-02 0.  1.
    10030    2    1    2    0    0  0.00000000000E+00  0.00000000000E+00  0.11577577877E+03  0.61223764277E+03  0.60119123436E+03 0.  0.
        2    1    3    3  502    0  0.36285438758E+02 -0.10520403533E+03 -0.22647968637E+03  0.25234415083E+03  0.25500000920E-02 0.  1.
       -2    1    3    3    0  502 -0.36285438758E+02  0.10520403533E+03  0.34225546513E+03  0.35989349193E+03  0.25500000920E-02 0. -1.
</event>
<event>
 5   0  0.2225808E-02  0.5909445E+03  0.7818609E-02  0.9924374E-01
        1   -1    0    0  501    0  0.00000000000E+00  0.00000000000E+00  0.46889281601E+03  0.46889281604E+03  0.50400001928E-02 0.  1.
       -1   -1    0    0    0  501  0.00000000000E+00  0.00000000000E+00 -0.18619146879E+03  0.18619146886E+03  0.50400001928E-02 0. -1.
    10030    2    1    2    0    0  0.00000000000E+00  0.00000000000E+00  0.28270134721E+03  0.65508428490E+03  0.59094447167E+03 0.  0.
        2    1    3    3  502    0 -0.93483230747E+02  0.93959845288E+02 -0.15138785143E+03  0.20121095528E+03  0.25500000920E-02 0. -1.
       -2    1    3    3    0  502  0.93483230747E+02 -0.93959845288E+02  0.43408919864E+03  0.45387332962E+03  0.25500000920E-02 0.  1.
</event>
<event>
 5   0  0.1521750E-02  0.5864706E+03  0.7818609E-02  0.9933880E-01
        3   -1    0    0  501    0  0.00000000000E+00  0.00000000000E+00  0.18039134514E+03  0.18039137342E+03  0.10100000352E+00 0. -1.
       -3   -1    0    0    0  501  0.00000000000E+00  0.00000000000E+00 -0.47666882149E+03  0.47666883219E+03  0.10100000352E+00 0.  1.
    10030    2    1    2    0    0  0.00000000000E+00  0.00000000000E+00 -0.29627747635E+03  0.65706020560E+03  0.58647060523E+03 0.  0.
        4    1    3    3  502    0  0.63118000728E+01 -0.26912863753E+03 -0.17890685871E+02  0.26979946609E+03  0.12699999809E+01 0. -1.
       -4    1    3    3    0  502 -0.63118000728E+01  0.26912863753E+03 -0.27838679048E+03  0.38726073952E+03  0.12699999809E+01 0.  1.
</event>
<event>
 5   0  0.2276105E-02  0.5980780E+03  0.7818609E-02  0.9909402E-01
       -1   -1    0    0    0  501  0.00000000000E+00  0.00000000000E+00  0.54938866635E+03  0.54938866638E+03  0.50400001928E-02 0. -1.
        1   -1    0    0  501    0  0.00000000000E+00  0.00000000000E+00 -0.16277061653E+03  0.16277061661E+03  0.50400001928E-02 0.  1.
    10030    2    1    2    0    0  0.00000000000E+00  0.00000000000E+00  0.38661804983E+03  0.71215928298E+03  0.59807802826E+03 0.  0.
        1    1    3    3  502    0  0.22744551502E+03  0.14844431996E+03  0.34230539795E+03  0.43696700553E+03  0.50400001928E-02 0. -1.
       -1    1    3    3    0  502 -0.22744551502E+03 -0.14844431996E+03  0.44312651879E+02  0.27519227746E+03  0.50400001928E-02 0.  1.
</event>
<event>
 5   0  0.3737642E-02  0.6675045E+03  0.7818609E-02  0.9774477E-01
        2   -1    0    0  501    0  0.00000000000E+00  0.00000000000E+00  0.18791556268E+04  0.18791556268E+04  0.25500000920E-02 0. -1.
       -2   -1    0    0    0  501  0.00000000000E+00  0.00000000000E+00 -0.59276918515E+02  0.59276918570E+02  0.25500000920E-02 0.  1.
    10030    2    1    2    0    0  0.00000000000E+00  0.00000000000E+00  0.18198787082E+04  0.19384325453E+04  0.66750447195E+03 0.  0.
        5    1    3    3  502    0 -0.11287934520E+03 -0.23924550587E+02  0.18192869250E+04  0.18229484733E+04  0.46999998093E+01 0. -1.
       -5    1    3    3    0  502  0.11287934520E+03  0.23924550587E+02  0.59178323079E+00  0.11548407206E+03  0.46999998093E+01 0.  1.
</event>
<event>
 5   0  0.3724066E-02  0.5983066E+03  0.7818609E-02  0.9908925E-01
       -2   -1    0    0    0  501  0.00000000000E+00  0.00000000000E+00  0.20010829668E+03  0.20010829670E+03  0.25500000920E-02 0. -1.
        2   -1    0    0  501    0  0.00000000000E+00  0.00000000000E+00 -0.44722137359E+03  0.44722137360E+03  0.25500000920E-02 0.  1.
    10030    2    1    2    0    0  0.00000000000E+00  0.00000000000E+00 -0.24711307692E+03  0.64732967030E+03  0.59830663482E+03 0.  0.
        4    1    3    3  502    0 -0.56876444704E+02 -0.24760797944E+03  0.47329308942E+02  0.25843048936E+03  0.12699999809E+01 0. -1.
       -4    1    3    3    0  502  0.56876444704E+02  0.24760797944E+03 -0.29444238586E+03  0.38889918094E+03  0.12699999809E+01 0.  1.
</event>
<event>
 5   0  0.3934634E-02  0.5949958E+03  0.7818609E-02  0.9915843E-01
       -2   -1    0    0    0  501  0.00000000000E+00  0.00000000000E+00  0.94532221299E+02  0.94532221333E+02  0.25500000920E-02 0.  1.
        2   -1    0    0  501    0  0.00000000000E+00  0.00000000000E+00 -0.93624166034E+03  0.93624166035E+03  0.25500000920E-02 0. -1.
    10030    2    1    2    0    0  0.00000000000E+00  0.00000000000E+00 -0.84170943905E+03  0.10307738817E+04  0.59499581123E+03 0.  0.
        1    1    3    3  502    0  0.13116435870E+03  0.13821849758E+03 -0.25059590111E+02  0.19218851461E+03  0.50400001928E-02 0.  1.
       -1    1    3    3    0  502 -0.13116435870E+03 -0.13821849758E+03 -0.81664984893E+03  0.83858536707E+03  0.50400001928E-02 0. -1.
</event>
<event>
 5   0  0.3934634E-02  0.6583014E+03  0.7818609E-02  0.9791326E-01
        2   -1    0    0  501    0  0.00000000000E+00  0.00000000000E+00  0.26604533631E+03  0.26604533632E+03  0.25500000920E-02 0.  1.
       -2   -1    0    0    0  501  0.00000000000E+00  0.00000000000E+00 -0.40722454506E+03  0.40722454507E+03  0.25500000920E-02 0. -1.
    10030    2    1    2    0    0  0.00000000000E+00  0.00000000000E+00 -0.14117920876E+03  0.67326988139E+03  0.65830142351E+03 0.  0.
        1    1    3    3  502    0 -0.91746529371E+01  0.22416348639E+03  0.17573265099E+03  0.28498317062E+03  0.50400001928E-02 0.  1.
       -1    1    3    3    0  502  0.91746529371E+01 -0.22416348639E+03 -0.31691185975E+03  0.38828671077E+03  0.50400001928E-02 0. -1.
</event>
<event>
 5   0  0.2225808E-02  0.5952656E+03  0.7818609E-02  0.9915277E-01
       -1   -1    0    0    0  501  0.00000000000E+00  0.00000000000E+00  0.96461308591E+02  0.96461308722E+02  0.50400001928E-02 0.  1.
        1   -1    0    0  501    0  0.00000000000E+00  0.00000000000E+00 -0.91835036984E+03  0.91835036986E+03  0.50400001928E-02 0. -1.
    10030    2    1    2    0    0  0.00000000000E+00  0.00000000000E+00 -0.82188906125E+03  0.10148116786E+04  0.59526558272E+03 0.  0.
        2    1    3    3  502    0  0.80862921843E+02  0.22294505205E+03 -0.10435457738E+03  0.25910072596E+03  0.25500000920E-02 0.  1.
       -2    1    3    3    0  502 -0.80862921843E+02 -0.22294505205E+03 -0.71753448387E+03  0.75571095262E+03  0.25500000920E-02 0. -1.
</event>
<event>
 5   0  0.2382531E-02  0.6027091E+03  0.7818609E-02  0.9899801E-01
        1   -1    0    0  501    0  0.00000000000E+00  0.00000000000E+00  0.25416333854E+03  0.25416333859E+03  0.50400001928E-02 0. -1.
       -1   -1    0    0    0  501  0.00000000000E+00  0.00000000000E+00 -0.35730789419E+03  0.35730789422E+03  0.50400001928E-02 0.  1.
    10030    2    1    2    0    0  0.00000000000E+00  0.00000000000E+00 -0.10314455564E+03  0.61147123282E+03  0.60270910828E+03 0.  0.
        5    1    3    3  502    0 -0.14806129250E+03  0.20507198124E+03 -0.21770828302E+03  0.33375986925E+03  0.46999998093E+01 0.  1.
       -5    1    3    3    0  502  0.14806129250E+03 -0.20507198124E+03  0.11456372738E+03  0.27771136357E+03  0.46999998093E+01 0. -1.
</event>
<event>
 5   0  0.3737642E-02  0.5999487E+03  0.7818609E-02  0.9905512E-01
       -2   -1    0    0    0  501  0.00000000000E+00  0.00000000000E+00  0.17471791557E+03  0.17471791559E+03  0.25500000920E-02 0.  1.
        2   -1    0    0  501    0  0.00000000000E+00  0.00000000000E+00 -0.51502795257E+03  0.51502795257E+03  0.25500000920E-02 0. -1.
    10030    2    1    2    0    0  0.00000000000E+00  0.00000000000E+00 -0.34031003699E+03  0.68974586817E+03  0.59994869895E+03 0.  0.
        5    1    3    3  502    0 -0.22760693586E+03  0.19524216173E+03 -0.17725153697E+03  0.34837424750E+03  0.46999998093E+01 0.  1.
       -5    1    3    3    0  502  0.22760693586E+03 -0.19524216173E+03 -0.16305850002E+03  0.34137162066E+03  0.46999998093E+01 0. -1.
</event>
<event>
 5   0  0.2309055E-02  0.5527202E+03  0.7818609E-02  0.1000866E+00
       -1   -1    0    0    0  501  0.00000000000E+00  0.00000000000E+00  0.62316457498E+02  0.62316457702E+02  0.50400001928E-02 0. -1.
        1   -1    0    0  501    0  0.00000000000E+00  0.00000000000E+00 -0.12255977672E+04  0.12255977672E+04  0.50400001928E-02 0.  1.
    10030    2    1    2    0    0  0.00000000000E+00  0.00000000000E+00 -0.11632813097E+04  0.12879142249E+04  0.55272022329E+03 0.  0.
        4    1    3    3  502    0 -0.26748536902E+03 -0.31358627238E+02 -0.72606243608E+03  0.77440303469E+03  0.12699999809E+01 0.  1.
       -4    1    3    3    0  502  0.26748536902E+03  0.31358627238E+02 -0.43721887363E+03  0.51351119023E+03  0.12699999809E+01 0. -1.
</event>
<event>
 5   0  0.3798925E-02  0.6076020E+03  0.7818609E-02  0.9889759E-01
        2   -1    0    0  501    0  0.00000000000E+00  0.00000000000E+00  0.41816188519E+03  0.41816188520E+03  0.25500000920E-02 0.  1.
       -2   -1    0    0    0  501  0.00000000000E+00  0.00000000000E+00 -0.22071609992E+03  0.22071609994E+03  0.25500000920E-02 0. -1.
    10030    2    1    2    0    0  0.00000000000E+00  0.00000000000E+00  0.19744578527E+03  0.63887798513E+03  0.60760204227E+03 0.  0.
        2    1    3    3  502    0  0.12127330952E+03  0.19116869043E+02 -0.19347045091E+03  0.22913639096E+03  0.25500000920E-02 0. -1.
       -2    1    3    3    0  502 -0.12127330952E+03 -0.19116869043E+02  0.39091623617E+03  0.40974159417E+03  0.25500000920E-02 0.  1.
</event>
<event>
 5   0  0.2276105E-02  0.5964711E+03  0.7818609E-02  0.9912754E-01
       -1   -1    0    0    0  501  0.00000000000E+00  0.00000000000E+00  0.13394640952E+03  0.13394640961E+03  0.50400001928E-02 0.  1.
        1   -1    0    0  501    0  0.00000000000E+00  0.00000000000E+00 -0.66403016686E+03  0.66403016688E+03  0.50400001928E-02 0. -1.
    10030    2    1    2    0    0  0.00000000000E+00  0.00000000000E+00 -0.53008375734E+03  0.79797657649E+03  0.59647114502E+03 0.  0.
        1    1    3    3  502    0 -0.18096743893E+03  0.51841021266E+01  0.52021881963E+02  0.18836763282E+03  0.50400001928E-02 0.  1.
       -1    1    3    3    0  502  0.18096743893E+03 -0.51841021266E+01 -0.58210563930E+03  0.60960894367E+03  0.50400001928E-02 0. -1.
</event>
<event>
 5   0  0.3832191E-02  0.6038349E+03  0.7818609E-02  0.9897482E-01
       -2   -1    0    0    0  501  0.00000000000E+00  0.00000000000E+00  0.10915004242E+03  0.10915004245E+03  0.25500000920E-02 0.  1.
        2   -1    0    0  501    0  0.00000000000E+00  0.00000000000E+00 -0.83512687121E+03  0.83512687121E+03  0.25500000920E-02 0. -1.
    10030    2    1    2    0    0  0.00000000000E+00  0.00000000000E+00 -0.72597682879E+03  0.94427691366E+03  0.60383485635E+03 0.  0.
        3    1    3    3  502    0 -0.59402744635E+02  0.55277159549E+02 -0.81775550736E+03  0.82177145877E+03  0.10100000352E+00 0. -1.
       -3    1    3    3    0  502  0.59402744635E+02 -0.55277159549E+02  0.91778678566E+02  0.12250545489E+03  0.10100000352E+00 0.  1.
</event>
<event>
 5   0  0.3737642E-02  0.6009987E+03  0.7818609E-02  0.9903336E-01
       -2   -1    0    0    0  501  0.00000000000E+00  0.00000000000E+00  0.12956674013E+03  0.12956674016E+03  0.25500000920E-02 0.  1.
        2   -1    0    0  501    0  0.00000000000E+00  0.00000000000E+00 -0.69693707435E+03  0.69693707435E+03  0.25500000920E-02 0. -1.
    10030    2    1    2    0    0  0.00000000000E+00  0.00000000000E+00 -0.56737033421E+03  0.82650381451E+03  0.60099871818E+03 0.  0.
        5    1    3    3  502    0  0.12366847627E+03  0.16138563158E+03  0.20541243050E+02  0.20440950753E+03  0.46999998093E+01 0.  1.
       -5    1    3    3    0  502 -0.12366847627E+03 -0.16138563158E+03 -0.58791157726E+03  0.62209430698E+03  0.46999998093E+01 0. -1.
</event>
<event>
 5   0  0.2276105E-02  0.5965759E+03  0.7818609E-02  0.9912536E-01
       -1   -1    0    0    0  501  0.00000000000E+00  0.00000000000E+00  0.11287037722E+03  0.11287037733E+03  0.50400001928E-02 0. -1.
        1   -1    0    0  501    0  0.00000000000E+00  0.00000000000E+00 -0.78829988293E+03  0.78829988294E+03  0.50400001928E-02 0.  1.
    10030    2    1    2    0    0  0.00000000000E+00  0.00000000000E+00 -0.67542950571E+03  0.90117026027E+03  0.59657591371E+03 0.  0.
        1    1    3    3  502    0 -0.91987977291E+02 -0.97663341921E+02 -0.74015022129E+03  0.75221158355E+03  0.50400001928E-02 0.  1.
       -1    1    3    3    0  502  0.91987977291E+02  0.97663341921E+02  0.64720715581E+02  0.14895867673E+03  0.50400001928E-02 0. -1.
</event>
<event>
 5   0  0.2309055E-02  0.5980759E+03  0.7818609E-02  0.9909406E-01
       -1   -1    0    0    0  501  0.00000000000E+00  0.00000000000E+00  0.27353604067E+03  0.27353604072E+03  0.50400001928E-02 0. -1.
        1   -1    0    0  501    0  0.00000000000E+00  0.00000000000E+00 -0.32691746331E+03  0.32691746334E+03  0.50400001928E-02 0.  1.
    10030    2    1    2    0    0  0.00000000000E+00  0.00000000000E+00 -0.53381422635E+02  0.60045350406E+03  0.59807594355E+03 0.  0.
        4    1    3    3  502    0 -0.41224488541E+02  0.19244241703E+02 -0.32341986144E+03  0.32660652010E+03  0.12699999809E+01 0.  1.
       -4    1    3    3    0  502  0.41224488541E+02 -0.19244241703E+02  0.27003843881E+03  0.27384698397E+03  0.12699999809E+01 0. -1.
</event>
<event>
 5   0  0.2382531E-02  0.6030911E+03  0.7818609E-02  0.9899014E-01
       -1   -1    0    0    0  501  0.00000000000E+00  0.00000000000E+00  0.60703789966E+02  0.60703790176E+02  0.50400001928E-02 0. -1.
        1   -1    0    0  501    0  0.00000000000E+00  0.00000000000E+00 -0.14979247207E+04  0.14979247207E+04  0.50400001928E-02 0.  1.
    10030    2    1    2    0    0  0.00000000000E+00  0.00000000000E+00 -0.14372209307E+04  0.15586285109E+04  0.60309106377E+03 0.  0.
        5    1    3    3  502    0 -0.29142153861E+03 -0.75761407068E+02 -0.67846367493E+03  0.74229465320E+03  0.46999998093E+01 0.  1.
       -5    1    3    3    0  502  0.29142153861E+03  0.75761407068E+02 -0.75875725578E+03  0.81633385766E+03  0.46999998093E+01 0. -1.
</event>
<event>
 5   0  0.2382531E-02  0.6033718E+03  0.7818609E-02  0.9898435E-01
       -1   -1    0    0    0  501  0.00000000000E+00  0.00000000000E+00  0.43719179005E+03  0.43719179008E+03  0.50400001928E-02 0. -1.
        1   -1    0    0  501    0  0.00000000000E+00  0.00000000000E+00 -0.20817954521E+03  0.20817954527E+03  0.50400001928E-02 0.  1.
    10030    2    1    2    0    0  0.00000000000E+00  0.00000000000E+00  0.22901224484E+03  0.64537133534E+03  0.60337181919E+03 0.  0.
        5    1    3    3  502    0  0.26406621299E+03  0.66952349232E+02 -0.24043074577E+02  0.27352100713E+03  0.46999998093E+01 0.  1.
       -5    1    3    3    0  502 -0.26406621299E+03 -0.66952349232E+02  0.25305531942E+03  0.37185032821E+03  0.46999998093E+01 0. -1.
</event>
<event>
 5   0  0.3737642E-02  0.6046909E+03  0.7818609E-02  0.9895721E-01
       -2   -1    0    0    0  501  0.00000000000E+00  0.00000000000E+00  0.85110649254E+03  0.85110649254E+03  0.25500000920E-02 0. -1.
        2   -1    0    0  501    0  0.00000000000E+00  0.00000000000E+00 -0.10740462708E+03  0.10740462711E+03  0.25500000920E-02 0.  1.
    10030    2    1    2    0    0  0.00000000000E+00  0.00000000000E+00  0.74370186546E+03  0.95851111965E+03  0.60469091428E+03 0.  0.
        5    1    3    3  502    0 -0.15038817640E+03  0.15928284815E+03  0.41615349189E+02  0.22302815204E+03  0.46999998093E+01 0.  1.
       -5    1    3    3    0  502  0.15038817640E+03 -0.15928284815E+03  0.70208651627E+03  0.73548296761E+03  0.46999998093E+01 0. -1.
</event>
<event>
 5   0  0.3737642E-02  0.5765333E+03  0.7818609E-02  0.9955325E-01
        2   -1    0    0  501    0  0.00000000000E+00  0.00000000000E+00  0.61177484956E+02  0.61177485009E+02  0.25500000920E-02 0.  1.
       -2   -1    0    0    0  501  0.00000000000E+00  0.00000000000E+00 -0.13583044760E+04  0.13583044760E+04  0.25500000920E-02 0. -1.
    10030    2    1    2    0    0  0.00000000000E+00  0.00000000000E+00 -0.12971269910E+04  0.14194819610E+04  0.57653326594E+03 0.  0.
        5    1    3    3  502    0  0.12559773406E+03  0.17800345236E+03 -0.11132127927E+04  0.11343389404E+04  0.46999998093E+01 0. -1.
       -5    1    3    3    0  502 -0.12559773406E+03 -0.17800345236E+03 -0.18391419832E+03  0.28514302060E+03  0.46999998093E+01 0.  1.
</event>
<event>
 5   0  0.3832191E-02  0.6022068E+03  0.7818609E-02  0.9900838E-01
        2   -1    0    0  501    0  0.00000000000E+00  0.00000000000E+00  0.44596400830E+03  0.44596400831E+03  0.25500000920E-02 0. -1.
       -2   -1    0    0    0  501  0.00000000000E+00  0.00000000000E+00 -0.20329722688E+03  0.20329722690E+03  0.25500000920E-02 0.  1.
    10030    2    1    2    0    0  0.00000000000E+00  0.00000000000E+00  0.24266678142E+03  0.64926123521E+03  0.60220676245E+03 0.  0.
        3    1    3    3  502    0 -0.92731806406E+02  0.24120935395E+03  0.28794684257E+03  0.38690377964E+03  0.10100000352E+00 0. -1.
       -3    1    3    3    0  502  0.92731806406E+02 -0.24120935395E+03 -0.45280061150E+02  0.26235745557E+03  0.10100000352E+00 0.  1.
</event>
<event>
 5   0  0.3737642E-02  0.6030200E+03  0.7818609E-02  0.9899160E-01
       -2   -1    0    0    0  501  0.00000000000E+00  0.00000000000E+00  0.11113107582E+03  0.11113107585E+03  0.25500000920E-02 0. -1.
        2   -1    0    0  501    0  0.00000000000E+00  0.00000000000E+00 -0.81802746479E+03  0.81802746480E+03  0.25500000920E-02 0.  1.
    10030    2    1    2    0    0  0.00000000000E+00  0.00000000000E+00 -0.70689638897E+03  0.92915854064E+03  0.60301997389E+03 0.  0.
        5    1    3    3  502    0  0.17066807910E+03 -0.21354428096E+03 -0.54930752008E+03  0.61358747931E+03  0.46999998093E+01 0.  1.
       -5    1    3    3    0  502 -0.17066807910E+03  0.21354428096E+03 -0.15758886889E+03  0.31557106133E+03  0.46999998093E+01 0. -1.
</event>
<event>
 5   0  0.2225808E-02  0.5974893E+03  0.7818609E-02  0.9910629E-01
        1   -1    0    0  501    0  0.00000000000E+00  0.00000000000E+00  0.56554720540E+03  0.56554720542E+03  0.50400001928E-02 0. -1.
       -1   -1    0    0    0  501  0.00000000000E+00  0.00000000000E+00 -0.15780884681E+03  0.15780884689E+03  0.50400001928E-02 0.  1.
    10030    2    1    2    0    0  0.00000000000E+00  0.00000000000E+00  0.40773835859E+03  0.72335605231E+03  0.59748925459E+03 0.  0.
        2    1    3    3  502    0  0.21537240404E+02 -0.22497749370E+02 -0.15583801676E+03  0.15891975625E+03  0.25500000920E-02 0.  1.
       -2    1    3    3    0  502 -0.21537240404E+02  0.22497749370E+02  0.56357637535E+03  0.56443629606E+03  0.25500000920E-02 0. -1.
</event>
<event>
 5   0  0.3832191E-02  0.5995182E+03  0.7818609E-02  0.9906406E-01
       -2   -1    0    0    0  501  0.00000000000E+00  0.00000000000E+00  0.57329859312E+02  0.57329859368E+02  0.25500000920E-02 0. -1.
        2   -1    0    0  501    0  0.00000000000E+00  0.00000000000E+00 -0.15673422228E+04  0.15673422228E+04  0.25500000920E-02 0.  1.
    10030    2    1    2    0    0  0.00000000000E+00  0.00000000000E+00 -0.15100123635E+04  0.16246720822E+04  0.59951817045E+03 0.  0.
        3    1    3    3  502    0  0.38839211948E+02 -0.57902073589E+02 -0.15450631953E+04  0.15466355169E+04  0.10100000352E+00 0.  1.
       -3    1    3    3    0  502 -0.38839211948E+02  0.57902073589E+02  0.35050831788E+02  0.78036565280E+02  0.10100000352E+00 0. -1.
</event>
<event>
 5   0  0.3724066E-02  0.5989232E+03  0.7818609E-02  0.9907643E-01
       -2   -1    0    0    0  501  0.00000000000E+00  0.00000000000E+00  0.42108439383E+03  0.42108439383E+03  0.25500000920E-02 0.  1.
        2   -1    0    0  501    0  0.00000000000E+00  0.00000000000E+00 -0.21296740196E+03  0.21296740198E+03  0.25500000920E-02 0. -1.
    10030    2    1    2    0    0  0.00000000000E+00  0.00000000000E+00  0.20811699186E+03  0.63405179581E+03  0.59892319831E+03 0.  0.
        4    1    3    3  502    0  0.17788943402E+03  0.23504131023E+03  0.48174372702E+02  0.29868286080E+03  0.12699999809E+01 0. -1.
       -4    1    3    3    0  502 -0.17788943402E+03 -0.23504131023E+03  0.15994261916E+03  0.33536893501E+03  0.12699999809E+01 0.  1.
</event>
<event>
 5   0  0.3832191E-02  0.6003552E+03  0.7818609E-02  0.9904669E-01
       -2   -1    0    0    0  501  0.00000000000E+00  0.00000000000E+00  0.91004596484E+03  0.91004596485E+03  0.25500000920E-02 0.  1.
        2   -1    0    0  501    0  0.00000000000E+00  0.00000000000E+00 -0.99013226518E+02  0.99013226551E+02  0.25500000920E-02 0. -1.
    10030    2    1    2    0    0  0.00000000000E+00  0.00000000000E+00  0.81103273833E+03  0.10090591914E+04  0.60035518579E+03 0.  0.
        3    1    3    3  502    0  0.11131552136E+03 -0.27062761688E+03  0.51796637124E+03  0.59491144236E+03  0.10100000352E+00 0.  1.
       -3    1    3    3    0  502 -0.11131552136E+03  0.27062761688E+03  0.29306636709E+03  0.41414774904E+03  0.10100000352E+00 0. -1.
</event>
<event>
 5   0  0.1521750E-02  0.5939810E+03  0.7818609E-02  0.9917973E-01
        4   -1    0    0  501    0  0.00000000000E+00  0.00000000000E+00  0.22808201154E+03  0.22808554730E+03  0.12699999809E+01 0. -1.
       -4   -1    0    0    0  501  0.00000000000E+00  0.00000000000E+00 -0.38671013399E+03  0.38671221940E+03  0.12699999809E+01 0.  1.
    10030    2    1    2    0    0  0.00000000000E+00  0.00000000000E+00 -0.15862812245E+03  0.61479776670E+03  0.59398098682E+03 0.  0.
        5    1    3    3  502    0 -0.18856557029E+03  0.52565575530E+01  0.15806303366E+03  0.24615161650E+03  0.46999998093E+01 0. -1.
       -5    1    3    3    0  502  0.18856557029E+03 -0.52565575530E+01 -0.31669115612E+03  0.36864615020E+03  0.46999998093E+01 0.  1.
</event>
<event>
 5   0  0.3798925E-02  0.6010457E+03  0.7818609E-02  0.9903239E-01
        2   -1    0    0  501    0  0.00000000000E+00  0.00000000000E+00  0.26222290738E+03  0.26222290739E+03  0.25500000920E-02 0. -1.
       -2   -1    0    0    0  501  0.00000000000E+00  0.00000000000E+00 -0.34441685801E+03  0.34441685802E+03  0.25500000920E-02 0.  1.
    10030    2    1    2    0    0  0.00000000000E+00  0.00000000000E+00 -0.82193950627E+02  0.60663976541E+03  0.60104572161E+03 0.  0.
        2    1    3    3  502    0 -0.26565401014E+03 -0.54925778957E+02 -0.17162617309E+03  0.32100535446E+03  0.25500000920E-02 0.  1.
       -2    1    3    3    0  502  0.26565401014E+03  0.54925778957E+02  0.89432222465E+02  0.28563441095E+03  0.25500000920E-02 0. -1.
</event>
<event>
 5   0  0.2225808E-02  0.5989918E+03  0.7818609E-02  0.9907500E-01
        1   -1    0    0  501    0  0.00000000000E+00  0.00000000000E+00  0.54628741523E+03  0.54628741525E+03  0.50400001928E-02 0. -1.
       -1   -1    0    0    0  501  0.00000000000E+00  0.00000000000E+00 -0.16419525470E+03  0.16419525478E+03  0.50400001928E-02 0.  1.
    10030    2    1    2    0    0  0.00000000000E+00  0.00000000000E+00  0.38209216052E+03  0.71048267003E+03  0.59899182405E+03 0.  0.
        2    1    3    3  502    0 -0.32515865162E+02  0.19424413729E+02  0.54343517381E+03  0.54475350157E+03  0.25500000920E-02 0. -1.
       -2    1    3    3    0  502  0.32515865162E+02 -0.19424413729E+02 -0.16134301329E+03  0.16572916846E+03  0.25500000920E-02 0.  1.
</event>
<event>
 5   0  0.2225808E-02  0.5981689E+03  0.7818609E-02  0.9909212E-01
        1   -1    0    0  501    0  0.00000000000E+00  0.00000000000E+00  0.14111606565E+04  0.14111606565E+04  0.50400001928E-02 0. -1.
       -1   -1    0    0    0  501  0.00000000000E+00  0.00000000000E+00 -0.63388602800E+02  0.63388603001E+02  0.50400001928E-02 0.  1.
    10030    2    1    2    0    0  0.00000000000E+00  0.00000000000E+00  0.13477720537E+04  0.14745492595E+04  0.59816888081E+03 0.  0.
        2    1    3    3  502    0 -0.79223038138E+01 -0.14033062561E+03  0.23097978711E+02  0.14243933449E+03  0.25500000920E-02 0.  1.
       -2    1    3    3    0  502  0.79223038138E+01  0.14033062561E+03  0.13246740749E+04  0.13321099250E+04  0.25500000920E-02 0. -1.
</event>
<event>
 5   0  0.3724066E-02  0.5928812E+03  0.7818609E-02  0.9920286E-01
        2   -1    0    0  501    0  0.00000000000E+00  0.00000000000E+00  0.16575906127E+04  0.16575906127E+04  0.25500000920E-02 0.  1.
       -2   -1    0    0    0  501  0.00000000000E+00  0.00000000000E+00 -0.53014913678E+02  0.53014913739E+02  0.25500000920E-02 0. -1.
    10030    2    1    2    0    0  0.00000000000E+00  0.00000000000E+00  0.16045756990E+04  0.17106055264E+04  0.59288117966E+03 0.  0.
        4    1    3    3  502    0  0.18371368488E+02  0.29337527645E+03  0.69170927496E+03  0.75157826870E+03  0.12699999809E+01 0. -1.
       -4    1    3    3    0  502 -0.18371368488E+02 -0.29337527645E+03  0.91286642405E+03  0.95902725773E+03  0.12699999809E+01 0.  1.
</event>
<event>
 5   0  0.1521750E-02  0.6040451E+03  0.7818609E-02  0.9897049E-01
       -3   -1    0    0    0  501  0.00000000000E+00  0.00000000000E+00  0.11988039130E+03  0.11988043384E+03  0.10100000352E+00 0.  1.
        3   -1    0    0  501    0  0.00000000000E+00  0.00000000000E+00 -0.76090511099E+03  0.76090511770E+03  0.10100000352E+00 0. -1.
    10030    2    1    2    0    0  0.00000000000E+00  0.00000000000E+00 -0.64102471970E+03  0.88078555154E+03  0.60404511135E+03 0.  0.
        5    1    3    3  502    0  0.69947133064E+01 -0.18261195980E+03  0.30047974633E+02  0.18525934431E+03  0.46999998093E+01 0.  1.
       -5    1    3    3    0  502 -0.69947133064E+01  0.18261195980E+03 -0.67107269433E+03  0.69552620723E+03  0.46999998093E+01 0. -1.
</event>
<event>
 5   0  0.2295179E-02  0.5997643E+03  0.7818609E-02  0.9905895E-01
        1   -1    0    0  501    0  0.00000000000E+00  0.00000000000E+00  0.35559417708E+03  0.35559417712E+03  0.50400001928E-02 0.  1.
       -1   -1    0    0    0  501  0.00000000000E+00  0.00000000000E+00 -0.25289868814E+03  0.25289868819E+03  0.50400001928E-02 0. -1.
    10030    2    1    2    0    0  0.00000000000E+00  0.00000000000E+00  0.10269548895E+03  0.60849286530E+03  0.59976429010E+03 0.  0.
        3    1    3    3  502    0  0.10945041600E+03 -0.11568502991E+03 -0.20645038169E+03  0.26073778017E+03  0.10100000352E+00 0. -1.
       -3    1    3    3    0  502 -0.10945041600E+03  0.11568502991E+03  0.30914587063E+03  0.34775508514E+03  0.10100000352E+00 0.  1.
</event>
<event>
 5   0  0.1521750E-02  0.5928457E+03  0.7818609E-02  0.9920361E-01
        4   -1    0    0  501    0  0.00000000000E+00  0.00000000000E+00  0.31562953299E+03  0.31563208804E+03  0.12699999809E+01 0.  1.
       -4   -1    0    0    0  501  0.00000000000E+00  0.00000000000E+00 -0.27837978650E+03  0.27838268343E+03  0.12699999809E+01 0. -1.
    10030    2    1    2    0    0  0.00000000000E+00  0.00000000000E+00  0.37249746495E+02  0.59401477146E+03  0.59284568405E+03 0.  0.
        1    1    3    3  502    0  0.73193137956E+01 -0.39191802274E+02 -0.27568370973E+03  0.27855175023E+03  0.50400001928E-02 0. -1.
       -1    1    3    3    0  502 -0.73193137956E+01  0.39191802274E+02  0.31293345622E+03  0.31546302124E+03  0.50400001928E-02 0.  1.
</event>
<event>
 5   0  0.3832191E-02  0.5989964E+03  0.7818609E-02  0.9907490E-01
       -2   -1    0    0    0  501  0.00000000000E+00  0.00000000000E+00  0.19590262133E+03  0.19590262135E+03  0.25500000920E-02 0. -1.
        2   -1    0    0  501    0  0.00000000000E+00  0.00000000000E+00 -0.45787630399E+03  0.45787630400E+03  0.25500000920E-02 0.  1.
    10030    2    1    2    0    0  0.00000000000E+00  0.00000000000E+00 -0.26197368266E+03  0.65377892534E+03  0.59899638798E+03 0.  0.
        3    1    3    3  502    0  0.26064618483E+03  0.14728666941E+03 -0.14007687491E+03  0.33053190124E+03  0.10100000352E+00 0. -1.
       -3    1    3    3    0  502 -0.26064618483E+03 -0.14728666941E+03 -0.12189680775E+03  0.32324702410E+03  0.10100000352E+00 0.  1.
</event>
<event>
 5   0  0.3832191E-02  0.5988398E+03  0.7818609E-02  0.9907816E-01
        2   -1    0    0  501    0  0.00000000000E+00  0.00000000000E+00  0.11359750463E+04  0.11359750463E+04  0.25500000920E-02 0.  1.
       -2   -1    0    0    0  501  0.00000000000E+00  0.00000000000E+00 -0.78921003412E+02  0.78921003453E+02  0.25500000920E-02 0. -1.
    10030    2    1    2    0    0  0.00000000000E+00  0.00000000000E+00  0.10570540429E+04  0.12148960497E+04  0.59883984680E+03 0.  0.
        3    1    3    3  502    0 -0.19059971743E+03 -0.38102471709E+02  0.66469666659E+02  0.20542219310E+03  0.10100000352E+00 0. -1.
       -3    1    3    3    0  502  0.19059971743E+03  0.38102471709E+02  0.99058437621E+03  0.10094738566E+04  0.10100000352E+00 0.  1.
</event>
<event>
 5   0  0.3724066E-02  0.6005258E+03  0.7818609E-02  0.9904316E-01
        2   -1    0    0  501    0  0.00000000000E+00  0.00000000000E+00  0.43787105254E+03  0.43787105255E+03  0.25500000920E-02 0. -1.
       -2   -1    0    0    0  501  0.00000000000E+00  0.00000000000E+00 -0.20590034035E+03  0.20590034037E+03  0.25500000920E-02 0.  1.
    10030    2    1    2    0    0  0.00000000000E+00  0.00000000000E+00  0.23197071219E+03  0.64377139292E+03  0.60052576550E+03 0.  0.
        4    1    3    3  502    0 -0.14164620122E+03  0.26469613594E+03  0.11026285956E+03  0.31982370425E+03  0.12699999809E+01 0.  1.
       -4    1    3    3    0  502  0.14164620122E+03 -0.26469613594E+03  0.12170785263E+03  0.32394768867E+03  0.12699999809E+01 0. -1.
</event>
<event>
 5   0  0.2276105E-02  0.5983045E+03  0.7818609E-02  0.9908930E-01
        1   -1    0    0  501    0  0.00000000000E+00  0.00000000000E+00  0.79198919549E+03  0.79198919551E+03  0.50400001928E-02 0. -1.
       -1   -1    0    0    0  501  0.00000000000E+00  0.00000000000E+00 -0.11299656510E+03  0.11299656521E+03  0.50400001928E-02 0.  1.
    10030    2    1    2    0    0  0.00000000000E+00  0.00000000000E+00  0.67899263040E+03  0.90498576072E+03  0.59830446678E+03 0.  0.
        1    1    3    3  502    0 -0.12683509749E+03  0.40572908117E+02 -0.65692035778E+02  0.14848820296E+03  0.50400001928E-02 0.  1.
       -1    1    3    3    0  502  0.12683509749E+03 -0.40572908117E+02  0.74468466617E+03  0.75649755775E+03  0.50400001928E-02 0. -1.
</event>
<event>
 5   0  0.3724066E-02  0.5931564E+03  0.7818609E-02  0.9919707E-01
        2   -1    0    0  501    0  0.00000000000E+00  0.00000000000E+00  0.25507486010E+03  0.25507486011E+03  0.25500000920E-02 0.  1.
       -2   -1    0    0    0  501  0.00000000000E+00  0.00000000000E+00 -0.34483451585E+03  0.34483451586E+03  0.25500000920E-02 0. -1.
    10030    2    1    2    0    0  0.00000000000E+00  0.00000000000E+00 -0.89759655747E+02  0.59990937597E+03  0.59315635677E+03 0.  0.
        4    1    3    3  502    0 -0.21706631126E+03 -0.20120668527E+03 -0.25821479469E+02  0.29710313930E+03  0.12699999809E+01 0. -1.
       -4    1    3    3    0  502  0.21706631126E+03  0.20120668527E+03 -0.63938176279E+02  0.30280623667E+03  0.12699999809E+01 0.  1.
</event>
<event>
 5   0  0.2276105E-02  0.5995475E+03  0.7818609E-02  0.9906345E-01
       -1   -1    0    0    0  501  0.00000000000E+00  0.00000000000E+00  0.10220661408E+03  0.10220661421E+03  0.50400001928E-02 0.  1.
        1   -1    0    0  501    0  0.00000000000E+00  0.00000000000E+00 -0.87924157004E+03  0.87924157006E+03  0.50400001928E-02 0. -1.
    10030    2    1    2    0    0  0.00000000000E+00  0.00000000000E+00 -0.77703495596E+03  0.98144818426E+03  0.59954750905E+03 0.  0.
        1    1    3    3  502    0  0.28515573171E+03 -0.56041514250E+02 -0.26811460901E+03  0.39539838927E+03  0.50400001928E-02 0.  1.
       -1    1    3    3    0  502 -0.28515573171E+03  0.56041514250E+02 -0.50892034694E+03  0.58604979499E+03  0.50400001928E-02 0. -1.
</event>
<event>
 5   0  0.3832191E-02  0.5988058E+03  0.7818609E-02  0.9907887E-01
        2   -1    0    0  501    0  0.00000000000E+00  0.00000000000E+00  0.11164266238E+04  0.11164266238E+04  0.25500000920E-02 0.  1.
       -2   -1    0    0    0  501  0.00000000000E+00  0.00000000000E+00 -0.80293776889E+02  0.80293776929E+02  0.25500000920E-02 0. -1.
    10030    2    1    2    0    0  0.00000000000E+00  0.00000000000E+00  0.10361328470E+04  0.11967204008E+04  0.59880584591E+03 0.  0.
        3    1    3    3  502    0 -0.25585816424E+03 -0.15536035716E+03  0.53099654372E+03  0.60955523165E+03  0.10100000352E+00 0.  1.
       -3    1    3    3    0  502  0.25585816424E+03  0.15536035716E+03  0.50513630323E+03  0.58716516912E+03  0.10100000352E+00 0. -1.
</event>
<event>
 5   0  0.3832191E-02  0.5982576E+03  0.7818609E-02  0.9909028E-01
        2   -1    0    0  501    0  0.00000000000E+00  0.00000000000E+00  0.17386477674E+03  0.17386477676E+03  0.25500000920E-02 0. -1.
       -2   -1    0    0    0  501  0.00000000000E+00  0.00000000000E+00 -0.51464152740E+03  0.51464152740E+03  0.25500000920E-02 0.  1.
    10030    2    1    2    0    0  0.00000000000E+00  0.00000000000E+00 -0.34077675066E+03  0.68850630416E+03  0.59825758422E+03 0.  0.
        3    1    3    3  502    0 -0.24145376056E+03 -0.99350016368E+02 -0.23966891000E+01  0.26110553146E+03  0.10100000352E+00 0. -1.
       -3    1    3    3    0  502  0.24145376056E+03  0.99350016368E+02 -0.33838006156E+03  0.42740077270E+03  0.10100000352E+00 0.  1.
</event>
<event>
 5   0  0.2309055E-02  0.5947483E+03  0.7818609E-02  0.9916362E-01
        1   -1    0    0  501    0  0.00000000000E+00  0.00000000000E+00  0.32374356228E+03  0.32374356232E+03  0.50400001928E-02 0. -1.
       -1   -1    0    0    0  501  0.00000000000E+00  0.00000000000E+00 -0.27315254779E+03  0.27315254783E+03  0.50400001928E-02 0.  1.
    10030    2    1    2    0    0  0.00000000000E+00  0.00000000000E+00  0.50591014497E+02  0.59689611016E+03  0.59474827917E+03 0.  0.
        4    1    3    3  502    0  0.15718031578E+03  0.15618375968E+03 -0.17374050186E+03  0.28157839644E+03  0.12699999809E+01 0.  1.
       -4    1    3    3    0  502 -0.15718031578E+03 -0.15618375968E+03  0.22433151635E+03  0.31531771372E+03  0.12699999809E+01 0. -1.
</event>
<event>
 5   0  0.2276105E-02  0.6001343E+03  0.7818609E-02  0.9905128E-01
        1   -1    0    0  501    0  0.00000000000E+00  0.00000000000E+00  0.26364780660E+03  0.26364780665E+03  0.50400001928E-02 0.  1.
       -1   -1    0    0    0  501  0.00000000000E+00  0.00000000000E+00 -0.34151727842E+03  0.34151727846E+03  0.50400001928E-02 0. -1.
    10030    2    1    2    0    0  0.00000000000E+00  0.00000000000E+00 -0.77869471818E+02  0.60516508511E+03  0.60013425630E+03 0.  0.
        1    1    3    3  502    0  0.16587048298E+03 -0.15207628883E+03  0.16122371174E+03  0.27682720243E+03  0.50400001928E-02 0.  1.
       -1    1    3    3    0  502 -0.16587048298E+03  0.15207628883E+03 -0.23909318356E+03  0.32833788268E+03  0.50400001928E-02 0. -1.
</event>
<event>
 5   0  0.3934634E-02  0.6005922E+03  0.7818609E-02  0.9904178E-01
       -2   -1    0    0    0  501  0.00000000000E+00  0.00000000000E+00  0.43977136868E+02  0.43977136942E+02  0.25500000920E-02 0. -1.
        2   -1    0    0  501    0  0.00000000000E+00  0.00000000000E+00 -0.20505600778E+04  0.20505600778E+04  0.25500000920E-02 0.  1.
    10030    2    1    2    0    0  0.00000000000E+00  0.00000000000E+00 -0.20065829409E+04  0.20945372147E+04  0.60059224529E+03 0.  0.
        1    1    3    3  502    0  0.18011565330E+03 -0.21849279277E+02 -0.18377969347E+04  0.18467313320E+04  0.50400001928E-02 0.  1.
       -1    1    3    3    0  502 -0.18011565330E+03  0.21849279277E+02 -0.16878600622E+03  0.24780588268E+03  0.50400001928E-02 0. -1.
</event>
<event>
 5   0  0.2225808E-02  0.5991809E+03  0.7818609E-02  0.9907107E-01
       -1   -1    0    0    0  501  0.00000000000E+00  0.00000000000E+00  0.39292498841E+03  0.39292498844E+03  0.50400001928E-02 0. -1.
        1   -1    0    0  501    0  0.00000000000E+00  0.00000000000E+00 -0.22842637838E+03  0.22842637843E+03  0.50400001928E-02 0.  1.
    10030    2    1    2    0    0  0.00000000000E+00  0.00000000000E+00  0.16449861003E+03  0.62135136688E+03  0.59918088122E+03 0.  0.
        2    1    3    3  502    0  0.12184395425E+02  0.18031093051E+03 -0.16553530086E+03  0.24507636971E+03  0.25500000920E-02 0.  1.
       -2    1    3    3    0  502 -0.12184395425E+02 -0.18031093051E+03  0.33003391089E+03  0.37627499717E+03  0.25500000920E-02 0. -1.
</event>
<event>
 5   0  0.3737642E-02  0.5969721E+03  0.7818609E-02  0.9911708E-01
        2   -1    0    0  501    0  0.00000000000E+00  0.00000000000E+00  0.96808154821E+03  0.96808154821E+03  0.25500000920E-02 0. -1.
       -2   -1    0    0    0  501  0.00000000000E+00  0.00000000000E+00 -0.92031416088E+02  0.92031416123E+02  0.25500000920E-02 0.  1.
    10030    2    1    2    0    0  0.00000000000E+00  0.00000000000E+00  0.87605013212E+03  0.10601129643E+04  0.59697207905E+03 0.  0.
        5    1    3    3  502    0 -0.17755909695E+03  0.11737542518E+03  0.80953848492E+03  0.83706563178E+03  0.46999998093E+01 0. -1.
       -5    1    3    3    0  502  0.17755909695E+03 -0.11737542518E+03  0.66511647198E+02  0.22304733255E+03  0.46999998093E+01 0.  1.
</event>
<event>
 5   0  0.2225808E-02  0.6039724E+03  0.7818609E-02  0.9897199E-01
        1   -1    0    0  501    0  0.00000000000E+00  0.00000000000E+00  0.22582095401E+03  0.22582095407E+03  0.50400001928E-02 0.  1.
       -1   -1    0    0    0  501  0.00000000000E+00  0.00000000000E+00 -0.40384055693E+03  0.40384055696E+03  0.50400001928E-02 0. -1.
    10030    2    1    2    0    0  0.00000000000E+00  0.00000000000E+00 -0.17801960291E+03  0.62966151103E+03  0.60397238302E+03 0.  0.
        2    1    3    3  502    0  0.18265736068E+03  0.18867167084E+03  0.66446430207E+02  0.27087974986E+03  0.25500000920E-02 0.  1.
       -2    1    3    3    0  502 -0.18265736068E+03 -0.18867167084E+03 -0.24446603312E+03  0.35878176117E+03  0.25500000920E-02 0. -1.
</event>
<event>
 5   0  0.2382531E-02  0.5979941E+03  0.7818609E-02  0.9909576E-01
       -1   -1    0    0    0  501  0.00000000000E+00  0.00000000000E+00  0.39832361900E+03  0.39832361903E+03  0.50400001928E-02 0. -1.
        1   -1    0    0  501    0  0.00000000000E+00  0.00000000000E+00 -0.22443873417E+03  0.22443873422E+03  0.50400001928E-02 0.  1.
    10030    2    1    2    0    0  0.00000000000E+00  0.00000000000E+00  0.17388488483E+03  0.62276235326E+03  0.59799414333E+03 0.  0.
        5    1    3    3  502    0  0.25864698294E+03 -0.85274834964E+02 -0.41482274104E+02  0.27552300870E+03  0.46999998093E+01 0.  1.
       -5    1    3    3    0  502 -0.25864698294E+03  0.85274834964E+02  0.21536715894E+03  0.34723934455E+03  0.46999998093E+01 0. -1.
</event>
<event>
 5   0  0.2276105E-02  0.5939727E+03  0.7818609E-02  0.9917990E-01
       -1   -1    0    0    0  501  0.00000000000E+00  0.00000000000E+00  0.61473492169E+02  0.61473492375E+02  0.50400001928E-02 0. -1.
        1   -1    0    0  501    0  0.00000000000E+00  0.00000000000E+00 -0.14347792269E+04  0.14347792269E+04  0.50400001928E-02 0.  1.
    10030    2    1    2    0    0  0.00000000000E+00  0.00000000000E+00 -0.13733057348E+04  0.14962527193E+04  0.59397269207E+03 0.  0.
        1    1    3    3  502    0  0.53556745191E+02  0.10625938068E+03 -0.12023572985E+01  0.11899927154E+03  0.50400001928E-02 0. -1.
       -1    1    3    3    0  502 -0.53556745191E+02 -0.10625938068E+03 -0.13721033775E+04  0.13772534478E+04  0.50400001928E-02 0.  1.
</event>
<event>
 5   0  0.3737642E-02  0.5918069E+03  0.7818609E-02  0.9922551E-01
       -2   -1    0    0    0  501  0.00000000000E+00  0.00000000000E+00  0.18074089474E+03  0.18074089476E+03  0.25500000920E-02 0.  1.
        2   -1    0    0  501    0  0.00000000000E+00  0.00000000000E+00 -0.48444402654E+03  0.48444402654E+03  0.25500000920E-02 0. -1.
    10030    2    1    2    0    0  0.00000000000E+00  0.00000000000E+00 -0.30370313180E+03  0.66518492130E+03  0.59180688342E+03 0.  0.
        5    1    3    3  502    0  0.12191973707E+03 -0.10598716657E+03  0.12675070203E+03  0.20539116882E+03  0.46999998093E+01 0.  1.
       -5    1    3    3    0  502 -0.12191973707E+03  0.10598716657E+03 -0.43045383383E+03  0.45979375248E+03  0.46999998093E+01 0. -1.
</event>
<event>
 5   0  0.2225808E-02  0.6005138E+03  0.7818609E-02  0.9904341E-01
        1   -1    0    0  501    0  0.00000000000E+00  0.00000000000E+00  0.27207997196E+03  0.27207997201E+03  0.50400001928E-02 0. -1.
       -1   -1    0    0    0  501  0.00000000000E+00  0.00000000000E+00 -0.33135181005E+03  0.33135181009E+03  0.50400001928E-02 0.  1.
    10030    2    1    2    0    0  0.00000000000E+00  0.00000000000E+00 -0.59271838089E+02  0.60343178210E+03  0.60051375077E+03 0.  0.
        2    1    3    3  502    0 -0.29202681881E+02  0.17632386949E+03 -0.27207845984E+03  0.32552970970E+03  0.25500000920E-02 0.  1.
       -2    1    3    3    0  502  0.29202681881E+02 -0.17632386949E+03  0.21280662175E+03  0.27790207241E+03  0.25500000920E-02 0. -1.
</event>
<event>
 5   0  0.2295179E-02  0.6055326E+03  0.7818609E-02  0.9893994E-01
        1   -1    0    0  501    0  0.00000000000E+00  0.00000000000E+00  0.16805973938E+03  0.16805973945E+03  0.50400001928E-02 0.  1.
       -1   -1    0    0    0  501  0.00000000000E+00  0.00000000000E+00 -0.54544557831E+03  0.54544557833E+03  0.50400001928E-02 0. -1.
    10030    2    1    2    0    0  0.00000000000E+00  0.00000000000E+00 -0.37738583893E+03  0.71350531778E+03  0.60553263089E+03 0.  0.
        3    1    3    3  502    0 -0.34841384626E+02 -0.12306033732E+03  0.13466612636E+03  0.18572222402E+03  0.10100000352E+00 0.  1.
       -3    1    3    3    0  502  0.34841384626E+02  0.12306033732E+03 -0.51205196529E+03  0.52778309376E+03  0.10100000352E+00 0. -1.
</event>
<event>
 5   0  0.3832191E-02  0.6000446E+03  0.7818609E-02  0.9905313E-01
        2   -1    0    0  501    0  0.00000000000E+00  0.00000000000E+00  0.11125481950E+04  0.11125481950E+04  0.25500000920E-02 0. -1.
       -2   -1    0    0    0  501  0.00000000000E+00  0.00000000000E+00 -0.80907404797E+02  0.80907404838E+02  0.25500000920E-02 0.  1.
    10030    2    1    2    0    0  0.00000000000E+00  0.00000000000E+00  0.10316407902E+04  0.11934555998E+04  0.60004462231E+03 0.  0.
        3    1    3    3  502    0  0.12942388328E+03 -0.24420874062E+03  0.74798168153E+03  0.79741147262E+03  0.10100000352E+00 0. -1.
       -3    1    3    3    0  502 -0.12942388328E+03  0.24420874062E+03  0.28365910863E+03  0.39604412717E+03  0.10100000352E+00 0.  1.
</event>
<event>
 5   0  0.3737642E-02  0.6033165E+03  0.7818609E-02  0.9898549E-01
       -2   -1    0    0    0  501  0.00000000000E+00  0.00000000000E+00  0.19868730672E+03  0.19868730674E+03  0.25500000920E-02 0.  1.
        2   -1    0    0  501    0  0.00000000000E+00  0.00000000000E+00 -0.45799459100E+03  0.45799459101E+03  0.25500000920E-02 0. -1.
    10030    2    1    2    0    0  0.00000000000E+00  0.00000000000E+00 -0.25930728428E+03  0.65668189775E+03  0.60331653976E+03 0.  0.
        5    1    3    3  502    0  0.28787082655E+03 -0.49471266883E+02 -0.21153111253E+03  0.36067231747E+03  0.46999998093E+01 0. -1.
       -5    1    3    3    0  502 -0.28787082655E+03  0.49471266883E+02 -0.47776171754E+02  0.29600958027E+03  0.46999998093E+01 0.  1.
</event>
<event>
 5   0  0.3934634E-02  0.6005095E+03  0.7818609E-02  0.9904350E-01
        2   -1    0    0  501    0  0.00000000000E+00  0.00000000000E+00  0.10751301844E+04  0.10751301844E+04  0.25500000920E-02 0.  1.
       -2   -1    0    0    0  501  0.00000000000E+00  0.00000000000E+00 -0.83853015638E+02  0.83853015676E+02  0.25500000920E-02 0. -1.
    10030    2    1    2    0    0  0.00000000000E+00  0.00000000000E+00  0.99127716874E+03  0.11589832001E+04  0.60050947765E+03 0.  0.
        1    1    3    3  502    0  0.16817226827E+03 -0.12915112455E+03  0.85355916802E+02  0.22857724590E+03  0.50400001928E-02 0. -1.
       -1    1    3    3    0  502 -0.16817226827E+03  0.12915112455E+03  0.90592125193E+03  0.93040595415E+03  0.50400001928E-02 0.  1.
</event>
<event>
 5   0  0.2309055E-02  0.6438653E+03  0.7818609E-02  0.9818359E-01
       -1   -1    0    0    0  501  0.00000000000E+00  0.00000000000E+00  0.21414311126E+03  0.21414311132E+03  0.50400001928E-02 0.  1.
        1   -1    0    0  501    0  0.00000000000E+00  0.00000000000E+00 -0.48397838935E+03  0.48397838937E+03  0.50400001928E-02 0. -1.
    10030    2    1    2    0    0  0.00000000000E+00  0.00000000000E+00 -0.26983527809E+03  0.69812150069E+03  0.64386532165E+03 0.  0.
        4    1    3    3  502    0  0.10778257585E+03  0.16490445211E+03  0.14115212377E+03  0.24235531132E+03  0.12699999809E+01 0.  1.
       -4    1    3    3    0  502 -0.10778257585E+03 -0.16490445211E+03 -0.41098740186E+03  0.45576618937E+03  0.12699999809E+01 0. -1.
</event>
<event>
 5   0  0.2295179E-02  0.5998757E+03  0.7818609E-02  0.9905664E-01
       -1   -1    0    0    0  501  0.00000000000E+00  0.00000000000E+00  0.14876050580E+03  0.14876050589E+03  0.50400001928E-02 0. -1.
        1   -1    0    0  501    0  0.00000000000E+00  0.00000000000E+00 -0.60474867425E+03  0.60474867427E+03  0.50400001928E-02 0.  1.
    10030    2    1    2    0    0  0.00000000000E+00  0.00000000000E+00 -0.45598816844E+03  0.75350918016E+03  0.59987571614E+03 0.  0.
        3    1    3    3  502    0  0.22945243751E+03  0.10209788717E+03 -0.43397413536E+03  0.50140398882E+03  0.10100000352E+00 0.  1.
       -3    1    3    3    0  502 -0.22945243751E+03 -0.10209788717E+03 -0.22014033084E+02  0.25210519133E+03  0.10100000352E+00 0. -1.
</event>
<event>
 5   0  0.2276105E-02  0.6006623E+03  0.7818609E-02  0.9904033E-01
        1   -1    0    0  501    0  0.00000000000E+00  0.00000000000E+00  0.14684945388E+04  0.14684945389E+04  0.50400001928E-02 0.  1.
       -1   -1    0    0    0  501  0.00000000000E+00  0.00000000000E+00 -0.61422642094E+02  0.61422642301E+02  0.50400001928E-02 0. -1.
    10030    2    1    2    0    0  0.00000000000E+00  0.00000000000E+00  0.14070718968E+04  0.15299171812E+04  0.60066234988E+03 0.  0.
        1    1    3    3  502    0 -0.16307572166E+03 -0.24550013126E+03  0.55644938372E+03  0.62968239781E+03  0.50400001928E-02 0.  1.
       -1    1    3    3    0  502  0.16307572166E+03  0.24550013126E+03  0.85062251303E+03  0.90023478334E+03  0.50400001928E-02 0. -1.
</event>
<event>
 5   0  0.3798925E-02  0.6003823E+03  0.7818609E-02  0.9904613E-01
        2   -1    0    0  501    0  0.00000000000E+00  0.00000000000E+00  0.50835842824E+03  0.50835842825E+03  0.25500000920E-02 0.  1.
       -2   -1    0    0    0  501  0.00000000000E+00  0.00000000000E+00 -0.17726611136E+03  0.17726611137E+03  0.25500000920E-02 0. -1.
    10030    2    1    2    0    0  0.00000000000E+00  0.00000000000E+00  0.33109231689E+03  0.68562453962E+03  0.60038228408E+03 0.  0.
        2    1    3    3  502    0 -0.72762602978E+02 -0.12173679733E+03  0.46768668793E+03  0.48871779412E+03  0.25500000920E-02 0.  1.
       -2    1    3    3    0  502  0.72762602978E+02  0.12173679733E+03 -0.13659437104E+03  0.19690674550E+03  0.25500000920E-02 0. -1.
</event>
<event>
 5   0  0.2276105E-02  0.6033636E+03  0.7818609E-02  0.9898452E-01
       -1   -1    0    0    0  501  0.00000000000E+00  0.00000000000E+00  0.22588923880E+03  0.22588923885E+03  0.50400001928E-02 0.  1.
        1   -1    0    0  501    0  0.00000000000E+00  0.00000000000E+00 -0.40290504652E+03  0.40290504656E+03  0.50400001928E-02 0. -1.
    10030    2    1    2    0    0  0.00000000000E+00  0.00000000000E+00 -0.17701580773E+03  0.62879428541E+03  0.60336361937E+03 0.  0.
        1    1    3    3  502    0 -0.12407168797E+03  0.37646549082E+01  0.19804296631E+03  0.23372841699E+03  0.50400001928E-02 0.  1.
       -1    1    3    3    0  502  0.12407168797E+03 -0.37646549082E+01 -0.37505877403E+03  0.39506586841E+03  0.50400001928E-02 0. -1.
</event>
<event>
 5   0  0.1521750E-02  0.6043427E+03  0.7818609E-02  0.9896437E-01
       -4   -1    0    0    0  501  0.00000000000E+00  0.00000000000E+00  0.82815412782E+03  0.82815510161E+03  0.12699999809E+01 0. -1.
        4   -1    0    0  501    0  0.00000000000E+00  0.00000000000E+00 -0.11024956515E+03  0.11025687967E+03  0.12699999809E+01 0.  1.
    10030    2    1    2    0    0  0.00000000000E+00  0.00000000000E+00  0.71790456267E+03  0.93841198128E+03  0.60434268881E+03 0.  0.
        4    1    3    3  502    0  0.62940502297E+02 -0.86705250497E+02 -0.79764342326E+02  0.13357870526E+03  0.12699999809E+01 0.  1.
       -4    1    3    3    0  502 -0.62940502297E+02  0.86705250497E+02  0.79766890499E+03  0.80483327602E+03  0.12699999809E+01 0. -1.
</event>
<event>
 5   0  0.2309055E-02  0.6046290E+03  0.7818609E-02  0.9895849E-01
        1   -1    0    0  501    0  0.00000000000E+00  0.00000000000E+00  0.16190466860E+03  0.16190466868E+03  0.50400001928E-02 0. -1.
       -1   -1    0    0    0  501  0.00000000000E+00  0.00000000000E+00 -0.56449311916E+03  0.56449311918E+03  0.50400001928E-02 0.  1.
    10030    2    1    2    0    0  0.00000000000E+00  0.00000000000E+00 -0.40258845056E+03  0.72639778785E+03  0.60462904799E+03 0.  0.
        4    1    3    3  502    0  0.16807157909E+03  0.17960938720E+03 -0.41242833423E+03  0.48021488049E+03  0.12699999809E+01 0.  1.
       -4    1    3    3    0  502 -0.16807157909E+03 -0.17960938720E+03  0.98398836693E+01  0.24618290737E+03  0.12699999809E+01 0. -1.
</event>
<event>
 5   0  0.3832191E-02  0.6084379E+03  0.7818609E-02  0.9888053E-01
        2   -1    0    0  501    0  0.00000000000E+00  0.00000000000E+00  0.29765227142E+03  0.29765227143E+03  0.25500000920E-02 0.  1.
       -2   -1    0    0    0  501  0.00000000000E+00  0.00000000000E+00 -0.31093049205E+03  0.31093049206E+03  0.25500000920E-02 0. -1.
    10030    2    1    2    0    0  0.00000000000E+00  0.00000000000E+00 -0.13278220632E+02  0.60858276349E+03  0.60843789238E+03 0.  0.
        3    1    3    3  502    0  0.11929938762E+02  0.88316874631E+02 -0.29758112935E+03  0.31063923212E+03  0.10100000352E+00 0. -1.
       -3    1    3    3    0  502 -0.11929938762E+02 -0.88316874631E+02  0.28430290872E+03  0.29794353138E+03  0.10100000352E+00 0.  1.
</event>
<event>
 5   0  0.3832191E-02  0.5950698E+03  0.7818609E-02  0.9915688E-01
        2   -1    0    0  501    0  0.00000000000E+00  0.00000000000E+00  0.21718492680E+03  0.21718492682E+03  0.25500000920E-02 0.  1.
       -2   -1    0    0    0  501  0.00000000000E+00  0.00000000000E+00 -0.40761127052E+03  0.40761127053E+03  0.25500000920E-02 0. -1.
    10030    2    1    2    0    0  0.00000000000E+00  0.00000000000E+00 -0.19042634372E+03  0.62479619735E+03  0.59506982434E+03 0.  0.
        3    1    3    3  502    0 -0.48267858996E+00  0.27750750612E+03  0.17461981258E+02  0.27805679262E+03  0.10100000352E+00 0.  1.
       -3    1    3    3    0  502  0.48267858996E+00 -0.27750750612E+03 -0.20788832498E+03  0.34673940473E+03  0.10100000352E+00 0. -1.
</event>
<event>
 5   0  0.2225808E-02  0.6069474E+03  0.7818609E-02  0.9891096E-01
       -1   -1    0    0    0  501  0.00000000000E+00  0.00000000000E+00  0.62424122409E+03  0.62424122411E+03  0.50400001928E-02 0. -1.
        1   -1    0    0  501    0  0.00000000000E+00  0.00000000000E+00 -0.14753317852E+03  0.14753317860E+03  0.50400001928E-02 0.  1.
    10030    2    1    2    0    0  0.00000000000E+00  0.00000000000E+00  0.47670804557E+03  0.77177440271E+03  0.60694741780E+03 0.  0.
        2    1    3    3  502    0 -0.20712389308E+03  0.21807270111E+03  0.18685505163E+03  0.35407742145E+03  0.25500000920E-02 0.  1.
       -2    1    3    3    0  502  0.20712389308E+03 -0.21807270111E+03  0.28985299394E+03  0.41769698126E+03  0.25500000920E-02 0. -1.
</event>
<event>
 5   0  0.1521750E-02  0.5962774E+03  0.7818609E-02  0.9913159E-01
        3   -1    0    0  501    0  0.00000000000E+00  0.00000000000E+00  0.14748145970E+04  0.14748146005E+04  0.10100000352E+00 0. -1.
       -3   -1    0    0    0  501  0.00000000000E+00  0.00000000000E+00 -0.60269694865E+02  0.60269779493E+02  0.10100000352E+00 0.  1.
    10030    2    1    2    0    0  0.00000000000E+00  0.00000000000E+00  0.14145449022E+04  0.15350843800E+04  0.59627742991E+03 0.  0.
        2    1    3    3  502    0 -0.56837025294E+02  0.17128052785E+03  0.96313231033E+02  0.20455733950E+03  0.25500000920E-02 0.  1.
       -2    1    3    3    0  502  0.56837025294E+02 -0.17128052785E+03  0.13182316711E+04  0.13305270405E+04  0.25500000920E-02 0. -1.
</event>
<event>
 5   0  0.2382531E-02  0.6055243E+03  0.7818609E-02  0.9894011E-01
        1   -1    0    0  501    0  0.00000000000E+00  0.00000000000E+00  0.11620528934E+04  0.11620528934E+04  0.50400001928E-02 0. -1.
       -1   -1    0    0    0  501  0.00000000000E+00  0.00000000000E+00 -0.78881890977E+02  0.78881891138E+02  0.50400001928E-02 0.  1.
    10030    2    1    2    0    0  0.00000000000E+00  0.00000000000E+00  0.10831710024E+04  0.12409347845E+04  0.60552433395E+03 0.  0.
        5    1    3    3  502    0  0.23893540217E+03  0.12070265146E+03  0.25188180243E+03  0.36759459854E+03  0.46999998093E+01 0.  1.
       -5    1    3    3    0  502 -0.23893540217E+03 -0.12070265146E+03  0.83128919997E+03  0.87334018599E+03  0.46999998093E+01 0. -1.
</event>
<event>
 5   0  0.3737642E-02  0.5984752E+03  0.7818609E-02  0.9908575E-01
       -2   -1    0    0    0  501  0.00000000000E+00  0.00000000000E+00  0.31035970634E+03  0.31035970635E+03  0.25500000920E-02 0. -1.
        2   -1    0    0  501    0  0.00000000000E+00  0.00000000000E+00 -0.28851410642E+03  0.28851410643E+03  0.25500000920E-02 0.  1.
    10030    2    1    2    0    0  0.00000000000E+00  0.00000000000E+00  0.21845599914E+02  0.59887381278E+03  0.59847524042E+03 0.  0.
        5    1    3    3  502    0 -0.79857353002E+02 -0.22850593447E+03 -0.16506047823E+03  0.29301742335E+03  0.46999998093E+01 0.  1.
       -5    1    3    3    0  502  0.79857353002E+02  0.22850593447E+03  0.18690607814E+03  0.30585638944E+03  0.46999998093E+01 0. -1.
</event>
<event>
 5   0  0.3934634E-02  0.5994823E+03  0.7818609E-02  0.9906481E-01
       -2   -1    0    0    0  501  0.00000000000E+00  0.00000000000E+00  0.76105189385E+02  0.76105189428E+02  0.25500000920E-02 0. -1.
        2   -1    0    0  501    0  0.00000000000E+00  0.00000000000E+00 -0.11805339954E+04  0.11805339954E+04  0.25500000920E-02 0.  1.
    10030    2    1    2    0    0  0.00000000000E+00  0.00000000000E+00 -0.11044288060E+04  0.12566391848E+04  0.59948232108E+03 0.  0.
        1    1    3    3  502    0 -0.88145272100E+02  0.30789649589E+02 -0.11492735906E+04  0.11530600061E+04  0.50400001928E-02 0.  1.
       -1    1    3    3    0  502  0.88145272100E+02 -0.30789649589E+02  0.44844784680E+02  0.10357917867E+03  0.50400001928E-02 0. -1.
</event>
<event>
 5   0  0.2382531E-02  0.6093629E+03  0.7818609E-02  0.9886169E-01
       -1   -1    0    0    0  501  0.00000000000E+00  0.00000000000E+00  0.85669171168E+02  0.85669171316E+02  0.50400001928E-02 0. -1.
        1   -1    0    0  501    0  0.00000000000E+00  0.00000000000E+00 -0.10835962379E+04  0.10835962379E+04  0.50400001928E-02 0.  1.
    10030    2    1    2    0    0  0.00000000000E+00  0.00000000000E+00 -0.99792706672E+03  0.11692654092E+04  0.60936291871E+03 0.  0.
        5    1    3    3  502    0 -0.14756225604E+03 -0.25762436005E+03 -0.63000408286E+03  0.69647122318E+03  0.46999998093E+01 0.  1.
       -5    1    3    3    0  502  0.14756225604E+03  0.25762436005E+03 -0.36792298386E+03  0.47279418604E+03  0.46999998093E+01 0. -1.
</event>
<event>
 5   0  0.2225808E-02  0.5797181E+03  0.7818609E-02  0.9948401E-01
       -1   -1    0    0    0  501  0.00000000000E+00  0.00000000000E+00  0.18705950527E+03  0.18705950534E+03  0.50400001928E-02 0.  1.
        1   -1    0    0  501    0  0.00000000000E+00  0.00000000000E+00 -0.44915270756E+03  0.44915270758E+03  0.50400001928E-02 0. -1.
    10030    2    1    2    0    0  0.00000000000E+00  0.00000000000E+00 -0.26209320228E+03  0.63621221292E+03  0.57971814979E+03 0.  0.
        2    1    3    3  502    0 -0.19131740160E+03 -0.10046907778E+03  0.80968587210E+02  0.23076458972E+03  0.25500000920E-02 0.  1.
       -2    1    3    3    0  502  0.19131740160E+03  0.10046907778E+03 -0.34306178949E+03  0.40544762321E+03  0.25500000920E-02 0. -1.
</event>
<event>
 5   0  0.3724066E-02  0.6004151E+03  0.7818609E-02  0.9904545E-01
        2   -1    0    0  501    0  0.00000000000E+00  0.00000000000E+00  0.13687605485E+04  0.13687605486E+04  0.25500000920E-02 0.  1.
       -2   -1    0    0    0  501  0.00000000000E+00  0.00000000000E+00 -0.65843932569E+02  0.65843932618E+02  0.25500000920E-02 0. -1.
    10030    2    1    2    0    0  0.00000000000E+00  0.00000000000E+00  0.13029166160E+04  0.14346044812E+04  0.60041511406E+03 0.  0.
        4    1    3    3  502    0 -0.20643382402E+03 -0.37601119872E+02  0.11644421565E+04  0.11831973278E+04  0.12699999809E+01 0.  1.
       -4    1    3    3    0  502  0.20643382402E+03  0.37601119872E+02  0.13847445951E+03  0.25140715334E+03  0.12699999809E+01 0. -1.
</event>
<event>
 5   0  0.3832191E-02  0.6087584E+03  0.7818609E-02  0.9887400E-01
       -2   -1    0    0    0  501  0.00000000000E+00  0.00000000000E+00  0.30995492258E+03  0.30995492259E+03  0.25500000920E-02 0. -1.
        2   -1    0    0  501    0  0.00000000000E+00  0.00000000000E+00 -0.29890375411E+03  0.29890375412E+03  0.25500000920E-02 0.  1.
    10030    2    1    2    0    0  0.00000000000E+00  0.00000000000E+00  0.11051168468E+02  0.60885867671E+03  0.60875837561E+03 0.  0.
        3    1    3    3  502    0 -0.28675429072E+00  0.68993977360E+02  0.30203088258E+03  0.30981109627E+03  0.10100000352E+00 0. -1.
       -3    1    3    3    0  502  0.28675429072E+00 -0.68993977360E+02 -0.29097971411E+03  0.29904758044E+03  0.10100000352E+00 0.  1.
</event>
<event>
 5   0  0.3737642E-02  0.5968137E+03  0.7818609E-02  0.9912039E-01
        2   -1    0    0  501    0  0.00000000000E+00  0.00000000000E+00  0.89447877528E+03  0.89447877529E+03  0.25500000920E-02 0.  1.
       -2   -1    0    0    0  501  0.00000000000E+00  0.00000000000E+00 -0.99551441255E+02  0.99551441288E+02  0.25500000920E-02 0. -1.
    10030    2    1    2    0    0  0.00000000000E+00  0.00000000000E+00  0.79492733403E+03  0.99403021657E+03  0.59681371053E+03 0.  0.
        5    1    3    3  502    0 -0.17568206787E+03 -0.11373361824E+03  0.43262280267E+02  0.21375977119E+03  0.46999998093E+01 0. -1.
       -5    1    3    3    0  502  0.17568206787E+03  0.11373361824E+03  0.75166505376E+03  0.78027044538E+03  0.46999998093E+01 0.  1.
</event>
<event>
 5   0  0.3737642E-02  0.5923640E+03  0.7818609E-02  0.9921376E-01
        2   -1    0    0  501    0  0.00000000000E+00  0.00000000000E+00  0.50060339593E+03  0.50060339593E+03  0.25500000920E-02 0. -1.
       -2   -1    0    0    0  501  0.00000000000E+00  0.00000000000E+00 -0.17523606405E+03  0.17523606407E+03  0.25500000920E-02 0.  1.
    10030    2    1    2    0    0  0.00000000000E+00  0.00000000000E+00  0.32536733187E+03  0.67583946001E+03  0.59236397177E+03 0.  0.
        5    1    3    3  502    0  0.25436680818E+03 -0.12201349663E+03  0.59925455538E+02  0.28844915789E+03  0.46999998093E+01 0.  1.
       -5    1    3    3    0  502 -0.25436680818E+03  0.12201349663E+03  0.26544187633E+03  0.38739030212E+03  0.46999998093E+01 0. -1.
</event>
<event>
 5   0  0.3737642E-02  0.6079837E+03  0.7818609E-02  0.9888979E-01
        2   -1    0    0  501    0  0.00000000000E+00  0.00000000000E+00  0.50510504752E+03  0.50510504752E+03  0.25500000920E-02 0. -1.
       -2   -1    0    0    0  501  0.00000000000E+00  0.00000000000E+00 -0.18295411948E+03  0.18295411950E+03  0.25500000920E-02 0.  1.
    10030    2    1    2    0    0  0.00000000000E+00  0.00000000000E+00  0.32215092804E+03  0.68805916702E+03  0.60798371433E+03 0.  0.
        5    1    3    3  502    0 -0.16035003641E+03 -0.17563470877E+03 -0.53140998828E+02  0.24373292936E+03  0.46999998093E+01 0.  1.
       -5    1    3    3    0  502  0.16035003641E+03  0.17563470877E+03  0.37529192687E+03  0.44432623766E+03  0.46999998093E+01 0. -1.
</event>
<event>
 5   0  0.2382531E-02  0.5587838E+03  0.7818609E-02  0.9994810E-01
       -1   -1    0    0    0  501  0.00000000000E+00  0.00000000000E+00  0.13759159583E+03  0.13759159592E+03  0.50400001928E-02 0.  1.
        1   -1    0    0  501    0  0.00000000000E+00  0.00000000000E+00 -0.56732988877E+03  0.56732988880E+03  0.50400001928E-02 0. -1.
    10030    2    1    2    0    0  0.00000000000E+00  0.00000000000E+00 -0.42973829295E+03  0.70492148472E+03  0.55878376783E+03 0.  0.
        5    1    3    3  502    0  0.26275585206E+03  0.21826004277E-01 -0.95209378723E+02  0.27951306600E+03  0.46999998093E+01 0.  1.
       -5    1    3    3    0  502 -0.26275585206E+03 -0.21826004277E-01 -0.33452891422E+03  0.42540841872E+03  0.46999998093E+01 0. -1.
</event>
<event>
 5   0  0.3934634E-02  0.5961383E+03  0.7818609E-02  0.9913450E-01
        2   -1    0    0  501    0  0.00000000000E+00  0.00000000000E+00  0.17964169394E+04  0.17964169394E+04  0.25500000920E-02 0. -1.
       -2   -1    0    0    0  501  0.00000000000E+00  0.00000000000E+00 -0.49456903882E+02  0.49456903947E+02  0.25500000920E-02 0.  1.
    10030    2    1    2    0    0  0.00000000000E+00  0.00000000000E+00  0.17469600355E+04  0.18458738434E+04  0.59613830599E+03 0.  0.
        1    1    3    3  502    0  0.26029785327E+03 -0.39266259105E+02  0.44055698851E+03  0.51321269633E+03  0.50400001928E-02 0.  1.
       -1    1    3    3    0  502 -0.26029785327E+03  0.39266259105E+02  0.13064030470E+04  0.13326611471E+04  0.50400001928E-02 0. -1.
</event>
<event>
 5   0  0.2225808E-02  0.5991759E+03  0.7818609E-02  0.9907117E-01
       -1   -1    0    0    0  501  0.00000000000E+00  0.00000000000E+00  0.10894692681E+03  0.10894692693E+03  0.50400001928E-02 0.  1.
        1   -1    0    0  501    0  0.00000000000E+00  0.00000000000E+00 -0.82382262052E+03  0.82382262054E+03  0.50400001928E-02 0. -1.
    10030    2    1    2    0    0  0.00000000000E+00  0.00000000000E+00 -0.71487569371E+03  0.93276954747E+03  0.59917591009E+03 0.  0.
        2    1    3    3  502    0  0.33575040485E+02 -0.15392879181E+03  0.39249202261E+02  0.16236334616E+03  0.25500000920E-02 0.  1.
       -2    1    3    3    0  502 -0.33575040485E+02  0.15392879181E+03 -0.75412489597E+03  0.77040620131E+03  0.25500000920E-02 0. -1.
</event>
<event>
 5   0  0.2225808E-02  0.6004822E+03  0.7818609E-02  0.9904406E-01
       -1   -1    0    0    0  501  0.00000000000E+00  0.00000000000E+00  0.97445943933E+02  0.97445944063E+02  0.50400001928E-02 0.  1.
        1   -1    0    0  501    0  0.00000000000E+00  0.00000000000E+00 -0.92507395916E+03  0.92507395917E+03  0.50400001928E-02 0. -1.
    10030    2    1    2    0    0  0.00000000000E+00  0.00000000000E+00 -0.82762801523E+03  0.10225199032E+04  0.60048215704E+03 0.  0.
        2    1    3    3  502    0 -0.22144253396E+03 -0.87930837713E+02 -0.72490634106E+03  0.76305820969E+03  0.25500000920E-02 0. -1.
       -2    1    3    3    0  502  0.22144253396E+03  0.87930837713E+02 -0.10272167417E+03  0.25946169354E+03  0.25500000920E-02 0.  1.
</event>
<event>
 5   0  0.2295179E-02  0.5951819E+03  0.7818609E-02  0.9915453E-01
       -1   -1    0    0    0  501  0.00000000000E+00  0.00000000000E+00  0.16573131351E+03  0.16573131358E+03  0.50400001928E-02 0.  1.
        1   -1    0    0  501    0  0.00000000000E+00  0.00000000000E+00 -0.53436106478E+03  0.53436106480E+03  0.50400001928E-02 0. -1.
    10030    2    1    2    0    0  0.00000000000E+00  0.00000000000E+00 -0.36862975127E+03  0.70009237838E+03  0.59518185855E+03 0.  0.
        3    1    3    3  502    0 -0.10092117556E+02  0.29109001676E+03 -0.25610666302E+03  0.38784775588E+03  0.10100000352E+00 0.  1.
       -3    1    3    3    0  502  0.10092117556E+02 -0.29109001676E+03 -0.11252308825E+03  0.31224462251E+03  0.10100000352E+00 0. -1.
</event>
<event>
 5   0  0.3934634E-02  0.5994116E+03  0.7818609E-02  0.9906627E-01
        2   -1    0    0  501    0  0.00000000000E+00  0.00000000000E+00  0.16864632219E+04  0.16864632219E+04  0.25500000920E-02 0.  1.
       -2   -1    0    0    0  501  0.00000000000E+00  0.00000000000E+00 -0.53261509349E+02  0.53261509410E+02  0.25500000920E-02 0. -1.
    10030    2    1    2    0    0  0.00000000000E+00  0.00000000000E+00  0.16332017125E+04  0.17397247313E+04  0.59941163390E+03 0.  0.
        1    1    3    3  502    0 -0.19383063565E+03 -0.18609598072E+03  0.12018816765E+04  0.12315525135E+04  0.50400001928E-02 0.  1.
       -1    1    3    3    0  502  0.19383063565E+03  0.18609598072E+03  0.43132003606E+03  0.50817221774E+03  0.50400001928E-02 0. -1.
</event>
<event>
 5   0  0.2309055E-02  0.5975511E+03  0.7818609E-02  0.9910500E-01
       -1   -1    0    0    0  501  0.00000000000E+00  0.00000000000E+00  0.14309689076E+03  0.14309689085E+03  0.50400001928E-02 0. -1.
        1   -1    0    0  501    0  0.00000000000E+00  0.00000000000E+00 -0.62382089089E+03  0.62382089091E+03  0.50400001928E-02 0.  1.
    10030    2    1    2    0    0  0.00000000000E+00  0.00000000000E+00 -0.48072400013E+03  0.76691778175E+03  0.59755110214E+03 0.  0.
        4    1    3    3  502    0  0.14533552313E+03  0.25790233668E+03 -0.18855847818E+03  0.35098709683E+03  0.12699999809E+01 0.  1.
       -4    1    3    3    0  502 -0.14533552313E+03 -0.25790233668E+03 -0.29216552195E+03  0.41593068492E+03  0.12699999809E+01 0. -1.
</event>
<event>
 5   0  0.2309055E-02  0.6021286E+03  0.7818609E-02  0.9901000E-01
        1   -1    0    0  501    0  0.00000000000E+00  0.00000000000E+00  0.63390505941E+03  0.63390505943E+03  0.50400001928E-02 0.  1.
       -1   -1    0    0    0  501  0.00000000000E+00  0.00000000000E+00 -0.14298627041E+03  0.14298627049E+03  0.50400001928E-02 0. -1.
    10030    2    1    2    0    0  0.00000000000E+00  0.00000000000E+00  0.49091878900E+03  0.77689132992E+03  0.60212862506E+03 0.  0.
        4    1    3    3  502    0 -0.49020298782E+02  0.27741299798E+02  0.62704280618E+03  0.62956879139E+03  0.12699999809E+01 0.  1.
       -4    1    3    3    0  502  0.49020298782E+02 -0.27741299798E+02 -0.13612401718E+03  0.14732253853E+03  0.12699999809E+01 0. -1.
</event>
<event>
 5   0  0.2295179E-02  0.5795528E+03  0.7818609E-02  0.9948760E-01
       -1   -1    0    0    0  501  0.00000000000E+00  0.00000000000E+00  0.18318192259E+03  0.18318192266E+03  0.50400001928E-02 0.  1.
        1   -1    0    0  501    0  0.00000000000E+00  0.00000000000E+00 -0.45839868702E+03  0.45839868704E+03  0.50400001928E-02 0. -1.
    10030    2    1    2    0    0  0.00000000000E+00  0.00000000000E+00 -0.27521676442E+03  0.64158060971E+03  0.57955276838E+03 0.  0.
        3    1    3    3  502    0 -0.10818183271E+03 -0.21613211252E+03  0.39356548973E+02  0.24487822921E+03  0.10100000352E+00 0.  1.
       -3    1    3    3    0  502  0.10818183271E+03  0.21613211252E+03 -0.31457331340E+03  0.39670238050E+03  0.10100000352E+00 0. -1.
</event>
<event>
 5   0  0.3798925E-02  0.5830926E+03  0.7818609E-02  0.9941118E-01
       -2   -1    0    0    0  501  0.00000000000E+00  0.00000000000E+00  0.11709078098E+03  0.11709078101E+03  0.25500000920E-02 0. -1.
        2   -1    0    0  501    0  0.00000000000E+00  0.00000000000E+00 -0.72592601014E+03  0.72592601015E+03  0.25500000920E-02 0.  1.
    10030    2    1    2    0    0  0.00000000000E+00  0.00000000000E+00 -0.60883522917E+03  0.84301679115E+03  0.58309259462E+03 0.  0.
        2    1    3    3  502    0  0.20062697883E+03  0.93831103158E+02 -0.57851859594E+03  0.61946688887E+03  0.25500000920E-02 0.  1.
       -2    1    3    3    0  502 -0.20062697883E+03 -0.93831103158E+02 -0.30316633229E+02  0.22354990229E+03  0.25500000920E-02 0. -1.
</event>
<event>
 5   0  0.3724066E-02  0.5983282E+03  0.7818609E-02  0.9908881E-01
        2   -1    0    0  501    0  0.00000000000E+00  0.00000000000E+00  0.17281204708E+03  0.17281204710E+03  0.25500000920E-02 0. -1.
       -2   -1    0    0    0  501  0.00000000000E+00  0.00000000000E+00 -0.51789876922E+03  0.51789876923E+03  0.25500000920E-02 0.  1.
    10030    2    1    2    0    0  0.00000000000E+00  0.00000000000E+00 -0.34508672214E+03  0.69071081633E+03  0.59832815912E+03 0.  0.
        4    1    3    3  502    0  0.23577280315E+02  0.28268844644E+03 -0.62851617372E+02  0.29055220633E+03  0.12699999809E+01 0. -1.
       -4    1    3    3    0  502 -0.23577280315E+02 -0.28268844644E+03 -0.28223510477E+03  0.40015861000E+03  0.12699999809E+01 0.  1.
</event>
<event>
 5   0  0.3737642E-02  0.6054421E+03  0.7818609E-02  0.9894179E-01
       -2   -1    0    0    0  501  0.00000000000E+00  0.00000000000E+00  0.17877270206E+03  0.17877270207E+03  0.25500000920E-02 0.  1.
        2   -1    0    0  501    0  0.00000000000E+00  0.00000000000E+00 -0.51260645068E+03  0.51260645068E+03  0.25500000920E-02 0. -1.
    10030    2    1    2    0    0  0.00000000000E+00  0.00000000000E+00 -0.33383374862E+03  0.69137915276E+03  0.60544212040E+03 0.  0.
        5    1    3    3  502    0  0.94762305502E+01  0.26206857048E+03 -0.33952840102E+03  0.42903538278E+03  0.46999998093E+01 0. -1.
       -5    1    3    3    0  502 -0.94762305502E+01 -0.26206857048E+03  0.56946523992E+01  0.26234376998E+03  0.46999998093E+01 0.  1.
</event>
<event>
 5   0  0.3832191E-02  0.6333613E+03  0.7818609E-02  0.9838511E-01
       -2   -1    0    0    0  501  0.00000000000E+00  0.00000000000E+00  0.46417558472E+03  0.46417558473E+03  0.25500000920E-02 0.  1.
        2   -1    0    0  501    0  0.00000000000E+00  0.00000000000E+00 -0.21605319756E+03  0.21605319757E+03  0.25500000920E-02 0. -1.
    10030    2    1    2    0    0  0.00000000000E+00  0.00000000000E+00  0.24812238716E+03  0.68022878230E+03  0.63336125336E+03 0.  0.
        3    1    3    3  502    0  0.21027429313E+03  0.79906589976E+01  0.37823250490E+03  0.43282671699E+03  0.10100000352E+00 0.  1.
       -3    1    3    3    0  502 -0.21027429313E+03 -0.79906589976E+01 -0.13011011774E+03  0.24740206531E+03  0.10100000352E+00 0. -1.
</event>
<event>
 5   0  0.3737642E-02  0.5981785E+03  0.7818609E-02  0.9909192E-01
       -2   -1    0    0    0  501  0.00000000000E+00  0.00000000000E+00  0.64036911632E+02  0.64036911682E+02  0.25500000920E-02 0. -1.
        2   -1    0    0  501    0  0.00000000000E+00  0.00000000000E+00 -0.13969189918E+04  0.13969189918E+04  0.25500000920E-02 0.  1.
    10030    2    1    2    0    0  0.00000000000E+00  0.00000000000E+00 -0.13328820802E+04  0.14609559035E+04  0.59817849534E+03 0.  0.
        5    1    3    3  502    0 -0.27184475809E+03 -0.10621104891E+03 -0.82569832099E+03  0.87577403860E+03  0.46999998093E+01 0.  1.
       -5    1    3    3    0  502  0.27184475809E+03  0.10621104891E+03 -0.50718375918E+03  0.58518186488E+03  0.46999998093E+01 0. -1.
</event>
<event>
 5   0  0.3798925E-02  0.5980455E+03  0.7818609E-02  0.9909469E-01
       -2   -1    0    0    0  501  0.00000000000E+00  0.00000000000E+00  0.59851227796E+02  0.59851227851E+02  0.25500000920E-02 0.  1.
        2   -1    0    0  501    0  0.00000000000E+00  0.00000000000E+00 -0.14939475001E+04  0.14939475001E+04  0.25500000920E-02 0. -1.
    10030    2    1    2    0    0  0.00000000000E+00  0.00000000000E+00 -0.14340962723E+04  0.15537987279E+04  0.59804545709E+03 0.  0.
        2    1    3    3  502    0  0.20467813994E+03  0.20630705214E+03 -0.53409025791E+03  0.60803630182E+03  0.25500000920E-02 0.  1.
       -2    1    3    3    0  502 -0.20467813994E+03 -0.20630705214E+03 -0.90000601436E+03  0.94576242610E+03  0.25500000920E-02 0. -1.
</event>
<event>
 5   0  0.2276105E-02  0.5865759E+03  0.7818609E-02  0.9933655E-01
       -1   -1    0    0    0  501  0.00000000000E+00  0.00000000000E+00  0.19248483823E+03  0.19248483829E+03  0.50400001928E-02 0.  1.
        1   -1    0    0  501    0  0.00000000000E+00  0.00000000000E+00 -0.44688098538E+03  0.44688098541E+03  0.50400001928E-02 0. -1.
    10030    2    1    2    0    0  0.00000000000E+00  0.00000000000E+00 -0.25439614715E+03  0.63936582370E+03  0.58657587474E+03 0.  0.
        1    1    3    3  502    0 -0.97773106869E+02 -0.27629265757E+03 -0.11522788737E+03  0.31492011544E+03  0.50400001928E-02 0. -1.
       -1    1    3    3    0  502  0.97773106869E+02  0.27629265757E+03 -0.13916825978E+03  0.32444570826E+03  0.50400001928E-02 0.  1.
</event>
<event>
 5   0  0.2309055E-02  0.6042533E+03  0.7818609E-02  0.9896621E-01
       -1   -1    0    0    0  501  0.00000000000E+00  0.00000000000E+00  0.67620668529E+03  0.67620668531E+03  0.50400001928E-02 0.  1.
        1   -1    0    0  501    0  0.00000000000E+00  0.00000000000E+00 -0.13498907973E+03  0.13498907983E+03  0.50400001928E-02 0. -1.
    10030    2    1    2    0    0  0.00000000000E+00  0.00000000000E+00  0.54121760556E+03  0.81119576514E+03  0.60425331841E+03 0.  0.
        4    1    3    3  502    0  0.59999891040E+01  0.17216752782E+03 -0.62588429531E+02  0.18329370397E+03  0.12699999809E+01 0. -1.
       -4    1    3    3    0  502 -0.59999891040E+01 -0.17216752782E+03  0.60380603509E+03  0.62790206117E+03  0.12699999809E+01 0.  1.
</event>
<event>
 5   0  0.3724066E-02  0.6058398E+03  0.7818609E-02  0.9893364E-01
        2   -1    0    0  501    0  0.00000000000E+00  0.00000000000E+00  0.84501037847E+03  0.84501037847E+03  0.25500000920E-02 0. -1.
       -2   -1    0    0    0  501  0.00000000000E+00  0.00000000000E+00 -0.10859092660E+03  0.10859092663E+03  0.25500000920E-02 0.  1.
    10030    2    1    2    0    0  0.00000000000E+00  0.00000000000E+00  0.73641945187E+03  0.95360130511E+03  0.60583978081E+03 0.  0.
        4    1    3    3  502    0 -0.15191073302E+03 -0.99950489954E+02 -0.13117702959E+02  0.18232020809E+03  0.12699999809E+01 0.  1.
       -4    1    3    3    0  502  0.15191073302E+03  0.99950489954E+02  0.74953715483E+03  0.77128109702E+03  0.12699999809E+01 0. -1.
</event>
<event>
 5   0  0.3724066E-02  0.5995576E+03  0.7818609E-02  0.9906324E-01
       -2   -1    0    0    0  501  0.00000000000E+00  0.00000000000E+00  0.99396701273E+02  0.99396701306E+02  0.25500000920E-02 0.  1.
        2   -1    0    0  501    0  0.00000000000E+00  0.00000000000E+00 -0.90412776025E+03  0.90412776025E+03  0.25500000920E-02 0. -1.
    10030    2    1    2    0    0  0.00000000000E+00  0.00000000000E+00 -0.80473105898E+03  0.10035244616E+04  0.59955755993E+03 0.  0.
        4    1    3    3  502    0 -0.26559868838E+03 -0.10669786343E+03 -0.25323408566E+03  0.38217301366E+03  0.12699999809E+01 0.  1.
       -4    1    3    3    0  502  0.26559868838E+03  0.10669786343E+03 -0.55149697332E+03  0.62135144790E+03  0.12699999809E+01 0. -1.
</event>
<event>
 5   0  0.2225808E-02  0.5971352E+03  0.7818609E-02  0.9911367E-01
       -1   -1    0    0    0  501  0.00000000000E+00  0.00000000000E+00  0.33633749331E+03  0.33633749335E+03  0.50400001928E-02 0.  1.
        1   -1    0    0  501    0  0.00000000000E+00  0.00000000000E+00 -0.26503921217E+03  0.26503921221E+03  0.50400001928E-02 0. -1.
    10030    2    1    2    0    0  0.00000000000E+00  0.00000000000E+00  0.71298281147E+02  0.60137670557E+03  0.59713524189E+03 0.  0.
        2    1    3    3  502    0 -0.16390468905E+03  0.29807400123E+02  0.28517788358E+03  0.33027209008E+03  0.25500000920E-02 0.  1.
       -2    1    3    3    0  502  0.16390468905E+03 -0.29807400123E+02 -0.21387960243E+03  0.27110461549E+03  0.25500000920E-02 0. -1.
</event>
<event>
 5   0  0.1521750E-02  0.5518779E+03  0.7818609E-02  0.1001060E+00
        4   -1    0    0  501    0  0.00000000000E+00  0.00000000000E+00  0.87517583549E+02  0.87526797783E+02  0.12699999809E+01 0.  1.
       -4   -1    0    0    0  501  0.00000000000E+00  0.00000000000E+00 -0.86996755250E+03  0.86996847948E+03  0.12699999809E+01 0. -1.
    10030    2    1    2    0    0  0.00000000000E+00  0.00000000000E+00 -0.78244996895E+03  0.95749527727E+03  0.55187793223E+03 0.  0.
        3    1    3    3  502    0 -0.15569837620E+03 -0.19315699866E+03 -0.18165380284E+03  0.30748938969E+03  0.10100000352E+00 0.  1.
       -3    1    3    3    0  502  0.15569837620E+03  0.19315699866E+03 -0.60079616610E+03  0.65000588758E+03  0.10100000352E+00 0. -1.
</event>
<event>
 5   0  0.3798925E-02  0.6003749E+03  0.7818609E-02  0.9904629E-01
       -2   -1    0    0    0  501  0.00000000000E+00  0.00000000000E+00  0.17886684016E+03  0.17886684017E+03  0.25500000920E-02 0.  1.
        2   -1    0    0  501    0  0.00000000000E+00  0.00000000000E+00 -0.50379656571E+03  0.50379656571E+03  0.25500000920E-02 0. -1.
    10030    2    1    2    0    0  0.00000000000E+00  0.00000000000E+00 -0.32492972555E+03  0.68266340589E+03  0.60037488221E+03 0.  0.
        2    1    3    3  502    0  0.33992368452E+02  0.21259774586E+03 -0.40032347495E+03  0.45454611126E+03  0.25500000920E-02 0. -1.
       -2    1    3    3    0  502 -0.33992368452E+02 -0.21259774586E+03  0.75393749398E+02  0.22811729463E+03  0.25500000920E-02 0.  1.
</event>
<event>
 5   0  0.3832191E-02  0.6013383E+03  0.7818609E-02  0.9902633E-01
        2   -1    0    0  501    0  0.00000000000E+00  0.00000000000E+00  0.16765086068E+04  0.16765086068E+04  0.25500000920E-02 0.  1.
       -2   -1    0    0    0  501  0.00000000000E+00  0.00000000000E+00 -0.53922744065E+02  0.53922744125E+02  0.25500000920E-02 0. -1.
    10030    2    1    2    0    0  0.00000000000E+00  0.00000000000E+00  0.16225858627E+04  0.17304313509E+04  0.60133832267E+03 0.  0.
        3    1    3    3  502    0 -0.76876887675E+02 -0.21873005066E+02  0.16453771478E+04  0.16473173504E+04  0.10100000352E+00 0.  1.
       -3    1    3    3    0  502  0.76876887675E+02  0.21873005066E+02 -0.22791285061E+02  0.83114000535E+02  0.10100000352E+00 0. -1.
</event>
<event>
 5   0  0.1521750E-02  0.5999325E+03  0.7818609E-02  0.9905546E-01
       -3   -1    0    0    0  501  0.00000000000E+00  0.00000000000E+00  0.38652402609E+03  0.38652403929E+03  0.10100000352E+00 0. -1.
        3   -1    0    0  501    0  0.00000000000E+00  0.00000000000E+00 -0.23279207329E+03  0.23279209520E+03  0.10100000352E+00 0.  1.
    10030    2    1    2    0    0  0.00000000000E+00  0.00000000000E+00  0.15373195280E+03  0.61931613449E+03  0.59993246380E+03 0.  0.
        3    1    3    3  502    0 -0.21357192256E+03 -0.19572213578E+03  0.15722457448E+03  0.32960536640E+03  0.10100000352E+00 0. -1.
       -3    1    3    3    0  502  0.21357192256E+03  0.19572213578E+03 -0.34926216755E+01  0.28971076809E+03  0.10100000352E+00 0.  1.
</event>
<event>
 5   0  0.1521750E-02  0.5991422E+03  0.7818609E-02  0.9907187E-01
       -3   -1    0    0    0  501  0.00000000000E+00  0.00000000000E+00  0.88547086958E+03  0.88547087534E+03  0.10100000352E+00 0. -1.
        3   -1    0    0  501    0  0.00000000000E+00  0.00000000000E+00 -0.10135038962E+03  0.10135043994E+03  0.10100000352E+00 0.  1.
    10030    2    1    2    0    0  0.00000000000E+00  0.00000000000E+00  0.78412047996E+03  0.98682131528E+03  0.59914220449E+03 0.  0.
        4    1    3    3  502    0  0.29281140681E+03 -0.40288408713E+02  0.31171565254E+03  0.42956947840E+03  0.12699999809E+01 0.  1.
       -4    1    3    3    0  502 -0.29281140681E+03  0.40288408713E+02  0.47240482742E+03  0.55725183688E+03  0.12699999809E+01 0. -1.
</event>
<event>
 5   0  0.3798925E-02  0.5991752E+03  0.7818609E-02  0.9907119E-01
       -2   -1    0    0    0  501  0.00000000000E+00  0.00000000000E+00  0.88837982049E+02  0.88837982086E+02  0.25500000920E-02 0. -1.
        2   -1    0    0  501    0  0.00000000000E+00  0.00000000000E+00 -0.10102968889E+04  0.10102968889E+04  0.25500000920E-02 0.  1.
    10030    2    1    2    0    0  0.00000000000E+00  0.00000000000E+00 -0.92145890684E+03  0.10991348710E+04  0.59917522279E+03 0.  0.
        2    1    3    3  502    0 -0.98869299278E+02 -0.10491622022E+03  0.21027328095E+02  0.14568699372E+03  0.25500000920E-02 0. -1.
       -2    1    3    3    0  502  0.98869299278E+02  0.10491622022E+03 -0.94248623493E+03  0.95344787726E+03  0.25500000920E-02 0.  1.
</event>
<event>
 5   0  0.3934634E-02  0.6006684E+03  0.7818609E-02  0.9904020E-01
        2   -1    0    0  501    0  0.00000000000E+00  0.00000000000E+00  0.62462507676E+03  0.62462507677E+03  0.25500000920E-02 0. -1.
       -2   -1    0    0    0  501  0.00000000000E+00  0.00000000000E+00 -0.14440761901E+03  0.14440761903E+03  0.25500000920E-02 0.  1.
    10030    2    1    2    0    0  0.00000000000E+00  0.00000000000E+00  0.48021745775E+03  0.76903269580E+03  0.60066836147E+03 0.  0.
        1    1    3    3  502    0 -0.22347707915E+03 -0.50252195806E+01  0.49691357292E+03  0.54487646005E+03  0.50400001928E-02 0. -1.
       -1    1    3    3    0  502  0.22347707915E+03  0.50252195806E+01 -0.16696115167E+02  0.22415623575E+03  0.50400001928E-02 0.  1.
</event>
<event>
 5   0  0.2295179E-02  0.5995183E+03  0.7818609E-02  0.9906406E-01
        1   -1    0    0  501    0  0.00000000000E+00  0.00000000000E+00  0.10608147343E+04  0.10608147343E+04  0.50400001928E-02 0.  1.
       -1   -1    0    0    0  501  0.00000000000E+00  0.00000000000E+00 -0.84704282331E+02  0.84704282481E+02  0.50400001928E-02 0. -1.
    10030    2    1    2    0    0  0.00000000000E+00  0.00000000000E+00  0.97611045197E+03  0.11455190168E+04  0.59951830947E+03 0.  0.
        3    1    3    3  502    0 -0.17827765525E+03  0.17256235412E+03  0.80946092060E+03  0.84663314405E+03  0.10100000352E+00 0.  1.
       -3    1    3    3    0  502  0.17827765525E+03 -0.17256235412E+03  0.16664953138E+03  0.29888587275E+03  0.10100000352E+00 0. -1.
</event>
<event>
 5   0  0.3737642E-02  0.6048929E+03  0.7818609E-02  0.9895307E-01
       -2   -1    0    0    0  501  0.00000000000E+00  0.00000000000E+00  0.10325434984E+03  0.10325434987E+03  0.25500000920E-02 0.  1.
        2   -1    0    0  501    0  0.00000000000E+00  0.00000000000E+00 -0.88590795039E+03  0.88590795039E+03  0.25500000920E-02 0. -1.
    10030    2    1    2    0    0  0.00000000000E+00  0.00000000000E+00 -0.78265360055E+03  0.98916230027E+03  0.60489288127E+03 0.  0.
        5    1    3    3  502    0  0.13530264902E+03  0.20984608176E+03 -0.11232499609E+03  0.27382691542E+03  0.46999998093E+01 0.  1.
       -5    1    3    3    0  502 -0.13530264902E+03 -0.20984608176E+03 -0.67032860446E+03  0.71533538485E+03  0.46999998093E+01 0. -1.
</event>
<event>
 5   0  0.3724066E-02  0.6007222E+03  0.7818609E-02  0.9903909E-01
        2   -1    0    0  501    0  0.00000000000E+00  0.00000000000E+00  0.15239378583E+03  0.15239378585E+03  0.25500000920E-02 0.  1.
       -2   -1    0    0    0  501  0.00000000000E+00  0.00000000000E+00 -0.59199783009E+03  0.59199783009E+03  0.25500000920E-02 0. -1.
    10030    2    1    2    0    0  0.00000000000E+00  0.00000000000E+00 -0.43960404426E+03  0.74439161594E+03  0.60072220049E+03 0.  0.
        4    1    3    3  502    0  0.23676800172E+03 -0.13989601285E+03 -0.70149536542E+02  0.28381781380E+03  0.12699999809E+01 0. -1.
       -4    1    3    3    0  502 -0.23676800172E+03  0.13989601285E+03 -0.36945450771E+03  0.46057380214E+03  0.12699999809E+01 0.  1.
</event>
<event>
 5   0  0.3798925E-02  0.5907157E+03  0.7818609E-02  0.9924857E-01
       -2   -1    0    0    0  501  0.00000000000E+00  0.00000000000E+00  0.35684351869E+03  0.35684351870E+03  0.25500000920E-02 0. -1.
        2   -1    0    0  501    0  0.00000000000E+00  0.00000000000E+00 -0.24446642337E+03  0.24446642338E+03  0.25500000920E-02 0.  1.
    10030    2    1    2    0    0  0.00000000000E+00  0.00000000000E+00  0.11237709532E+03  0.60130994208E+03  0.59071569718E+03 0.  0.
        2    1    3    3  502    0  0.48407812438E+02  0.19157723080E+03 -0.16727326869E+03  0.25889283129E+03  0.25500000920E-02 0.  1.
       -2    1    3    3    0  502 -0.48407812438E+02 -0.19157723080E+03  0.27965036401E+03  0.34241711079E+03  0.25500000920E-02 0. -1.
</event>
<event>
 5   0  0.2295179E-02  0.5943613E+03  0.7818609E-02  0.9917174E-01
        1   -1    0    0  501    0  0.00000000000E+00  0.00000000000E+00  0.20005777614E+03  0.20005777620E+03  0.50400001928E-02 0.  1.
       -1   -1    0    0    0  501  0.00000000000E+00  0.00000000000E+00 -0.44145416270E+03  0.44145416273E+03  0.50400001928E-02 0. -1.
    10030    2    1    2    0    0  0.00000000000E+00  0.00000000000E+00 -0.24139638657E+03  0.64151193893E+03  0.59436129782E+03 0.  0.
        3    1    3    3  502    0  0.94640783893E+02  0.54180186349E+02 -0.41907769340E+03  0.43303405625E+03  0.10100000352E+00 0. -1.
       -3    1    3    3    0  502 -0.94640783893E+02 -0.54180186349E+02  0.17768130683E+03  0.20847788268E+03  0.10100000352E+00 0.  1.
</event>
<event>
 5   0  0.2382531E-02  0.5999480E+03  0.7818609E-02  0.9905514E-01
       -1   -1    0    0    0  501  0.00000000000E+00  0.00000000000E+00  0.28281239816E+03  0.28281239820E+03  0.50400001928E-02 0. -1.
        1   -1    0    0  501    0  0.00000000000E+00  0.00000000000E+00 -0.31817695125E+03  0.31817695129E+03  0.50400001928E-02 0.  1.
    10030    2    1    2    0    0  0.00000000000E+00  0.00000000000E+00 -0.35364553092E+02  0.60098934949E+03  0.59994795323E+03 0.  0.
        5    1    3    3  502    0 -0.31102060062E+02 -0.20464343948E+03 -0.23512130745E+03  0.31328963385E+03  0.46999998093E+01 0.  1.
       -5    1    3    3    0  502  0.31102060062E+02  0.20464343948E+03  0.19975675436E+03  0.28769971563E+03  0.46999998093E+01 0. -1.
</event>
<event>
 5   0  0.3934634E-02  0.6004125E+03  0.7818609E-02  0.9904551E-01
       -2   -1    0    0    0  501  0.00000000000E+00  0.00000000000E+00  0.15119858793E+03  0.15119858795E+03  0.25500000920E-02 0.  1.
        2   -1    0    0  501    0  0.00000000000E+00  0.00000000000E+00 -0.59606234578E+03  0.59606234578E+03  0.25500000920E-02 0. -1.
    10030    2    1    2    0    0  0.00000000000E+00  0.00000000000E+00 -0.44486375785E+03  0.74726093374E+03  0.60041247492E+03 0.  0.
        1    1    3    3  502    0  0.15386182274E+03 -0.22090444148E+03 -0.38778561883E+03  0.47206982424E+03  0.50400001928E-02 0. -1.
       -1    1    3    3    0  502 -0.15386182274E+03  0.22090444148E+03 -0.57078139017E+02  0.27519110949E+03  0.50400001928E-02 0.  1.
</event>
<event>
 5   0  0.3737642E-02  0.6084890E+03  0.7818609E-02  0.9887949E-01
        2   -1    0    0  501    0  0.00000000000E+00  0.00000000000E+00  0.47890105171E+03  0.47890105172E+03  0.25500000920E-02 0.  1.
       -2   -1    0    0    0  501  0.00000000000E+00  0.00000000000E+00 -0.19328565790E+03  0.19328565792E+03  0.25500000920E-02 0. -1.
    10030    2    1    2    0    0  0.00000000000E+00  0.00000000000E+00  0.28561539381E+03  0.67218670964E+03  0.60848896410E+03 0.  0.
        5    1    3    3  502    0 -0.19633179350E+03  0.22983763580E+03  0.18061143463E+03  0.35215634637E+03  0.46999998093E+01 0. -1.
       -5    1    3    3    0  502  0.19633179350E+03 -0.22983763580E+03  0.10500395918E+03  0.32003036327E+03  0.46999998093E+01 0.  1.
</event>
<event>
 5   0  0.3737642E-02  0.6047433E+03  0.7818609E-02  0.9895614E-01
        2   -1    0    0  501    0  0.00000000000E+00  0.00000000000E+00  0.79103763510E+03  0.79103763511E+03  0.25500000920E-02 0. -1.
       -2   -1    0    0    0  501  0.00000000000E+00  0.00000000000E+00 -0.11558061247E+03  0.11558061249E+03  0.25500000920E-02 0.  1.
    10030    2    1    2    0    0  0.00000000000E+00  0.00000000000E+00  0.67545702264E+03  0.90661824760E+03  0.60474329881E+03 0.  0.
        5    1    3    3  502    0  0.39764309290E+02 -0.19197584635E+03  0.68276961253E+03  0.71037480225E+03  0.46999998093E+01 0. -1.
       -5    1    3    3    0  502 -0.39764309290E+02  0.19197584635E+03 -0.73125898983E+01  0.19624344535E+03  0.46999998093E+01 0.  1.
</event>
<event>
 5   0  0.2309055E-02  0.6005079E+03  0.7818609E-02  0.9904353E-01
       -1   -1    0    0    0  501  0.00000000000E+00  0.00000000000E+00  0.39514007658E+03  0.39514007661E+03  0.50400001928E-02 0. -1.
        1   -1    0    0  501    0  0.00000000000E+00  0.00000000000E+00 -0.22815306568E+03  0.22815306574E+03  0.50400001928E-02 0.  1.
    10030    2    1    2    0    0  0.00000000000E+00  0.00000000000E+00  0.16698701090E+03  0.62329314235E+03  0.60050785131E+03 0.  0.
        4    1    3    3  502    0  0.92628622953E+02 -0.89044340040E+02  0.36516052987E+03  0.38710823003E+03  0.12699999809E+01 0. -1.
       -4    1    3    3    0  502 -0.92628622953E+02  0.89044340040E+02 -0.19817351897E+03  0.23618491231E+03  0.12699999809E+01 0.  1.
</event>
<event>
 5   0  0.2309055E-02  0.5997627E+03  0.7818609E-02  0.9905899E-01
       -1   -1    0    0    0  501  0.00000000000E+00  0.00000000000E+00  0.35250480109E+03  0.35250480113E+03  0.50400001928E-02 0. -1.
        1   -1    0    0  501    0  0.00000000000E+00  0.00000000000E+00 -0.25511372274E+03  0.25511372279E+03  0.50400001928E-02 0.  1.
    10030    2    1    2    0    0  0.00000000000E+00  0.00000000000E+00  0.97391078351E+02  0.60761852392E+03  0.59976266011E+03 0.  0.
        4    1    3    3  502    0  0.79325169650E+02  0.86734979267E+02  0.32819274062E+03  0.34860798480E+03  0.12699999809E+01 0. -1.
       -4    1    3    3    0  502 -0.79325169650E+02 -0.86734979267E+02 -0.23080166227E+03  0.25901053912E+03  0.12699999809E+01 0.  1.
</event>
<event>
 5   0  0.2225808E-02  0.5989676E+03  0.7818609E-02  0.9907550E-01
        1   -1    0    0  501    0  0.00000000000E+00  0.00000000000E+00  0.11812016648E+03  0.11812016659E+03  0.50400001928E-02 0.  1.
       -1   -1    0    0    0  501  0.00000000000E+00  0.00000000000E+00 -0.75931612832E+03  0.75931612834E+03  0.50400001928E-02 0. -1.
    10030    2    1    2    0    0  0.00000000000E+00  0.00000000000E+00 -0.64119596184E+03  0.87743629493E+03  0.59896760362E+03 0.  0.
        2    1    3    3  502    0 -0.15058850399E+03  0.25606230168E+03 -0.26489755563E+03  0.39801446564E+03  0.25500000920E-02 0.  1.
       -2    1    3    3    0  502  0.15058850399E+03 -0.25606230168E+03 -0.37629840621E+03  0.47942182929E+03  0.25500000920E-02 0. -1.
</event>
<event>
 5   0  0.3934634E-02  0.6001198E+03  0.7818609E-02  0.9905158E-01
       -2   -1    0    0    0  501  0.00000000000E+00  0.00000000000E+00  0.39829635845E+03  0.39829635846E+03  0.25500000920E-02 0.  1.
        2   -1    0    0  501    0  0.00000000000E+00  0.00000000000E+00 -0.22605263542E+03  0.22605263543E+03  0.25500000920E-02 0. -1.
    10030    2    1    2    0    0  0.00000000000E+00  0.00000000000E+00  0.17224372303E+03  0.62434899389E+03  0.60011979308E+03 0.  0.
        1    1    3    3  502    0 -0.10631312386E+03 -0.51293633819E+02  0.37312636489E+03  0.39135252826E+03  0.50400001928E-02 0.  1.
       -1    1    3    3    0  502  0.10631312386E+03  0.51293633819E+02 -0.20088264185E+03  0.23299646564E+03  0.50400001928E-02 0. -1.
</event>
<event>
 5   0  0.3737642E-02  0.5975815E+03  0.7818609E-02  0.9910436E-01
        2   -1    0    0  501    0  0.00000000000E+00  0.00000000000E+00  0.55261920590E+03  0.55261920591E+03  0.25500000920E-02 0.  1.
       -2   -1    0    0    0  501  0.00000000000E+00  0.00000000000E+00 -0.16155048447E+03  0.16155048449E+03  0.25500000920E-02 0. -1.
    10030    2    1    2    0    0  0.00000000000E+00  0.00000000000E+00  0.39106872143E+03  0.71416969040E+03  0.59758146038E+03 0.  0.
        5    1    3    3  502    0  0.21592710525E+03 -0.15589043707E+03  0.33742926071E+02  0.26849025719E+03  0.46999998093E+01 0.  1.
       -5    1    3    3    0  502 -0.21592710525E+03  0.15589043707E+03  0.35732579536E+03  0.44567943320E+03  0.46999998093E+01 0. -1.
</event>
<event>
 5   0  0.3832191E-02  0.5927404E+03  0.7818609E-02  0.9920583E-01
       -2   -1    0    0    0  501  0.00000000000E+00  0.00000000000E+00  0.73333663552E+02  0.73333663596E+02  0.25500000920E-02 0.  1.
        2   -1    0    0  501    0  0.00000000000E+00  0.00000000000E+00 -0.11977486676E+04  0.11977486676E+04  0.25500000920E-02 0. -1.
    10030    2    1    2    0    0  0.00000000000E+00  0.00000000000E+00 -0.11244150041E+04  0.12710823312E+04  0.59274040808E+03 0.  0.
        3    1    3    3  502    0 -0.23733097483E+03  0.33540829699E+02 -0.18841220976E+03  0.30487727016E+03  0.10100000352E+00 0.  1.
       -3    1    3    3    0  502  0.23733097483E+03 -0.33540829699E+02 -0.93600279431E+03  0.96620506107E+03  0.10100000352E+00 0. -1.
</event>
<event>
 5   0  0.2309055E-02  0.5963519E+03  0.7818609E-02  0.9913004E-01
        1   -1    0    0  501    0  0.00000000000E+00  0.00000000000E+00  0.20851360951E+04  0.20851360951E+04  0.50400001928E-02 0.  1.
       -1   -1    0    0    0  501  0.00000000000E+00  0.00000000000E+00 -0.42639367864E+02  0.42639368162E+02  0.50400001928E-02 0. -1.
    10030    2    1    2    0    0  0.00000000000E+00  0.00000000000E+00  0.20424967272E+04  0.21277754632E+04  0.59635186032E+03 0.  0.
        4    1    3    3  502    0  0.77536423116E+02 -0.42723768141E+02  0.20371541929E+04  0.20390772510E+04  0.12699999809E+01 0.  1.
       -4    1    3    3    0  502 -0.77536423116E+02  0.42723768141E+02  0.53425343324E+01  0.88698212196E+02  0.12699999809E+01 0. -1.
</event>
<event>
 5   0  0.3934634E-02  0.5929255E+03  0.7818609E-02  0.9920193E-01
        2   -1    0    0  501    0  0.00000000000E+00  0.00000000000E+00  0.59515713957E+03  0.59515713957E+03  0.25500000920E-02 0.  1.
       -2   -1    0    0    0  501  0.00000000000E+00  0.00000000000E+00 -0.14767554275E+03  0.14767554277E+03  0.25500000920E-02 0. -1.
    10030    2    1    2    0    0  0.00000000000E+00  0.00000000000E+00  0.44748159682E+03  0.74283268234E+03  0.59292547125E+03 0.  0.
        1    1    3    3  502    0  0.21850348074E+03  0.94758130978E+02  0.44491799075E+03  0.50465324036E+03  0.50400001928E-02 0.  1.
       -1    1    3    3    0  502 -0.21850348074E+03 -0.94758130978E+02  0.25636060648E+01  0.23817944198E+03  0.50400001928E-02 0. -1.
</event>
<event>
 5   0  0.2309055E-02  0.6020986E+03  0.7818609E-02  0.9901062E-01
        1   -1    0    0  501    0  0.00000000000E+00  0.00000000000E+00  0.25841628525E+03  0.25841628530E+03  0.50400001928E-02 0. -1.
       -1   -1    0    0    0  501  0.00000000000E+00  0.00000000000E+00 -0.35071585377E+03  0.35071585381E+03  0.50400001928E-02 0.  1.
    10030    2    1    2    0    0  0.00000000000E+00  0.00000000000E+00 -0.92299568522E+02  0.60913213911E+03  0.60209862360E+03 0.  0.
        4    1    3    3  502    0 -0.28077300046E+03  0.64014465684E+02 -0.13491149376E+03  0.31801580724E+03  0.12699999809E+01 0.  1.
       -4    1    3    3    0  502  0.28077300046E+03 -0.64014465684E+02  0.42611925237E+02  0.29111633187E+03  0.12699999809E+01 0. -1.
</event>
<event>
 5   0  0.3832191E-02  0.6131845E+03  0.7818609E-02  0.9878424E-01
        2   -1    0    0  501    0  0.00000000000E+00  0.00000000000E+00  0.30878369641E+03  0.30878369642E+03  0.25500000920E-02 0.  1.
       -2   -1    0    0    0  501  0.00000000000E+00  0.00000000000E+00 -0.30441638802E+03  0.30441638803E+03  0.25500000920E-02 0. -1.
    10030    2    1    2    0    0  0.00000000000E+00  0.00000000000E+00  0.43673083877E+01  0.61320008445E+03  0.61318453192E+03 0.  0.
        3    1    3    3  502    0  0.81561641497E+02 -0.20625826658E+03 -0.20949134730E+03  0.30509245925E+03  0.10100000352E+00 0. -1.
       -3    1    3    3    0  502 -0.81561641497E+02  0.20625826658E+03  0.21385865569E+03  0.30810762520E+03  0.10100000352E+00 0.  1.
</event>
<event>
 5   0  0.3724066E-02  0.5986330E+03  0.7818609E-02  0.9908246E-01
       -2   -1    0    0    0  501  0.00000000000E+00  0.00000000000E+00  0.18275989747E+03  0.18275989748E+03  0.25500000920E-02 0. -1.
        2   -1    0    0  501    0  0.00000000000E+00  0.00000000000E+00 -0.49020802409E+03  0.49020802410E+03  0.25500000920E-02 0.  1.
    10030    2    1    2    0    0  0.00000000000E+00  0.00000000000E+00 -0.30744812663E+03  0.67296792159E+03  0.59863300353E+03 0.  0.
        4    1    3    3  502    0  0.27599164708E+03  0.86086303031E+01 -0.28358084676E+03  0.39580955941E+03  0.12699999809E+01 0.  1.
       -4    1    3    3    0  502 -0.27599164708E+03 -0.86086303031E+01 -0.23867279865E+02  0.27715836217E+03  0.12699999809E+01 0. -1.
</event>
<event>
 5   0  0.2276105E-02  0.5873713E+03  0.7818609E-02  0.9931959E-01
        1   -1    0    0  501    0  0.00000000000E+00  0.00000000000E+00  0.39899850856E+03  0.39899850859E+03  0.50400001928E-02 0. -1.
       -1   -1    0    0    0  501  0.00000000000E+00  0.00000000000E+00 -0.21616937276E+03  0.21616937282E+03  0.50400001928E-02 0.  1.
    10030    2    1    2    0    0  0.00000000000E+00  0.00000000000E+00  0.18282913579E+03  0.61516788141E+03  0.58737128754E+03 0.  0.
        1    1    3    3  502    0 -0.17457219524E+03 -0.20328683328E+03  0.21731259112E+03  0.34500108728E+03  0.50400001928E-02 0.  1.
       -1    1    3    3    0  502  0.17457219524E+03  0.20328683328E+03 -0.34483455332E+02  0.27016679413E+03  0.50400001928E-02 0. -1.
</event>
<event>
 5   0  0.3934634E-02  0.5989398E+03  0.7818609E-02  0.9907608E-01
       -2   -1    0    0    0  501  0.00000000000E+00  0.00000000000E+00  0.39008808459E+03  0.39008808460E+03  0.25500000920E-02 0. -1.
        2   -1    0    0  501    0  0.00000000000E+00  0.00000000000E+00 -0.22990248305E+03  0.22990248306E+03  0.25500000920E-02 0.  1.
    10030    2    1    2    0    0  0.00000000000E+00  0.00000000000E+00  0.16018560154E+03  0.61999056767E+03  0.59893979418E+03 0.  0.
        1    1    3    3  502    0 -0.90444399400E+02  0.43494884121E+02 -0.21197678771E+03  0.23453390561E+03  0.50400001928E-02 0.  1.
       -1    1    3    3    0  502  0.90444399400E+02 -0.43494884121E+02  0.37216238925E+03  0.38545666206E+03  0.50400001928E-02 0. -1.
</event>
<event>
 5   0  0.2295179E-02  0.5987491E+03  0.7818609E-02  0.9908005E-01
       -1   -1    0    0    0  501  0.00000000000E+00  0.00000000000E+00  0.89701066042E+02  0.89701066184E+02  0.50400001928E-02 0. -1.
        1   -1    0    0  501    0  0.00000000000E+00  0.00000000000E+00 -0.99915349839E+03  0.99915349841E+03  0.50400001928E-02 0.  1.
    10030    2    1    2    0    0  0.00000000000E+00  0.00000000000E+00 -0.90945243235E+03  0.10888545646E+04  0.59874914290E+03 0.  0.
        3    1    3    3  502    0  0.14647681204E+03  0.20777568969E+03 -0.74225788354E+03  0.78458458408E+03  0.10100000352E+00 0.  1.
       -3    1    3    3    0  502 -0.14647681204E+03 -0.20777568969E+03 -0.16719454881E+03  0.30426998052E+03  0.10100000352E+00 0. -1.
</event>
<event>
 5   0  0.2382531E-02  0.5995007E+03  0.7818609E-02  0.9906443E-01
       -1   -1    0    0    0  501  0.00000000000E+00  0.00000000000E+00  0.44838105504E+03  0.44838105506E+03  0.50400001928E-02 0.  1.
        1   -1    0    0  501    0  0.00000000000E+00  0.00000000000E+00 -0.20038817074E+03  0.20038817080E+03  0.50400001928E-02 0. -1.
    10030    2    1    2    0    0  0.00000000000E+00  0.00000000000E+00  0.24799288430E+03  0.64876922587E+03  0.59950065702E+03 0.  0.
        5    1    3    3  502    0  0.36595077020E+02  0.10579986918E+03  0.42486533138E+03  0.43939213897E+03  0.46999998093E+01 0.  1.
       -5    1    3    3    0  502 -0.36595077020E+02 -0.10579986918E+03 -0.17687244708E+03  0.20937708690E+03  0.46999998093E+01 0. -1.
</event>
<event>
 5   0  0.2309055E-02  0.5979307E+03  0.7818609E-02  0.9909708E-01
        1   -1    0    0  501    0  0.00000000000E+00  0.00000000000E+00  0.93112263548E+02  0.93112263685E+02  0.50400001928E-02 0.  1.
       -1   -1    0    0    0  501  0.00000000000E+00  0.00000000000E+00 -0.95991959835E+03  0.95991959836E+03  0.50400001928E-02 0. -1.
    10030    2    1    2    0    0  0.00000000000E+00  0.00000000000E+00 -0.86680733480E+03  0.10530318620E+04  0.59793072075E+03 0.  0.
        4    1    3    3  502    0  0.23724463674E+03 -0.15156189324E+02 -0.75266807079E+03  0.78931968519E+03  0.12699999809E+01 0. -1.
       -4    1    3    3    0  502 -0.23724463674E+03  0.15156189324E+02 -0.11413926401E+03  0.26371217686E+03  0.12699999809E+01 0.  1.
</event>
<event>
 5   0  0.2295179E-02  0.5986498E+03  0.7818609E-02  0.9908211E-01
        1   -1    0    0  501    0  0.00000000000E+00  0.00000000000E+00  0.11500296379E+04  0.11500296379E+04  0.50400001928E-02 0. -1.
       -1   -1    0    0    0  501  0.00000000000E+00  0.00000000000E+00 -0.77907042342E+02  0.77907042505E+02  0.50400001928E-02 0.  1.
    10030    2    1    2    0    0  0.00000000000E+00  0.00000000000E+00  0.10721225955E+04  0.12279366804E+04  0.59864984022E+03 0.  0.
        3    1    3    3  502    0  0.67086193124E+02  0.13127638805E+03  0.17254024662E+01  0.14743484860E+03  0.10100000352E+00 0.  1.
       -3    1    3    3    0  502 -0.67086193124E+02 -0.13127638805E+03  0.10703971931E+04  0.10805018318E+04  0.10100000352E+00 0. -1.
</event>
<event>
 5   0  0.2295179E-02  0.5966700E+03  0.7818609E-02  0.9912339E-01
       -1   -1    0    0    0  501  0.00000000000E+00  0.00000000000E+00  0.15466708669E+03  0.15466708677E+03  0.50400001928E-02 0.  1.
        1   -1    0    0  501    0  0.00000000000E+00  0.00000000000E+00 -0.57545378629E+03  0.57545378632E+03  0.50400001928E-02 0. -1.
    10030    2    1    2    0    0  0.00000000000E+00  0.00000000000E+00 -0.42078669960E+03  0.73012087309E+03  0.59666996134E+03 0.  0.
        3    1    3    3  502    0  0.11758127699E+02  0.26344097641E+03 -0.38111182778E+03  0.46344971366E+03  0.10100000352E+00 0. -1.
       -3    1    3    3    0  502 -0.11758127699E+02 -0.26344097641E+03 -0.39674871825E+02  0.26667115943E+03  0.10100000352E+00 0.  1.
</event>
<event>
 5   0  0.2309055E-02  0.6017274E+03  0.7818609E-02  0.9901829E-01
        1   -1    0    0  501    0  0.00000000000E+00  0.00000000000E+00  0.15527455425E+04  0.15527455425E+04  0.50400001928E-02 0.  1.
       -1   -1    0    0    0  501  0.00000000000E+00  0.00000000000E+00 -0.58296065521E+02  0.58296065739E+02  0.50400001928E-02 0. -1.
    10030    2    1    2    0    0  0.00000000000E+00  0.00000000000E+00  0.14944494770E+04  0.16110416082E+04  0.60172736705E+03 0.  0.
        4    1    3    3  502    0 -0.46160782019E+02  0.75459242003E+01  0.15429443951E+04  0.15436537105E+04  0.12699999809E+01 0.  1.
       -4    1    3    3    0  502  0.46160782019E+02 -0.75459242003E+01 -0.48494918149E+02  0.67387897688E+02  0.12699999809E+01 0. -1.
</event>
<event>
 5   0  0.2295179E-02  0.5993836E+03  0.7818609E-02  0.9906686E-01
        1   -1    0    0  501    0  0.00000000000E+00  0.00000000000E+00  0.16765706880E+03  0.16765706888E+03  0.50400001928E-02 0.  1.
       -1   -1    0    0    0  501  0.00000000000E+00  0.00000000000E+00 -0.53570773929E+03  0.53570773931E+03  0.50400001928E-02 0. -1.
    10030    2    1    2    0    0  0.00000000000E+00  0.00000000000E+00 -0.36805067048E+03  0.70336480819E+03  0.59938364789E+03 0.  0.
        3    1    3    3  502    0  0.14308959680E+02 -0.14500130740E+03 -0.49134509576E+03  0.51249403782E+03  0.10100000352E+00 0. -1.
       -3    1    3    3    0  502 -0.14308959680E+02  0.14500130740E+03  0.12329442528E+03  0.19087077037E+03  0.10100000352E+00 0.  1.
</event>
<event>
 5   0  0.2276105E-02  0.5987714E+03  0.7818609E-02  0.9907958E-01
        1   -1    0    0  501    0  0.00000000000E+00  0.00000000000E+00  0.13221915032E+04  0.13221915032E+04  0.50400001928E-02 0. -1.
       -1   -1    0    0    0  501  0.00000000000E+00  0.00000000000E+00 -0.67790338594E+02  0.67790338781E+02  0.50400001928E-02 0.  1.
    10030    2    1    2    0    0  0.00000000000E+00  0.00000000000E+00  0.12544011646E+04  0.13899818420E+04  0.59877144162E+03 0.  0.
        1    1    3    3  502    0  0.91922478239E+02 -0.12884215761E+03  0.37267151955E+02  0.16260038199E+03  0.50400001928E-02 0.  1.
       -1    1    3    3    0  502 -0.91922478239E+02  0.12884215761E+03  0.12171340126E+04  0.12273814600E+04  0.50400001928E-02 0. -1.
</event>
<event>
 5   0  0.2295179E-02  0.5997048E+03  0.7818609E-02  0.9906019E-01
        1   -1    0    0  501    0  0.00000000000E+00  0.00000000000E+00  0.31374192677E+03  0.31374192681E+03  0.50400001928E-02 0. -1.
       -1   -1    0    0    0  501  0.00000000000E+00  0.00000000000E+00 -0.28657778630E+03  0.28657778635E+03  0.50400001928E-02 0.  1.
    10030    2    1    2    0    0  0.00000000000E+00  0.00000000000E+00  0.27164140466E+02  0.60031971316E+03  0.59970481696E+03 0.  0.
        3    1    3    3  502    0 -0.81981565616E+02 -0.11862955439E+03  0.27675372100E+03  0.31206823062E+03  0.10100000352E+00 0. -1.
       -3    1    3    3    0  502  0.81981565616E+02  0.11862955439E+03 -0.24958958053E+03  0.28825148254E+03  0.10100000352E+00 0.  1.
</event>
<event>
 5   0  0.3832191E-02  0.6020200E+03  0.7818609E-02  0.9901224E-01
        2   -1    0    0  501    0  0.00000000000E+00  0.00000000000E+00  0.84511060761E+03  0.84511060761E+03  0.25500000920E-02 0.  1.
       -2   -1    0    0    0  501  0.00000000000E+00  0.00000000000E+00 -0.10721320809E+03  0.10721320812E+03  0.25500000920E-02 0. -1.
    10030    2    1    2    0    0  0.00000000000E+00  0.00000000000E+00  0.73789739952E+03  0.95232381573E+03  0.60201999783E+03 0.  0.
        3    1    3    3  502    0  0.13234897404E+03 -0.25445177247E+03  0.51345550440E+03  0.58813138043E+03  0.10100000352E+00 0.  1.
       -3    1    3    3    0  502 -0.13234897404E+03  0.25445177247E+03  0.22444189512E+03  0.36419243530E+03  0.10100000352E+00 0. -1.
</event>
<event>
 5   0  0.3798925E-02  0.6035821E+03  0.7818609E-02  0.9898002E-01
        2   -1    0    0  501    0  0.00000000000E+00  0.00000000000E+00  0.71527100862E+03  0.71527100862E+03  0.25500000920E-02 0. -1.
       -2   -1    0    0    0  501  0.00000000000E+00  0.00000000000E+00 -0.12733332915E+03  0.12733332918E+03  0.25500000920E-02 0.  1.
    10030    2    1    2    0    0  0.00000000000E+00  0.00000000000E+00  0.58793767947E+03  0.84260433780E+03  0.60358210307E+03 0.  0.
        2    1    3    3  502    0  0.15613522649E+03  0.90019980150E+01 -0.66348421242E+02  0.16988630883E+03  0.25500000920E-02 0.  1.
       -2    1    3    3    0  502 -0.15613522649E+03 -0.90019980150E+01  0.65428610071E+03  0.67271802897E+03  0.25500000920E-02 0. -1.
</event>
<event>
 5   0  0.2382531E-02  0.5999488E+03  0.7818609E-02  0.9905512E-01
       -1   -1    0    0    0  501  0.00000000000E+00  0.00000000000E+00  0.15271437232E+03  0.15271437240E+03  0.50400001928E-02 0. -1.
        1   -1    0    0  501    0  0.00000000000E+00  0.00000000000E+00 -0.58923492516E+03  0.58923492518E+03  0.50400001928E-02 0.  1.
    10030    2    1    2    0    0  0.00000000000E+00  0.00000000000E+00 -0.43652055284E+03  0.74194929758E+03  0.59994880376E+03 0.  0.
        5    1    3    3  502    0 -0.24978494825E+03  0.57583825411E+02 -0.25661764745E+02  0.25766069450E+03  0.46999998093E+01 0. -1.
       -5    1    3    3    0  502  0.24978494825E+03 -0.57583825411E+02 -0.41085878810E+03  0.48428860309E+03  0.46999998093E+01 0.  1.
</event>
<event>
 5   0  0.3832191E-02  0.6027584E+03  0.7818609E-02  0.9899700E-01
        2   -1    0    0  501    0  0.00000000000E+00  0.00000000000E+00  0.62724564628E+03  0.62724564628E+03  0.25500000920E-02 0.  1.
       -2   -1    0    0    0  501  0.00000000000E+00  0.00000000000E+00 -0.14480679277E+03  0.14480679280E+03  0.25500000920E-02 0. -1.
    10030    2    1    2    0    0  0.00000000000E+00  0.00000000000E+00  0.48243885351E+03  0.77205243908E+03  0.60275842700E+03 0.  0.
        3    1    3    3  502    0 -0.98287557952E+02 -0.18907232391E+03  0.51419896631E+03  0.55660522354E+03  0.10100000352E+00 0.  1.
       -3    1    3    3    0  502  0.98287557952E+02  0.18907232391E+03 -0.31760112800E+02  0.21544721554E+03  0.10100000352E+00 0. -1.
</event>
<event>
 5   0  0.3934634E-02  0.6023455E+03  0.7818609E-02  0.9900552E-01
       -2   -1    0    0    0  501  0.00000000000E+00  0.00000000000E+00  0.10685201910E+03  0.10685201913E+03  0.25500000920E-02 0. -1.
        2   -1    0    0  501    0  0.00000000000E+00  0.00000000000E+00 -0.84888461672E+03  0.84888461672E+03  0.25500000920E-02 0.  1.
    10030    2    1    2    0    0  0.00000000000E+00  0.00000000000E+00 -0.74203259762E+03  0.95573663585E+03  0.60234553305E+03 0.  0.
        1    1    3    3  502    0 -0.14772447484E+03 -0.12074287991E+03 -0.74076540915E+03  0.76494101402E+03  0.50400001928E-02 0.  1.
       -1    1    3    3    0  502  0.14772447484E+03  0.12074287991E+03 -0.12671884675E+01  0.19079562183E+03  0.50400001928E-02 0. -1.
</event>
<event>
 5   0  0.3724066E-02  0.6003023E+03  0.7818609E-02  0.9904779E-01
        2   -1    0    0  501    0  0.00000000000E+00  0.00000000000E+00  0.85959189439E+03  0.85959189439E+03  0.25500000920E-02 0.  1.
       -2   -1    0    0    0  501  0.00000000000E+00  0.00000000000E+00 -0.10480636747E+03  0.10480636750E+03  0.25500000920E-02 0. -1.
    10030    2    1    2    0    0  0.00000000000E+00  0.00000000000E+00  0.75478552692E+03  0.96439826190E+03  0.60030227045E+03 0.  0.
        4    1    3    3  502    0  0.17364488745E+03 -0.41041322993E+02  0.76513438959E+03  0.78566480395E+03  0.12699999809E+01 0.  1.
       -4    1    3    3    0  502 -0.17364488745E+03  0.41041322993E+02 -0.10348862674E+02  0.17873345795E+03  0.12699999809E+01 0. -1.
</event>
<event>
 5   0  0.3798925E-02  0.5790366E+03  0.7818609E-02  0.9949879E-01
       -2   -1    0    0    0  501  0.00000000000E+00  0.00000000000E+00  0.11620099169E+03  0.11620099172E+03  0.25500000920E-02 0.  1.
        2   -1    0    0  501    0  0.00000000000E+00  0.00000000000E+00 -0.72134354131E+03  0.72134354132E+03  0.25500000920E-02 0. -1.
    10030    2    1    2    0    0  0.00000000000E+00  0.00000000000E+00 -0.60514254962E+03  0.83754453304E+03  0.57903656142E+03 0.  0.
        2    1    3    3  502    0 -0.19784142371E+02 -0.28388002691E+03 -0.22546676269E+03  0.36306272606E+03  0.25500000920E-02 0.  1.
       -2    1    3    3    0  502  0.19784142371E+02  0.28388002691E+03 -0.37967578693E+03  0.47448180698E+03  0.25500000920E-02 0. -1.
</event>
<event>
 5   0  0.2382531E-02  0.5981188E+03  0.7818609E-02  0.9909317E-01
        1   -1    0    0  501    0  0.00000000000E+00  0.00000000000E+00  0.24151442215E+03  0.24151442220E+03  0.50400001928E-02 0. -1.
       -1   -1    0    0    0  501  0.00000000000E+00  0.00000000000E+00 -0.37031552048E+03  0.37031552052E+03  0.50400001928E-02 0.  1.
    10030    2    1    2    0    0  0.00000000000E+00  0.00000000000E+00 -0.12880109833E+03  0.61182994272E+03  0.59811884762E+03 0.  0.
        5    1    3    3  502    0 -0.43977071330E+02 -0.28313072338E+03 -0.15190364277E+03  0.32433593081E+03  0.46999998093E+01 0.  1.
       -5    1    3    3    0  502  0.43977071330E+02  0.28313072338E+03  0.23102544440E+02  0.28749401191E+03  0.46999998093E+01 0. -1.
</event>
<event>
 5   0  0.3798925E-02  0.6013103E+03  0.7818609E-02  0.9902691E-01
        2   -1    0    0  501    0  0.00000000000E+00  0.00000000000E+00  0.13620105293E+04  0.13620105293E+04  0.25500000920E-02 0.  1.
       -2   -1    0    0    0  501  0.00000000000E+00  0.00000000000E+00 -0.66367706778E+02  0.66367706827E+02  0.25500000920E-02 0. -1.
    10030    2    1    2    0    0  0.00000000000E+00  0.00000000000E+00  0.12956428225E+04  0.14283782361E+04  0.60131028754E+03 0.  0.
        2    1    3    3  502    0 -0.93543218503E+02 -0.25590646934E+03  0.34589654181E+03  0.44032132860E+03  0.25500000920E-02 0.  1.
       -2    1    3    3    0  502  0.93543218503E+02  0.25590646934E+03  0.94974628072E+03  0.98805690753E+03  0.25500000920E-02 0. -1.
</event>
<event>
 5   0  0.2382531E-02  0.6000995E+03  0.7818609E-02  0.9905200E-01
       -1   -1    0    0    0  501  0.00000000000E+00  0.00000000000E+00  0.11850303134E+04  0.11850303134E+04  0.50400001928E-02 0. -1.
        1   -1    0    0  501    0  0.00000000000E+00  0.00000000000E+00 -0.75972626026E+02  0.75972626193E+02  0.50400001928E-02 0.  1.
    10030    2    1    2    0    0  0.00000000000E+00  0.00000000000E+00  0.11090576874E+04  0.12610029396E+04  0.60009954155E+03 0.  0.
        5    1    3    3  502    0  0.17003369986E+03  0.74085742620E+02  0.59010253518E+02  0.19469066841E+03  0.46999998093E+01 0.  1.
       -5    1    3    3    0  502 -0.17003369986E+03 -0.74085742620E+02  0.10500474339E+04  0.10663122712E+04  0.46999998093E+01 0. -1.
</event>
<event>
 5   0  0.2225808E-02  0.6049597E+03  0.7818609E-02  0.9895169E-01
       -1   -1    0    0    0  501  0.00000000000E+00  0.00000000000E+00  0.26233721131E+03  0.26233721136E+03  0.50400001928E-02 0.  1.
        1   -1    0    0  501    0  0.00000000000E+00  0.00000000000E+00 -0.34876512850E+03  0.34876512853E+03  0.50400001928E-02 0. -1.
    10030    2    1    2    0    0  0.00000000000E+00  0.00000000000E+00 -0.86427917186E+02  0.61110233989E+03  0.60495973829E+03 0.  0.
        2    1    3    3  502    0 -0.22830079443E+03  0.15192890539E+03  0.85715956859E+02  0.28731667250E+03  0.25500000920E-02 0. -1.
       -2    1    3    3    0  502  0.22830079443E+03 -0.15192890539E+03 -0.17214387404E+03  0.32378566739E+03  0.25500000920E-02 0.  1.
</event>
<event>
 5   0  0.2225808E-02  0.5982615E+03  0.7818609E-02  0.9909019E-01
        1   -1    0    0  501    0  0.00000000000E+00  0.00000000000E+00  0.72343754020E+03  0.72343754022E+03  0.50400001928E-02 0. -1.
       -1   -1    0    0    0  501  0.00000000000E+00  0.00000000000E+00 -0.12368615104E+03  0.12368615114E+03  0.50400001928E-02 0.  1.
    10030    2    1    2    0    0  0.00000000000E+00  0.00000000000E+00  0.59975138916E+03  0.84712369136E+03  0.59826149772E+03 0.  0.
        2    1    3    3  502    0  0.13724713597E+03 -0.57640654369E+02 -0.67514680486E+02  0.16345474437E+03  0.25500000920E-02 0.  1.
       -2    1    3    3    0  502 -0.13724713597E+03  0.57640654369E+02  0.66726606965E+03  0.68366894699E+03  0.25500000920E-02 0. -1.
</event>
<event>
 5   0  0.2225808E-02  0.5775353E+03  0.7818609E-02  0.9953141E-01
        1   -1    0    0  501    0  0.00000000000E+00  0.00000000000E+00  0.81703537232E+03  0.81703537233E+03  0.50400001928E-02 0. -1.
       -1   -1    0    0    0  501  0.00000000000E+00  0.00000000000E+00 -0.10206016282E+03  0.10206016295E+03  0.50400001928E-02 0.  1.
    10030    2    1    2    0    0  0.00000000000E+00  0.00000000000E+00  0.71497520949E+03  0.91909553528E+03  0.57753532601E+03 0.  0.
        2    1    3    3  502    0  0.75549504883E+01 -0.16520123801E+03  0.73421251142E+03  0.75260649628E+03  0.25500000920E-02 0. -1.
       -2    1    3    3    0  502 -0.75549504883E+01  0.16520123801E+03 -0.19237301924E+02  0.16648903900E+03  0.25500000920E-02 0.  1.
</event>
<event>
 5   0  0.3934634E-02  0.6147162E+03  0.7818609E-02  0.9875336E-01
       -2   -1    0    0    0  501  0.00000000000E+00  0.00000000000E+00  0.11129298829E+03  0.11129298832E+03  0.25500000920E-02 0.  1.
        2   -1    0    0  501    0  0.00000000000E+00  0.00000000000E+00 -0.84883155819E+03  0.84883155819E+03  0.25500000920E-02 0. -1.
    10030    2    1    2    0    0  0.00000000000E+00  0.00000000000E+00 -0.73753856990E+03  0.96012454652E+03  0.61471619691E+03 0.  0.
        1    1    3    3  502    0  0.13670705697E+03  0.70618240181E+02  0.46805154540E+02  0.16083058723E+03  0.50400001928E-02 0.  1.
       -1    1    3    3    0  502 -0.13670705697E+03 -0.70618240181E+02 -0.78434372444E+03  0.79929395929E+03  0.50400001928E-02 0. -1.
</event>
<event>
 5   0  0.3724066E-02  0.5959658E+03  0.7818609E-02  0.9913811E-01
       -2   -1    0    0    0  501  0.00000000000E+00  0.00000000000E+00  0.15931420010E+03  0.15931420012E+03  0.25500000920E-02 0.  1.
        2   -1    0    0  501    0  0.00000000000E+00  0.00000000000E+00 -0.55735024575E+03  0.55735024575E+03  0.25500000920E-02 0. -1.
    10030    2    1    2    0    0  0.00000000000E+00  0.00000000000E+00 -0.39803604564E+03  0.71666444588E+03  0.59596579965E+03 0.  0.
        4    1    3    3  502    0  0.10501704844E+03 -0.25517981319E+03 -0.63783930952E+02  0.28322309275E+03  0.12699999809E+01 0.  1.
       -4    1    3    3    0  502 -0.10501704844E+03  0.25517981319E+03 -0.33425211469E+03  0.43344135312E+03  0.12699999809E+01 0. -1.
</event>
<event>
 5   0  0.1521750E-02  0.6019687E+03  0.7818609E-02  0.9901330E-01
       -3   -1    0    0    0  501  0.00000000000E+00  0.00000000000E+00  0.19027957036E+03  0.19027959717E+03  0.10100000352E+00 0. -1.
        3   -1    0    0  501    0  0.00000000000E+00  0.00000000000E+00 -0.47609722060E+03  0.47609723131E+03  0.10100000352E+00 0.  1.
    10030    2    1    2    0    0  0.00000000000E+00  0.00000000000E+00 -0.28581765023E+03  0.66637682848E+03  0.60196872705E+03 0.  0.
        5    1    3    3  502    0  0.14960818845E+03 -0.94737709122E+02 -0.41227902714E+03  0.44872478179E+03  0.46999998093E+01 0.  1.
       -5    1    3    3    0  502 -0.14960818845E+03  0.94737709122E+02  0.12646137691E+03  0.21765204669E+03  0.46999998093E+01 0. -1.
</event>
<event>
 5   0  0.2295179E-02  0.5781550E+03  0.7818609E-02  0.9951793E-01
        1   -1    0    0  501    0  0.00000000000E+00  0.00000000000E+00  0.12322002746E+04  0.12322002746E+04  0.50400001928E-02 0. -1.
       -1   -1    0    0    0  501  0.00000000000E+00  0.00000000000E+00 -0.67818354991E+02  0.67818355178E+02  0.50400001928E-02 0.  1.
    10030    2    1    2    0    0  0.00000000000E+00  0.00000000000E+00  0.11643819196E+04  0.13000186298E+04  0.57815498188E+03 0.  0.
        3    1    3    3  502    0  0.26162863574E+03  0.65320846038E+02  0.81640275167E+03  0.85978475161E+03  0.10100000352E+00 0. -1.
       -3    1    3    3    0  502 -0.26162863574E+03 -0.65320846038E+02  0.34797916792E+03  0.44023387815E+03  0.10100000352E+00 0.  1.
</event>
<event>
 5   0  0.3832191E-02  0.6010614E+03  0.7818609E-02  0.9903207E-01
       -2   -1    0    0    0  501  0.00000000000E+00  0.00000000000E+00  0.67427334300E+02  0.67427334348E+02  0.25500000920E-02 0.  1.
        2   -1    0    0  501    0  0.00000000000E+00  0.00000000000E+00 -0.13394966551E+04  0.13394966551E+04  0.25500000920E-02 0. -1.
    10030    2    1    2    0    0  0.00000000000E+00  0.00000000000E+00 -0.12720693208E+04  0.14069239894E+04  0.60106135724E+03 0.  0.
        3    1    3    3  502    0  0.25906533687E+03  0.51765353316E+02 -0.97137416128E+03  0.10066589651E+04  0.10100000352E+00 0. -1.
       -3    1    3    3    0  502 -0.25906533687E+03 -0.51765353316E+02 -0.30069515950E+03  0.40026502435E+03  0.10100000352E+00 0.  1.
</event>
<event>
 5   0  0.2295179E-02  0.5996484E+03  0.7818609E-02  0.9906136E-01
        1   -1    0    0  501    0  0.00000000000E+00  0.00000000000E+00  0.83219437162E+03  0.83219437163E+03  0.50400001928E-02 0. -1.
       -1   -1    0    0    0  501  0.00000000000E+00  0.00000000000E+00 -0.10802110057E+03  0.10802110069E+03  0.50400001928E-02 0.  1.
    10030    2    1    2    0    0  0.00000000000E+00  0.00000000000E+00  0.72417327104E+03  0.94021547233E+03  0.59964840357E+03 0.  0.
        3    1    3    3  502    0  0.10227163882E+03 -0.27318955994E+03  0.25342775837E+03  0.38641643687E+03  0.10100000352E+00 0.  1.
       -3    1    3    3    0  502 -0.10227163882E+03  0.27318955994E+03  0.47074551268E+03  0.55379903546E+03  0.10100000352E+00 0. -1.
</event>
<event>
 5   0  0.2225808E-02  0.5985093E+03  0.7818609E-02  0.9908504E-01
       -1   -1    0    0    0  501  0.00000000000E+00  0.00000000000E+00  0.35347349491E+03  0.35347349495E+03  0.50400001928E-02 0. -1.
        1   -1    0    0  501    0  0.00000000000E+00  0.00000000000E+00 -0.25335232276E+03  0.25335232281E+03  0.50400001928E-02 0.  1.
    10030    2    1    2    0    0  0.00000000000E+00  0.00000000000E+00  0.10012117215E+03  0.60682581776E+03  0.59850925138E+03 0.  0.
        2    1    3    3  502    0 -0.52688665240E+02  0.14115324574E+03  0.31221285560E+03  0.34666583540E+03  0.25500000920E-02 0. -1.
       -2    1    3    3    0  502  0.52688665240E+02 -0.14115324574E+03 -0.21209168344E+03  0.26015998236E+03  0.25500000920E-02 0.  1.
</event>
<event>
 5   0  0.3798925E-02  0.5980585E+03  0.7818609E-02  0.9909442E-01
        2   -1    0    0  501    0  0.00000000000E+00  0.00000000000E+00  0.22076573794E+04  0.22076573794E+04  0.25500000920E-02 0.  1.
       -2   -1    0    0    0  501  0.00000000000E+00  0.00000000000E+00 -0.40503787238E+02  0.40503787319E+02  0.25500000920E-02 0. -1.
    10030    2    1    2    0    0  0.00000000000E+00  0.00000000000E+00  0.21671535921E+04  0.22481611667E+04  0.59805847500E+03 0.  0.
        2    1    3    3  502    0  0.79989303272E+02 -0.17805053396E+03  0.23200843891E+03  0.30319663094E+03  0.25500000920E-02 0. -1.
       -2    1    3    3    0  502 -0.79989303272E+02  0.17805053396E+03  0.19351451532E+04  0.19449645357E+04  0.25500000920E-02 0.  1.
</event>
<event>
 5   0  0.2382531E-02  0.6034892E+03  0.7818609E-02  0.9898193E-01
        1   -1    0    0  501    0  0.00000000000E+00  0.00000000000E+00  0.32112580837E+03  0.32112580841E+03  0.50400001928E-02 0. -1.
       -1   -1    0    0    0  501  0.00000000000E+00  0.00000000000E+00 -0.28353310326E+03  0.28353310331E+03  0.50400001928E-02 0.  1.
    10030    2    1    2    0    0  0.00000000000E+00  0.00000000000E+00  0.37592705107E+02  0.60465891172E+03  0.60348917806E+03 0.  0.
        5    1    3    3  502    0  0.18624422282E+03 -0.10086789481E+03 -0.19648394193E+03  0.28894510235E+03  0.46999998093E+01 0. -1.
       -5    1    3    3    0  502 -0.18624422282E+03  0.10086789481E+03  0.23407664704E+03  0.31571380937E+03  0.46999998093E+01 0.  1.
</event>
<event>
 5   0  0.2309055E-02  0.5951923E+03  0.7818609E-02  0.9915431E-01
        1   -1    0    0  501    0  0.00000000000E+00  0.00000000000E+00  0.23298442324E+03  0.23298442330E+03  0.50400001928E-02 0. -1.
       -1   -1    0    0    0  501  0.00000000000E+00  0.00000000000E+00 -0.38012615307E+03  0.38012615311E+03  0.50400001928E-02 0.  1.
    10030    2    1    2    0    0  0.00000000000E+00  0.00000000000E+00 -0.14714172983E+03  0.61311057640E+03  0.59519231366E+03 0.  0.
        4    1    3    3  502    0 -0.31826745928E+02  0.94470186269E+02  0.21527083669E+03  0.23723554514E+03  0.12699999809E+01 0. -1.
       -4    1    3    3    0  502  0.31826745928E+02 -0.94470186269E+02 -0.36241256652E+03  0.37587503126E+03  0.12699999809E+01 0.  1.
</event>
<event>
 5   0  0.3724066E-02  0.5988915E+03  0.7818609E-02  0.9907708E-01
        2   -1    0    0  501    0  0.00000000000E+00  0.00000000000E+00  0.13006863350E+04  0.13006863350E+04  0.25500000920E-02 0. -1.
       -2   -1    0    0    0  501  0.00000000000E+00  0.00000000000E+00 -0.68938807386E+02  0.68938807433E+02  0.25500000920E-02 0.  1.
    10030    2    1    2    0    0  0.00000000000E+00  0.00000000000E+00  0.12317475276E+04  0.13696251424E+04  0.59889152524E+03 0.  0.
        4    1    3    3  502    0  0.61147273549E+02  0.22619841263E+03  0.18948825387E+03  0.30135049725E+03  0.12699999809E+01 0.  1.
       -4    1    3    3    0  502 -0.61147273549E+02 -0.22619841263E+03  0.10422592737E+04  0.10682746451E+04  0.12699999809E+01 0. -1.
</event>
<event>
 5   0  0.2276105E-02  0.5992351E+03  0.7818609E-02  0.9906994E-01
        1   -1    0    0  501    0  0.00000000000E+00  0.00000000000E+00  0.80522402407E+03  0.80522402409E+03  0.50400001928E-02 0. -1.
       -1   -1    0    0    0  501  0.00000000000E+00  0.00000000000E+00 -0.11148533696E+03  0.11148533708E+03  0.50400001928E-02 0.  1.
    10030    2    1    2    0    0  0.00000000000E+00  0.00000000000E+00  0.69373868711E+03  0.91670936117E+03  0.59923508480E+03 0.  0.
        1    1    3    3  502    0 -0.14352574726E+03  0.25868035337E+03  0.41952282993E+03  0.51333670257E+03  0.50400001928E-02 0. -1.
       -1    1    3    3    0  502  0.14352574726E+03 -0.25868035337E+03  0.27421585718E+03  0.40337265859E+03  0.50400001928E-02 0.  1.
</event>
<event>
 5   0  0.3724066E-02  0.5850952E+03  0.7818609E-02  0.9936821E-01
       -2   -1    0    0    0  501  0.00000000000E+00  0.00000000000E+00  0.24896311374E+03  0.24896311375E+03  0.25500000920E-02 0.  1.
        2   -1    0    0  501    0  0.00000000000E+00  0.00000000000E+00 -0.34376216934E+03  0.34376216935E+03  0.25500000920E-02 0. -1.
    10030    2    1    2    0    0  0.00000000000E+00  0.00000000000E+00 -0.94799055609E+02  0.59272528310E+03  0.58509520617E+03 0.  0.
        4    1    3    3  502    0  0.13616225942E+03  0.24700372269E+03 -0.12607495692E+03  0.30894580038E+03  0.12699999809E+01 0. -1.
       -4    1    3    3    0  502 -0.13616225942E+03 -0.24700372269E+03  0.31275901310E+02  0.28377948272E+03  0.12699999809E+01 0.  1.
</event>
<event>
 5   0  0.3737642E-02  0.5938538E+03  0.7818609E-02  0.9918240E-01
        2   -1    0    0  501    0  0.00000000000E+00  0.00000000000E+00  0.35357409084E+03  0.35357409085E+03  0.25500000920E-02 0. -1.
       -2   -1    0    0    0  501  0.00000000000E+00  0.00000000000E+00 -0.24935533315E+03  0.24935533316E+03  0.25500000920E-02 0.  1.
    10030    2    1    2    0    0  0.00000000000E+00  0.00000000000E+00  0.10421875769E+03  0.60292942402E+03  0.59385380431E+03 0.  0.
        5    1    3    3  502    0 -0.13893112299E+03 -0.16504392353E+03  0.25919253701E+03  0.33725986252E+03  0.46999998093E+01 0. -1.
       -5    1    3    3    0  502  0.13893112299E+03  0.16504392353E+03 -0.15497377932E+03  0.26566956149E+03  0.46999998093E+01 0.  1.
</event>
<event>
 5   0  0.2309055E-02  0.6000155E+03  0.7818609E-02  0.9905374E-01
       -1   -1    0    0    0  501  0.00000000000E+00  0.00000000000E+00  0.10905205888E+03  0.10905205899E+03  0.50400001928E-02 0. -1.
        1   -1    0    0  501    0  0.00000000000E+00  0.00000000000E+00 -0.82533645607E+03  0.82533645608E+03  0.50400001928E-02 0.  1.
    10030    2    1    2    0    0  0.00000000000E+00  0.00000000000E+00 -0.71628439719E+03  0.93438851508E+03  0.60001546601E+03 0.  0.
        4    1    3    3  502    0  0.43604641731E+02 -0.25086107403E+03 -0.60520648107E+03  0.65658901977E+03  0.12699999809E+01 0.  1.
       -4    1    3    3    0  502 -0.43604641731E+02  0.25086107403E+03 -0.11107791612E+03  0.27779949531E+03  0.12699999809E+01 0. -1.
</event>
<event>
 5   0  0.3737642E-02  0.6122428E+03  0.7818609E-02  0.9880327E-01
       -2   -1    0    0    0  501  0.00000000000E+00  0.00000000000E+00  0.25383528538E+03  0.25383528539E+03  0.25500000920E-02 0.  1.
        2   -1    0    0  501    0  0.00000000000E+00  0.00000000000E+00 -0.36917764837E+03  0.36917764837E+03  0.25500000920E-02 0. -1.
    10030    2    1    2    0    0  0.00000000000E+00  0.00000000000E+00 -0.11534236298E+03  0.62301293377E+03  0.61224280718E+03 0.  0.
        5    1    3    3  502    0 -0.21089707257E+03 -0.11331549009E+03 -0.25173586293E+03  0.34743490065E+03  0.46999998093E+01 0. -1.
       -5    1    3    3    0  502  0.21089707257E+03  0.11331549009E+03  0.13639349994E+03  0.27557803311E+03  0.46999998093E+01 0.  1.
</event>
<event>
 5   0  0.1521750E-02  0.5954464E+03  0.7818609E-02  0.9914899E-01
        4   -1    0    0  501    0  0.00000000000E+00  0.00000000000E+00  0.47055083386E+03  0.47055254770E+03  0.12699999809E+01 0. -1.
       -4   -1    0    0    0  501  0.00000000000E+00  0.00000000000E+00 -0.18836889481E+03  0.18837317599E+03  0.12699999809E+01 0.  1.
    10030    2    1    2    0    0  0.00000000000E+00  0.00000000000E+00  0.28218193905E+03  0.65892572368E+03  0.59544643975E+03 0.  0.
        1    1    3    3  502    0  0.25195594582E+02 -0.71951935692E+02  0.45956959697E+03  0.46584988303E+03  0.50400001928E-02 0. -1.
       -1    1    3    3    0  502 -0.25195594582E+02  0.71951935692E+02 -0.17738765792E+03  0.19307584065E+03  0.50400001928E-02 0.  1.
</event>
<event>
 5   0  0.1521750E-02  0.5907463E+03  0.7818609E-02  0.9924793E-01
        3   -1    0    0  501    0  0.00000000000E+00  0.00000000000E+00  0.45862698626E+03  0.45862699738E+03  0.10100000352E+00 0. -1.
       -3   -1    0    0    0  501  0.00000000000E+00  0.00000000000E+00 -0.19023145152E+03  0.19023147834E+03  0.10100000352E+00 0.  1.
    10030    2    1    2    0    0  0.00000000000E+00  0.00000000000E+00  0.26839553473E+03  0.64885847572E+03  0.59074627248E+03 0.  0.
        3    1    3    3  502    0 -0.22374146452E+03 -0.14964773571E+02  0.34536250104E+03  0.41177597637E+03  0.10100000352E+00 0. -1.
       -3    1    3    3    0  502  0.22374146452E+03  0.14964773571E+02 -0.76966966305E+02  0.23708249934E+03  0.10100000352E+00 0.  1.
</event>
<event>
 5   0  0.3798925E-02  0.6013731E+03  0.7818609E-02  0.9902561E-01
        2   -1    0    0  501    0  0.00000000000E+00  0.00000000000E+00  0.10215694707E+04  0.10215694707E+04  0.25500000920E-02 0.  1.
       -2   -1    0    0    0  501  0.00000000000E+00  0.00000000000E+00 -0.88503442998E+02  0.88503443034E+02  0.25500000920E-02 0. -1.
    10030    2    1    2    0    0  0.00000000000E+00  0.00000000000E+00  0.93306602769E+03  0.11100729137E+04  0.60137314685E+03 0.  0.
        2    1    3    3  502    0  0.20892650683E+03  0.17514219138E+03  0.70065900806E+03  0.75182984647E+03  0.25500000920E-02 0.  1.
       -2    1    3    3    0  502 -0.20892650683E+03 -0.17514219138E+03  0.23240701963E+03  0.35824306726E+03  0.25500000920E-02 0. -1.
</event>
<event>
 5   0  0.2295179E-02  0.5952047E+03  0.7818609E-02  0.9915405E-01
        1   -1    0    0  501    0  0.00000000000E+00  0.00000000000E+00  0.44673867557E+03  0.44673867560E+03  0.50400001928E-02 0.  1.
       -1   -1    0    0    0  501  0.00000000000E+00  0.00000000000E+00 -0.19825273697E+03  0.19825273703E+03  0.50400001928E-02 0. -1.
    10030    2    1    2    0    0  0.00000000000E+00  0.00000000000E+00  0.24848593860E+03  0.64499141263E+03  0.59520472166E+03 0.  0.
        3    1    3    3  502    0 -0.16126963659E+03 -0.16632890789E+03  0.32666727340E+03  0.40048061001E+03  0.10100000352E+00 0.  1.
       -3    1    3    3    0  502  0.16126963659E+03  0.16632890789E+03 -0.78181334795E+02  0.24451080262E+03  0.10100000352E+00 0. -1.
</event>
</LesHouchesEvents>
