<LesHouchesEvents version="3.0">
<header>
<!--
#*********************************************************************
#                                                                    *
#                        MadGraph5_aMC@NLO                           *
#                                                                    *
#                           Going Beyond                             *
#                                                                    *
#                   http://madgraph.hep.uiuc.edu                     *
#                   http://madgraph.phys.ucl.ac.be                   *
#                   http://amcatnlo.cern.ch                          *
#                                                                    *
#                     The MadGraph5_aMC@NLO team                     *
#                                                                    *
#....................................................................*
#                                                                    *
# This file contains all the information necessary to reproduce      *
# the events generated:                                              *
#                                                                    *
# 1. software version                                                *
# 2. proc_card          : code generation info including model       *
# 3. param_card         : model primary parameters in the LH format  *
# 4. run_card           : running parameters (collider and cuts)     *
# 5. pythia_card        : present only if pythia has been run        *
# 6. pgs_card           : present only if pgs has been run           *
# 7. delphes_cards      : present only if delphes has been run       *
#                                                                    *
#                                                                    *
#*********************************************************************
-->
<MGVersion>
#5.2.2.3
</MGVersion>
<MG5ProcCard>
#************************************************************
#*                     MadGraph5_aMC@NLO                    *
#*                                                          *
#*                *                       *                 *
#*                  *        * *        *                   *
#*                    * * * * 5 * * * *                     *
#*                  *        * *        *                   *
#*                *                       *                 *
#*                                                          *
#*                                                          *
#*         VERSION 2.2.3                 2015-02-10         *
#*                                                          *
#*    The MadGraph5_aMC@NLO Development Team - Find us at   *
#*    https://server06.fynu.ucl.ac.be/projects/madgraph     *
#*                                                          *
#************************************************************
#*                                                          *
#*               Command File for MadGraph5_aMC@NLO         *
#*                                                          *
#*     run as ./bin/mg5_aMC  filename                       *
#*                                                          *
#************************************************************
set group_subprocesses Auto
set ignore_six_quark_processes False
set loop_optimized_output True
set gauge unitary
set complex_mass_scheme False
import model sm
define p = g u c d s u~ c~ d~ s~
define j = g u c d s u~ c~ d~ s~
define l+ = e+ mu+
define l- = e- mu-
define vl = ve vm vt
define vl~ = ve~ vm~ vt~
import model Zprime_UFO
generate p p > zph, zph > j j
add process p p > zph, zph > b b~
output Dijet_signal
</MG5ProcCard>
<MGProcCard>
#*********************************************************************
#                        MadGraph/MadEvent                           *
#                   http://madgraph.hep.uiuc.edu                     *
#                                                                    *
#                          proc_card.dat                             *
#*********************************************************************
#                                                                    *
#            This Files is generated by MADGRAPH 5                   *
#                                                                    *
# WARNING: This Files is generated for MADEVENT (compatibility issue)*
#          This files is NOT a valid MG4 proc_card.dat               *
#          Running this in MG4 will NEVER reproduce the result of MG5*
#                                                                    *
#*********************************************************************
#*********************************************************************
# Process(es) requested : mg2 input                                  *
#*********************************************************************
# Begin PROCESS # This is TAG. Do not modify this line
p p > zph , zph > j j           #Process
# Be carefull the coupling are here in MG5 convention
          
end_coup           # End the couplings input

done               # this tells MG there are no more procs
# End PROCESS  # This is TAG. Do not modify this line
#*********************************************************************
# Model information                                                  *
#*********************************************************************
# Begin MODEL  # This is TAG. Do not modify this line
Zprime_UFO
# End   MODEL  # This is TAG. Do not modify this line
#*********************************************************************
# Start multiparticle definitions                                    *
#*********************************************************************
# Begin MULTIPARTICLES # This is TAG. Do not modify this line

# End  MULTIPARTICLES # This is TAG. Do not modify this line
</MGProcCard>
<MGRunCard>
#*********************************************************************
#                       MadGraph5_aMC@NLO                            *
#                                                                    *
#                     run_card.dat MadEvent                          *
#                                                                    *
#  This file is used to set the parameters of the run.               *
#                                                                    *
#  Some notation/conventions:                                        *
#                                                                    *
#   Lines starting with a '# ' are info or comments                  *
#                                                                    *
#   mind the format:   value    = variable     ! comment             *
#*********************************************************************
#
#*******************                                                 
# Running parameters
#*******************                                                 
#                                                                    
#*********************************************************************
# Tag name for the run (one word)                                    *
#*********************************************************************
  tag_1     = run_tag ! name of the run 
#*********************************************************************
# Run to generate the grid pack                                      *
#*********************************************************************
  .false.     = gridpack  !True = setting up the grid pack
#*********************************************************************
# Number of events and rnd seed                                      *
# Warning: Do not generate more than 1M events in a single run       *
# If you want to run Pythia, avoid more than 50k events in a run.    *
#*********************************************************************
  2000 = nevents ! Number of unweighted events requested 
 1713 = iseed   ! rnd seed (0=assigned automatically=default))
#*********************************************************************
# Collider type and energy                                           *
# lpp: 0=No PDF, 1=proton, -1=antiproton, 2=photon from proton,      *
#                                         3=photon from electron     *
#*********************************************************************
        1     = lpp1    ! beam 1 type 
        1     = lpp2    ! beam 2 type
     4000     = ebeam1  ! beam 1 total energy in GeV
     4000     = ebeam2  ! beam 2 total energy in GeV
#*********************************************************************
# Beam polarization from -100 (left-handed) to 100 (right-handed)    *
#*********************************************************************
        0     = polbeam1 ! beam polarization for beam 1
        0     = polbeam2 ! beam polarization for beam 2
#*********************************************************************
# PDF CHOICE: this automatically fixes also alpha_s and its evol.    *
#*********************************************************************
 'nn23lo1'    = pdlabel     ! PDF set                                     
 230000    = lhaid     ! if pdlabel=lhapdf, this is the lhapdf number
#*********************************************************************
# Renormalization and factorization scales                           *
#*********************************************************************
 F        = fixed_ren_scale  ! if .true. use fixed ren scale
 F        = fixed_fac_scale  ! if .true. use fixed fac scale
 91.1880  = scale            ! fixed ren scale
 91.1880  = dsqrt_q2fact1    ! fixed fact scale for pdf1
 91.1880  = dsqrt_q2fact2    ! fixed fact scale for pdf2
 1        = scalefact        ! scale factor for event-by-event scales
#*********************************************************************
# Matching - Warning! ickkw > 1 is still beta
#*********************************************************************
 0        = ickkw            ! 0 no matching, 1 MLM, 2 CKKW matching
 1        = highestmult      ! for ickkw=2, highest mult group
 1        = ktscheme         ! for ickkw=1, 1 Durham kT, 2 Pythia pTE
 1        = alpsfact         ! scale factor for QCD emission vx
 F        = chcluster        ! cluster only according to channel diag
 T        = pdfwgt           ! for ickkw=1, perform pdf reweighting
 5        = asrwgtflavor     ! highest quark flavor for a_s reweight
 T        = clusinfo         ! include clustering tag in output
 3.0      = lhe_version       ! Change the way clustering information pass to shower.        
#*********************************************************************
#**********************************************************
#
#**********************************************************
# Automatic ptj and mjj cuts if xqcut > 0
# (turn off for VBF and single top processes)
#**********************************************************
   T  = auto_ptj_mjj  ! Automatic setting of ptj and mjj
#**********************************************************
#                                                                    
#**********************************
# BW cutoff (M+/-bwcutoff*Gamma)
#**********************************
  15  = bwcutoff      ! (M+/-bwcutoff*Gamma)
#**********************************************************
# Apply pt/E/eta/dr/mij cuts on decay products or not
# (note that etmiss/ptll/ptheavy/ht/sorted cuts always apply)
#**********************************************************
   T  = cut_decays    ! Cut decay products 
#*************************************************************
# Number of helicities to sum per event (0 = all helicities)
# 0 gives more stable result, but longer run time (needed for
# long decay chains e.g.).
# Use >=2 if most helicities contribute, e.g. pure QCD.
#*************************************************************
   0  = nhel          ! Number of helicities used per event
#*******************                                                 
# Standard Cuts
#*******************                                                 
#                                                                    
#*********************************************************************
# Minimum and maximum pt's (for max, -1 means no cut)                *
#*********************************************************************
 20  = ptj       ! minimum pt for the jets 
  0  = ptb       ! minimum pt for the b 
 10  = pta       ! minimum pt for the photons 
 10  = ptl       ! minimum pt for the charged leptons 
  0  = misset    ! minimum missing Et (sum of neutrino's momenta)
  0  = ptheavy   ! minimum pt for one heavy final state
 1.0 = ptonium   ! minimum pt for the quarkonium states
 -1  = ptjmax    ! maximum pt for the jets
 -1  = ptbmax    ! maximum pt for the b
 -1  = ptamax    ! maximum pt for the photons
 -1  = ptlmax    ! maximum pt for the charged leptons
 -1  = missetmax ! maximum missing Et (sum of neutrino's momenta)
#*********************************************************************
# Minimum and maximum E's (in the center of mass frame)              *
#*********************************************************************
  0  = ej     ! minimum E for the jets 
  0  = eb     ! minimum E for the b 
  0  = ea     ! minimum E for the photons 
  0  = el     ! minimum E for the charged leptons 
 -1   = ejmax ! maximum E for the jets
 -1   = ebmax ! maximum E for the b
 -1   = eamax ! maximum E for the photons
 -1   = elmax ! maximum E for the charged leptons
#*********************************************************************
# Maximum and minimum absolute rapidity (for max, -1 means no cut)   *
#*********************************************************************
   5  = etaj    ! max rap for the jets 
  -1  = etab    ! max rap for the b
 2.5  = etaa    ! max rap for the photons 
 2.5  = etal    ! max rap for the charged leptons 
 0.6  = etaonium ! max rap for the quarkonium states
   0  = etajmin ! min rap for the jets
   0  = etabmin ! min rap for the b
   0  = etaamin ! min rap for the photons
   0  = etalmin ! main rap for the charged leptons
#*********************************************************************
# Minimum and maximum DeltaR distance                                *
#*********************************************************************
 0.4 = drjj    ! min distance between jets 
 0   = drbb    ! min distance between b's 
 0.4 = drll    ! min distance between leptons 
 0.4 = draa    ! min distance between gammas 
 0   = drbj    ! min distance between b and jet 
 0.4 = draj    ! min distance between gamma and jet 
 0.4 = drjl    ! min distance between jet and lepton 
 0   = drab    ! min distance between gamma and b 
 0   = drbl    ! min distance between b and lepton 
 0.4 = dral    ! min distance between gamma and lepton 
 -1  = drjjmax ! max distance between jets
 -1  = drbbmax ! max distance between b's
 -1  = drllmax ! max distance between leptons
 -1  = draamax ! max distance between gammas
 -1  = drbjmax ! max distance between b and jet
 -1  = drajmax ! max distance between gamma and jet
 -1  = drjlmax ! max distance between jet and lepton
 -1  = drabmax ! max distance between gamma and b
 -1  = drblmax ! max distance between b and lepton
 -1  = dralmax ! maxdistance between gamma and lepton
#*********************************************************************
# Minimum and maximum invariant mass for pairs                       *
# WARNING: for four lepton final state mmll cut require to have      *
#          different lepton masses for each flavor!                  *           
#*********************************************************************
 0   = mmjj    ! min invariant mass of a jet pair 
 0   = mmbb    ! min invariant mass of a b pair 
 0   = mmaa    ! min invariant mass of gamma gamma pair
 0   = mmll    ! min invariant mass of l+l- (same flavour) lepton pair
 -1  = mmjjmax ! max invariant mass of a jet pair
 -1  = mmbbmax ! max invariant mass of a b pair
 -1  = mmaamax ! max invariant mass of gamma gamma pair
 -1  = mmllmax ! max invariant mass of l+l- (same flavour) lepton pair
#*********************************************************************
# Minimum and maximum invariant mass for all letpons                 *
#*********************************************************************
 0   = mmnl    ! min invariant mass for all letpons (l+- and vl) 
 -1  = mmnlmax ! max invariant mass for all letpons (l+- and vl) 
#*********************************************************************
# Minimum and maximum pt for 4-momenta sum of leptons                *
#*********************************************************************
 0   = ptllmin  ! Minimum pt for 4-momenta sum of leptons(l and vl)
 -1  = ptllmax  ! Maximum pt for 4-momenta sum of leptons(l and vl)
#*********************************************************************
# Inclusive cuts                                                     *
#*********************************************************************
 0  = xptj ! minimum pt for at least one jet  
 0  = xptb ! minimum pt for at least one b 
 0  = xpta ! minimum pt for at least one photon 
 0  = xptl ! minimum pt for at least one charged lepton 
#*********************************************************************
# Control the pt's of the jets sorted by pt                          *
#*********************************************************************
 0   = ptj1min ! minimum pt for the leading jet in pt
 0   = ptj2min ! minimum pt for the second jet in pt
 0   = ptj3min ! minimum pt for the third jet in pt
 0   = ptj4min ! minimum pt for the fourth jet in pt
 -1  = ptj1max ! maximum pt for the leading jet in pt 
 -1  = ptj2max ! maximum pt for the second jet in pt
 -1  = ptj3max ! maximum pt for the third jet in pt
 -1  = ptj4max ! maximum pt for the fourth jet in pt
 0   = cutuse  ! reject event if fails any (0) / all (1) jet pt cuts
#*********************************************************************
# Control the pt's of leptons sorted by pt                           *
#*********************************************************************
 0   = ptl1min ! minimum pt for the leading lepton in pt
 0   = ptl2min ! minimum pt for the second lepton in pt
 0   = ptl3min ! minimum pt for the third lepton in pt
 0   = ptl4min ! minimum pt for the fourth lepton in pt
 -1  = ptl1max ! maximum pt for the leading lepton in pt 
 -1  = ptl2max ! maximum pt for the second lepton in pt
 -1  = ptl3max ! maximum pt for the third lepton in pt
 -1  = ptl4max ! maximum pt for the fourth lepton in pt
#*********************************************************************
# Control the Ht(k)=Sum of k leading jets                            *
#*********************************************************************
 0   = htjmin ! minimum jet HT=Sum(jet pt)
 -1  = htjmax ! maximum jet HT=Sum(jet pt)
 0   = ihtmin  !inclusive Ht for all partons (including b)
 -1  = ihtmax  !inclusive Ht for all partons (including b)
 0   = ht2min ! minimum Ht for the two leading jets
 0   = ht3min ! minimum Ht for the three leading jets
 0   = ht4min ! minimum Ht for the four leading jets
 -1  = ht2max ! maximum Ht for the two leading jets
 -1  = ht3max ! maximum Ht for the three leading jets
 -1  = ht4max ! maximum Ht for the four leading jets
#***********************************************************************
# Photon-isolation cuts, according to hep-ph/9801442                   *
# When ptgmin=0, all the other parameters are ignored                  *
# When ptgmin>0, pta and draj are not going to be used                 *
#***********************************************************************
   0 = ptgmin ! Min photon transverse momentum
 0.4 = R0gamma ! Radius of isolation code
 1.0 = xn ! n parameter of eq.(3.4) in hep-ph/9801442
 1.0 = epsgamma ! epsilon_gamma parameter of eq.(3.4) in hep-ph/9801442
 .true. = isoEM ! isolate photons from EM energy (photons and leptons)
#*********************************************************************
# WBF cuts                                                           *
#*********************************************************************
 0   = xetamin ! minimum rapidity for two jets in the WBF case  
 0   = deltaeta ! minimum rapidity for two jets in the WBF case 
#*********************************************************************
# KT DURHAM CUT                                                      *
#*********************************************************************
 -1    =  ktdurham        
 0.4  =  dparameter 
#*********************************************************************
# maximal pdg code for quark to be considered as a light jet         *
# (otherwise b cuts are applied)                                     *
#*********************************************************************
 4 = maxjetflavor    ! Maximum jet pdg code
#*********************************************************************
# Jet measure cuts                                                   *
#*********************************************************************
 0   = xqcut   ! minimum kt jet measure between partons
#*********************************************************************
#
#*********************************************************************
# Store info for systematics studies                                 *
# WARNING: If use_syst is T, matched Pythia output is                *
#          meaningful ONLY if plotted taking matchscale              *
#          reweighting into account!                                 *
#*********************************************************************
   F  = use_syst      ! Enable systematics studies
#
#**************************************
# Parameter of the systematics study
#  will be used by SysCalc (if installed)
#**************************************                                  
#
0.5 1 2 = sys_scalefact  # factorization/renormalization scale factor
0.5 1 2 = sys_alpsfact  # \alpha_s emission scale factors
30 50 = sys_matchscale # variation of merging scale
# PDF sets and number of members (0 or none for all members).
CT10nlo.LHgrid = sys_pdf # matching scales
# MSTW2008nlo68cl.LHgrid 1  = sys_pdf
</MGRunCard>
<slha>
######################################################################
## PARAM_CARD AUTOMATICALY GENERATED BY MG5 FOLLOWING UFO MODEL   ####
######################################################################
##                                                                  ##
##  Width set on Auto will be computed following the information    ##
##        present in the decay.py files of the model.               ##
##        See  arXiv:1402.1178 for more details.                    ##
##                                                                  ##
######################################################################

###################################
## INFORMATION FOR CKMBLOCK
###################################
Block ckmblock 
    1 2.277360e-01 # cabi 

###################################
## INFORMATION FOR FRBLOCK
###################################
Block frblock 
    1 8.000000e-01 # gz 

###################################
## INFORMATION FOR MASS
###################################
Block mass 
    1 5.040000e-03 # MD 
    2 2.550000e-03 # MU 
    3 1.010000e-01 # MS 
    4 1.270000e+00 # MC 
    5 4.700000e+00 # MB 
    6 1.720000e+02 # MT 
   11 5.110000e-04 # Me 
   13 1.056600e-01 # MM 
   15 1.777000e+00 # MTA 
   23 9.118760e+01 # MZ 
   25 1.200000e+02 # MH 
  10030 3.200000e+03 # MZph 
  10031 3.000000e+02 # MZpl 
## Dependent parameters, given by model restrictions.
## Those values should be edited following the 
## analytical expression. MG5 ignores those values 
## but they are important for interfacing the output of MG5
## to external program such as Pythia.
  12 0.000000 # ve : 0.0 
  14 0.000000 # vm : 0.0 
  16 0.000000 # vt : 0.0 
  21 0.000000 # g : 0.0 
  22 0.000000 # a : 0.0 
  24 79.824360 # w+ : cmath.sqrt(MZ__exp__2/2. + cmath.sqrt(MZ__exp__4/4. - (aEW*cmath.pi*MZ__exp__2)/(Gf*sqrt__2))) 

###################################
## INFORMATION FOR SMINPUTS
###################################
Block sminputs 
    1 1.279000e+02 # aEWM1 
    2 1.166370e-05 # Gf 
    3 1.184000e-01 # aS 

###################################
## INFORMATION FOR YUKAWA
###################################
Block yukawa 
    1 5.040000e-03 # ymdo 
    2 2.550000e-03 # ymup 
    3 1.010000e-01 # yms 
    4 1.270000e+00 # ymc 
    5 4.700000e+00 # ymb 
    6 1.720000e+02 # ymt 
   11 5.110000e-04 # yme 
   13 1.056600e-01 # ymm 
   15 1.777000e+00 # ymtau 

###################################
## INFORMATION FOR DECAY
###################################
DECAY   6 1.508336e+00 # WT 
DECAY  23 2.495200e+00 # WZ 
DECAY  24 2.085000e+00 # WW 
DECAY  25 5.753088e-03 # WH 
## Dependent parameters, given by model restrictions.
## Those values should be edited following the 
## analytical expression. MG5 ignores those values 
## but they are important for interfacing the output of MG5
## to external program such as Pythia.
DECAY  1 0.000000 # d : 0.0 
DECAY  2 0.000000 # u : 0.0 
DECAY  3 0.000000 # s : 0.0 
DECAY  4 0.000000 # c : 0.0 
DECAY  5 0.000000 # b : 0.0 
DECAY  11 0.000000 # e- : 0.0 
DECAY  12 0.000000 # ve : 0.0 
DECAY  13 0.000000 # mu- : 0.0 
DECAY  14 0.000000 # vm : 0.0 
DECAY  15 0.000000 # ta- : 0.0 
DECAY  16 0.000000 # vt : 0.0 
DECAY  21 0.000000 # g : 0.0 
DECAY  22 0.000000 # a : 0.0 
DECAY  10030 0.308725 # zph : (gz__exp__2*MZph*(5 + cmath.sqrt(1 - (4*MT__exp__2)/MZph__exp__2)))/(144.*cmath.pi) 
DECAY  10031 0.132629 # zpl : (5*gz__exp__2*MZpl)/(144.*cmath.pi) 
#===========================================================
# QUANTUM NUMBERS OF NEW STATE(S) (NON SM PDG CODE)
#===========================================================

Block QNUMBERS 10030  # zph 
        1 0  # 3 times electric charge
        2 3  # number of spin states (2S+1)
        3 1  # colour rep (1: singlet, 3: triplet, 8: octet)
        4 0  # Particle/Antiparticle distinction (0=own anti)
Block QNUMBERS 10031  # zpl 
        1 0  # 3 times electric charge
        2 3  # number of spin states (2S+1)
        3 1  # colour rep (1: singlet, 3: triplet, 8: octet)
        4 0  # Particle/Antiparticle distinction (0=own anti)
</slha>
## END BANNER##
<MGGenerationInfo>
#  Number of Events        :         3936
#  Integrated weight (pb)  :  0.39965E-03
#  Max wgt                 :  0.15728E-06
#  Average wgt             :  0.10154E-06
</MGGenerationInfo>
</header>
<init>
     2212     2212  0.40000000000E+04  0.40000000000E+04 0 0  247000  247000 2   1
  0.39990480293E-03  0.83154982943E-06  0.15727690000E-06   0
</init>
<event>
 5   0  0.1538349E-06  0.3201482E+04  0.7818609E-02  0.8188426E-01
        2   -1    0    0  501    0  0.00000000000E+00  0.00000000000E+00  0.17875993767E+04  0.17875993767E+04  0.25500000920E-02 0. -1.
       -2   -1    0    0    0  501  0.00000000000E+00  0.00000000000E+00 -0.14334146986E+04  0.14334146986E+04  0.25500000920E-02 0.  1.
    10030    2    1    2    0    0  0.00000000000E+00  0.00000000000E+00  0.35418467812E+03  0.32210140753E+04  0.32014816706E+04 0.  0.
        1    1    3    3  502    0  0.15191391655E+04  0.12922132562E+03  0.66780699239E+03  0.16644663211E+04  0.50400001928E-02 0. -1.
       -1    1    3    3    0  502 -0.15191391655E+04 -0.12922132562E+03 -0.31362231428E+03  0.15565477542E+04  0.50400001928E-02 0.  1.
</event>
<event>
 5   0  0.1538349E-06  0.3197956E+04  0.7818609E-02  0.8189357E-01
        2   -1    0    0  501    0  0.00000000000E+00  0.00000000000E+00  0.11244177847E+04  0.11244177848E+04  0.25500000920E-02 0.  1.
       -2   -1    0    0    0  501  0.00000000000E+00  0.00000000000E+00 -0.22738268476E+04  0.22738268476E+04  0.25500000920E-02 0. -1.
    10030    2    1    2    0    0  0.00000000000E+00  0.00000000000E+00 -0.11494090628E+04  0.33982446323E+04  0.31979564393E+04 0.  0.
        1    1    3    3  502    0 -0.10594212323E+04 -0.10304094757E+04  0.73947618160E+02  0.14797247330E+04  0.50400001928E-02 0.  1.
       -1    1    3    3    0  502  0.10594212323E+04  0.10304094757E+04 -0.12233566810E+04  0.19185198993E+04  0.50400001928E-02 0. -1.
</event>
<event>
 5   0  0.1556396E-06  0.3253224E+04  0.7818609E-02  0.8174900E-01
        2   -1    0    0  501    0  0.00000000000E+00  0.00000000000E+00  0.22604391485E+04  0.22604391485E+04  0.25500000920E-02 0. -1.
       -2   -1    0    0    0  501  0.00000000000E+00  0.00000000000E+00 -0.11705102519E+04  0.11705102519E+04  0.25500000920E-02 0.  1.
    10030    2    1    2    0    0  0.00000000000E+00  0.00000000000E+00  0.10899288966E+04  0.34309494004E+04  0.32532243679E+04 0.  0.
        3    1    3    3  502    0  0.60426992448E+02  0.13082622881E+04 -0.47244816100E+03  0.13922675428E+04  0.10100000352E+00 0.  1.
       -3    1    3    3    0  502 -0.60426992448E+02 -0.13082622881E+04  0.15623770576E+04  0.20386818575E+04  0.10100000352E+00 0. -1.
</event>
<event>
 5   0  0.1538349E-06  0.3190462E+04  0.7818609E-02  0.8191341E-01
        2   -1    0    0  501    0  0.00000000000E+00  0.00000000000E+00  0.14956524276E+04  0.14956524276E+04  0.25500000920E-02 0. -1.
       -2   -1    0    0    0  501  0.00000000000E+00  0.00000000000E+00 -0.17014392046E+04  0.17014392046E+04  0.25500000920E-02 0.  1.
    10030    2    1    2    0    0  0.00000000000E+00  0.00000000000E+00 -0.20578677707E+03  0.31970916322E+04  0.31904618329E+04 0.  0.
        1    1    3    3  502    0 -0.53510952079E+01  0.15949175991E+04 -0.13411731673E+03  0.16005556026E+04  0.50400001928E-02 0. -1.
       -1    1    3    3    0  502  0.53510952079E+01 -0.15949175991E+04 -0.71669460336E+02  0.15965360296E+04  0.50400001928E-02 0.  1.
</event>
<event>
 5   0  0.1556396E-06  0.3232797E+04  0.7818609E-02  0.8180209E-01
        2   -1    0    0  501    0  0.00000000000E+00  0.00000000000E+00  0.22751875435E+04  0.22751875435E+04  0.25500000920E-02 0. -1.
       -2   -1    0    0    0  501  0.00000000000E+00  0.00000000000E+00 -0.11483642775E+04  0.11483642775E+04  0.25500000920E-02 0.  1.
    10030    2    1    2    0    0  0.00000000000E+00  0.00000000000E+00  0.11268232661E+04  0.34235518210E+04  0.32327969930E+04 0.  0.
        3    1    3    3  502    0  0.11494071624E+04 -0.38805992478E+03 -0.56780161902E+03  0.13394498941E+04  0.10100000352E+00 0.  1.
       -3    1    3    3    0  502 -0.11494071624E+04  0.38805992478E+03  0.16946248851E+04  0.20841019269E+04  0.10100000352E+00 0. -1.
</event>
<event>
 5   0  0.5370912E-07  0.3190310E+04  0.7818609E-02  0.8191381E-01
       -1   -1    0    0    0  501  0.00000000000E+00  0.00000000000E+00  0.10694476763E+04  0.10694476763E+04  0.50400001928E-02 0.  1.
        1   -1    0    0  501    0  0.00000000000E+00  0.00000000000E+00 -0.23792843024E+04  0.23792843024E+04  0.50400001928E-02 0. -1.
    10030    2    1    2    0    0  0.00000000000E+00  0.00000000000E+00 -0.13098366261E+04  0.34487319787E+04  0.31903103727E+04 0.  0.
        1    1    3    3  502    0 -0.36099797091E+03 -0.34835628700E+03 -0.22917882840E+04  0.23460531061E+04  0.50400001928E-02 0. -1.
       -1    1    3    3    0  502  0.36099797091E+03  0.34835628700E+03  0.98195165790E+03  0.11026788726E+04  0.50400001928E-02 0.  1.
</event>
<event>
 5   0  0.5177039E-07  0.3146931E+04  0.7818609E-02  0.8202975E-01
        1   -1    0    0  501    0  0.00000000000E+00  0.00000000000E+00  0.16162423147E+04  0.16162423147E+04  0.50400001928E-02 0.  1.
       -1   -1    0    0    0  501  0.00000000000E+00  0.00000000000E+00 -0.15318205705E+04  0.15318205705E+04  0.50400001928E-02 0. -1.
    10030    2    1    2    0    0  0.00000000000E+00  0.00000000000E+00  0.84421744195E+02  0.31480628852E+04  0.31469307107E+04 0.  0.
        3    1    3    3  502    0 -0.55213132216E+01 -0.94782445096E+03  0.12986052144E+04  0.16077242263E+04  0.10100000352E+00 0.  1.
       -3    1    3    3    0  502  0.55213132216E+01  0.94782445096E+03 -0.12141834702E+04  0.15403386589E+04  0.10100000352E+00 0. -1.
</event>
<event>
 5   0  0.1538349E-06  0.3167699E+04  0.7818609E-02  0.8197400E-01
        2   -1    0    0  501    0  0.00000000000E+00  0.00000000000E+00  0.88591009374E+03  0.88591009374E+03  0.25500000920E-02 0. -1.
       -2   -1    0    0    0  501  0.00000000000E+00  0.00000000000E+00 -0.28316407503E+04  0.28316407503E+04  0.25500000920E-02 0.  1.
    10030    2    1    2    0    0  0.00000000000E+00  0.00000000000E+00 -0.19457306566E+04  0.37175508441E+04  0.31676989267E+04 0.  0.
        1    1    3    3  502    0 -0.12126840221E+04 -0.19856772209E+02  0.22256507079E+03  0.12330985523E+04  0.50400001928E-02 0. -1.
       -1    1    3    3    0  502  0.12126840221E+04  0.19856772209E+02 -0.21682957274E+04  0.24844522918E+04  0.50400001928E-02 0.  1.
</event>
<event>
 5   0  0.5317728E-07  0.3224201E+04  0.7818609E-02  0.8182455E-01
        1   -1    0    0  501    0  0.00000000000E+00  0.00000000000E+00  0.23183512200E+04  0.23183512200E+04  0.50400001928E-02 0. -1.
       -1   -1    0    0    0  501  0.00000000000E+00  0.00000000000E+00 -0.11209984817E+04  0.11209984817E+04  0.50400001928E-02 0.  1.
    10030    2    1    2    0    0  0.00000000000E+00  0.00000000000E+00  0.11973527383E+04  0.34393497017E+04  0.32242011089E+04 0.  0.
        2    1    3    3  502    0 -0.13889456709E+04 -0.13993640881E+03  0.14587776890E+04  0.20191049059E+04  0.25500000920E-02 0. -1.
       -2    1    3    3    0  502  0.13889456709E+04  0.13993640881E+03 -0.26142495066E+03  0.14202447958E+04  0.25500000920E-02 0.  1.
</event>
<event>
 5   0  0.1538349E-06  0.3183156E+04  0.7818609E-02  0.8193280E-01
       -2   -1    0    0    0  501  0.00000000000E+00  0.00000000000E+00  0.30670441683E+04  0.30670441683E+04  0.25500000920E-02 0. -1.
        2   -1    0    0  501    0  0.00000000000E+00  0.00000000000E+00 -0.82591573442E+03  0.82591573443E+03  0.25500000920E-02 0.  1.
    10030    2    1    2    0    0  0.00000000000E+00  0.00000000000E+00  0.22411284339E+04  0.38929599027E+04  0.31831556901E+04 0.  0.
        1    1    3    3  502    0  0.10808476871E+04  0.49330543736E+02  0.25480871808E+04  0.27682871069E+04  0.50400001928E-02 0. -1.
       -1    1    3    3    0  502 -0.10808476871E+04 -0.49330543736E+02 -0.30695874693E+03  0.11246727958E+04  0.50400001928E-02 0.  1.
</event>
<event>
 5   0  0.4995625E-07  0.3192018E+04  0.7818609E-02  0.8190928E-01
       -4   -1    0    0    0  501  0.00000000000E+00  0.00000000000E+00  0.13698580201E+04  0.13698586088E+04  0.12699999809E+01 0.  1.
        4   -1    0    0  501    0  0.00000000000E+00  0.00000000000E+00 -0.18594939989E+04  0.18594944326E+04  0.12699999809E+01 0. -1.
    10030    2    1    2    0    0  0.00000000000E+00  0.00000000000E+00 -0.48963597882E+03  0.32293530414E+04  0.31920178061E+04 0.  0.
        5    1    3    3  502    0 -0.39039082213E+03  0.13777161546E+04 -0.95784189489E+03  0.17227855300E+04  0.46999998093E+01 0. -1.
       -5    1    3    3    0  502  0.39039082213E+03 -0.13777161546E+04  0.46820591608E+03  0.15065675114E+04  0.46999998093E+01 0.  1.
</event>
<event>
 5   0  0.1572769E-06  0.3152780E+04  0.7818609E-02  0.8201400E-01
        2   -1    0    0  501    0  0.00000000000E+00  0.00000000000E+00  0.13651246958E+04  0.13651246958E+04  0.25500000920E-02 0.  1.
       -2   -1    0    0    0  501  0.00000000000E+00  0.00000000000E+00 -0.18203502825E+04  0.18203502825E+04  0.25500000920E-02 0. -1.
    10030    2    1    2    0    0  0.00000000000E+00  0.00000000000E+00 -0.45522558671E+03  0.31854749782E+04  0.31527798055E+04 0.  0.
        5    1    3    3  502    0 -0.26720774992E+03 -0.75382465817E+03  0.11449042574E+04  0.13965956629E+04  0.46999998093E+01 0.  1.
       -5    1    3    3    0  502  0.26720774992E+03  0.75382465817E+03 -0.16001298441E+04  0.17888793154E+04  0.46999998093E+01 0. -1.
</event>
<event>
 5   0  0.5281187E-07  0.3189888E+04  0.7818609E-02  0.8191493E-01
       -1   -1    0    0    0  501  0.00000000000E+00  0.00000000000E+00  0.14954234646E+04  0.14954234646E+04  0.50400001928E-02 0. -1.
        1   -1    0    0  501    0  0.00000000000E+00  0.00000000000E+00 -0.17010873609E+04  0.17010873609E+04  0.50400001928E-02 0.  1.
    10030    2    1    2    0    0  0.00000000000E+00  0.00000000000E+00 -0.20566389631E+03  0.31965108256E+04  0.31898877441E+04 0.  0.
        5    1    3    3  502    0  0.22889009857E+03  0.99801220946E+03  0.11225745170E+04  0.15194126114E+04  0.46999998093E+01 0. -1.
       -5    1    3    3    0  502 -0.22889009857E+03 -0.99801220946E+03 -0.13282384133E+04  0.16770982142E+04  0.46999998093E+01 0.  1.
</event>
<event>
 5   0  0.5370912E-07  0.3213419E+04  0.7818609E-02  0.8185282E-01
       -1   -1    0    0    0  501  0.00000000000E+00  0.00000000000E+00  0.11339781488E+04  0.11339781488E+04  0.50400001928E-02 0. -1.
        1   -1    0    0  501    0  0.00000000000E+00  0.00000000000E+00 -0.22765121643E+04  0.22765121643E+04  0.50400001928E-02 0.  1.
    10030    2    1    2    0    0  0.00000000000E+00  0.00000000000E+00 -0.11425340155E+04  0.34104903131E+04  0.32134187712E+04 0.  0.
        1    1    3    3  502    0 -0.93772154208E+03 -0.11356870997E+04 -0.12528411798E+04  0.19335764533E+04  0.50400001928E-02 0. -1.
       -1    1    3    3    0  502  0.93772154208E+03  0.11356870997E+04  0.11030716435E+03  0.14769138598E+04  0.50400001928E-02 0.  1.
</event>
<event>
 5   0  0.5177039E-07  0.3173747E+04  0.7818609E-02  0.8195785E-01
       -1   -1    0    0    0  501  0.00000000000E+00  0.00000000000E+00  0.15156450862E+04  0.15156450862E+04  0.50400001928E-02 0.  1.
        1   -1    0    0  501    0  0.00000000000E+00  0.00000000000E+00 -0.16614489410E+04  0.16614489410E+04  0.50400001928E-02 0. -1.
    10030    2    1    2    0    0  0.00000000000E+00  0.00000000000E+00 -0.14580385477E+03  0.31770940272E+04  0.31737466335E+04 0.  0.
        3    1    3    3  502    0 -0.13649308463E+03 -0.13761831416E+04  0.70615825880E+03  0.15527942227E+04  0.10100000352E+00 0. -1.
       -3    1    3    3    0  502  0.13649308463E+03  0.13761831416E+04 -0.85196211357E+03  0.16242998044E+04  0.10100000352E+00 0.  1.
</event>
<event>
 5   0  0.5177039E-07  0.3007627E+04  0.7818609E-02  0.8241556E-01
       -1   -1    0    0    0  501  0.00000000000E+00  0.00000000000E+00  0.16700321738E+04  0.16700321738E+04  0.50400001928E-02 0. -1.
        1   -1    0    0  501    0  0.00000000000E+00  0.00000000000E+00 -0.13541386590E+04  0.13541386590E+04  0.50400001928E-02 0.  1.
    10030    2    1    2    0    0  0.00000000000E+00  0.00000000000E+00  0.31589351484E+03  0.30241708329E+04  0.30076270569E+04 0.  0.
        3    1    3    3  502    0  0.86942919464E+03  0.12071895164E+04  0.37879430581E+03  0.15351543210E+04  0.10100000352E+00 0. -1.
       -3    1    3    3    0  502 -0.86942919464E+03 -0.12071895164E+04 -0.62900790971E+02  0.14890165119E+04  0.10100000352E+00 0.  1.
</event>
<event>
 5   0  0.1538349E-06  0.3193661E+04  0.7818609E-02  0.8190493E-01
       -2   -1    0    0    0  501  0.00000000000E+00  0.00000000000E+00  0.15056261207E+04  0.15056261207E+04  0.25500000920E-02 0. -1.
        2   -1    0    0  501    0  0.00000000000E+00  0.00000000000E+00 -0.16935592866E+04  0.16935592866E+04  0.25500000920E-02 0.  1.
    10030    2    1    2    0    0  0.00000000000E+00  0.00000000000E+00 -0.18793316594E+03  0.31991854073E+04  0.31936606575E+04 0.  0.
        1    1    3    3  502    0  0.15546556421E+04 -0.15463415692E+03  0.23675786704E+03  0.15801646040E+04  0.50400001928E-02 0.  1.
       -1    1    3    3    0  502 -0.15546556421E+04  0.15463415692E+03 -0.42469103297E+03  0.16190208033E+04  0.50400001928E-02 0. -1.
</event>
<event>
 5   0  0.5233813E-07  0.2819098E+04  0.7818609E-02  0.8297364E-01
        1   -1    0    0  501    0  0.00000000000E+00  0.00000000000E+00  0.24754597415E+04  0.24754597415E+04  0.50400001928E-02 0.  1.
       -1   -1    0    0    0  501  0.00000000000E+00  0.00000000000E+00 -0.80260964869E+03  0.80260964871E+03  0.50400001928E-02 0. -1.
    10030    2    1    2    0    0  0.00000000000E+00  0.00000000000E+00  0.16728500928E+04  0.32780693902E+04  0.28190976382E+04 0.  0.
        4    1    3    3  502    0  0.56454970993E+02 -0.13501218475E+04  0.13027242538E+04  0.18769944755E+04  0.12699999809E+01 0.  1.
       -4    1    3    3    0  502 -0.56454970993E+02  0.13501218475E+04  0.37012583901E+03  0.14010749147E+04  0.12699999809E+01 0. -1.
</event>
<event>
 5   0  0.5370912E-07  0.3222516E+04  0.7818609E-02  0.8182896E-01
        1   -1    0    0  501    0  0.00000000000E+00  0.00000000000E+00  0.15148280411E+04  0.15148280411E+04  0.50400001928E-02 0.  1.
       -1   -1    0    0    0  501  0.00000000000E+00  0.00000000000E+00 -0.17138265999E+04  0.17138265999E+04  0.50400001928E-02 0. -1.
    10030    2    1    2    0    0  0.00000000000E+00  0.00000000000E+00 -0.19899855880E+03  0.32286546410E+04  0.32225161542E+04 0.  0.
        1    1    3    3  502    0  0.15455265675E+03  0.11885990619E+04 -0.11783504929E+04  0.16808224587E+04  0.50400001928E-02 0. -1.
       -1    1    3    3    0  502 -0.15455265675E+03 -0.11885990619E+04  0.97935193409E+03  0.15478321822E+04  0.50400001928E-02 0.  1.
</event>
<event>
 5   0  0.1493485E-06  0.3225059E+04  0.7818609E-02  0.8182230E-01
        2   -1    0    0  501    0  0.00000000000E+00  0.00000000000E+00  0.15310910751E+04  0.15310910751E+04  0.25500000920E-02 0. -1.
       -2   -1    0    0    0  501  0.00000000000E+00  0.00000000000E+00 -0.16982995711E+04  0.16982995711E+04  0.25500000920E-02 0.  1.
    10030    2    1    2    0    0  0.00000000000E+00  0.00000000000E+00 -0.16720849608E+03  0.32293906462E+04  0.32250589552E+04 0.  0.
        2    1    3    3  502    0 -0.15193063912E+04  0.40523089264E+03 -0.44150189259E+03  0.16332262267E+04  0.25500000920E-02 0.  1.
       -2    1    3    3    0  502  0.15193063912E+04 -0.40523089264E+03  0.27429339650E+03  0.15961644195E+04  0.25500000920E-02 0. -1.
</event>
<event>
 5   0  0.5177039E-07  0.3221410E+04  0.7818609E-02  0.8183186E-01
       -1   -1    0    0    0  501  0.00000000000E+00  0.00000000000E+00  0.11153232693E+04  0.11153232693E+04  0.50400001928E-02 0. -1.
        1   -1    0    0  501    0  0.00000000000E+00  0.00000000000E+00 -0.23261156316E+04  0.23261156316E+04  0.50400001928E-02 0.  1.
    10030    2    1    2    0    0  0.00000000000E+00  0.00000000000E+00 -0.12107923623E+04  0.34414389009E+04  0.32214101826E+04 0.  0.
        3    1    3    3  502    0  0.21162185629E+03 -0.15024727963E+04 -0.11828354600E+04  0.19238783874E+04  0.10100000352E+00 0.  1.
       -3    1    3    3    0  502 -0.21162185629E+03  0.15024727963E+04 -0.27956902274E+02  0.15175605136E+04  0.10100000352E+00 0. -1.
</event>
<event>
 5   0  0.1556396E-06  0.3209304E+04  0.7818609E-02  0.8186364E-01
       -2   -1    0    0    0  501  0.00000000000E+00  0.00000000000E+00  0.19861322415E+04  0.19861322415E+04  0.25500000920E-02 0. -1.
        2   -1    0    0  501    0  0.00000000000E+00  0.00000000000E+00 -0.12964434588E+04  0.12964434588E+04  0.25500000920E-02 0.  1.
    10030    2    1    2    0    0  0.00000000000E+00  0.00000000000E+00  0.68968878276E+03  0.32825757003E+04  0.32093040696E+04 0.  0.
        3    1    3    3  502    0  0.12324751743E+04 -0.65281624300E+03 -0.46683761121E+03  0.14707486080E+04  0.10100000352E+00 0.  1.
       -3    1    3    3    0  502 -0.12324751743E+04  0.65281624300E+03  0.11565263940E+04  0.18118270923E+04  0.10100000352E+00 0. -1.
</event>
<event>
 5   0  0.5370912E-07  0.3214448E+04  0.7818609E-02  0.8185012E-01
        1   -1    0    0  501    0  0.00000000000E+00  0.00000000000E+00  0.18961186130E+04  0.18961186130E+04  0.50400001928E-02 0.  1.
       -1   -1    0    0    0  501  0.00000000000E+00  0.00000000000E+00 -0.13623459298E+04  0.13623459298E+04  0.50400001928E-02 0. -1.
    10030    2    1    2    0    0  0.00000000000E+00  0.00000000000E+00  0.53377268316E+03  0.32584645429E+04  0.32144483041E+04 0.  0.
        1    1    3    3  502    0  0.26138171836E+03 -0.39893386015E+00  0.18744289883E+04  0.18925656116E+04  0.50400001928E-02 0.  1.
       -1    1    3    3    0  502 -0.26138171836E+03  0.39893386015E+00 -0.13406563052E+04  0.13658989313E+04  0.50400001928E-02 0. -1.
</event>
<event>
 5   0  0.1493485E-06  0.3202181E+04  0.7818609E-02  0.8188241E-01
       -2   -1    0    0    0  501  0.00000000000E+00  0.00000000000E+00  0.19711148860E+04  0.19711148861E+04  0.25500000920E-02 0.  1.
        2   -1    0    0  501    0  0.00000000000E+00  0.00000000000E+00 -0.13005281107E+04  0.13005281107E+04  0.25500000920E-02 0. -1.
    10030    2    1    2    0    0  0.00000000000E+00  0.00000000000E+00  0.67058677533E+03  0.32716429968E+04  0.32021807062E+04 0.  0.
        2    1    3    3  502    0 -0.40020899982E+03  0.57952503105E+03 -0.11337684581E+04  0.13347087404E+04  0.25500000920E-02 0. -1.
       -2    1    3    3    0  502  0.40020899982E+03 -0.57952503105E+03  0.18043552334E+04  0.19369342564E+04  0.25500000920E-02 0.  1.
</event>
<event>
 5   0  0.5317728E-07  0.3218409E+04  0.7818609E-02  0.8183972E-01
       -1   -1    0    0    0  501  0.00000000000E+00  0.00000000000E+00  0.10931551137E+04  0.10931551138E+04  0.50400001928E-02 0.  1.
        1   -1    0    0  501    0  0.00000000000E+00  0.00000000000E+00 -0.23688665379E+04  0.23688665379E+04  0.50400001928E-02 0. -1.
    10030    2    1    2    0    0  0.00000000000E+00  0.00000000000E+00 -0.12757114242E+04  0.34620216517E+04  0.32184086563E+04 0.  0.
        2    1    3    3  502    0  0.14398869969E+04 -0.34586385345E+03 -0.13153225660E+04  0.19806488385E+04  0.25500000920E-02 0. -1.
       -2    1    3    3    0  502 -0.14398869969E+04  0.34586385345E+03  0.39611141864E+02  0.14813728131E+04  0.25500000920E-02 0.  1.
</event>
<event>
 5   0  0.1556396E-06  0.3176176E+04  0.7818609E-02  0.8195138E-01
       -2   -1    0    0    0  501  0.00000000000E+00  0.00000000000E+00  0.12222178316E+04  0.12222178316E+04  0.25500000920E-02 0.  1.
        2   -1    0    0  501    0  0.00000000000E+00  0.00000000000E+00 -0.20634807617E+04  0.20634807617E+04  0.25500000920E-02 0. -1.
    10030    2    1    2    0    0  0.00000000000E+00  0.00000000000E+00 -0.84126293011E+03  0.32856985933E+04  0.31761756765E+04 0.  0.
        3    1    3    3  502    0 -0.12548929402E+03  0.13138840354E+04  0.49298958052E+03  0.14089278044E+04  0.10100000352E+00 0.  1.
       -3    1    3    3    0  502  0.12548929402E+03 -0.13138840354E+04 -0.13342525106E+04  0.18767707888E+04  0.10100000352E+00 0. -1.
</event>
<event>
 5   0  0.1572769E-06  0.3249534E+04  0.7818609E-02  0.8175856E-01
        2   -1    0    0  501    0  0.00000000000E+00  0.00000000000E+00  0.20367908555E+04  0.20367908555E+04  0.25500000920E-02 0.  1.
       -2   -1    0    0    0  501  0.00000000000E+00  0.00000000000E+00 -0.12960918709E+04  0.12960918709E+04  0.25500000920E-02 0. -1.
    10030    2    1    2    0    0  0.00000000000E+00  0.00000000000E+00  0.74069898463E+03  0.33328827264E+04  0.32495341638E+04 0.  0.
        5    1    3    3  502    0 -0.12300102247E+04  0.66847756744E+03  0.12161580677E+04  0.18544136396E+04  0.46999998093E+01 0.  1.
       -5    1    3    3    0  502  0.12300102247E+04 -0.66847756744E+03 -0.47545908307E+03  0.14784690868E+04  0.46999998093E+01 0. -1.
</event>
<event>
 5   0  0.5317728E-07  0.3203339E+04  0.7818609E-02  0.8187936E-01
        1   -1    0    0  501    0  0.00000000000E+00  0.00000000000E+00  0.26891397383E+04  0.26891397383E+04  0.50400001928E-02 0. -1.
       -1   -1    0    0    0  501  0.00000000000E+00  0.00000000000E+00 -0.95396521538E+03  0.95396521539E+03  0.50400001928E-02 0.  1.
    10030    2    1    2    0    0  0.00000000000E+00  0.00000000000E+00  0.17351745229E+04  0.36431049537E+04  0.32033393636E+04 0.  0.
        2    1    3    3  502    0  0.94961696691E+03  0.32419771497E+03  0.22873567806E+04  0.24977745263E+04  0.25500000920E-02 0. -1.
       -2    1    3    3    0  502 -0.94961696691E+03 -0.32419771497E+03 -0.55218225771E+03  0.11453304274E+04  0.25500000920E-02 0.  1.
</event>
<event>
 5   0  0.1556396E-06  0.3204846E+04  0.7818609E-02  0.8187539E-01
        2   -1    0    0  501    0  0.00000000000E+00  0.00000000000E+00  0.20436405743E+04  0.20436405743E+04  0.25500000920E-02 0.  1.
       -2   -1    0    0    0  501  0.00000000000E+00  0.00000000000E+00 -0.12564630404E+04  0.12564630404E+04  0.25500000920E-02 0. -1.
    10030    2    1    2    0    0  0.00000000000E+00  0.00000000000E+00  0.78717753395E+03  0.33001036147E+04  0.32048456122E+04 0.  0.
        3    1    3    3  502    0 -0.89269422753E+03 -0.11768010140E+04 -0.24616290733E+03  0.14974511002E+04  0.10100000352E+00 0. -1.
       -3    1    3    3    0  502  0.89269422753E+03  0.11768010140E+04  0.10333404413E+04  0.18026525145E+04  0.10100000352E+00 0.  1.
</event>
<event>
 5   0  0.1538349E-06  0.3180644E+04  0.7818609E-02  0.8193948E-01
        2   -1    0    0  501    0  0.00000000000E+00  0.00000000000E+00  0.23715098802E+04  0.23715098802E+04  0.25500000920E-02 0.  1.
       -2   -1    0    0    0  501  0.00000000000E+00  0.00000000000E+00 -0.10664613627E+04  0.10664613627E+04  0.25500000920E-02 0. -1.
    10030    2    1    2    0    0  0.00000000000E+00  0.00000000000E+00  0.13050485175E+04  0.34379712429E+04  0.31806437452E+04 0.  0.
        1    1    3    3  502    0 -0.15331649854E+04  0.13010902709E+02  0.19602998116E+03  0.15457011062E+04  0.50400001928E-02 0. -1.
       -1    1    3    3    0  502  0.15331649854E+04 -0.13010902709E+02  0.11090185363E+04  0.18922701367E+04  0.50400001928E-02 0.  1.
</event>
<event>
 5   0  0.5281187E-07  0.3180307E+04  0.7818609E-02  0.8194038E-01
       -1   -1    0    0    0  501  0.00000000000E+00  0.00000000000E+00  0.13136829671E+04  0.13136829671E+04  0.50400001928E-02 0.  1.
        1   -1    0    0  501    0  0.00000000000E+00  0.00000000000E+00 -0.19248083925E+04  0.19248083925E+04  0.50400001928E-02 0. -1.
    10030    2    1    2    0    0  0.00000000000E+00  0.00000000000E+00 -0.61112542542E+03  0.32384913596E+04  0.31803069036E+04 0.  0.
        5    1    3    3  502    0  0.13955011647E+04 -0.69548912472E+03  0.12297596762E+02  0.15592632697E+04  0.46999998093E+01 0.  1.
       -5    1    3    3    0  502 -0.13955011647E+04  0.69548912472E+03 -0.62342302219E+03  0.16792280899E+04  0.46999998093E+01 0. -1.
</event>
<event>
 5   0  0.1556396E-06  0.3192647E+04  0.7818609E-02  0.8190762E-01
        2   -1    0    0  501    0  0.00000000000E+00  0.00000000000E+00  0.18820388903E+04  0.18820388903E+04  0.25500000920E-02 0.  1.
       -2   -1    0    0    0  501  0.00000000000E+00  0.00000000000E+00 -0.13539826694E+04  0.13539826694E+04  0.25500000920E-02 0. -1.
    10030    2    1    2    0    0  0.00000000000E+00  0.00000000000E+00  0.52805622090E+03  0.32360215597E+04  0.31926465765E+04 0.  0.
        3    1    3    3  502    0  0.51971311124E+03 -0.11201918791E+04  0.12893625443E+04  0.17853255571E+04  0.10100000352E+00 0.  1.
       -3    1    3    3    0  502 -0.51971311124E+03  0.11201918791E+04 -0.76130632338E+03  0.14506960027E+04  0.10100000352E+00 0. -1.
</event>
<event>
 5   0  0.5233813E-07  0.3077849E+04  0.7818609E-02  0.8221843E-01
       -1   -1    0    0    0  501  0.00000000000E+00  0.00000000000E+00  0.11111995255E+04  0.11111995255E+04  0.50400001928E-02 0.  1.
        1   -1    0    0  501    0  0.00000000000E+00  0.00000000000E+00 -0.21312902919E+04  0.21312902919E+04  0.50400001928E-02 0. -1.
    10030    2    1    2    0    0  0.00000000000E+00  0.00000000000E+00 -0.10200907664E+04  0.32424898174E+04  0.30778490938E+04 0.  0.
        4    1    3    3  502    0  0.10082454008E+04  0.22652449589E+02  0.71455266668E+03  0.12359850518E+04  0.12699999809E+01 0.  1.
       -4    1    3    3    0  502 -0.10082454008E+04 -0.22652449589E+02 -0.17346434331E+04  0.20065047657E+04  0.12699999809E+01 0. -1.
</event>
<event>
 5   0  0.5370912E-07  0.3201963E+04  0.7818609E-02  0.8188299E-01
        1   -1    0    0  501    0  0.00000000000E+00  0.00000000000E+00  0.22342439754E+04  0.22342439754E+04  0.50400001928E-02 0.  1.
       -1   -1    0    0    0  501  0.00000000000E+00  0.00000000000E+00 -0.11472078647E+04  0.11472078648E+04  0.50400001928E-02 0. -1.
    10030    2    1    2    0    0  0.00000000000E+00  0.00000000000E+00  0.10870361106E+04  0.33814518401E+04  0.32019633104E+04 0.  0.
        1    1    3    3  502    0  0.61918695681E+03 -0.14633259083E+04  0.75053477814E+03  0.17572756342E+04  0.50400001928E-02 0. -1.
       -1    1    3    3    0  502 -0.61918695681E+03  0.14633259083E+04  0.33650133249E+03  0.16241762060E+04  0.50400001928E-02 0.  1.
</event>
<event>
 5   0  0.5177039E-07  0.3201749E+04  0.7818609E-02  0.8188355E-01
        1   -1    0    0  501    0  0.00000000000E+00  0.00000000000E+00  0.13927822188E+04  0.13927822188E+04  0.50400001928E-02 0.  1.
       -1   -1    0    0    0  501  0.00000000000E+00  0.00000000000E+00 -0.18400571042E+04  0.18400571042E+04  0.50400001928E-02 0. -1.
    10030    2    1    2    0    0  0.00000000000E+00  0.00000000000E+00 -0.44727488539E+03  0.32328393230E+04  0.32017487823E+04 0.  0.
        3    1    3    3  502    0 -0.62549775650E+03 -0.14031304599E+04 -0.67831700960E+03  0.16793262061E+04  0.10100000352E+00 0. -1.
       -3    1    3    3    0  502  0.62549775650E+03  0.14031304599E+04  0.23104212420E+03  0.15535131168E+04  0.10100000352E+00 0.  1.
</event>
<event>
 5   0  0.1508771E-06  0.3195529E+04  0.7818609E-02  0.8189999E-01
        2   -1    0    0  501    0  0.00000000000E+00  0.00000000000E+00  0.99253447505E+03  0.99253447505E+03  0.25500000920E-02 0.  1.
       -2   -1    0    0    0  501  0.00000000000E+00  0.00000000000E+00 -0.25720530373E+04  0.25720530373E+04  0.25500000920E-02 0. -1.
    10030    2    1    2    0    0  0.00000000000E+00  0.00000000000E+00 -0.15795185623E+04  0.35645875124E+04  0.31955289460E+04 0.  0.
        4    1    3    3  502    0  0.23757990106E+03 -0.62677902453E+03  0.82810955997E+03  0.10653934537E+04  0.12699999809E+01 0.  1.
       -4    1    3    3    0  502 -0.23757990106E+03  0.62677902453E+03 -0.24076281222E+04  0.24991940587E+04  0.12699999809E+01 0. -1.
</event>
<event>
 5   0  0.1508771E-06  0.3184733E+04  0.7818609E-02  0.8192861E-01
       -2   -1    0    0    0  501  0.00000000000E+00  0.00000000000E+00  0.99843877357E+03  0.99843877357E+03  0.25500000920E-02 0.  1.
        2   -1    0    0  501    0  0.00000000000E+00  0.00000000000E+00 -0.25395953646E+04  0.25395953646E+04  0.25500000920E-02 0. -1.
    10030    2    1    2    0    0  0.00000000000E+00  0.00000000000E+00 -0.15411565910E+04  0.35380341382E+04  0.31847326300E+04 0.  0.
        4    1    3    3  502    0  0.63281818899E+03  0.28314074637E+03  0.82197910539E+03  0.10753040524E+04  0.12699999809E+01 0.  1.
       -4    1    3    3    0  502 -0.63281818899E+03 -0.28314074637E+03 -0.23631356964E+04  0.24627300857E+04  0.12699999809E+01 0. -1.
</event>
<event>
 5   0  0.5317728E-07  0.3215063E+04  0.7818609E-02  0.8184850E-01
        1   -1    0    0  501    0  0.00000000000E+00  0.00000000000E+00  0.16105187186E+04  0.16105187186E+04  0.50400001928E-02 0.  1.
       -1   -1    0    0    0  501  0.00000000000E+00  0.00000000000E+00 -0.16045494797E+04  0.16045494797E+04  0.50400001928E-02 0. -1.
    10030    2    1    2    0    0  0.00000000000E+00  0.00000000000E+00  0.59692388917E+01  0.32150681983E+04  0.32150626569E+04 0.  0.
        2    1    3    3  502    0  0.51077078346E+02 -0.91974528141E+03 -0.13144457219E+04  0.16050880993E+04  0.25500000920E-02 0. -1.
       -2    1    3    3    0  502 -0.51077078346E+02  0.91974528141E+03  0.13204149608E+04  0.16099800990E+04  0.25500000920E-02 0.  1.
</event>
<event>
 5   0  0.5177039E-07  0.3188599E+04  0.7818609E-02  0.8191835E-01
       -1   -1    0    0    0  501  0.00000000000E+00  0.00000000000E+00  0.11734308954E+04  0.11734308954E+04  0.50400001928E-02 0.  1.
        1   -1    0    0  501    0  0.00000000000E+00  0.00000000000E+00 -0.21661182772E+04  0.21661182772E+04  0.50400001928E-02 0. -1.
    10030    2    1    2    0    0  0.00000000000E+00  0.00000000000E+00 -0.99268738182E+03  0.33395491726E+04  0.31885985069E+04 0.  0.
        3    1    3    3  502    0  0.92905741560E+03  0.86901440141E+03  0.51011556705E+03  0.13706026460E+04  0.10100000352E+00 0.  1.
       -3    1    3    3    0  502 -0.92905741560E+03 -0.86901440141E+03 -0.15028029489E+04  0.19689465266E+04  0.10100000352E+00 0. -1.
</event>
<event>
 5   0  0.5281187E-07  0.3195793E+04  0.7818609E-02  0.8189929E-01
        1   -1    0    0  501    0  0.00000000000E+00  0.00000000000E+00  0.26461266180E+04  0.26461266180E+04  0.50400001928E-02 0.  1.
       -1   -1    0    0    0  501  0.00000000000E+00  0.00000000000E+00 -0.96490959062E+03  0.96490959063E+03  0.50400001928E-02 0. -1.
    10030    2    1    2    0    0  0.00000000000E+00  0.00000000000E+00  0.16812170273E+04  0.36110362086E+04  0.31957928291E+04 0.  0.
        5    1    3    3  502    0 -0.13595163577E+04  0.34691784681E+02 -0.10729977677E+03  0.13641933803E+04  0.46999998093E+01 0. -1.
       -5    1    3    3    0  502  0.13595163577E+04 -0.34691784681E+02  0.17885168041E+04  0.22468428283E+04  0.46999998093E+01 0.  1.
</event>
<event>
 5   0  0.1493485E-06  0.3227794E+04  0.7818609E-02  0.8181515E-01
        2   -1    0    0  501    0  0.00000000000E+00  0.00000000000E+00  0.15218882618E+04  0.15218882618E+04  0.25500000920E-02 0.  1.
       -2   -1    0    0    0  501  0.00000000000E+00  0.00000000000E+00 -0.17114687866E+04  0.17114687866E+04  0.25500000920E-02 0. -1.
    10030    2    1    2    0    0  0.00000000000E+00  0.00000000000E+00 -0.18958052476E+03  0.32333570484E+04  0.32277944524E+04 0.  0.
        2    1    3    3  502    0  0.44654154698E+03  0.11477774884E+04 -0.11395986291E+04  0.16779384826E+04  0.25500000920E-02 0. -1.
       -2    1    3    3    0  502 -0.44654154698E+03 -0.11477774884E+04  0.95001810429E+03  0.15554185657E+04  0.25500000920E-02 0.  1.
</event>
<event>
 5   0  0.1556396E-06  0.3190998E+04  0.7818609E-02  0.8191199E-01
       -2   -1    0    0    0  501  0.00000000000E+00  0.00000000000E+00  0.12999327485E+04  0.12999327485E+04  0.25500000920E-02 0. -1.
        2   -1    0    0  501    0  0.00000000000E+00  0.00000000000E+00 -0.19582683801E+04  0.19582683801E+04  0.25500000920E-02 0.  1.
    10030    2    1    2    0    0  0.00000000000E+00  0.00000000000E+00 -0.65833563165E+03  0.32582011286E+04  0.31909980869E+04 0.  0.
        3    1    3    3  502    0  0.13371898295E+04 -0.79134490790E+03  0.40836256785E+02  0.15543394138E+04  0.10100000352E+00 0. -1.
       -3    1    3    3    0  502 -0.13371898295E+04  0.79134490790E+03 -0.69917188844E+03  0.17038617148E+04  0.10100000352E+00 0.  1.
</event>
<event>
 5   0  0.1538349E-06  0.3248486E+04  0.7818609E-02  0.8176128E-01
        2   -1    0    0  501    0  0.00000000000E+00  0.00000000000E+00  0.22589608068E+04  0.22589608068E+04  0.25500000920E-02 0. -1.
       -2   -1    0    0    0  501  0.00000000000E+00  0.00000000000E+00 -0.11678664809E+04  0.11678664809E+04  0.25500000920E-02 0.  1.
    10030    2    1    2    0    0  0.00000000000E+00  0.00000000000E+00  0.10910943259E+04  0.34268272877E+04  0.32484855597E+04 0.  0.
        1    1    3    3  502    0  0.47566827439E+03  0.65995706958E+03  0.20285582914E+04  0.21856011490E+04  0.50400001928E-02 0. -1.
       -1    1    3    3    0  502 -0.47566827439E+03 -0.65995706958E+03 -0.93746396546E+03  0.12412261387E+04  0.50400001928E-02 0.  1.
</event>
<event>
 5   0  0.1493485E-06  0.3195412E+04  0.7818609E-02  0.8190030E-01
        2   -1    0    0  501    0  0.00000000000E+00  0.00000000000E+00  0.15676553486E+04  0.15676553486E+04  0.25500000920E-02 0.  1.
       -2   -1    0    0    0  501  0.00000000000E+00  0.00000000000E+00 -0.16283324324E+04  0.16283324324E+04  0.25500000920E-02 0. -1.
    10030    2    1    2    0    0  0.00000000000E+00  0.00000000000E+00 -0.60677083770E+02  0.31959877810E+04  0.31954117400E+04 0.  0.
        2    1    3    3  502    0  0.26036895865E+03  0.11520787799E+04 -0.11064444541E+04  0.16184241841E+04  0.25500000920E-02 0. -1.
       -2    1    3    3    0  502 -0.26036895865E+03 -0.11520787799E+04  0.10457673703E+04  0.15775635970E+04  0.25500000920E-02 0.  1.
</event>
<event>
 5   0  0.1556396E-06  0.3140845E+04  0.7818609E-02  0.8204617E-01
       -2   -1    0    0    0  501  0.00000000000E+00  0.00000000000E+00  0.85438236770E+03  0.85438236770E+03  0.25500000920E-02 0.  1.
        2   -1    0    0  501    0  0.00000000000E+00  0.00000000000E+00 -0.28865614146E+04  0.28865614146E+04  0.25500000920E-02 0. -1.
    10030    2    1    2    0    0  0.00000000000E+00  0.00000000000E+00 -0.20321790469E+04  0.37409437823E+04  0.31408452212E+04 0.  0.
        3    1    3    3  502    0  0.14271158964E+04  0.30190402255E+03 -0.32320075713E+03  0.14940764908E+04  0.10100000352E+00 0. -1.
       -3    1    3    3    0  502 -0.14271158964E+04 -0.30190402255E+03 -0.17089782897E+04  0.22468672915E+04  0.10100000352E+00 0.  1.
</event>
<event>
 5   0  0.5177039E-07  0.3265933E+04  0.7818609E-02  0.8171618E-01
       -1   -1    0    0    0  501  0.00000000000E+00  0.00000000000E+00  0.22684753401E+04  0.22684753401E+04  0.50400001928E-02 0. -1.
        1   -1    0    0  501    0  0.00000000000E+00  0.00000000000E+00 -0.11754939005E+04  0.11754939005E+04  0.50400001928E-02 0.  1.
    10030    2    1    2    0    0  0.00000000000E+00  0.00000000000E+00  0.10929814396E+04  0.34439692406E+04  0.32659325931E+04 0.  0.
        3    1    3    3  502    0  0.70812522438E+03 -0.67639269241E+03  0.19244900281E+04  0.21593078257E+04  0.10100000352E+00 0. -1.
       -3    1    3    3    0  502 -0.70812522438E+03  0.67639269241E+03 -0.83150858850E+03  0.12846614148E+04  0.10100000352E+00 0.  1.
</event>
<event>
 5   0  0.1572769E-06  0.3191687E+04  0.7818609E-02  0.8191016E-01
       -2   -1    0    0    0  501  0.00000000000E+00  0.00000000000E+00  0.13073406989E+04  0.13073406989E+04  0.25500000920E-02 0. -1.
        2   -1    0    0  501    0  0.00000000000E+00  0.00000000000E+00 -0.19480123923E+04  0.19480123923E+04  0.25500000920E-02 0.  1.
    10030    2    1    2    0    0  0.00000000000E+00  0.00000000000E+00 -0.64067169333E+03  0.32553530912E+04  0.31916866277E+04 0.  0.
        5    1    3    3  502    0  0.46481897460E+03  0.10090168157E+04  0.84817078762E+03  0.13977079053E+04  0.46999998093E+01 0. -1.
       -5    1    3    3    0  502 -0.46481897460E+03 -0.10090168157E+04 -0.14888424809E+04  0.18576451859E+04  0.46999998093E+01 0.  1.
</event>
<event>
 5   0  0.5281187E-07  0.3178842E+04  0.7818609E-02  0.8194427E-01
       -1   -1    0    0    0  501  0.00000000000E+00  0.00000000000E+00  0.98537068223E+03  0.98537068224E+03  0.50400001928E-02 0.  1.
        1   -1    0    0  501    0  0.00000000000E+00  0.00000000000E+00 -0.25637660083E+04  0.25637660083E+04  0.50400001928E-02 0. -1.
    10030    2    1    2    0    0  0.00000000000E+00  0.00000000000E+00 -0.15783953261E+04  0.35491366906E+04  0.31788424690E+04 0.  0.
        5    1    3    3  502    0  0.73929769153E+03  0.14047603376E+04 -0.87799235451E+03  0.18140577023E+04  0.46999998093E+01 0.  1.
       -5    1    3    3    0  502 -0.73929769153E+03 -0.14047603376E+04 -0.70040297158E+03  0.17350789882E+04  0.46999998093E+01 0. -1.
</event>
<event>
 5   0  0.5177039E-07  0.3262232E+04  0.7818609E-02  0.8172572E-01
       -1   -1    0    0    0  501  0.00000000000E+00  0.00000000000E+00  0.23272298860E+04  0.23272298860E+04  0.50400001928E-02 0.  1.
        1   -1    0    0  501    0  0.00000000000E+00  0.00000000000E+00 -0.11432217354E+04  0.11432217354E+04  0.50400001928E-02 0. -1.
    10030    2    1    2    0    0  0.00000000000E+00  0.00000000000E+00  0.11840081506E+04  0.34704516214E+04  0.32622322352E+04 0.  0.
        3    1    3    3  502    0 -0.89150829945E+03  0.88572877041E+03 -0.51419075560E+03  0.13578271783E+04  0.10100000352E+00 0.  1.
       -3    1    3    3    0  502  0.89150829945E+03 -0.88572877041E+03  0.16981989062E+04  0.21126244432E+04  0.10100000352E+00 0. -1.
</event>
<event>
 5   0  0.1556396E-06  0.3198015E+04  0.7818609E-02  0.8189341E-01
        2   -1    0    0  501    0  0.00000000000E+00  0.00000000000E+00  0.23325262314E+04  0.23325262314E+04  0.25500000920E-02 0.  1.
       -2   -1    0    0    0  501  0.00000000000E+00  0.00000000000E+00 -0.10961616342E+04  0.10961616342E+04  0.25500000920E-02 0. -1.
    10030    2    1    2    0    0  0.00000000000E+00  0.00000000000E+00  0.12363645973E+04  0.34286878656E+04  0.31980154881E+04 0.  0.
        3    1    3    3  502    0  0.13733420378E+04 -0.13973112303E+03  0.14833802040E+04  0.20263291883E+04  0.10100000352E+00 0.  1.
       -3    1    3    3    0  502 -0.13733420378E+04  0.13973112303E+03 -0.24701560676E+03  0.14023586773E+04  0.10100000352E+00 0. -1.
</event>
<event>
 5   0  0.5370912E-07  0.3191883E+04  0.7818609E-02  0.8190964E-01
       -1   -1    0    0    0  501  0.00000000000E+00  0.00000000000E+00  0.15465724642E+04  0.15465724642E+04  0.50400001928E-02 0. -1.
        1   -1    0    0  501    0  0.00000000000E+00  0.00000000000E+00 -0.16468865258E+04  0.16468865258E+04  0.50400001928E-02 0.  1.
    10030    2    1    2    0    0  0.00000000000E+00  0.00000000000E+00 -0.10031406161E+03  0.31934589900E+04  0.31918830508E+04 0.  0.
        1    1    3    3  502    0 -0.35520476329E+02  0.15867555039E+04  0.11718169694E+03  0.15914729918E+04  0.50400001928E-02 0. -1.
       -1    1    3    3    0  502  0.35520476329E+02 -0.15867555039E+04 -0.21749575854E+03  0.16019859982E+04  0.50400001928E-02 0.  1.
</event>
<event>
 5   0  0.5177039E-07  0.3199031E+04  0.7818609E-02  0.8189073E-01
        1   -1    0    0  501    0  0.00000000000E+00  0.00000000000E+00  0.21553037555E+04  0.21553037555E+04  0.50400001928E-02 0. -1.
       -1   -1    0    0    0  501  0.00000000000E+00  0.00000000000E+00 -0.11870480391E+04  0.11870480392E+04  0.50400001928E-02 0.  1.
    10030    2    1    2    0    0  0.00000000000E+00  0.00000000000E+00  0.96825571633E+03  0.33423517946E+04  0.31990305386E+04 0.  0.
        3    1    3    3  502    0  0.14405044982E+04  0.69453374431E+03  0.45077994498E+03  0.16615152423E+04  0.10100000352E+00 0.  1.
       -3    1    3    3    0  502 -0.14405044982E+04 -0.69453374431E+03  0.51747577135E+03  0.16808365523E+04  0.10100000352E+00 0. -1.
</event>
<event>
 5   0  0.5233813E-07  0.3136801E+04  0.7818609E-02  0.8205710E-01
       -1   -1    0    0    0  501  0.00000000000E+00  0.00000000000E+00  0.14051026819E+04  0.14051026819E+04  0.50400001928E-02 0.  1.
        1   -1    0    0  501    0  0.00000000000E+00  0.00000000000E+00 -0.17506765896E+04  0.17506765896E+04  0.50400001928E-02 0. -1.
    10030    2    1    2    0    0  0.00000000000E+00  0.00000000000E+00 -0.34557390776E+03  0.31557792715E+04  0.31368011548E+04 0.  0.
        4    1    3    3  502    0 -0.23209898068E+02  0.11191749924E+04 -0.12779720324E+04  0.16989130323E+04  0.12699999809E+01 0. -1.
       -4    1    3    3    0  502  0.23209898068E+02 -0.11191749924E+04  0.93239812465E+03  0.14568662391E+04  0.12699999809E+01 0.  1.
</event>
<event>
 5   0  0.5281187E-07  0.3270250E+04  0.7818609E-02  0.8170507E-01
        1   -1    0    0  501    0  0.00000000000E+00  0.00000000000E+00  0.16723349791E+04  0.16723349791E+04  0.50400001928E-02 0. -1.
       -1   -1    0    0    0  501  0.00000000000E+00  0.00000000000E+00 -0.15987431046E+04  0.15987431046E+04  0.50400001928E-02 0.  1.
    10030    2    1    2    0    0  0.00000000000E+00  0.00000000000E+00  0.73591874477E+02  0.32710780836E+04  0.32702501533E+04 0.  0.
        5    1    3    3  502    0 -0.83325892472E+03 -0.10412725129E+04 -0.90951072481E+03  0.16142492776E+04  0.46999998093E+01 0.  1.
       -5    1    3    3    0  502  0.83325892472E+03  0.10412725129E+04  0.98310259929E+03  0.16568288060E+04  0.46999998093E+01 0. -1.
</event>
<event>
 5   0  0.1508771E-06  0.3194757E+04  0.7818609E-02  0.8190203E-01
       -2   -1    0    0    0  501  0.00000000000E+00  0.00000000000E+00  0.17967667649E+04  0.17967667649E+04  0.25500000920E-02 0.  1.
        2   -1    0    0  501    0  0.00000000000E+00  0.00000000000E+00 -0.14201166018E+04  0.14201166018E+04  0.25500000920E-02 0. -1.
    10030    2    1    2    0    0  0.00000000000E+00  0.00000000000E+00  0.37665016308E+03  0.32168833666E+04  0.31947571503E+04 0.  0.
        4    1    3    3  502    0  0.76454744620E+03  0.13726343450E+04  0.47834567969E+03  0.16423988689E+04  0.12699999809E+01 0.  1.
       -4    1    3    3    0  502 -0.76454744620E+03 -0.13726343450E+04 -0.10169551661E+03  0.15744844977E+04  0.12699999809E+01 0. -1.
</event>
<event>
 5   0  0.1538349E-06  0.3194384E+04  0.7818609E-02  0.8190302E-01
        2   -1    0    0  501    0  0.00000000000E+00  0.00000000000E+00  0.13260383728E+04  0.13260383728E+04  0.25500000920E-02 0. -1.
       -2   -1    0    0    0  501  0.00000000000E+00  0.00000000000E+00 -0.19237920318E+04  0.19237920318E+04  0.25500000920E-02 0.  1.
    10030    2    1    2    0    0  0.00000000000E+00  0.00000000000E+00 -0.59775365902E+03  0.32498304047E+04  0.31943838564E+04 0.  0.
        1    1    3    3  502    0  0.42392647938E+03  0.12086892583E+04  0.67182228306E+03  0.14463708249E+04  0.50400001928E-02 0. -1.
       -1    1    3    3    0  502 -0.42392647938E+03 -0.12086892583E+04 -0.12695759421E+04  0.18034595798E+04  0.50400001928E-02 0.  1.
</event>
<event>
 5   0  0.5233813E-07  0.3197781E+04  0.7818609E-02  0.8189403E-01
        1   -1    0    0  501    0  0.00000000000E+00  0.00000000000E+00  0.20153057750E+04  0.20153057750E+04  0.50400001928E-02 0. -1.
       -1   -1    0    0    0  501  0.00000000000E+00  0.00000000000E+00 -0.12685178355E+04  0.12685178355E+04  0.50400001928E-02 0.  1.
    10030    2    1    2    0    0  0.00000000000E+00  0.00000000000E+00  0.74678793953E+03  0.32838236105E+04  0.31977813056E+04 0.  0.
        4    1    3    3  502    0  0.14104509974E+04  0.68813519677E+03  0.59308761840E+02  0.15704843862E+04  0.12699999809E+01 0.  1.
       -4    1    3    3    0  502 -0.14104509974E+04 -0.68813519677E+03  0.68747917769E+03  0.17133392244E+04  0.12699999809E+01 0. -1.
</event>
<event>
 5   0  0.1493485E-06  0.3191547E+04  0.7818609E-02  0.8191053E-01
       -2   -1    0    0    0  501  0.00000000000E+00  0.00000000000E+00  0.11668403430E+04  0.11668403430E+04  0.25500000920E-02 0.  1.
        2   -1    0    0  501    0  0.00000000000E+00  0.00000000000E+00 -0.21823836067E+04  0.21823836067E+04  0.25500000920E-02 0. -1.
    10030    2    1    2    0    0  0.00000000000E+00  0.00000000000E+00 -0.10155432637E+04  0.33492239498E+04  0.31915471084E+04 0.  0.
        2    1    3    3  502    0  0.28104849578E+03  0.53099026645E+03  0.10436281680E+04  0.12042004289E+04  0.25500000920E-02 0.  1.
       -2    1    3    3    0  502 -0.28104849578E+03 -0.53099026645E+03 -0.20591714316E+04  0.21450235208E+04  0.25500000920E-02 0. -1.
</event>
<event>
 5   0  0.5281187E-07  0.3276612E+04  0.7818609E-02  0.8168872E-01
       -1   -1    0    0    0  501  0.00000000000E+00  0.00000000000E+00  0.25810049064E+04  0.25810049064E+04  0.50400001928E-02 0. -1.
        1   -1    0    0  501    0  0.00000000000E+00  0.00000000000E+00 -0.10399227724E+04  0.10399227724E+04  0.50400001928E-02 0.  1.
    10030    2    1    2    0    0  0.00000000000E+00  0.00000000000E+00  0.15410821341E+04  0.36209276788E+04  0.32766115289E+04 0.  0.
        5    1    3    3  502    0  0.31084753067E+03  0.27125409744E+03 -0.98157097016E+03  0.10647575462E+04  0.46999998093E+01 0.  1.
       -5    1    3    3    0  502 -0.31084753067E+03 -0.27125409744E+03  0.25226531042E+04  0.25561701326E+04  0.46999998093E+01 0. -1.
</event>
<event>
 5   0  0.1493485E-06  0.3196288E+04  0.7818609E-02  0.8189798E-01
       -2   -1    0    0    0  501  0.00000000000E+00  0.00000000000E+00  0.98406045702E+03  0.98406045702E+03  0.25500000920E-02 0.  1.
        2   -1    0    0  501    0  0.00000000000E+00  0.00000000000E+00 -0.25954339489E+04  0.25954339489E+04  0.25500000920E-02 0. -1.
    10030    2    1    2    0    0  0.00000000000E+00  0.00000000000E+00 -0.16113734919E+04  0.35794944060E+04  0.31962877955E+04 0.  0.
        2    1    3    3  502    0 -0.30035046004E+03 -0.71685968970E+03 -0.23695158740E+04  0.24937328828E+04  0.25500000920E-02 0. -1.
       -2    1    3    3    0  502  0.30035046004E+03  0.71685968970E+03  0.75814238211E+03  0.10857615231E+04  0.25500000920E-02 0.  1.
</event>
<event>
 5   0  0.5233813E-07  0.3178927E+04  0.7818609E-02  0.8194405E-01
       -1   -1    0    0    0  501  0.00000000000E+00  0.00000000000E+00  0.30989287937E+04  0.30989287937E+04  0.50400001928E-02 0.  1.
        1   -1    0    0  501    0  0.00000000000E+00  0.00000000000E+00 -0.81524752200E+03  0.81524752202E+03  0.50400001928E-02 0. -1.
    10030    2    1    2    0    0  0.00000000000E+00  0.00000000000E+00  0.22836812717E+04  0.39141763157E+04  0.31789268755E+04 0.  0.
        4    1    3    3  502    0  0.28586210308E+03 -0.14243462044E+04  0.19359149994E+04  0.24203817364E+04  0.12699999809E+01 0.  1.
       -4    1    3    3    0  502 -0.28586210308E+03  0.14243462044E+04  0.34776627225E+03  0.14937945793E+04  0.12699999809E+01 0. -1.
</event>
<event>
 5   0  0.5233813E-07  0.3162606E+04  0.7818609E-02  0.8198763E-01
       -1   -1    0    0    0  501  0.00000000000E+00  0.00000000000E+00  0.20489858643E+04  0.20489858643E+04  0.50400001928E-02 0.  1.
        1   -1    0    0  501    0  0.00000000000E+00  0.00000000000E+00 -0.12203693138E+04  0.12203693138E+04  0.50400001928E-02 0. -1.
    10030    2    1    2    0    0  0.00000000000E+00  0.00000000000E+00  0.82861655054E+03  0.32693551781E+04  0.31626061868E+04 0.  0.
        4    1    3    3  502    0 -0.75704110074E+03 -0.10993267019E+04 -0.46218267103E+03  0.14125313661E+04  0.12699999809E+01 0. -1.
       -4    1    3    3    0  502  0.75704110074E+03  0.10993267019E+04  0.12907992216E+04  0.18568238121E+04  0.12699999809E+01 0.  1.
</event>
<event>
 5   0  0.5317728E-07  0.3177490E+04  0.7818609E-02  0.8194787E-01
       -1   -1    0    0    0  501  0.00000000000E+00  0.00000000000E+00  0.13070614100E+04  0.13070614100E+04  0.50400001928E-02 0. -1.
        1   -1    0    0  501    0  0.00000000000E+00  0.00000000000E+00 -0.19311338316E+04  0.19311338317E+04  0.50400001928E-02 0.  1.
    10030    2    1    2    0    0  0.00000000000E+00  0.00000000000E+00 -0.62407242168E+03  0.32381952416E+04  0.31774898954E+04 0.  0.
        2    1    3    3  502    0  0.78400063488E+03 -0.42237076609E+03 -0.16528685230E+04  0.18775059025E+04  0.25500000920E-02 0.  1.
       -2    1    3    3    0  502 -0.78400063488E+03  0.42237076609E+03  0.10287961013E+04  0.13606893391E+04  0.25500000920E-02 0. -1.
</event>
<event>
 5   0  0.1493485E-06  0.3184905E+04  0.7818609E-02  0.8192815E-01
        2   -1    0    0  501    0  0.00000000000E+00  0.00000000000E+00  0.15958374382E+04  0.15958374382E+04  0.25500000920E-02 0. -1.
       -2   -1    0    0    0  501  0.00000000000E+00  0.00000000000E+00 -0.15890744861E+04  0.15890744861E+04  0.25500000920E-02 0.  1.
    10030    2    1    2    0    0  0.00000000000E+00  0.00000000000E+00  0.67629521310E+01  0.31849119243E+04  0.31849047439E+04 0.  0.
        2    1    3    3  502    0 -0.94578342380E+03 -0.20893357606E+03 -0.12606407695E+04  0.15897718936E+04  0.25500000920E-02 0.  1.
       -2    1    3    3    0  502  0.94578342380E+03  0.20893357606E+03  0.12674037216E+04  0.15951400307E+04  0.25500000920E-02 0. -1.
</event>
<event>
 5   0  0.4995625E-07  0.3211768E+04  0.7818609E-02  0.8185716E-01
        3   -1    0    0  501    0  0.00000000000E+00  0.00000000000E+00  0.24017054509E+04  0.24017054530E+04  0.10100000352E+00 0.  1.
       -3   -1    0    0    0  501  0.00000000000E+00  0.00000000000E+00 -0.10737636683E+04  0.10737636730E+04  0.10100000352E+00 0. -1.
    10030    2    1    2    0    0  0.00000000000E+00  0.00000000000E+00  0.13279417826E+04  0.34754691260E+04  0.32117684020E+04 0.  0.
        2    1    3    3  502    0  0.14300913092E+04 -0.61058082475E+03  0.22992155278E+03  0.15718886782E+04  0.25500000920E-02 0.  1.
       -2    1    3    3    0  502 -0.14300913092E+04  0.61058082475E+03  0.10980202298E+04  0.19035804478E+04  0.25500000920E-02 0. -1.
</event>
<event>
 5   0  0.1572769E-06  0.3199591E+04  0.7818609E-02  0.8188925E-01
       -2   -1    0    0    0  501  0.00000000000E+00  0.00000000000E+00  0.13410191811E+04  0.13410191811E+04  0.25500000920E-02 0. -1.
        2   -1    0    0  501    0  0.00000000000E+00  0.00000000000E+00 -0.19085084149E+04  0.19085084149E+04  0.25500000920E-02 0.  1.
    10030    2    1    2    0    0  0.00000000000E+00  0.00000000000E+00 -0.56748923378E+03  0.32495275960E+04  0.31995914687E+04 0.  0.
        5    1    3    3  502    0  0.12434459409E+04  0.57514124938E+02 -0.13043456124E+04  0.18029989598E+04  0.46999998093E+01 0.  1.
       -5    1    3    3    0  502 -0.12434459409E+04 -0.57514124938E+02  0.73685637858E+03  0.14465286362E+04  0.46999998093E+01 0. -1.
</event>
<event>
 5   0  0.1572769E-06  0.3216159E+04  0.7818609E-02  0.8184563E-01
        2   -1    0    0  501    0  0.00000000000E+00  0.00000000000E+00  0.17985737970E+04  0.17985737970E+04  0.25500000920E-02 0.  1.
       -2   -1    0    0    0  501  0.00000000000E+00  0.00000000000E+00 -0.14377609331E+04  0.14377609331E+04  0.25500000920E-02 0. -1.
    10030    2    1    2    0    0  0.00000000000E+00  0.00000000000E+00  0.36081286389E+03  0.32363347301E+04  0.32161586656E+04 0.  0.
        5    1    3    3  502    0 -0.19516684110E+03 -0.13097275077E+04 -0.73768816640E+03  0.15158107274E+04  0.46999998093E+01 0. -1.
       -5    1    3    3    0  502  0.19516684110E+03  0.13097275077E+04  0.10985010303E+04  0.17205240027E+04  0.46999998093E+01 0.  1.
</event>
<event>
 5   0  0.1508771E-06  0.3161417E+04  0.7818609E-02  0.8199082E-01
       -2   -1    0    0    0  501  0.00000000000E+00  0.00000000000E+00  0.22629921102E+04  0.22629921102E+04  0.25500000920E-02 0.  1.
        2   -1    0    0  501    0  0.00000000000E+00  0.00000000000E+00 -0.11041309965E+04  0.11041309965E+04  0.25500000920E-02 0. -1.
    10030    2    1    2    0    0  0.00000000000E+00  0.00000000000E+00  0.11588611137E+04  0.33671231067E+04  0.31614172351E+04 0.  0.
        4    1    3    3  502    0  0.13843921891E+04  0.68628525427E+03  0.93444962165E+03  0.18057482913E+04  0.12699999809E+01 0.  1.
       -4    1    3    3    0  502 -0.13843921891E+04 -0.68628525427E+03  0.22441149206E+03  0.15613748153E+04  0.12699999809E+01 0. -1.
</event>
<event>
 5   0  0.5233813E-07  0.3176538E+04  0.7818609E-02  0.8195041E-01
        1   -1    0    0  501    0  0.00000000000E+00  0.00000000000E+00  0.10792423906E+04  0.10792423906E+04  0.50400001928E-02 0. -1.
       -1   -1    0    0    0  501  0.00000000000E+00  0.00000000000E+00 -0.23373794142E+04  0.23373794142E+04  0.50400001928E-02 0.  1.
    10030    2    1    2    0    0  0.00000000000E+00  0.00000000000E+00 -0.12581370236E+04  0.34166218048E+04  0.31765383339E+04 0.  0.
        4    1    3    3  502    0  0.99329485158E+03  0.63674936250E+03  0.51454840962E+03  0.12871853369E+04  0.12699999809E+01 0. -1.
       -4    1    3    3    0  502 -0.99329485158E+03 -0.63674936250E+03 -0.17726854332E+04  0.21294364679E+04  0.12699999809E+01 0.  1.
</event>
<event>
 5   0  0.5317728E-07  0.3187687E+04  0.7818609E-02  0.8192077E-01
       -1   -1    0    0    0  501  0.00000000000E+00  0.00000000000E+00  0.14055555352E+04  0.14055555352E+04  0.50400001928E-02 0. -1.
        1   -1    0    0  501    0  0.00000000000E+00  0.00000000000E+00 -0.18073542501E+04  0.18073542501E+04  0.50400001928E-02 0.  1.
    10030    2    1    2    0    0  0.00000000000E+00  0.00000000000E+00 -0.40179871490E+03  0.32129097854E+04  0.31876867916E+04 0.  0.
        2    1    3    3  502    0 -0.58320258679E+03  0.24449199598E+03  0.12736996194E+04  0.14220451167E+04  0.25500000920E-02 0. -1.
       -2    1    3    3    0  502  0.58320258679E+03 -0.24449199598E+03 -0.16754983343E+04  0.17908646687E+04  0.25500000920E-02 0.  1.
</event>
<event>
 5   0  0.1493485E-06  0.3121507E+04  0.7818609E-02  0.8209860E-01
       -2   -1    0    0    0  501  0.00000000000E+00  0.00000000000E+00  0.10846497140E+04  0.10846497140E+04  0.25500000920E-02 0. -1.
        2   -1    0    0  501    0  0.00000000000E+00  0.00000000000E+00 -0.22458410263E+04  0.22458410263E+04  0.25500000920E-02 0.  1.
    10030    2    1    2    0    0  0.00000000000E+00  0.00000000000E+00 -0.11611913122E+04  0.33304907403E+04  0.31215065766E+04 0.  0.
        2    1    3    3  502    0  0.68002886035E+03 -0.11295121786E+04 -0.14718109634E+04  0.19759717924E+04  0.25500000920E-02 0.  1.
       -2    1    3    3    0  502 -0.68002886035E+03  0.11295121786E+04  0.31061965118E+03  0.13545189479E+04  0.25500000920E-02 0. -1.
</event>
<event>
 5   0  0.5317728E-07  0.3208285E+04  0.7818609E-02  0.8186633E-01
        1   -1    0    0  501    0  0.00000000000E+00  0.00000000000E+00  0.23588208085E+04  0.23588208085E+04  0.50400001928E-02 0.  1.
       -1   -1    0    0    0  501  0.00000000000E+00  0.00000000000E+00 -0.10909149378E+04  0.10909149378E+04  0.50400001928E-02 0. -1.
    10030    2    1    2    0    0  0.00000000000E+00  0.00000000000E+00  0.12679058707E+04  0.34497357464E+04  0.32082848101E+04 0.  0.
        2    1    3    3  502    0  0.43234023133E+03 -0.12562841314E+04  0.16005529566E+04  0.20801292415E+04  0.25500000920E-02 0.  1.
       -2    1    3    3    0  502 -0.43234023133E+03  0.12562841314E+04 -0.33264708593E+03  0.13696065049E+04  0.25500000920E-02 0. -1.
</event>
<event>
 5   0  0.1556396E-06  0.3251725E+04  0.7818609E-02  0.8175289E-01
       -2   -1    0    0    0  501  0.00000000000E+00  0.00000000000E+00  0.89902812786E+03  0.89902812787E+03  0.25500000920E-02 0.  1.
        2   -1    0    0  501    0  0.00000000000E+00  0.00000000000E+00 -0.29403177126E+04  0.29403177126E+04  0.25500000920E-02 0. -1.
    10030    2    1    2    0    0  0.00000000000E+00  0.00000000000E+00 -0.20412895847E+04  0.38393458405E+04  0.32517246676E+04 0.  0.
        3    1    3    3  502    0 -0.10723447923E+04  0.10084278906E+04 -0.20554546632E+03  0.14863038428E+04  0.10100000352E+00 0.  1.
       -3    1    3    3    0  502  0.10723447923E+04 -0.10084278906E+04 -0.18357441184E+04  0.23530419976E+04  0.10100000352E+00 0. -1.
</event>
<event>
 5   0  0.1572769E-06  0.3198097E+04  0.7818609E-02  0.8189320E-01
       -2   -1    0    0    0  501  0.00000000000E+00  0.00000000000E+00  0.24813432504E+04  0.24813432504E+04  0.25500000920E-02 0. -1.
        2   -1    0    0  501    0  0.00000000000E+00  0.00000000000E+00 -0.10304726427E+04  0.10304726427E+04  0.25500000920E-02 0.  1.
    10030    2    1    2    0    0  0.00000000000E+00  0.00000000000E+00  0.14508706077E+04  0.35118158931E+04  0.31980971446E+04 0.  0.
        5    1    3    3  502    0 -0.11264573528E+04 -0.10292569397E+04  0.20034559326E+03  0.15389725346E+04  0.46999998093E+01 0.  1.
       -5    1    3    3    0  502  0.11264573528E+04  0.10292569397E+04  0.12505250144E+04  0.19728433585E+04  0.46999998093E+01 0. -1.
</event>
<event>
 5   0  0.5281187E-07  0.3185328E+04  0.7818609E-02  0.8192703E-01
       -1   -1    0    0    0  501  0.00000000000E+00  0.00000000000E+00  0.27783277509E+04  0.27783277509E+04  0.50400001928E-02 0. -1.
        1   -1    0    0  501    0  0.00000000000E+00  0.00000000000E+00 -0.91298763894E+03  0.91298763895E+03  0.50400001928E-02 0.  1.
    10030    2    1    2    0    0  0.00000000000E+00  0.00000000000E+00  0.18653401120E+04  0.36913153899E+04  0.31853281737E+04 0.  0.
        5    1    3    3  502    0  0.10686885757E+04 -0.11729438964E+04  0.10909883315E+04  0.19256609996E+04  0.46999998093E+01 0.  1.
       -5    1    3    3    0  502 -0.10686885757E+04  0.11729438964E+04  0.77435178049E+03  0.17656543903E+04  0.46999998093E+01 0. -1.
</event>
<event>
 5   0  0.5177039E-07  0.3198128E+04  0.7818609E-02  0.8189312E-01
       -1   -1    0    0    0  501  0.00000000000E+00  0.00000000000E+00  0.15107781320E+04  0.15107781320E+04  0.50400001928E-02 0. -1.
        1   -1    0    0  501    0  0.00000000000E+00  0.00000000000E+00 -0.16925090009E+04  0.16925090009E+04  0.50400001928E-02 0.  1.
    10030    2    1    2    0    0  0.00000000000E+00  0.00000000000E+00 -0.18173086892E+03  0.32032871330E+04  0.31981279442E+04 0.  0.
        3    1    3    3  502    0  0.72021722490E+03  0.79181311202E+03  0.10990429085E+04  0.15341369496E+04  0.10100000352E+00 0. -1.
       -3    1    3    3    0  502 -0.72021722490E+03 -0.79181311202E+03 -0.12807737774E+04  0.16691501833E+04  0.10100000352E+00 0.  1.
</event>
<event>
 5   0  0.1556396E-06  0.3263188E+04  0.7818609E-02  0.8172326E-01
       -2   -1    0    0    0  501  0.00000000000E+00  0.00000000000E+00  0.11644460008E+04  0.11644460008E+04  0.25500000920E-02 0.  1.
        2   -1    0    0  501    0  0.00000000000E+00  0.00000000000E+00 -0.22861506170E+04  0.22861506170E+04  0.25500000920E-02 0. -1.
    10030    2    1    2    0    0  0.00000000000E+00  0.00000000000E+00 -0.11217046162E+04  0.34505966178E+04  0.32631879769E+04 0.  0.
        3    1    3    3  502    0 -0.11856817088E+04  0.10697443580E+04 -0.91458606791E+03  0.18402885078E+04  0.10100000352E+00 0. -1.
       -3    1    3    3    0  502  0.11856817088E+04 -0.10697443580E+04 -0.20711854825E+03  0.16103081100E+04  0.10100000352E+00 0.  1.
</event>
<event>
 5   0  0.1538349E-06  0.3208657E+04  0.7818609E-02  0.8186535E-01
        2   -1    0    0  501    0  0.00000000000E+00  0.00000000000E+00  0.20554141263E+04  0.20554141263E+04  0.25500000920E-02 0. -1.
       -2   -1    0    0    0  501  0.00000000000E+00  0.00000000000E+00 -0.12522388415E+04  0.12522388415E+04  0.25500000920E-02 0.  1.
    10030    2    1    2    0    0  0.00000000000E+00  0.00000000000E+00  0.80317528476E+03  0.33076529678E+04  0.32086566686E+04 0.  0.
        1    1    3    3  502    0 -0.11451996964E+04 -0.98758122486E+03  0.95390778729E+03  0.17879426968E+04  0.50400001928E-02 0. -1.
       -1    1    3    3    0  502  0.11451996964E+04  0.98758122486E+03 -0.15073250253E+03  0.15197102710E+04  0.50400001928E-02 0.  1.
</event>
<event>
 5   0  0.1538349E-06  0.3218664E+04  0.7818609E-02  0.8183905E-01
       -2   -1    0    0    0  501  0.00000000000E+00  0.00000000000E+00  0.19012807154E+04  0.19012807154E+04  0.25500000920E-02 0.  1.
        2   -1    0    0  501    0  0.00000000000E+00  0.00000000000E+00 -0.13622129748E+04  0.13622129748E+04  0.25500000920E-02 0. -1.
    10030    2    1    2    0    0  0.00000000000E+00  0.00000000000E+00  0.53906774056E+03  0.32634936903E+04  0.32186638590E+04 0.  0.
        1    1    3    3  502    0 -0.90605573517E+03 -0.13296405465E+04  0.30267367400E+03  0.16372209170E+04  0.50400001928E-02 0. -1.
       -1    1    3    3    0  502  0.90605573517E+03  0.13296405465E+04  0.23639406656E+03  0.16262727732E+04  0.50400001928E-02 0.  1.
</event>
<event>
 5   0  0.1493485E-06  0.3233186E+04  0.7818609E-02  0.8180107E-01
       -2   -1    0    0    0  501  0.00000000000E+00  0.00000000000E+00  0.91809783268E+03  0.91809783268E+03  0.25500000920E-02 0. -1.
        2   -1    0    0  501    0  0.00000000000E+00  0.00000000000E+00 -0.28465089352E+04  0.28465089352E+04  0.25500000920E-02 0.  1.
    10030    2    1    2    0    0  0.00000000000E+00  0.00000000000E+00 -0.19284111025E+04  0.37646067679E+04  0.32331864679E+04 0.  0.
        2    1    3    3  502    0 -0.86389273722E+03  0.81730516173E+03  0.31080005338E+03  0.12291847144E+04  0.25500000920E-02 0. -1.
       -2    1    3    3    0  502  0.86389273722E+03 -0.81730516173E+03 -0.22392111559E+04  0.25354220535E+04  0.25500000920E-02 0.  1.
</event>
<event>
 5   0  0.5370912E-07  0.3209158E+04  0.7818609E-02  0.8186403E-01
        1   -1    0    0  501    0  0.00000000000E+00  0.00000000000E+00  0.13828471962E+04  0.13828471962E+04  0.50400001928E-02 0. -1.
       -1   -1    0    0    0  501  0.00000000000E+00  0.00000000000E+00 -0.18618640961E+04  0.18618640961E+04  0.50400001928E-02 0.  1.
    10030    2    1    2    0    0  0.00000000000E+00  0.00000000000E+00 -0.47901689990E+03  0.32447112922E+04  0.32091578614E+04 0.  0.
        1    1    3    3  502    0 -0.35651641603E+03  0.60784664400E+03  0.12180211035E+04  0.14071804810E+04  0.50400001928E-02 0. -1.
       -1    1    3    3    0  502  0.35651641603E+03 -0.60784664400E+03 -0.16970380034E+04  0.18375308113E+04  0.50400001928E-02 0.  1.
</event>
<event>
 5   0  0.1538349E-06  0.3200257E+04  0.7818609E-02  0.8188749E-01
       -2   -1    0    0    0  501  0.00000000000E+00  0.00000000000E+00  0.25677508656E+04  0.25677508656E+04  0.25500000920E-02 0. -1.
        2   -1    0    0  501    0  0.00000000000E+00  0.00000000000E+00 -0.99714185346E+03  0.99714185347E+03  0.25500000920E-02 0.  1.
    10030    2    1    2    0    0  0.00000000000E+00  0.00000000000E+00  0.15706090122E+04  0.35648927191E+04  0.32002574005E+04 0.  0.
        1    1    3    3  502    0 -0.51639688922E+03 -0.11277572987E+04 -0.34077172268E+03  0.12863233027E+04  0.50400001928E-02 0. -1.
       -1    1    3    3    0  502  0.51639688922E+03  0.11277572987E+04  0.19113807348E+04  0.22785694164E+04  0.50400001928E-02 0.  1.
</event>
<event>
 5   0  0.1508771E-06  0.3223729E+04  0.7818609E-02  0.8182578E-01
       -2   -1    0    0    0  501  0.00000000000E+00  0.00000000000E+00  0.11441272952E+04  0.11441272952E+04  0.25500000920E-02 0.  1.
        2   -1    0    0  501    0  0.00000000000E+00  0.00000000000E+00 -0.22708202989E+04  0.22708202989E+04  0.25500000920E-02 0. -1.
    10030    2    1    2    0    0  0.00000000000E+00  0.00000000000E+00 -0.11266930038E+04  0.34149475941E+04  0.32237291986E+04 0.  0.
        4    1    3    3  502    0 -0.72823088112E+02  0.10895488577E+04  0.69259567125E+03  0.12931010371E+04  0.12699999809E+01 0.  1.
       -4    1    3    3    0  502  0.72823088112E+02 -0.10895488577E+04 -0.18192886750E+04  0.21218465570E+04  0.12699999809E+01 0. -1.
</event>
<event>
 5   0  0.1556396E-06  0.3206647E+04  0.7818609E-02  0.8187064E-01
       -2   -1    0    0    0  501  0.00000000000E+00  0.00000000000E+00  0.16838080633E+04  0.16838080633E+04  0.25500000920E-02 0. -1.
        2   -1    0    0  501    0  0.00000000000E+00  0.00000000000E+00 -0.15266858851E+04  0.15266858851E+04  0.25500000920E-02 0.  1.
    10030    2    1    2    0    0  0.00000000000E+00  0.00000000000E+00  0.15712217816E+03  0.32104939483E+04  0.32066468489E+04 0.  0.
        3    1    3    3  502    0  0.10591919330E+04 -0.39291228991E+03 -0.10605113572E+04  0.15495005542E+04  0.10100000352E+00 0.  1.
       -3    1    3    3    0  502 -0.10591919330E+04  0.39291228991E+03  0.12176335354E+04  0.16609933941E+04  0.10100000352E+00 0. -1.
</event>
<event>
 5   0  0.5281187E-07  0.3223377E+04  0.7818609E-02  0.8182671E-01
        1   -1    0    0  501    0  0.00000000000E+00  0.00000000000E+00  0.10803108465E+04  0.10803108465E+04  0.50400001928E-02 0. -1.
       -1   -1    0    0    0  501  0.00000000000E+00  0.00000000000E+00 -0.24044368794E+04  0.24044368794E+04  0.50400001928E-02 0.  1.
    10030    2    1    2    0    0  0.00000000000E+00  0.00000000000E+00 -0.13241260329E+04  0.34847477260E+04  0.32233766399E+04 0.  0.
        5    1    3    3  502    0  0.28926787631E+02  0.10300272991E+04  0.67766579361E+03  0.12333069423E+04  0.46999998093E+01 0. -1.
       -5    1    3    3    0  502 -0.28926787631E+02 -0.10300272991E+04 -0.20017918265E+04  0.22514407837E+04  0.46999998093E+01 0.  1.
</event>
<event>
 5   0  0.5317728E-07  0.3001720E+04  0.7818609E-02  0.8243240E-01
        1   -1    0    0  501    0  0.00000000000E+00  0.00000000000E+00  0.14639685128E+04  0.14639685128E+04  0.50400001928E-02 0.  1.
       -1   -1    0    0    0  501  0.00000000000E+00  0.00000000000E+00 -0.15386808733E+04  0.15386808733E+04  0.50400001928E-02 0. -1.
    10030    2    1    2    0    0  0.00000000000E+00  0.00000000000E+00 -0.74712360466E+02  0.30026493861E+04  0.30017197403E+04 0.  0.
        2    1    3    3  502    0 -0.11639227202E+04  0.88809069345E+03  0.29313859420E+03  0.14931012738E+04  0.25500000920E-02 0.  1.
       -2    1    3    3    0  502  0.11639227202E+04 -0.88809069345E+03 -0.36785095466E+03  0.15095481123E+04  0.25500000920E-02 0. -1.
</event>
<event>
 5   0  0.1538349E-06  0.3197071E+04  0.7818609E-02  0.8189591E-01
       -2   -1    0    0    0  501  0.00000000000E+00  0.00000000000E+00  0.15647191358E+04  0.15647191358E+04  0.25500000920E-02 0.  1.
        2   -1    0    0  501    0  0.00000000000E+00  0.00000000000E+00 -0.16330828785E+04  0.16330828785E+04  0.25500000920E-02 0. -1.
    10030    2    1    2    0    0  0.00000000000E+00  0.00000000000E+00 -0.68363742753E+02  0.31978020143E+04  0.31970711787E+04 0.  0.
        1    1    3    3  502    0  0.76439474572E+03  0.99157649212E+03  0.95992296448E+03  0.15776486823E+04  0.50400001928E-02 0.  1.
       -1    1    3    3    0  502 -0.76439474572E+03 -0.99157649212E+03 -0.10282867072E+04  0.16201533320E+04  0.50400001928E-02 0. -1.
</event>
<event>
 5   0  0.1508771E-06  0.3194536E+04  0.7818609E-02  0.8190262E-01
        2   -1    0    0  501    0  0.00000000000E+00  0.00000000000E+00  0.16943996210E+04  0.16943996210E+04  0.25500000920E-02 0.  1.
       -2   -1    0    0    0  501  0.00000000000E+00  0.00000000000E+00 -0.15057041014E+04  0.15057041015E+04  0.25500000920E-02 0. -1.
    10030    2    1    2    0    0  0.00000000000E+00  0.00000000000E+00  0.18869551954E+03  0.32001037224E+04  0.31945356212E+04 0.  0.
        4    1    3    3  502    0 -0.55141614376E+03 -0.26346863175E+03 -0.13839572765E+04  0.15128829564E+04  0.12699999809E+01 0. -1.
       -4    1    3    3    0  502  0.55141614376E+03  0.26346863175E+03  0.15726527961E+04  0.16872207661E+04  0.12699999809E+01 0.  1.
</event>
<event>
 5   0  0.1556396E-06  0.3180110E+04  0.7818609E-02  0.8194090E-01
       -2   -1    0    0    0  501  0.00000000000E+00  0.00000000000E+00  0.22518216737E+04  0.22518216737E+04  0.25500000920E-02 0. -1.
        2   -1    0    0  501    0  0.00000000000E+00  0.00000000000E+00 -0.11227688057E+04  0.11227688057E+04  0.25500000920E-02 0.  1.
    10030    2    1    2    0    0  0.00000000000E+00  0.00000000000E+00  0.11290528681E+04  0.33745904794E+04  0.31801101435E+04 0.  0.
        3    1    3    3  502    0 -0.10049461221E+04 -0.41986217049E+03  0.17938527366E+04  0.20985968172E+04  0.10100000352E+00 0. -1.
       -3    1    3    3    0  502  0.10049461221E+04  0.41986217049E+03 -0.66479986849E+03  0.12759936622E+04  0.10100000352E+00 0.  1.
</event>
<event>
 5   0  0.5370912E-07  0.3173454E+04  0.7818609E-02  0.8195863E-01
        1   -1    0    0  501    0  0.00000000000E+00  0.00000000000E+00  0.16568209307E+04  0.16568209307E+04  0.50400001928E-02 0.  1.
       -1   -1    0    0    0  501  0.00000000000E+00  0.00000000000E+00 -0.15195987407E+04  0.15195987407E+04  0.50400001928E-02 0. -1.
    10030    2    1    2    0    0  0.00000000000E+00  0.00000000000E+00  0.13722219001E+03  0.31764196714E+04  0.31734542693E+04 0.  0.
        1    1    3    3  502    0 -0.95591716763E+03  0.10729801422E+04 -0.60480208127E+03  0.15591182041E+04  0.50400001928E-02 0. -1.
       -1    1    3    3    0  502  0.95591716763E+03 -0.10729801422E+04  0.74202427128E+03  0.16173014673E+04  0.50400001928E-02 0.  1.
</event>
<event>
 5   0  0.1493485E-06  0.3210617E+04  0.7818609E-02  0.8186019E-01
       -2   -1    0    0    0  501  0.00000000000E+00  0.00000000000E+00  0.21522687286E+04  0.21522687286E+04  0.25500000920E-02 0. -1.
        2   -1    0    0  501    0  0.00000000000E+00  0.00000000000E+00 -0.11973486722E+04  0.11973486722E+04  0.25500000920E-02 0.  1.
    10030    2    1    2    0    0  0.00000000000E+00  0.00000000000E+00  0.95492005648E+03  0.33496174008E+04  0.32106174511E+04 0.  0.
        2    1    3    3  502    0 -0.12112705543E+04  0.78025133181E+03 -0.26103255600E+03  0.14642767811E+04  0.25500000920E-02 0.  1.
       -2    1    3    3    0  502  0.12112705543E+04 -0.78025133181E+03  0.12159526125E+04  0.18853406197E+04  0.25500000920E-02 0. -1.
</event>
<event>
 5   0  0.5370912E-07  0.3186969E+04  0.7818609E-02  0.8192267E-01
        1   -1    0    0  501    0  0.00000000000E+00  0.00000000000E+00  0.17678607788E+04  0.17678607788E+04  0.50400001928E-02 0. -1.
       -1   -1    0    0    0  501  0.00000000000E+00  0.00000000000E+00 -0.14363078442E+04  0.14363078442E+04  0.50400001928E-02 0.  1.
    10030    2    1    2    0    0  0.00000000000E+00  0.00000000000E+00  0.33155293460E+03  0.32041686230E+04  0.31869686563E+04 0.  0.
        1    1    3    3  502    0  0.65175485941E+03 -0.84899750102E+03  0.13526607461E+04  0.17248977499E+04  0.50400001928E-02 0. -1.
       -1    1    3    3    0  502 -0.65175485941E+03  0.84899750102E+03 -0.10211078115E+04  0.14792708731E+04  0.50400001928E-02 0.  1.
</event>
<event>
 5   0  0.5317728E-07  0.3185760E+04  0.7818609E-02  0.8192588E-01
        1   -1    0    0  501    0  0.00000000000E+00  0.00000000000E+00  0.13304462582E+04  0.13304462582E+04  0.50400001928E-02 0. -1.
       -1   -1    0    0    0  501  0.00000000000E+00  0.00000000000E+00 -0.19070790601E+04  0.19070790601E+04  0.50400001928E-02 0.  1.
    10030    2    1    2    0    0  0.00000000000E+00  0.00000000000E+00 -0.57663280182E+03  0.32375253183E+04  0.31857596894E+04 0.  0.
        2    1    3    3  502    0  0.37266844557E+03 -0.27735068927E+03 -0.18367081878E+04  0.18945453656E+04  0.25500000920E-02 0.  1.
       -2    1    3    3    0  502 -0.37266844557E+03  0.27735068927E+03  0.12600753860E+04  0.13429799527E+04  0.25500000920E-02 0. -1.
</event>
<event>
 5   0  0.1572769E-06  0.3187506E+04  0.7818609E-02  0.8192125E-01
        2   -1    0    0  501    0  0.00000000000E+00  0.00000000000E+00  0.15232439252E+04  0.15232439252E+04  0.25500000920E-02 0. -1.
       -2   -1    0    0    0  501  0.00000000000E+00  0.00000000000E+00 -0.16675258740E+04  0.16675258741E+04  0.25500000920E-02 0.  1.
    10030    2    1    2    0    0  0.00000000000E+00  0.00000000000E+00 -0.14428194881E+03  0.31907697993E+04  0.31875060206E+04 0.  0.
        5    1    3    3  502    0 -0.46611155759E+03 -0.12887234004E+03 -0.15923000467E+04  0.16641242720E+04  0.46999998093E+01 0.  1.
       -5    1    3    3    0  502  0.46611155759E+03  0.12887234004E+03  0.14480180979E+04  0.15266455273E+04  0.46999998093E+01 0. -1.
</event>
<event>
 5   0  0.5370912E-07  0.3194819E+04  0.7818609E-02  0.8190187E-01
       -1   -1    0    0    0  501  0.00000000000E+00  0.00000000000E+00  0.12140405222E+04  0.12140405222E+04  0.50400001928E-02 0. -1.
        1   -1    0    0  501    0  0.00000000000E+00  0.00000000000E+00 -0.21018391488E+04  0.21018391488E+04  0.50400001928E-02 0.  1.
    10030    2    1    2    0    0  0.00000000000E+00  0.00000000000E+00 -0.88779862653E+03  0.33158796710E+04  0.31948194928E+04 0.  0.
        1    1    3    3  502    0 -0.25953146174E+03 -0.63748386115E+03  0.10522421646E+04  0.12573606586E+04  0.50400001928E-02 0. -1.
       -1    1    3    3    0  502  0.25953146174E+03  0.63748386115E+03 -0.19400407912E+04  0.20585190124E+04  0.50400001928E-02 0.  1.
</event>
<event>
 5   0  0.1508771E-06  0.3267615E+04  0.7818609E-02  0.8171185E-01
        2   -1    0    0  501    0  0.00000000000E+00  0.00000000000E+00  0.11568363581E+04  0.11568363581E+04  0.25500000920E-02 0. -1.
       -2   -1    0    0    0  501  0.00000000000E+00  0.00000000000E+00 -0.23074371604E+04  0.23074371604E+04  0.25500000920E-02 0.  1.
    10030    2    1    2    0    0  0.00000000000E+00  0.00000000000E+00 -0.11506008024E+04  0.34642735185E+04  0.32676151555E+04 0.  0.
        4    1    3    3  502    0 -0.15366505356E+04 -0.50137571201E+03 -0.82764450942E+03  0.18159486557E+04  0.12699999809E+01 0.  1.
       -4    1    3    3    0  502  0.15366505356E+04  0.50137571201E+03 -0.32295629295E+03  0.16483248628E+04  0.12699999809E+01 0. -1.
</event>
<event>
 5   0  0.4995625E-07  0.3181414E+04  0.7818609E-02  0.8193743E-01
        3   -1    0    0  501    0  0.00000000000E+00  0.00000000000E+00  0.25570839841E+04  0.25570839861E+04  0.10100000352E+00 0. -1.
       -3   -1    0    0    0  501  0.00000000000E+00  0.00000000000E+00 -0.98954494575E+03  0.98954495090E+03  0.10100000352E+00 0.  1.
    10030    2    1    2    0    0  0.00000000000E+00  0.00000000000E+00  0.15675390384E+04  0.35466289370E+04  0.31814144936E+04 0.  0.
        2    1    3    3  502    0 -0.53168069846E+03  0.93683223856E+03 -0.52107105161E+03  0.11966010401E+04  0.25500000920E-02 0.  1.
       -2    1    3    3    0  502  0.53168069846E+03 -0.93683223856E+03  0.20886100900E+04  0.23500278969E+04  0.25500000920E-02 0. -1.
</event>
<event>
 5   0  0.1556396E-06  0.3094753E+04  0.7818609E-02  0.8217179E-01
       -2   -1    0    0    0  501  0.00000000000E+00  0.00000000000E+00  0.12509981302E+04  0.12509981302E+04  0.25500000920E-02 0.  1.
        2   -1    0    0  501    0  0.00000000000E+00  0.00000000000E+00 -0.19139712946E+04  0.19139712946E+04  0.25500000920E-02 0. -1.
    10030    2    1    2    0    0  0.00000000000E+00  0.00000000000E+00 -0.66297316435E+03  0.31649694248E+04  0.30947533089E+04 0.  0.
        3    1    3    3  502    0 -0.28103703798E+03  0.43403440019E+03  0.11600294450E+04  0.12700535424E+04  0.10100000352E+00 0.  1.
       -3    1    3    3    0  502  0.28103703798E+03 -0.43403440019E+03 -0.18230026093E+04  0.18949158823E+04  0.10100000352E+00 0. -1.
</event>
<event>
 5   0  0.1556396E-06  0.3011101E+04  0.7818609E-02  0.8240568E-01
       -2   -1    0    0    0  501  0.00000000000E+00  0.00000000000E+00  0.11388199576E+04  0.11388199576E+04  0.25500000920E-02 0.  1.
        2   -1    0    0  501    0  0.00000000000E+00  0.00000000000E+00 -0.19903781564E+04  0.19903781564E+04  0.25500000920E-02 0. -1.
    10030    2    1    2    0    0  0.00000000000E+00  0.00000000000E+00 -0.85155819876E+03  0.31291981140E+04  0.30111010396E+04 0.  0.
        3    1    3    3  502    0 -0.93046381399E+03  0.91638873805E+02 -0.16521129801E+04  0.18983250253E+04  0.10100000352E+00 0. -1.
       -3    1    3    3    0  502  0.93046381399E+03 -0.91638873805E+02  0.80055478134E+03  0.12308730887E+04  0.10100000352E+00 0.  1.
</event>
<event>
 5   0  0.5177039E-07  0.3180181E+04  0.7818609E-02  0.8194071E-01
        1   -1    0    0  501    0  0.00000000000E+00  0.00000000000E+00  0.15683831187E+04  0.15683831187E+04  0.50400001928E-02 0. -1.
       -1   -1    0    0    0  501  0.00000000000E+00  0.00000000000E+00 -0.16120983921E+04  0.16120983921E+04  0.50400001928E-02 0.  1.
    10030    2    1    2    0    0  0.00000000000E+00  0.00000000000E+00 -0.43715273343E+02  0.31804815108E+04  0.31801810665E+04 0.  0.
        3    1    3    3  502    0  0.52452872432E+03 -0.87218089882E+03 -0.12436759619E+04  0.16070344773E+04  0.10100000352E+00 0.  1.
       -3    1    3    3    0  502 -0.52452872432E+03  0.87218089882E+03  0.11999606886E+04  0.15734470335E+04  0.10100000352E+00 0. -1.
</event>
<event>
 5   0  0.1493485E-06  0.3229241E+04  0.7818609E-02  0.8181137E-01
        2   -1    0    0  501    0  0.00000000000E+00  0.00000000000E+00  0.19978540381E+04  0.19978540381E+04  0.25500000920E-02 0.  1.
       -2   -1    0    0    0  501  0.00000000000E+00  0.00000000000E+00 -0.13048997654E+04  0.13048997654E+04  0.25500000920E-02 0. -1.
    10030    2    1    2    0    0  0.00000000000E+00  0.00000000000E+00  0.69295427267E+03  0.33027538035E+04  0.32292409422E+04 0.  0.
        2    1    3    3  502    0 -0.61424998447E+03 -0.67297234584E+03  0.17097901087E+04  0.19374150401E+04  0.25500000920E-02 0.  1.
       -2    1    3    3    0  502  0.61424998447E+03  0.67297234584E+03 -0.10168358360E+04  0.13653387635E+04  0.25500000920E-02 0. -1.
</event>
<event>
 5   0  0.1508771E-06  0.3190746E+04  0.7818609E-02  0.8191265E-01
       -2   -1    0    0    0  501  0.00000000000E+00  0.00000000000E+00  0.25161702005E+04  0.25161702005E+04  0.25500000920E-02 0.  1.
        2   -1    0    0  501    0  0.00000000000E+00  0.00000000000E+00 -0.10115433750E+04  0.10115433750E+04  0.25500000920E-02 0. -1.
    10030    2    1    2    0    0  0.00000000000E+00  0.00000000000E+00  0.15046268255E+04  0.35277135755E+04  0.31907461802E+04 0.  0.
        4    1    3    3  502    0  0.11327253549E+04  0.10902001304E+04  0.45234790121E+03  0.16359166515E+04  0.12699999809E+01 0. -1.
       -4    1    3    3    0  502 -0.11327253549E+04 -0.10902001304E+04  0.10522789243E+04  0.18917969240E+04  0.12699999809E+01 0.  1.
</event>
<event>
 5   0  0.1508771E-06  0.3194700E+04  0.7818609E-02  0.8190218E-01
        2   -1    0    0  501    0  0.00000000000E+00  0.00000000000E+00  0.13513348054E+04  0.13513348054E+04  0.25500000920E-02 0.  1.
       -2   -1    0    0    0  501  0.00000000000E+00  0.00000000000E+00 -0.18881526597E+04  0.18881526597E+04  0.25500000920E-02 0. -1.
    10030    2    1    2    0    0  0.00000000000E+00  0.00000000000E+00 -0.53681785425E+03  0.32394874651E+04  0.31946996146E+04 0.  0.
        4    1    3    3  502    0 -0.13803408730E+04 -0.61539215874E+03  0.25602282217E+03  0.15328397610E+04  0.12699999809E+01 0.  1.
       -4    1    3    3    0  502  0.13803408730E+04  0.61539215874E+03 -0.79284067642E+03  0.17066477040E+04  0.12699999809E+01 0. -1.
</event>
<event>
 5   0  0.5233813E-07  0.3240609E+04  0.7818609E-02  0.8178174E-01
       -1   -1    0    0    0  501  0.00000000000E+00  0.00000000000E+00  0.17127480907E+04  0.17127480907E+04  0.50400001928E-02 0.  1.
        1   -1    0    0  501    0  0.00000000000E+00  0.00000000000E+00 -0.15328502255E+04  0.15328502255E+04  0.50400001928E-02 0. -1.
    10030    2    1    2    0    0  0.00000000000E+00  0.00000000000E+00  0.17989786521E+03  0.32455983162E+04  0.32406087681E+04 0.  0.
        4    1    3    3  502    0  0.16157581352E+04 -0.81520152944E+02  0.64450907569E-02  0.16178138026E+04  0.12699999809E+01 0.  1.
       -4    1    3    3    0  502 -0.16157581352E+04  0.81520152944E+02  0.17989142012E+03  0.16277845136E+04  0.12699999809E+01 0. -1.
</event>
<event>
 5   0  0.5177039E-07  0.3086997E+04  0.7818609E-02  0.8219316E-01
       -1   -1    0    0    0  501  0.00000000000E+00  0.00000000000E+00  0.13687829613E+04  0.13687829613E+04  0.50400001928E-02 0. -1.
        1   -1    0    0  501    0  0.00000000000E+00  0.00000000000E+00 -0.17405154132E+04  0.17405154132E+04  0.50400001928E-02 0.  1.
    10030    2    1    2    0    0  0.00000000000E+00  0.00000000000E+00 -0.37173245191E+03  0.31092983745E+04  0.30869971438E+04 0.  0.
        3    1    3    3  502    0 -0.45473840320E+02 -0.48724112560E+03 -0.16603118152E+04  0.17309266647E+04  0.10100000352E+00 0.  1.
       -3    1    3    3    0  502  0.45473840320E+02  0.48724112560E+03  0.12885793633E+04  0.13783717098E+04  0.10100000352E+00 0. -1.
</event>
<event>
 5   0  0.5370912E-07  0.3216637E+04  0.7818609E-02  0.8184437E-01
        1   -1    0    0  501    0  0.00000000000E+00  0.00000000000E+00  0.22019527689E+04  0.22019527689E+04  0.50400001928E-02 0.  1.
       -1   -1    0    0    0  501  0.00000000000E+00  0.00000000000E+00 -0.11747247442E+04  0.11747247442E+04  0.50400001928E-02 0. -1.
    10030    2    1    2    0    0  0.00000000000E+00  0.00000000000E+00  0.10272280247E+04  0.33766775131E+04  0.32166370036E+04 0.  0.
        1    1    3    3  502    0  0.21703403895E+02  0.15932115516E+04  0.74335026118E+03  0.17582274303E+04  0.50400001928E-02 0.  1.
       -1    1    3    3    0  502 -0.21703403895E+02 -0.15932115516E+04  0.28387776353E+03  0.16184500828E+04  0.50400001928E-02 0. -1.
</event>
<event>
 5   0  0.5233813E-07  0.3185294E+04  0.7818609E-02  0.8192712E-01
       -1   -1    0    0    0  501  0.00000000000E+00  0.00000000000E+00  0.19795697480E+04  0.19795697481E+04  0.50400001928E-02 0. -1.
        1   -1    0    0  501    0  0.00000000000E+00  0.00000000000E+00 -0.12813513671E+04  0.12813513671E+04  0.50400001928E-02 0.  1.
    10030    2    1    2    0    0  0.00000000000E+00  0.00000000000E+00  0.69821838092E+03  0.32609211152E+04  0.31852939601E+04 0.  0.
        4    1    3    3  502    0 -0.12132701663E+04  0.74369358439E+03 -0.38300502844E+03  0.14737025170E+04  0.12699999809E+01 0.  1.
       -4    1    3    3    0  502  0.12132701663E+04 -0.74369358439E+03  0.10812234094E+04  0.17872185982E+04  0.12699999809E+01 0. -1.
</event>
<event>
 5   0  0.5370912E-07  0.3207742E+04  0.7818609E-02  0.8186775E-01
        1   -1    0    0  501    0  0.00000000000E+00  0.00000000000E+00  0.13106544957E+04  0.13106544957E+04  0.50400001928E-02 0.  1.
       -1   -1    0    0    0  501  0.00000000000E+00  0.00000000000E+00 -0.19626855245E+04  0.19626855245E+04  0.50400001928E-02 0. -1.
    10030    2    1    2    0    0  0.00000000000E+00  0.00000000000E+00 -0.65203102878E+03  0.32733400202E+04  0.32077422629E+04 0.  0.
        1    1    3    3  502    0 -0.10395501808E+04  0.75377962560E+03 -0.13066854750E+04  0.18320139827E+04  0.50400001928E-02 0. -1.
       -1    1    3    3    0  502  0.10395501808E+04 -0.75377962560E+03  0.65465444622E+03  0.14413260375E+04  0.50400001928E-02 0.  1.
</event>
<event>
 5   0  0.1493485E-06  0.3216597E+04  0.7818609E-02  0.8184448E-01
       -2   -1    0    0    0  501  0.00000000000E+00  0.00000000000E+00  0.14759430786E+04  0.14759430786E+04  0.25500000920E-02 0. -1.
        2   -1    0    0  501    0  0.00000000000E+00  0.00000000000E+00 -0.17525224271E+04  0.17525224271E+04  0.25500000920E-02 0.  1.
    10030    2    1    2    0    0  0.00000000000E+00  0.00000000000E+00 -0.27657934857E+03  0.32284655057E+04  0.32165965531E+04 0.  0.
        2    1    3    3  502    0  0.42018329851E+03 -0.11460991907E+04 -0.11893049366E+04  0.17042721589E+04  0.25500000920E-02 0.  1.
       -2    1    3    3    0  502 -0.42018329851E+03  0.11460991907E+04  0.91272558808E+03  0.15241933468E+04  0.25500000920E-02 0. -1.
</event>
<event>
 5   0  0.5233813E-07  0.3253298E+04  0.7818609E-02  0.8174882E-01
        1   -1    0    0  501    0  0.00000000000E+00  0.00000000000E+00  0.20331601484E+04  0.20331601484E+04  0.50400001928E-02 0. -1.
       -1   -1    0    0    0  501  0.00000000000E+00  0.00000000000E+00 -0.13014155530E+04  0.13014155530E+04  0.50400001928E-02 0.  1.
    10030    2    1    2    0    0  0.00000000000E+00  0.00000000000E+00  0.73174459539E+03  0.33345757014E+04  0.32532975511E+04 0.  0.
        4    1    3    3  502    0 -0.19734825098E+03  0.16095617827E+04  0.23481399510E+03  0.16385282084E+04  0.12699999809E+01 0.  1.
       -4    1    3    3    0  502  0.19734825098E+03 -0.16095617827E+04  0.49693060029E+03  0.16960474931E+04  0.12699999809E+01 0. -1.
</event>
<event>
 5   0  0.1493485E-06  0.3198134E+04  0.7818609E-02  0.8189310E-01
        2   -1    0    0  501    0  0.00000000000E+00  0.00000000000E+00  0.23517853598E+04  0.23517853598E+04  0.25500000920E-02 0. -1.
       -2   -1    0    0    0  501  0.00000000000E+00  0.00000000000E+00 -0.10872653834E+04  0.10872653835E+04  0.25500000920E-02 0.  1.
    10030    2    1    2    0    0  0.00000000000E+00  0.00000000000E+00  0.12645199763E+04  0.34390507432E+04  0.31981337126E+04 0.  0.
        2    1    3    3  502    0  0.14924415993E+04  0.21126019941E+03  0.12063314121E+04  0.19306082656E+04  0.25500000920E-02 0. -1.
       -2    1    3    3    0  502 -0.14924415993E+04 -0.21126019941E+03  0.58188564162E+02  0.15084424776E+04  0.25500000920E-02 0.  1.
</event>
<event>
 5   0  0.5370912E-07  0.3206256E+04  0.7818609E-02  0.8187167E-01
        1   -1    0    0  501    0  0.00000000000E+00  0.00000000000E+00  0.16904906103E+04  0.16904906103E+04  0.50400001928E-02 0. -1.
       -1   -1    0    0    0  501  0.00000000000E+00  0.00000000000E+00 -0.15202801550E+04  0.15202801550E+04  0.50400001928E-02 0.  1.
    10030    2    1    2    0    0  0.00000000000E+00  0.00000000000E+00  0.17021045526E+03  0.32107707653E+04  0.32062559643E+04 0.  0.
        1    1    3    3  502    0 -0.10566720517E+04 -0.96309192281E+03 -0.64111760705E+03  0.15668866145E+04  0.50400001928E-02 0.  1.
       -1    1    3    3    0  502  0.10566720517E+04  0.96309192281E+03  0.81132806231E+03  0.16438841508E+04  0.50400001928E-02 0. -1.
</event>
<event>
 5   0  0.5177039E-07  0.3085080E+04  0.7818609E-02  0.8219845E-01
        1   -1    0    0  501    0  0.00000000000E+00  0.00000000000E+00  0.14809427880E+04  0.14809427880E+04  0.50400001928E-02 0.  1.
       -1   -1    0    0    0  501  0.00000000000E+00  0.00000000000E+00 -0.16066988384E+04  0.16066988385E+04  0.50400001928E-02 0. -1.
    10030    2    1    2    0    0  0.00000000000E+00  0.00000000000E+00 -0.12575605046E+03  0.30876416264E+04  0.30850796147E+04 0.  0.
        3    1    3    3  502    0 -0.14242986629E+04 -0.43294492818E+03 -0.46739316079E+03  0.15602962440E+04  0.10100000352E+00 0. -1.
       -3    1    3    3    0  502  0.14242986629E+04  0.43294492818E+03  0.34163711033E+03  0.15273453825E+04  0.10100000352E+00 0.  1.
</event>
<event>
 5   0  0.1493485E-06  0.3204483E+04  0.7818609E-02  0.8187634E-01
        2   -1    0    0  501    0  0.00000000000E+00  0.00000000000E+00  0.26501653605E+04  0.26501653605E+04  0.25500000920E-02 0. -1.
       -2   -1    0    0    0  501  0.00000000000E+00  0.00000000000E+00 -0.96868607994E+03  0.96868607994E+03  0.25500000920E-02 0.  1.
    10030    2    1    2    0    0  0.00000000000E+00  0.00000000000E+00  0.16814792806E+04  0.36188514405E+04  0.32044832933E+04 0.  0.
        2    1    3    3  502    0 -0.15007125941E+04  0.49093381096E+03  0.11479946768E+04  0.19521900714E+04  0.25500000920E-02 0.  1.
       -2    1    3    3    0  502  0.15007125941E+04 -0.49093381096E+03  0.53348460383E+03  0.16666613691E+04  0.25500000920E-02 0. -1.
</event>
<event>
 5   0  0.1538349E-06  0.3219448E+04  0.7818609E-02  0.8183700E-01
        2   -1    0    0  501    0  0.00000000000E+00  0.00000000000E+00  0.89938667041E+03  0.89938667041E+03  0.25500000920E-02 0.  1.
       -2   -1    0    0    0  501  0.00000000000E+00  0.00000000000E+00 -0.28810880014E+04  0.28810880014E+04  0.25500000920E-02 0. -1.
    10030    2    1    2    0    0  0.00000000000E+00  0.00000000000E+00 -0.19817013310E+04  0.37804746719E+04  0.32194484899E+04 0.  0.
        1    1    3    3  502    0  0.86986993811E+03 -0.87733682305E+03 -0.22025717164E+04  0.25254139811E+04  0.50400001928E-02 0. -1.
       -1    1    3    3    0  502 -0.86986993811E+03  0.87733682305E+03  0.22087038532E+03  0.12550606907E+04  0.50400001928E-02 0.  1.
</event>
<event>
 5   0  0.1572769E-06  0.3199344E+04  0.7818609E-02  0.8188990E-01
        2   -1    0    0  501    0  0.00000000000E+00  0.00000000000E+00  0.22698547923E+04  0.22698547923E+04  0.25500000920E-02 0.  1.
       -2   -1    0    0    0  501  0.00000000000E+00  0.00000000000E+00 -0.11273631826E+04  0.11273631826E+04  0.25500000920E-02 0. -1.
    10030    2    1    2    0    0  0.00000000000E+00  0.00000000000E+00  0.11424916097E+04  0.33972179749E+04  0.31993441344E+04 0.  0.
        5    1    3    3  502    0  0.13179165277E+04 -0.45860837949E+03 -0.25924105630E+03  0.14193144947E+04  0.46999998093E+01 0.  1.
       -5    1    3    3    0  502 -0.13179165277E+04  0.45860837949E+03  0.14017326660E+04  0.19779034801E+04  0.46999998093E+01 0. -1.
</event>
<event>
 5   0  0.5233813E-07  0.3204395E+04  0.7818609E-02  0.8187657E-01
        1   -1    0    0  501    0  0.00000000000E+00  0.00000000000E+00  0.19220703733E+04  0.19220703733E+04  0.50400001928E-02 0. -1.
       -1   -1    0    0    0  501  0.00000000000E+00  0.00000000000E+00 -0.13355584793E+04  0.13355584793E+04  0.50400001928E-02 0.  1.
    10030    2    1    2    0    0  0.00000000000E+00  0.00000000000E+00  0.58651189401E+03  0.32576288526E+04  0.32043953469E+04 0.  0.
        4    1    3    3  502    0 -0.15564811467E+04 -0.26711379248E+03  0.18483706230E+02  0.15793437239E+04  0.12699999809E+01 0. -1.
       -4    1    3    3    0  502  0.15564811467E+04  0.26711379248E+03  0.56802818778E+03  0.16782851286E+04  0.12699999809E+01 0.  1.
</event>
<event>
 5   0  0.5370912E-07  0.3205148E+04  0.7818609E-02  0.8187459E-01
       -1   -1    0    0    0  501  0.00000000000E+00  0.00000000000E+00  0.15687748977E+04  0.15687748977E+04  0.50400001928E-02 0. -1.
        1   -1    0    0  501    0  0.00000000000E+00  0.00000000000E+00 -0.16371014157E+04  0.16371014157E+04  0.50400001928E-02 0.  1.
    10030    2    1    2    0    0  0.00000000000E+00  0.00000000000E+00 -0.68326518063E+02  0.32058763134E+04  0.32051481126E+04 0.  0.
        1    1    3    3  502    0  0.11440045966E+04 -0.92431137902E+03  0.60249181262E+03  0.15893691915E+04  0.50400001928E-02 0.  1.
       -1    1    3    3    0  502 -0.11440045966E+04  0.92431137902E+03 -0.67081833068E+03  0.16165071219E+04  0.50400001928E-02 0. -1.
</event>
<event>
 5   0  0.5177039E-07  0.3193508E+04  0.7818609E-02  0.8190534E-01
       -1   -1    0    0    0  501  0.00000000000E+00  0.00000000000E+00  0.96881363065E+03  0.96881363066E+03  0.50400001928E-02 0.  1.
        1   -1    0    0  501    0  0.00000000000E+00  0.00000000000E+00 -0.26316958138E+04  0.26316958138E+04  0.50400001928E-02 0. -1.
    10030    2    1    2    0    0  0.00000000000E+00  0.00000000000E+00 -0.16628821831E+04  0.36005094445E+04  0.31935076491E+04 0.  0.
        3    1    3    3  502    0  0.12303248373E+04 -0.98004623435E+03 -0.52178722387E+03  0.16572422104E+04  0.10100000352E+00 0. -1.
       -3    1    3    3    0  502 -0.12303248373E+04  0.98004623435E+03 -0.11410949593E+04  0.19432672341E+04  0.10100000352E+00 0.  1.
</event>
<event>
 5   0  0.1556396E-06  0.3165333E+04  0.7818609E-02  0.8198033E-01
        2   -1    0    0  501    0  0.00000000000E+00  0.00000000000E+00  0.18183279942E+04  0.18183279942E+04  0.25500000920E-02 0.  1.
       -2   -1    0    0    0  501  0.00000000000E+00  0.00000000000E+00 -0.13775475380E+04  0.13775475380E+04  0.25500000920E-02 0. -1.
    10030    2    1    2    0    0  0.00000000000E+00  0.00000000000E+00  0.44078045616E+03  0.31958755321E+04  0.31653330009E+04 0.  0.
        3    1    3    3  502    0 -0.13305906869E+04  0.59783604492E+03 -0.39949954717E+03  0.15124415397E+04  0.10100000352E+00 0. -1.
       -3    1    3    3    0  502  0.13305906869E+04 -0.59783604492E+03  0.84028000333E+03  0.16834339924E+04  0.10100000352E+00 0.  1.
</event>
<event>
 5   0  0.1493485E-06  0.3192584E+04  0.7818609E-02  0.8190778E-01
       -2   -1    0    0    0  501  0.00000000000E+00  0.00000000000E+00  0.14965838212E+04  0.14965838212E+04  0.25500000920E-02 0. -1.
        2   -1    0    0  501    0  0.00000000000E+00  0.00000000000E+00 -0.17026435408E+04  0.17026435408E+04  0.25500000920E-02 0.  1.
    10030    2    1    2    0    0  0.00000000000E+00  0.00000000000E+00 -0.20605971953E+03  0.31992273620E+04  0.31925843929E+04 0.  0.
        2    1    3    3  502    0 -0.14448327879E+04  0.67078204164E+03  0.42469706748E+00  0.15929502543E+04  0.25500000920E-02 0. -1.
       -2    1    3    3    0  502  0.14448327879E+04 -0.67078204164E+03 -0.20648441660E+03  0.16062771077E+04  0.25500000920E-02 0.  1.
</event>
<event>
 5   0  0.5317728E-07  0.3194223E+04  0.7818609E-02  0.8190345E-01
       -1   -1    0    0    0  501  0.00000000000E+00  0.00000000000E+00  0.12436088339E+04  0.12436088339E+04  0.50400001928E-02 0.  1.
        1   -1    0    0  501    0  0.00000000000E+00  0.00000000000E+00 -0.20510992937E+04  0.20510992937E+04  0.50400001928E-02 0. -1.
    10030    2    1    2    0    0  0.00000000000E+00  0.00000000000E+00 -0.80749045982E+03  0.32947081276E+04  0.31942230359E+04 0.  0.
        2    1    3    3  502    0 -0.13197035699E+04 -0.56461914272E+03  0.31853560156E+03  0.14703323495E+04  0.25500000920E-02 0.  1.
       -2    1    3    3    0  502  0.13197035699E+04  0.56461914272E+03 -0.11260260614E+04  0.18243757781E+04  0.25500000920E-02 0. -1.
</event>
<event>
 5   0  0.5317728E-07  0.3209104E+04  0.7818609E-02  0.8186417E-01
       -1   -1    0    0    0  501  0.00000000000E+00  0.00000000000E+00  0.16885672572E+04  0.16885672572E+04  0.50400001928E-02 0. -1.
        1   -1    0    0  501    0  0.00000000000E+00  0.00000000000E+00 -0.15247166389E+04  0.15247166389E+04  0.50400001928E-02 0.  1.
    10030    2    1    2    0    0  0.00000000000E+00  0.00000000000E+00  0.16385061825E+03  0.32132838961E+04  0.32091036711E+04 0.  0.
        2    1    3    3  502    0  0.11379633769E+03  0.98988968408E+03  0.13412421552E+04  0.16708565803E+04  0.25500000920E-02 0. -1.
       -2    1    3    3    0  502 -0.11379633769E+03 -0.98988968408E+03 -0.11773915370E+04  0.15424273158E+04  0.25500000920E-02 0.  1.
</event>
<event>
 5   0  0.1508771E-06  0.3207969E+04  0.7818609E-02  0.8186716E-01
        2   -1    0    0  501    0  0.00000000000E+00  0.00000000000E+00  0.16118407050E+04  0.16118407050E+04  0.25500000920E-02 0.  1.
       -2   -1    0    0    0  501  0.00000000000E+00  0.00000000000E+00 -0.15961664492E+04  0.15961664492E+04  0.25500000920E-02 0. -1.
    10030    2    1    2    0    0  0.00000000000E+00  0.00000000000E+00  0.15674255782E+02  0.32080071543E+04  0.32079688620E+04 0.  0.
        4    1    3    3  502    0  0.46113985396E+03  0.10967401383E+03 -0.15245277583E+04  0.15965164744E+04  0.12699999809E+01 0. -1.
       -4    1    3    3    0  502 -0.46113985396E+03 -0.10967401383E+03  0.15402020141E+04  0.16114906799E+04  0.12699999809E+01 0.  1.
</event>
<event>
 5   0  0.5177039E-07  0.3232521E+04  0.7818609E-02  0.8180281E-01
        1   -1    0    0  501    0  0.00000000000E+00  0.00000000000E+00  0.18129646836E+04  0.18129646836E+04  0.50400001928E-02 0. -1.
       -1   -1    0    0    0  501  0.00000000000E+00  0.00000000000E+00 -0.14408982373E+04  0.14408982373E+04  0.50400001928E-02 0.  1.
    10030    2    1    2    0    0  0.00000000000E+00  0.00000000000E+00  0.37206644626E+03  0.32538629209E+04  0.32325207606E+04 0.  0.
        3    1    3    3  502    0 -0.55393840926E+03  0.15160847547E+04  0.26987094340E+03  0.16365179745E+04  0.10100000352E+00 0. -1.
       -3    1    3    3    0  502  0.55393840926E+03 -0.15160847547E+04  0.10219550286E+03  0.16173449464E+04  0.10100000352E+00 0.  1.
</event>
<event>
 5   0  0.1538349E-06  0.3247310E+04  0.7818609E-02  0.8176433E-01
        2   -1    0    0  501    0  0.00000000000E+00  0.00000000000E+00  0.19694766980E+04  0.19694766980E+04  0.25500000920E-02 0. -1.
       -2   -1    0    0    0  501  0.00000000000E+00  0.00000000000E+00 -0.13385564745E+04  0.13385564745E+04  0.25500000920E-02 0.  1.
    10030    2    1    2    0    0  0.00000000000E+00  0.00000000000E+00  0.63092022350E+03  0.33080331724E+04  0.32473101394E+04 0.  0.
        1    1    3    3  502    0  0.82253882243E+03  0.87156398926E+03 -0.80049803836E+03  0.14411769535E+04  0.50400001928E-02 0.  1.
       -1    1    3    3    0  502 -0.82253882243E+03 -0.87156398926E+03  0.14314182619E+04  0.18668562189E+04  0.50400001928E-02 0. -1.
</event>
<event>
 5   0  0.5317728E-07  0.3026765E+04  0.7818609E-02  0.8236129E-01
        1   -1    0    0  501    0  0.00000000000E+00  0.00000000000E+00  0.16121006371E+04  0.16121006371E+04  0.50400001928E-02 0.  1.
       -1   -1    0    0    0  501  0.00000000000E+00  0.00000000000E+00 -0.14207091463E+04  0.14207091464E+04  0.50400001928E-02 0. -1.
    10030    2    1    2    0    0  0.00000000000E+00  0.00000000000E+00  0.19139149071E+03  0.30328097834E+04  0.30267646885E+04 0.  0.
        2    1    3    3  502    0 -0.38186768098E+03 -0.12063291317E+04 -0.73618719173E+03  0.14639072652E+04  0.25500000920E-02 0. -1.
       -2    1    3    3    0  502  0.38186768098E+03  0.12063291317E+04  0.92757868244E+03  0.15689025183E+04  0.25500000920E-02 0.  1.
</event>
<event>
 5   0  0.5233813E-07  0.3156555E+04  0.7818609E-02  0.8200386E-01
       -1   -1    0    0    0  501  0.00000000000E+00  0.00000000000E+00  0.98760588440E+03  0.98760588441E+03  0.50400001928E-02 0.  1.
        1   -1    0    0  501    0  0.00000000000E+00  0.00000000000E+00 -0.25222211263E+04  0.25222211263E+04  0.50400001928E-02 0. -1.
    10030    2    1    2    0    0  0.00000000000E+00  0.00000000000E+00 -0.15346152419E+04  0.35098270107E+04  0.31565553542E+04 0.  0.
        4    1    3    3  502    0  0.44932309684E+03  0.16085931288E+03  0.90544988540E+03  0.10235272697E+04  0.12699999809E+01 0.  1.
       -4    1    3    3    0  502 -0.44932309684E+03 -0.16085931288E+03 -0.24400651273E+04  0.24862997410E+04  0.12699999809E+01 0. -1.
</event>
<event>
 5   0  0.1508771E-06  0.3227801E+04  0.7818609E-02  0.8181513E-01
       -2   -1    0    0    0  501  0.00000000000E+00  0.00000000000E+00  0.31384080925E+04  0.31384080925E+04  0.25500000920E-02 0. -1.
        2   -1    0    0  501    0  0.00000000000E+00  0.00000000000E+00 -0.82993510945E+03  0.82993510946E+03  0.25500000920E-02 0.  1.
    10030    2    1    2    0    0  0.00000000000E+00  0.00000000000E+00  0.23084729831E+04  0.39683432020E+04  0.32278011486E+04 0.  0.
        4    1    3    3  502    0  0.90214874043E+03  0.60625829973E+03 -0.31247046157E+03  0.11309557366E+04  0.12699999809E+01 0.  1.
       -4    1    3    3    0  502 -0.90214874043E+03 -0.60625829973E+03  0.26209434446E+04  0.28373874654E+04  0.12699999809E+01 0. -1.
</event>
<event>
 5   0  0.1493485E-06  0.3192322E+04  0.7818609E-02  0.8190848E-01
        2   -1    0    0  501    0  0.00000000000E+00  0.00000000000E+00  0.18123334624E+04  0.18123334624E+04  0.25500000920E-02 0.  1.
       -2   -1    0    0    0  501  0.00000000000E+00  0.00000000000E+00 -0.14057732256E+04  0.14057732256E+04  0.25500000920E-02 0. -1.
    10030    2    1    2    0    0  0.00000000000E+00  0.00000000000E+00  0.40656023682E+03  0.32181066881E+04  0.31923219496E+04 0.  0.
        2    1    3    3  502    0 -0.20765598511E+03 -0.83690437515E+01  0.17986362164E+04  0.18106030178E+04  0.25500000920E-02 0.  1.
       -2    1    3    3    0  502  0.20765598511E+03  0.83690437515E+01 -0.13920759796E+04  0.14075036703E+04  0.25500000920E-02 0. -1.
</event>
<event>
 5   0  0.5281187E-07  0.3158040E+04  0.7818609E-02  0.8199988E-01
       -1   -1    0    0    0  501  0.00000000000E+00  0.00000000000E+00  0.16842090059E+04  0.16842090059E+04  0.50400001928E-02 0.  1.
        1   -1    0    0  501    0  0.00000000000E+00  0.00000000000E+00 -0.14804003930E+04  0.14804003930E+04  0.50400001928E-02 0. -1.
    10030    2    1    2    0    0  0.00000000000E+00  0.00000000000E+00  0.20380861287E+03  0.31646093989E+04  0.31580396921E+04 0.  0.
        5    1    3    3  502    0 -0.11714105548E+04 -0.69324485300E+03 -0.70006706565E+03  0.15306557746E+04  0.46999998093E+01 0. -1.
       -5    1    3    3    0  502  0.11714105548E+04  0.69324485300E+03  0.90387567852E+03  0.16339536243E+04  0.46999998093E+01 0.  1.
</event>
<event>
 5   0  0.1572769E-06  0.3199859E+04  0.7818609E-02  0.8188855E-01
       -2   -1    0    0    0  501  0.00000000000E+00  0.00000000000E+00  0.92718039731E+03  0.92718039731E+03  0.25500000920E-02 0.  1.
        2   -1    0    0  501    0  0.00000000000E+00  0.00000000000E+00 -0.27608151851E+04  0.27608151851E+04  0.25500000920E-02 0. -1.
    10030    2    1    2    0    0  0.00000000000E+00  0.00000000000E+00 -0.18336347877E+04  0.36879955824E+04  0.31998585720E+04 0.  0.
        5    1    3    3  502    0  0.14988743027E+04  0.44088849324E+03 -0.51965612175E+03  0.16465331498E+04  0.46999998093E+01 0.  1.
       -5    1    3    3    0  502 -0.14988743027E+04 -0.44088849324E+03 -0.13139786660E+04  0.20414624325E+04  0.46999998093E+01 0. -1.
</event>
<event>
 5   0  0.1493485E-06  0.3193451E+04  0.7818609E-02  0.8190549E-01
        2   -1    0    0  501    0  0.00000000000E+00  0.00000000000E+00  0.17548231075E+04  0.17548231075E+04  0.25500000920E-02 0. -1.
       -2   -1    0    0    0  501  0.00000000000E+00  0.00000000000E+00 -0.14528709830E+04  0.14528709830E+04  0.25500000920E-02 0.  1.
    10030    2    1    2    0    0  0.00000000000E+00  0.00000000000E+00  0.30195212452E+03  0.32076940905E+04  0.31934505308E+04 0.  0.
        2    1    3    3  502    0 -0.97225460422E+03  0.23591725792E+03 -0.10990001905E+04  0.14861821512E+04  0.25500000920E-02 0.  1.
       -2    1    3    3    0  502  0.97225460422E+03 -0.23591725792E+03  0.14009523150E+04  0.17215119392E+04  0.25500000920E-02 0. -1.
</event>
<event>
 5   0  0.1572769E-06  0.3246633E+04  0.7818609E-02  0.8176609E-01
       -2   -1    0    0    0  501  0.00000000000E+00  0.00000000000E+00  0.15469823418E+04  0.15469823418E+04  0.25500000920E-02 0.  1.
        2   -1    0    0  501    0  0.00000000000E+00  0.00000000000E+00 -0.17034173200E+04  0.17034173200E+04  0.25500000920E-02 0. -1.
    10030    2    1    2    0    0  0.00000000000E+00  0.00000000000E+00 -0.15643497820E+03  0.32503996617E+04  0.32466330341E+04 0.  0.
        5    1    3    3  502    0 -0.10768496754E+04  0.10521267064E+03  0.11333350245E+04  0.15668903272E+04  0.46999998093E+01 0.  1.
       -5    1    3    3    0  502  0.10768496754E+04 -0.10521267064E+03 -0.12897700027E+04  0.16835093345E+04  0.46999998093E+01 0. -1.
</event>
<event>
 5   0  0.5177039E-07  0.3216654E+04  0.7818609E-02  0.8184433E-01
       -1   -1    0    0    0  501  0.00000000000E+00  0.00000000000E+00  0.11389901099E+04  0.11389901099E+04  0.50400001928E-02 0. -1.
        1   -1    0    0  501    0  0.00000000000E+00  0.00000000000E+00 -0.22710602049E+04  0.22710602049E+04  0.50400001928E-02 0.  1.
    10030    2    1    2    0    0  0.00000000000E+00  0.00000000000E+00 -0.11320700950E+04  0.34100503148E+04  0.32166536104E+04 0.  0.
        3    1    3    3  502    0  0.41963997393E+03  0.68441772009E+01  0.10799141046E+04  0.11586021897E+04  0.10100000352E+00 0. -1.
       -3    1    3    3    0  502 -0.41963997393E+03 -0.68441772009E+01 -0.22119841996E+04  0.22514481251E+04  0.10100000352E+00 0.  1.
</event>
<event>
 5   0  0.1538349E-06  0.3194346E+04  0.7818609E-02  0.8190312E-01
        2   -1    0    0  501    0  0.00000000000E+00  0.00000000000E+00  0.19362242293E+04  0.19362242293E+04  0.25500000920E-02 0.  1.
       -2   -1    0    0    0  501  0.00000000000E+00  0.00000000000E+00 -0.13174927527E+04  0.13174927527E+04  0.25500000920E-02 0. -1.
    10030    2    1    2    0    0  0.00000000000E+00  0.00000000000E+00  0.61873147653E+03  0.32537169820E+04  0.31943458734E+04 0.  0.
        1    1    3    3  502    0 -0.94510983633E+03 -0.10619498469E+04 -0.43217021047E+03  0.14858469540E+04  0.50400001928E-02 0. -1.
       -1    1    3    3    0  502  0.94510983633E+03  0.10619498469E+04  0.10509016870E+04  0.17678700280E+04  0.50400001928E-02 0.  1.
</event>
<event>
 5   0  0.5177039E-07  0.3184562E+04  0.7818609E-02  0.8192906E-01
       -1   -1    0    0    0  501  0.00000000000E+00  0.00000000000E+00  0.14244673133E+04  0.14244673133E+04  0.50400001928E-02 0.  1.
        1   -1    0    0  501    0  0.00000000000E+00  0.00000000000E+00 -0.17798639385E+04  0.17798639385E+04  0.50400001928E-02 0. -1.
    10030    2    1    2    0    0  0.00000000000E+00  0.00000000000E+00 -0.35539662525E+03  0.32043312518E+04  0.31845615099E+04 0.  0.
        3    1    3    3  502    0 -0.30788212214E+03 -0.11562412223E+04  0.87938188894E+03  0.14849234600E+04  0.10100000352E+00 0.  1.
       -3    1    3    3    0  502  0.30788212214E+03  0.11562412223E+04 -0.12347785142E+04  0.17194077918E+04  0.10100000352E+00 0. -1.
</event>
<event>
 5   0  0.1493485E-06  0.3298931E+04  0.7818609E-02  0.8163167E-01
       -2   -1    0    0    0  501  0.00000000000E+00  0.00000000000E+00  0.11570461620E+04  0.11570461620E+04  0.25500000920E-02 0.  1.
        2   -1    0    0  501    0  0.00000000000E+00  0.00000000000E+00 -0.23514505954E+04  0.23514505954E+04  0.25500000920E-02 0. -1.
    10030    2    1    2    0    0  0.00000000000E+00  0.00000000000E+00 -0.11944044335E+04  0.35084967574E+04  0.32989312733E+04 0.  0.
        2    1    3    3  502    0 -0.27875505741E+03  0.73042551391E+03  0.94747846872E+03  0.12283897029E+04  0.25500000920E-02 0.  1.
       -2    1    3    3    0  502  0.27875505741E+03 -0.73042551391E+03 -0.21418829022E+04  0.22801070545E+04  0.25500000920E-02 0. -1.
</event>
<event>
 5   0  0.1556396E-06  0.3194152E+04  0.7818609E-02  0.8190363E-01
       -2   -1    0    0    0  501  0.00000000000E+00  0.00000000000E+00  0.18433964469E+04  0.18433964469E+04  0.25500000920E-02 0.  1.
        2   -1    0    0  501    0  0.00000000000E+00  0.00000000000E+00 -0.13836699240E+04  0.13836699240E+04  0.25500000920E-02 0. -1.
    10030    2    1    2    0    0  0.00000000000E+00  0.00000000000E+00  0.45972652288E+03  0.32270663709E+04  0.31941522954E+04 0.  0.
        3    1    3    3  502    0  0.15105865659E+03  0.43565890392E+03  0.17746828407E+04  0.18336075353E+04  0.10100000352E+00 0.  1.
       -3    1    3    3    0  502 -0.15105865659E+03 -0.43565890392E+03 -0.13149563178E+04  0.13934588355E+04  0.10100000352E+00 0. -1.
</event>
<event>
 5   0  0.1538349E-06  0.3207372E+04  0.7818609E-02  0.8186873E-01
        2   -1    0    0  501    0  0.00000000000E+00  0.00000000000E+00  0.27354368026E+04  0.27354368026E+04  0.25500000920E-02 0.  1.
       -2   -1    0    0    0  501  0.00000000000E+00  0.00000000000E+00 -0.94018218839E+03  0.94018218840E+03  0.25500000920E-02 0. -1.
    10030    2    1    2    0    0  0.00000000000E+00  0.00000000000E+00  0.17952546142E+04  0.36756189910E+04  0.32073721077E+04 0.  0.
        1    1    3    3  502    0  0.11839085792E+04 -0.77692844920E+03  0.35044333323E+02  0.14165046574E+04  0.50400001928E-02 0. -1.
       -1    1    3    3    0  502 -0.11839085792E+04  0.77692844920E+03  0.17602102809E+04  0.22591143336E+04  0.50400001928E-02 0.  1.
</event>
<event>
 5   0  0.1572769E-06  0.2938724E+04  0.7818609E-02  0.8261448E-01
        2   -1    0    0  501    0  0.00000000000E+00  0.00000000000E+00  0.10327702078E+04  0.10327702078E+04  0.25500000920E-02 0.  1.
       -2   -1    0    0    0  501  0.00000000000E+00  0.00000000000E+00 -0.20905185238E+04  0.20905185238E+04  0.25500000920E-02 0. -1.
    10030    2    1    2    0    0  0.00000000000E+00  0.00000000000E+00 -0.10577483160E+04  0.31232887315E+04  0.29387243832E+04 0.  0.
        5    1    3    3  502    0  0.76884550180E+03 -0.65511153344E+03  0.60524734445E+03  0.11775572024E+04  0.46999998093E+01 0.  1.
       -5    1    3    3    0  502 -0.76884550180E+03  0.65511153344E+03 -0.16629956605E+04  0.19457315292E+04  0.46999998093E+01 0. -1.
</event>
<event>
 5   0  0.5233813E-07  0.3202506E+04  0.7818609E-02  0.8188156E-01
        1   -1    0    0  501    0  0.00000000000E+00  0.00000000000E+00  0.20435319874E+04  0.20435319874E+04  0.50400001928E-02 0.  1.
       -1   -1    0    0    0  501  0.00000000000E+00  0.00000000000E+00 -0.12546956221E+04  0.12546956221E+04  0.50400001928E-02 0. -1.
    10030    2    1    2    0    0  0.00000000000E+00  0.00000000000E+00  0.78883636533E+03  0.32982276096E+04  0.32025056679E+04 0.  0.
        4    1    3    3  502    0 -0.12520452063E+03  0.25014748876E+03 -0.12293358164E+04  0.12607609212E+04  0.12699999809E+01 0. -1.
       -4    1    3    3    0  502  0.12520452063E+03 -0.25014748876E+03  0.20181721817E+04  0.20374666883E+04  0.12699999809E+01 0.  1.
</event>
<event>
 5   0  0.5281187E-07  0.3183650E+04  0.7818609E-02  0.8193149E-01
       -1   -1    0    0    0  501  0.00000000000E+00  0.00000000000E+00  0.98874459299E+03  0.98874459300E+03  0.50400001928E-02 0.  1.
        1   -1    0    0  501    0  0.00000000000E+00  0.00000000000E+00 -0.25627517923E+04  0.25627517923E+04  0.50400001928E-02 0. -1.
    10030    2    1    2    0    0  0.00000000000E+00  0.00000000000E+00 -0.15740071993E+04  0.35514963853E+04  0.31836500925E+04 0.  0.
        5    1    3    3  502    0 -0.30457941820E+03  0.41519621036E+03 -0.24672667335E+04  0.25204332444E+04  0.46999998093E+01 0. -1.
       -5    1    3    3    0  502  0.30457941820E+03 -0.41519621036E+03  0.89325953421E+03  0.10310631409E+04  0.46999998093E+01 0.  1.
</event>
<event>
 5   0  0.1508771E-06  0.3203670E+04  0.7818609E-02  0.8187849E-01
       -2   -1    0    0    0  501  0.00000000000E+00  0.00000000000E+00  0.13294646137E+04  0.13294646137E+04  0.25500000920E-02 0. -1.
        2   -1    0    0  501    0  0.00000000000E+00  0.00000000000E+00 -0.19300066850E+04  0.19300066850E+04  0.25500000920E-02 0.  1.
    10030    2    1    2    0    0  0.00000000000E+00  0.00000000000E+00 -0.60054207131E+03  0.32594712986E+04  0.32036701402E+04 0.  0.
        4    1    3    3  502    0 -0.11766224533E+04  0.97992727076E+03  0.17821414395E+03  0.15415770326E+04  0.12699999809E+01 0. -1.
       -4    1    3    3    0  502  0.11766224533E+04 -0.97992727076E+03 -0.77875621526E+03  0.17178942660E+04  0.12699999809E+01 0.  1.
</event>
<event>
 5   0  0.5233813E-07  0.3191987E+04  0.7818609E-02  0.8190937E-01
        1   -1    0    0  501    0  0.00000000000E+00  0.00000000000E+00  0.14933832935E+04  0.14933832935E+04  0.50400001928E-02 0. -1.
       -1   -1    0    0    0  501  0.00000000000E+00  0.00000000000E+00 -0.17056542127E+04  0.17056542127E+04  0.50400001928E-02 0.  1.
    10030    2    1    2    0    0  0.00000000000E+00  0.00000000000E+00 -0.21227091925E+03  0.31990375062E+04  0.31919871589E+04 0.  0.
        4    1    3    3  502    0  0.61355947330E+02  0.12415746844E+04 -0.11093067058E+04  0.16660838003E+04  0.12699999809E+01 0.  1.
       -4    1    3    3    0  502 -0.61355947330E+02 -0.12415746844E+04  0.89703578652E+03  0.15329537059E+04  0.12699999809E+01 0. -1.
</event>
<event>
 5   0  0.5370912E-07  0.3197034E+04  0.7818609E-02  0.8189601E-01
        1   -1    0    0  501    0  0.00000000000E+00  0.00000000000E+00  0.24695562264E+04  0.24695562264E+04  0.50400001928E-02 0.  1.
       -1   -1    0    0    0  501  0.00000000000E+00  0.00000000000E+00 -0.10347029966E+04  0.10347029966E+04  0.50400001928E-02 0. -1.
    10030    2    1    2    0    0  0.00000000000E+00  0.00000000000E+00  0.14348532298E+04  0.35042592230E+04  0.31970343931E+04 0.  0.
        1    1    3    3  502    0 -0.28035198782E+03  0.98571368695E+03 -0.62726061734E+03  0.12015342658E+04  0.50400001928E-02 0. -1.
       -1    1    3    3    0  502  0.28035198782E+03 -0.98571368695E+03  0.20621138472E+04  0.23027249572E+04  0.50400001928E-02 0.  1.
</event>
<event>
 5   0  0.1538349E-06  0.3165987E+04  0.7818609E-02  0.8197858E-01
        2   -1    0    0  501    0  0.00000000000E+00  0.00000000000E+00  0.20637447428E+04  0.20637447428E+04  0.25500000920E-02 0.  1.
       -2   -1    0    0    0  501  0.00000000000E+00  0.00000000000E+00 -0.12142337246E+04  0.12142337246E+04  0.25500000920E-02 0. -1.
    10030    2    1    2    0    0  0.00000000000E+00  0.00000000000E+00  0.84951101820E+03  0.32779784674E+04  0.31659870282E+04 0.  0.
        1    1    3    3  502    0  0.25465294418E+03 -0.92119975932E+03 -0.88179016722E+03  0.13003887948E+04  0.50400001928E-02 0. -1.
       -1    1    3    3    0  502 -0.25465294418E+03  0.92119975932E+03  0.17313011854E+04  0.19775896726E+04  0.50400001928E-02 0.  1.
</event>
<event>
 5   0  0.5281187E-07  0.3199204E+04  0.7818609E-02  0.8189027E-01
        1   -1    0    0  501    0  0.00000000000E+00  0.00000000000E+00  0.15746300420E+04  0.15746300420E+04  0.50400001928E-02 0.  1.
       -1   -1    0    0    0  501  0.00000000000E+00  0.00000000000E+00 -0.16249700988E+04  0.16249700988E+04  0.50400001928E-02 0. -1.
    10030    2    1    2    0    0  0.00000000000E+00  0.00000000000E+00 -0.50340056763E+02  0.31996001408E+04  0.31992041103E+04 0.  0.
        5    1    3    3  502    0 -0.11804557852E+04  0.61666087372E+02 -0.11029982345E+04  0.16167577934E+04  0.46999998093E+01 0.  1.
       -5    1    3    3    0  502  0.11804557852E+04 -0.61666087372E+02  0.10526581778E+04  0.15828423473E+04  0.46999998093E+01 0. -1.
</event>
<event>
 5   0  0.1508771E-06  0.3291232E+04  0.7818609E-02  0.8165130E-01
       -2   -1    0    0    0  501  0.00000000000E+00  0.00000000000E+00  0.15446401870E+04  0.15446401870E+04  0.25500000920E-02 0.  1.
        2   -1    0    0  501    0  0.00000000000E+00  0.00000000000E+00 -0.17531924114E+04  0.17531924114E+04  0.25500000920E-02 0. -1.
    10030    2    1    2    0    0  0.00000000000E+00  0.00000000000E+00 -0.20855222434E+03  0.32978325984E+04  0.32912316565E+04 0.  0.
        4    1    3    3  502    0  0.30744241610E+03 -0.12776937962E+04  0.88817874209E+03  0.15861542695E+04  0.12699999809E+01 0.  1.
       -4    1    3    3    0  502 -0.30744241610E+03  0.12776937962E+04 -0.10967309664E+04  0.17116783289E+04  0.12699999809E+01 0. -1.
</event>
<event>
 5   0  0.1538349E-06  0.3217201E+04  0.7818609E-02  0.8184289E-01
        2   -1    0    0  501    0  0.00000000000E+00  0.00000000000E+00  0.13849492306E+04  0.13849492306E+04  0.25500000920E-02 0.  1.
       -2   -1    0    0    0  501  0.00000000000E+00  0.00000000000E+00 -0.18683689341E+04  0.18683689341E+04  0.25500000920E-02 0. -1.
    10030    2    1    2    0    0  0.00000000000E+00  0.00000000000E+00 -0.48341970353E+03  0.32533181647E+04  0.32172013414E+04 0.  0.
        1    1    3    3  502    0 -0.16384447193E+03 -0.89506425005E+03 -0.15831047270E+04  0.18259807226E+04  0.50400001928E-02 0. -1.
       -1    1    3    3    0  502  0.16384447193E+03  0.89506425005E+03  0.10996850235E+04  0.14273374421E+04  0.50400001928E-02 0.  1.
</event>
<event>
 5   0  0.1556396E-06  0.3216366E+04  0.7818609E-02  0.8184508E-01
       -2   -1    0    0    0  501  0.00000000000E+00  0.00000000000E+00  0.13254141962E+04  0.13254141962E+04  0.25500000920E-02 0. -1.
        2   -1    0    0  501    0  0.00000000000E+00  0.00000000000E+00 -0.19512789287E+04  0.19512789287E+04  0.25500000920E-02 0.  1.
    10030    2    1    2    0    0  0.00000000000E+00  0.00000000000E+00 -0.62586473250E+03  0.32766931249E+04  0.32163661438E+04 0.  0.
        3    1    3    3  502    0 -0.12764165004E+04 -0.94192505077E+03 -0.58206705899E+03  0.16897526313E+04  0.10100000352E+00 0. -1.
       -3    1    3    3    0  502  0.12764165004E+04  0.94192505077E+03 -0.43797673517E+02  0.15869404936E+04  0.10100000352E+00 0.  1.
</event>
<event>
 5   0  0.1493485E-06  0.3205657E+04  0.7818609E-02  0.8187325E-01
       -2   -1    0    0    0  501  0.00000000000E+00  0.00000000000E+00  0.10415832456E+04  0.10415832456E+04  0.25500000920E-02 0.  1.
        2   -1    0    0  501    0  0.00000000000E+00  0.00000000000E+00 -0.24664950894E+04  0.24664950894E+04  0.25500000920E-02 0. -1.
    10030    2    1    2    0    0  0.00000000000E+00  0.00000000000E+00 -0.14249118438E+04  0.35080783350E+04  0.32056574742E+04 0.  0.
        2    1    3    3  502    0 -0.43330294750E+03  0.87354442214E+03  0.67964945439E+03  0.11885935734E+04  0.25500000920E-02 0.  1.
       -2    1    3    3    0  502  0.43330294750E+03 -0.87354442214E+03 -0.21045612982E+04  0.23194847617E+04  0.25500000920E-02 0. -1.
</event>
<event>
 5   0  0.1538349E-06  0.3158061E+04  0.7818609E-02  0.8199982E-01
        2   -1    0    0  501    0  0.00000000000E+00  0.00000000000E+00  0.23714575294E+04  0.23714575294E+04  0.25500000920E-02 0. -1.
       -2   -1    0    0    0  501  0.00000000000E+00  0.00000000000E+00 -0.10513944974E+04  0.10513944974E+04  0.25500000920E-02 0.  1.
    10030    2    1    2    0    0  0.00000000000E+00  0.00000000000E+00  0.13200630320E+04  0.34228520268E+04  0.31580610489E+04 0.  0.
        1    1    3    3  502    0 -0.55999287611E+03  0.14408269794E+04  0.10091628640E+04  0.18460726128E+04  0.50400001928E-02 0.  1.
       -1    1    3    3    0  502  0.55999287611E+03 -0.14408269794E+04  0.31090016796E+03  0.15767794139E+04  0.50400001928E-02 0. -1.
</event>
<event>
 5   0  0.1556396E-06  0.3489904E+04  0.7818609E-02  0.8116187E-01
       -2   -1    0    0    0  501  0.00000000000E+00  0.00000000000E+00  0.15132876165E+04  0.15132876165E+04  0.25500000920E-02 0.  1.
        2   -1    0    0  501    0  0.00000000000E+00  0.00000000000E+00 -0.20120807396E+04  0.20120807396E+04  0.25500000920E-02 0. -1.
    10030    2    1    2    0    0  0.00000000000E+00  0.00000000000E+00 -0.49879312315E+03  0.35253683561E+04  0.34899036472E+04 0.  0.
        3    1    3    3  502    0 -0.15806836739E+04 -0.17709694154E+03 -0.97427683511E+03  0.18652451757E+04  0.10100000352E+00 0. -1.
       -3    1    3    3    0  502  0.15806836739E+04  0.17709694154E+03  0.47548371195E+03  0.16601231805E+04  0.10100000352E+00 0.  1.
</event>
<event>
 5   0  0.1493485E-06  0.3199912E+04  0.7818609E-02  0.8188841E-01
       -2   -1    0    0    0  501  0.00000000000E+00  0.00000000000E+00  0.15506696241E+04  0.15506696241E+04  0.25500000920E-02 0. -1.
        2   -1    0    0  501    0  0.00000000000E+00  0.00000000000E+00 -0.16508085289E+04  0.16508085289E+04  0.25500000920E-02 0.  1.
    10030    2    1    2    0    0  0.00000000000E+00  0.00000000000E+00 -0.10013890475E+03  0.32014781530E+04  0.31999116494E+04 0.  0.
        2    1    3    3  502    0 -0.48108414868E+03 -0.15657035374E+03  0.14685347394E+04  0.15532387178E+04  0.25500000920E-02 0. -1.
       -2    1    3    3    0  502  0.48108414868E+03  0.15657035374E+03 -0.15686736441E+04  0.16482394352E+04  0.25500000920E-02 0.  1.
</event>
<event>
 5   0  0.5177039E-07  0.3198304E+04  0.7818609E-02  0.8189265E-01
       -1   -1    0    0    0  501  0.00000000000E+00  0.00000000000E+00  0.13358453353E+04  0.13358453353E+04  0.50400001928E-02 0. -1.
        1   -1    0    0  501    0  0.00000000000E+00  0.00000000000E+00 -0.19143587466E+04  0.19143587466E+04  0.50400001928E-02 0.  1.
    10030    2    1    2    0    0  0.00000000000E+00  0.00000000000E+00 -0.57851341134E+03  0.32502040819E+04  0.31983040517E+04 0.  0.
        3    1    3    3  502    0  0.12650525480E+04  0.78881758494E+03  0.29866051750E+03  0.15204569203E+04  0.10100000352E+00 0.  1.
       -3    1    3    3    0  502 -0.12650525480E+04 -0.78881758494E+03 -0.87717392884E+03  0.17297471616E+04  0.10100000352E+00 0. -1.
</event>
<event>
 5   0  0.5370912E-07  0.3227826E+04  0.7818609E-02  0.8181507E-01
       -1   -1    0    0    0  501  0.00000000000E+00  0.00000000000E+00  0.10169148502E+04  0.10169148502E+04  0.50400001928E-02 0.  1.
        1   -1    0    0  501    0  0.00000000000E+00  0.00000000000E+00 -0.25613899363E+04  0.25613899363E+04  0.50400001928E-02 0. -1.
    10030    2    1    2    0    0  0.00000000000E+00  0.00000000000E+00 -0.15444750861E+04  0.35783047865E+04  0.32278261808E+04 0.  0.
        1    1    3    3  502    0 -0.39937449426E+03  0.14768838875E+04 -0.13418682370E+04  0.20350175354E+04  0.50400001928E-02 0. -1.
       -1    1    3    3    0  502  0.39937449426E+03 -0.14768838875E+04 -0.20260684907E+03  0.15432872511E+04  0.50400001928E-02 0.  1.
</event>
<event>
 5   0  0.1493485E-06  0.3198830E+04  0.7818609E-02  0.8189126E-01
       -2   -1    0    0    0  501  0.00000000000E+00  0.00000000000E+00  0.14616721389E+04  0.14616721389E+04  0.25500000920E-02 0.  1.
        2   -1    0    0  501    0  0.00000000000E+00  0.00000000000E+00 -0.17501378685E+04  0.17501378685E+04  0.25500000920E-02 0. -1.
    10030    2    1    2    0    0  0.00000000000E+00  0.00000000000E+00 -0.28846572960E+03  0.32118100074E+04  0.31988296369E+04 0.  0.
        2    1    3    3  502    0  0.81510160831E+03 -0.63770841767E+03 -0.13686340098E+04  0.17158734541E+04  0.25500000920E-02 0. -1.
       -2    1    3    3    0  502 -0.81510160831E+03  0.63770841767E+03  0.10801682802E+04  0.14959365532E+04  0.25500000920E-02 0.  1.
</event>
<event>
 5   0  0.1572769E-06  0.3162738E+04  0.7818609E-02  0.8198728E-01
        2   -1    0    0  501    0  0.00000000000E+00  0.00000000000E+00  0.19127953367E+04  0.19127953367E+04  0.25500000920E-02 0. -1.
       -2   -1    0    0    0  501  0.00000000000E+00  0.00000000000E+00 -0.13073684017E+04  0.13073684018E+04  0.25500000920E-02 0.  1.
    10030    2    1    2    0    0  0.00000000000E+00  0.00000000000E+00  0.60542693492E+03  0.32201637384E+04  0.31627381695E+04 0.  0.
        5    1    3    3  502    0  0.57920492642E+03  0.11610878032E+04  0.12230636022E+04  0.17831180271E+04  0.46999998093E+01 0. -1.
       -5    1    3    3    0  502 -0.57920492642E+03 -0.11610878032E+04 -0.61763666727E+03  0.14370457113E+04  0.46999998093E+01 0.  1.
</event>
<event>
 5   0  0.1572769E-06  0.3209793E+04  0.7818609E-02  0.8186236E-01
       -2   -1    0    0    0  501  0.00000000000E+00  0.00000000000E+00  0.13894088168E+04  0.13894088168E+04  0.25500000920E-02 0.  1.
        2   -1    0    0  501    0  0.00000000000E+00  0.00000000000E+00 -0.18538049612E+04  0.18538049612E+04  0.25500000920E-02 0. -1.
    10030    2    1    2    0    0  0.00000000000E+00  0.00000000000E+00 -0.46439614441E+03  0.32432137781E+04  0.32097931135E+04 0.  0.
        5    1    3    3  502    0  0.96808608973E+03  0.29037147630E+03 -0.14918398065E+04  0.18019751302E+04  0.46999998093E+01 0. -1.
       -5    1    3    3    0  502 -0.96808608973E+03 -0.29037147630E+03  0.10274436621E+04  0.14412386479E+04  0.46999998093E+01 0.  1.
</event>
<event>
 5   0  0.5233813E-07  0.3159319E+04  0.7818609E-02  0.8199644E-01
       -1   -1    0    0    0  501  0.00000000000E+00  0.00000000000E+00  0.13756263397E+04  0.13756263397E+04  0.50400001928E-02 0. -1.
        1   -1    0    0  501    0  0.00000000000E+00  0.00000000000E+00 -0.18139548314E+04  0.18139548315E+04  0.50400001928E-02 0.  1.
    10030    2    1    2    0    0  0.00000000000E+00  0.00000000000E+00 -0.43832849172E+03  0.31895811712E+04  0.31593189426E+04 0.  0.
        4    1    3    3  502    0 -0.14181505905E+04 -0.32224403292E+03  0.40345214080E+03  0.15092274702E+04  0.12699999809E+01 0. -1.
       -4    1    3    3    0  502  0.14181505905E+04  0.32224403292E+03 -0.84178063252E+03  0.16803537010E+04  0.12699999809E+01 0.  1.
</event>
<event>
 5   0  0.5281187E-07  0.3193106E+04  0.7818609E-02  0.8190640E-01
       -1   -1    0    0    0  501  0.00000000000E+00  0.00000000000E+00  0.15103180887E+04  0.15103180887E+04  0.50400001928E-02 0. -1.
        1   -1    0    0  501    0  0.00000000000E+00  0.00000000000E+00 -0.16877119353E+04  0.16877119353E+04  0.50400001928E-02 0.  1.
    10030    2    1    2    0    0  0.00000000000E+00  0.00000000000E+00 -0.17739384662E+03  0.31980300241E+04  0.31931062397E+04 0.  0.
        5    1    3    3  502    0 -0.11964998474E+04 -0.70231825374E+03  0.70251933329E+03  0.15551264637E+04  0.46999998093E+01 0. -1.
       -5    1    3    3    0  502  0.11964998474E+04  0.70231825374E+03 -0.87991317990E+03  0.16429035604E+04  0.46999998093E+01 0.  1.
</event>
<event>
 5   0  0.1538349E-06  0.3232083E+04  0.7818609E-02  0.8180395E-01
       -2   -1    0    0    0  501  0.00000000000E+00  0.00000000000E+00  0.21567051731E+04  0.21567051731E+04  0.25500000920E-02 0. -1.
        2   -1    0    0  501    0  0.00000000000E+00  0.00000000000E+00 -0.12109164259E+04  0.12109164259E+04  0.25500000920E-02 0.  1.
    10030    2    1    2    0    0  0.00000000000E+00  0.00000000000E+00  0.94578874727E+03  0.33676215990E+04  0.32320827464E+04 0.  0.
        1    1    3    3  502    0 -0.51698059271E+03  0.52736075655E+03 -0.10248172286E+04  0.12631819556E+04  0.50400001928E-02 0.  1.
       -1    1    3    3    0  502  0.51698059271E+03 -0.52736075655E+03  0.19706059759E+04  0.21044396435E+04  0.50400001928E-02 0. -1.
</event>
<event>
 5   0  0.1508771E-06  0.3047738E+04  0.7818609E-02  0.8230229E-01
       -2   -1    0    0    0  501  0.00000000000E+00  0.00000000000E+00  0.17249083339E+04  0.17249083339E+04  0.25500000920E-02 0. -1.
        2   -1    0    0  501    0  0.00000000000E+00  0.00000000000E+00 -0.13462607666E+04  0.13462607666E+04  0.25500000920E-02 0.  1.
    10030    2    1    2    0    0  0.00000000000E+00  0.00000000000E+00  0.37864756727E+03  0.30711691005E+04  0.30477377944E+04 0.  0.
        4    1    3    3  502    0 -0.81707664406E+03  0.80226911018E+02  0.14829866063E+04  0.16950815576E+04  0.12699999809E+01 0. -1.
       -4    1    3    3    0  502  0.81707664406E+03 -0.80226911018E+02 -0.11043390391E+04  0.13760875428E+04  0.12699999809E+01 0.  1.
</event>
<event>
 5   0  0.1493485E-06  0.3177565E+04  0.7818609E-02  0.8194767E-01
       -2   -1    0    0    0  501  0.00000000000E+00  0.00000000000E+00  0.15979405126E+04  0.15979405126E+04  0.25500000920E-02 0. -1.
        2   -1    0    0  501    0  0.00000000000E+00  0.00000000000E+00 -0.15796774141E+04  0.15796774141E+04  0.25500000920E-02 0.  1.
    10030    2    1    2    0    0  0.00000000000E+00  0.00000000000E+00  0.18263098501E+02  0.31776179267E+04  0.31775654435E+04 0.  0.
        2    1    3    3  502    0  0.11303222672E+04 -0.99231410658E+03  0.52091614766E+03  0.15917504034E+04  0.25500000920E-02 0. -1.
       -2    1    3    3    0  502 -0.11303222672E+04  0.99231410658E+03 -0.50265304916E+03  0.15858675233E+04  0.25500000920E-02 0.  1.
</event>
<event>
 5   0  0.1493485E-06  0.3169085E+04  0.7818609E-02  0.8197030E-01
       -2   -1    0    0    0  501  0.00000000000E+00  0.00000000000E+00  0.12958310710E+04  0.12958310710E+04  0.25500000920E-02 0.  1.
        2   -1    0    0  501    0  0.00000000000E+00  0.00000000000E+00 -0.19375784563E+04  0.19375784563E+04  0.25500000920E-02 0. -1.
    10030    2    1    2    0    0  0.00000000000E+00  0.00000000000E+00 -0.64174738527E+03  0.32334095273E+04  0.31690846414E+04 0.  0.
        2    1    3    3  502    0 -0.15490451840E+04 -0.16396298372E+03 -0.24548760709E+02  0.15578920000E+04  0.25500000920E-02 0.  1.
       -2    1    3    3    0  502  0.15490451840E+04  0.16396298372E+03 -0.61719862456E+03  0.16755175273E+04  0.25500000920E-02 0. -1.
</event>
<event>
 5   0  0.5317728E-07  0.3181422E+04  0.7818609E-02  0.8193741E-01
       -1   -1    0    0    0  501  0.00000000000E+00  0.00000000000E+00  0.11076391181E+04  0.11076391181E+04  0.50400001928E-02 0.  1.
        1   -1    0    0  501    0  0.00000000000E+00  0.00000000000E+00 -0.22844633910E+04  0.22844633910E+04  0.50400001928E-02 0. -1.
    10030    2    1    2    0    0  0.00000000000E+00  0.00000000000E+00 -0.11768242729E+04  0.33921025091E+04  0.31814217047E+04 0.  0.
        2    1    3    3  502    0 -0.76996394439E+03  0.33359867146E+03  0.85245946743E+03  0.11961687560E+04  0.25500000920E-02 0.  1.
       -2    1    3    3    0  502  0.76996394439E+03 -0.33359867146E+03 -0.20292837403E+04  0.21959337531E+04  0.25500000920E-02 0. -1.
</event>
<event>
 5   0  0.5177039E-07  0.3194428E+04  0.7818609E-02  0.8190290E-01
        1   -1    0    0  501    0  0.00000000000E+00  0.00000000000E+00  0.15256968419E+04  0.15256968419E+04  0.50400001928E-02 0.  1.
       -1   -1    0    0    0  501  0.00000000000E+00  0.00000000000E+00 -0.16720833597E+04  0.16720833597E+04  0.50400001928E-02 0. -1.
    10030    2    1    2    0    0  0.00000000000E+00  0.00000000000E+00 -0.14638651788E+03  0.31977802016E+04  0.31944278369E+04 0.  0.
        3    1    3    3  502    0 -0.12396014852E+04  0.99882166577E+01 -0.10814148952E+04  0.16450440092E+04  0.10100000352E+00 0. -1.
       -3    1    3    3    0  502  0.12396014852E+04 -0.99882166577E+01  0.93502837733E+03  0.15527361924E+04  0.10100000352E+00 0.  1.
</event>
<event>
 5   0  0.1572769E-06  0.3196080E+04  0.7818609E-02  0.8189853E-01
        2   -1    0    0  501    0  0.00000000000E+00  0.00000000000E+00  0.14611299910E+04  0.14611299910E+04  0.25500000920E-02 0.  1.
       -2   -1    0    0    0  501  0.00000000000E+00  0.00000000000E+00 -0.17477781984E+04  0.17477781984E+04  0.25500000920E-02 0. -1.
    10030    2    1    2    0    0  0.00000000000E+00  0.00000000000E+00 -0.28664820736E+03  0.32089081894E+04  0.31960795631E+04 0.  0.
        5    1    3    3  502    0  0.10087434530E+04 -0.78883885905E+03  0.81648319358E+03  0.15187155740E+04  0.46999998093E+01 0.  1.
       -5    1    3    3    0  502 -0.10087434530E+04  0.78883885905E+03 -0.11031314009E+04  0.16901926154E+04  0.46999998093E+01 0. -1.
</event>
<event>
 5   0  0.1538349E-06  0.3197508E+04  0.7818609E-02  0.8189476E-01
        2   -1    0    0  501    0  0.00000000000E+00  0.00000000000E+00  0.21186097340E+04  0.21186097340E+04  0.25500000920E-02 0.  1.
       -2   -1    0    0    0  501  0.00000000000E+00  0.00000000000E+00 -0.12064585112E+04  0.12064585112E+04  0.25500000920E-02 0. -1.
    10030    2    1    2    0    0  0.00000000000E+00  0.00000000000E+00  0.91215122275E+03  0.33250682452E+04  0.31975082459E+04 0.  0.
        1    1    3    3  502    0 -0.40172827270E+03 -0.15084848963E+04  0.97195614305E+02  0.15640841649E+04  0.50400001928E-02 0. -1.
       -1    1    3    3    0  502  0.40172827270E+03  0.15084848963E+04  0.81495560844E+03  0.17609840803E+04  0.50400001928E-02 0.  1.
</event>
<event>
 5   0  0.5233813E-07  0.3123163E+04  0.7818609E-02  0.8209410E-01
       -1   -1    0    0    0  501  0.00000000000E+00  0.00000000000E+00  0.12319698827E+04  0.12319698827E+04  0.50400001928E-02 0. -1.
        1   -1    0    0  501    0  0.00000000000E+00  0.00000000000E+00 -0.19793803556E+04  0.19793803557E+04  0.50400001928E-02 0.  1.
    10030    2    1    2    0    0  0.00000000000E+00  0.00000000000E+00 -0.74741047292E+03  0.32113502384E+04  0.31231631303E+04 0.  0.
        4    1    3    3  502    0 -0.13719905246E+03  0.64156319349E+03 -0.18307959400E+04  0.19447987809E+04  0.12699999809E+01 0.  1.
       -4    1    3    3    0  502  0.13719905246E+03 -0.64156319349E+03  0.10833854671E+04  0.12665514575E+04  0.12699999809E+01 0. -1.
</event>
<event>
 5   0  0.5177039E-07  0.3198353E+04  0.7818609E-02  0.8189252E-01
       -1   -1    0    0    0  501  0.00000000000E+00  0.00000000000E+00  0.17381976955E+04  0.17381976955E+04  0.50400001928E-02 0. -1.
        1   -1    0    0  501    0  0.00000000000E+00  0.00000000000E+00 -0.14712737724E+04  0.14712737725E+04  0.50400001928E-02 0.  1.
    10030    2    1    2    0    0  0.00000000000E+00  0.00000000000E+00  0.26692392308E+03  0.32094714680E+04  0.31983525014E+04 0.  0.
        3    1    3    3  502    0  0.13560372464E+04 -0.28976933616E+03  0.93282490865E+03  0.16712168029E+04  0.10100000352E+00 0. -1.
       -3    1    3    3    0  502 -0.13560372464E+04  0.28976933616E+03 -0.66590098558E+03  0.15382546651E+04  0.10100000352E+00 0.  1.
</event>
<event>
 5   0  0.1572769E-06  0.3189866E+04  0.7818609E-02  0.8191499E-01
       -2   -1    0    0    0  501  0.00000000000E+00  0.00000000000E+00  0.16348157620E+04  0.16348157620E+04  0.25500000920E-02 0.  1.
        2   -1    0    0  501    0  0.00000000000E+00  0.00000000000E+00 -0.15560233138E+04  0.15560233138E+04  0.25500000920E-02 0. -1.
    10030    2    1    2    0    0  0.00000000000E+00  0.00000000000E+00  0.78792448186E+02  0.31908390758E+04  0.31898661034E+04 0.  0.
        5    1    3    3  502    0  0.62493208700E+03  0.95301722681E+03 -0.10767431136E+04  0.15678583388E+04  0.46999998093E+01 0. -1.
       -5    1    3    3    0  502 -0.62493208700E+03 -0.95301722681E+03  0.11555355618E+04  0.16229807370E+04  0.46999998093E+01 0.  1.
</event>
<event>
 5   0  0.1572769E-06  0.3159454E+04  0.7818609E-02  0.8199608E-01
        2   -1    0    0  501    0  0.00000000000E+00  0.00000000000E+00  0.18825304518E+04  0.18825304518E+04  0.25500000920E-02 0.  1.
       -2   -1    0    0    0  501  0.00000000000E+00  0.00000000000E+00 -0.13256293757E+04  0.13256293757E+04  0.25500000920E-02 0. -1.
    10030    2    1    2    0    0  0.00000000000E+00  0.00000000000E+00  0.55690107611E+03  0.32081598274E+04  0.31594541728E+04 0.  0.
        5    1    3    3  502    0  0.12419049406E+04 -0.10039094044E+03 -0.70765855226E+03  0.14329022782E+04  0.46999998093E+01 0. -1.
       -5    1    3    3    0  502 -0.12419049406E+04  0.10039094044E+03  0.12645596284E+04  0.17752575492E+04  0.46999998093E+01 0.  1.
</event>
<event>
 5   0  0.1493485E-06  0.3200201E+04  0.7818609E-02  0.8188764E-01
       -2   -1    0    0    0  501  0.00000000000E+00  0.00000000000E+00  0.16943256774E+04  0.16943256774E+04  0.25500000920E-02 0. -1.
        2   -1    0    0  501    0  0.00000000000E+00  0.00000000000E+00 -0.15111152933E+04  0.15111152933E+04  0.25500000920E-02 0.  1.
    10030    2    1    2    0    0  0.00000000000E+00  0.00000000000E+00  0.18321038410E+03  0.32054409707E+04  0.32002008955E+04 0.  0.
        2    1    3    3  502    0 -0.87536713893E+03 -0.13394071010E+04  0.85080490193E+02  0.16023475591E+04  0.25500000920E-02 0.  1.
       -2    1    3    3    0  502  0.87536713893E+03  0.13394071010E+04  0.98129893912E+02  0.16030934116E+04  0.25500000920E-02 0. -1.
</event>
<event>
 5   0  0.1508771E-06  0.3171968E+04  0.7818609E-02  0.8196260E-01
       -2   -1    0    0    0  501  0.00000000000E+00  0.00000000000E+00  0.14092277631E+04  0.14092277631E+04  0.25500000920E-02 0. -1.
        2   -1    0    0  501    0  0.00000000000E+00  0.00000000000E+00 -0.17849108420E+04  0.17849108420E+04  0.25500000920E-02 0.  1.
    10030    2    1    2    0    0  0.00000000000E+00  0.00000000000E+00 -0.37568307889E+03  0.31941386051E+04  0.31719684192E+04 0.  0.
        4    1    3    3  502    0  0.14166634119E+04 -0.11045484628E+03 -0.89718592563E+03  0.16804998345E+04  0.12699999809E+01 0.  1.
       -4    1    3    3    0  502 -0.14166634119E+04  0.11045484628E+03  0.52150284675E+03  0.15136387706E+04  0.12699999809E+01 0. -1.
</event>
<event>
 5   0  0.5370912E-07  0.3204364E+04  0.7818609E-02  0.8187666E-01
        1   -1    0    0  501    0  0.00000000000E+00  0.00000000000E+00  0.17309853915E+04  0.17309853915E+04  0.50400001928E-02 0.  1.
       -1   -1    0    0    0  501  0.00000000000E+00  0.00000000000E+00 -0.14829631751E+04  0.14829631751E+04  0.50400001928E-02 0. -1.
    10030    2    1    2    0    0  0.00000000000E+00  0.00000000000E+00  0.24802221642E+03  0.32139485667E+04  0.32043642691E+04 0.  0.
        1    1    3    3  502    0  0.90394683949E+03 -0.83800629262E+03 -0.90258003728E+03  0.15277516679E+04  0.50400001928E-02 0. -1.
       -1    1    3    3    0  502 -0.90394683949E+03  0.83800629262E+03  0.11506022537E+04  0.16861968988E+04  0.50400001928E-02 0.  1.
</event>
<event>
 5   0  0.5370912E-07  0.3194399E+04  0.7818609E-02  0.8190298E-01
       -1   -1    0    0    0  501  0.00000000000E+00  0.00000000000E+00  0.15548004988E+04  0.15548004988E+04  0.50400001928E-02 0. -1.
        1   -1    0    0  501    0  0.00000000000E+00  0.00000000000E+00 -0.16407548628E+04  0.16407548629E+04  0.50400001928E-02 0.  1.
    10030    2    1    2    0    0  0.00000000000E+00  0.00000000000E+00 -0.85954364045E+02  0.31955553617E+04  0.31943991480E+04 0.  0.
        1    1    3    3  502    0  0.24272929042E+03 -0.64657435104E+03  0.13977074718E+04  0.15590260026E+04  0.50400001928E-02 0. -1.
       -1    1    3    3    0  502 -0.24272929042E+03  0.64657435104E+03 -0.14836618359E+04  0.16365293591E+04  0.50400001928E-02 0.  1.
</event>
<event>
 5   0  0.5177039E-07  0.3176526E+04  0.7818609E-02  0.8195044E-01
        1   -1    0    0  501    0  0.00000000000E+00  0.00000000000E+00  0.19371470067E+04  0.19371470067E+04  0.50400001928E-02 0.  1.
       -1   -1    0    0    0  501  0.00000000000E+00  0.00000000000E+00 -0.13022140050E+04  0.13022140050E+04  0.50400001928E-02 0. -1.
    10030    2    1    2    0    0  0.00000000000E+00  0.00000000000E+00  0.63493300174E+03  0.32393610117E+04  0.31765263807E+04 0.  0.
        3    1    3    3  502    0  0.15483407921E+04  0.35210022346E+03  0.35346600577E+03  0.16267366116E+04  0.10100000352E+00 0. -1.
       -3    1    3    3    0  502 -0.15483407921E+04 -0.35210022346E+03  0.28146699597E+03  0.16126244002E+04  0.10100000352E+00 0.  1.
</event>
<event>
 5   0  0.1538349E-06  0.3233485E+04  0.7818609E-02  0.8180029E-01
       -2   -1    0    0    0  501  0.00000000000E+00  0.00000000000E+00  0.10460620089E+04  0.10460620089E+04  0.25500000920E-02 0. -1.
        2   -1    0    0  501    0  0.00000000000E+00  0.00000000000E+00 -0.24987583535E+04  0.24987583535E+04  0.25500000920E-02 0.  1.
    10030    2    1    2    0    0  0.00000000000E+00  0.00000000000E+00 -0.14526963446E+04  0.35448203624E+04  0.32334849206E+04 0.  0.
        1    1    3    3  502    0  0.12818846711E+02 -0.89820348048E+03  0.74729772315E+03  0.11684980540E+04  0.50400001928E-02 0. -1.
       -1    1    3    3    0  502 -0.12818846711E+02  0.89820348048E+03 -0.21999940677E+04  0.23763223083E+04  0.50400001928E-02 0.  1.
</event>
<event>
 5   0  0.1493485E-06  0.3223808E+04  0.7818609E-02  0.8182558E-01
       -2   -1    0    0    0  501  0.00000000000E+00  0.00000000000E+00  0.13431353407E+04  0.13431353407E+04  0.25500000920E-02 0. -1.
        2   -1    0    0  501    0  0.00000000000E+00  0.00000000000E+00 -0.19344552019E+04  0.19344552019E+04  0.25500000920E-02 0.  1.
    10030    2    1    2    0    0  0.00000000000E+00  0.00000000000E+00 -0.59131986120E+03  0.32775905426E+04  0.32238083980E+04 0.  0.
        2    1    3    3  502    0  0.89819091045E+03 -0.66561233507E+03 -0.14762595815E+04  0.18517907668E+04  0.25500000920E-02 0.  1.
       -2    1    3    3    0  502 -0.89819091045E+03  0.66561233507E+03  0.88493972027E+03  0.14257997758E+04  0.25500000920E-02 0. -1.
</event>
<event>
 5   0  0.5233813E-07  0.3201680E+04  0.7818609E-02  0.8188374E-01
       -1   -1    0    0    0  501  0.00000000000E+00  0.00000000000E+00  0.12531533811E+04  0.12531533811E+04  0.50400001928E-02 0. -1.
        1   -1    0    0  501    0  0.00000000000E+00  0.00000000000E+00 -0.20449924371E+04  0.20449924371E+04  0.50400001928E-02 0.  1.
    10030    2    1    2    0    0  0.00000000000E+00  0.00000000000E+00 -0.79183905600E+03  0.32981458183E+04  0.32016803007E+04 0.  0.
        4    1    3    3  502    0 -0.11247260435E+04 -0.87063098611E+03  0.36084416367E+03  0.14673844453E+04  0.12699999809E+01 0. -1.
       -4    1    3    3    0  502  0.11247260435E+04  0.87063098611E+03 -0.11526832197E+04  0.18307613730E+04  0.12699999809E+01 0.  1.
</event>
<event>
 5   0  0.5281187E-07  0.3189845E+04  0.7818609E-02  0.8191504E-01
        1   -1    0    0  501    0  0.00000000000E+00  0.00000000000E+00  0.10213104474E+04  0.10213104474E+04  0.50400001928E-02 0. -1.
       -1   -1    0    0    0  501  0.00000000000E+00  0.00000000000E+00 -0.24906999824E+04  0.24906999824E+04  0.50400001928E-02 0.  1.
    10030    2    1    2    0    0  0.00000000000E+00  0.00000000000E+00 -0.14693895350E+04  0.35120104298E+04  0.31898450830E+04 0.  0.
        5    1    3    3  502    0  0.47955029457E+03 -0.15204370005E+04 -0.78464978532E+03  0.17769058876E+04  0.46999998093E+01 0. -1.
       -5    1    3    3    0  502 -0.47955029457E+03  0.15204370005E+04 -0.68473974972E+03  0.17351045422E+04  0.46999998093E+01 0.  1.
</event>
<event>
 5   0  0.1538349E-06  0.3194321E+04  0.7818609E-02  0.8190318E-01
       -2   -1    0    0    0  501  0.00000000000E+00  0.00000000000E+00  0.12228815529E+04  0.12228815529E+04  0.25500000920E-02 0.  1.
        2   -1    0    0  501    0  0.00000000000E+00  0.00000000000E+00 -0.20859928829E+04  0.20859928829E+04  0.25500000920E-02 0. -1.
    10030    2    1    2    0    0  0.00000000000E+00  0.00000000000E+00 -0.86311132998E+03  0.33088744359E+04  0.31943213465E+04 0.  0.
        1    1    3    3  502    0  0.80633192500E+03 -0.99424799175E+03 -0.14209101980E+04  0.19125077865E+04  0.50400001928E-02 0. -1.
       -1    1    3    3    0  502 -0.80633192500E+03  0.99424799175E+03  0.55779886805E+03  0.13963666494E+04  0.50400001928E-02 0.  1.
</event>
<event>
 5   0  0.5177039E-07  0.3296590E+04  0.7818609E-02  0.8163764E-01
       -1   -1    0    0    0  501  0.00000000000E+00  0.00000000000E+00  0.10305382435E+04  0.10305382435E+04  0.50400001928E-02 0.  1.
        1   -1    0    0  501    0  0.00000000000E+00  0.00000000000E+00 -0.26363664370E+04  0.26363664370E+04  0.50400001928E-02 0. -1.
    10030    2    1    2    0    0  0.00000000000E+00  0.00000000000E+00 -0.16058281935E+04  0.36669046805E+04  0.32965900183E+04 0.  0.
        3    1    3    3  502    0 -0.27175031749E+03 -0.34710826722E+03  0.96375031403E+03  0.10597863286E+04  0.10100000352E+00 0.  1.
       -3    1    3    3    0  502  0.27175031749E+03  0.34710826722E+03 -0.25695785076E+04  0.26071183519E+04  0.10100000352E+00 0. -1.
</event>
<event>
 5   0  0.1493485E-06  0.3229815E+04  0.7818609E-02  0.8180987E-01
       -2   -1    0    0    0  501  0.00000000000E+00  0.00000000000E+00  0.14048912622E+04  0.14048912622E+04  0.25500000920E-02 0.  1.
        2   -1    0    0  501    0  0.00000000000E+00  0.00000000000E+00 -0.18563190451E+04  0.18563190451E+04  0.25500000920E-02 0. -1.
    10030    2    1    2    0    0  0.00000000000E+00  0.00000000000E+00 -0.45142778295E+03  0.32612103073E+04  0.32298151070E+04 0.  0.
        2    1    3    3  502    0 -0.12886403333E+04 -0.48229173367E+03 -0.10793470847E+04  0.17487679532E+04  0.25500000920E-02 0. -1.
       -2    1    3    3    0  502  0.12886403333E+04  0.48229173367E+03  0.62791930175E+03  0.15124423541E+04  0.25500000920E-02 0.  1.
</event>
<event>
 5   0  0.1493485E-06  0.3267960E+04  0.7818609E-02  0.8171096E-01
        2   -1    0    0  501    0  0.00000000000E+00  0.00000000000E+00  0.16460683268E+04  0.16460683268E+04  0.25500000920E-02 0.  1.
       -2   -1    0    0    0  501  0.00000000000E+00  0.00000000000E+00 -0.16219802536E+04  0.16219802536E+04  0.25500000920E-02 0. -1.
    10030    2    1    2    0    0  0.00000000000E+00  0.00000000000E+00  0.24088073258E+02  0.32680485804E+04  0.32679598053E+04 0.  0.
        2    1    3    3  502    0  0.14859230128E+04 -0.50294741426E+03  0.46918556212E+03  0.16373937807E+04  0.25500000920E-02 0. -1.
       -2    1    3    3    0  502 -0.14859230128E+04  0.50294741426E+03 -0.44509748886E+03  0.16306547997E+04  0.25500000920E-02 0.  1.
</event>
<event>
 5   0  0.1508771E-06  0.3143887E+04  0.7818609E-02  0.8203796E-01
        2   -1    0    0  501    0  0.00000000000E+00  0.00000000000E+00  0.12828147842E+04  0.12828147842E+04  0.25500000920E-02 0. -1.
       -2   -1    0    0    0  501  0.00000000000E+00  0.00000000000E+00 -0.19262380873E+04  0.19262380873E+04  0.25500000920E-02 0.  1.
    10030    2    1    2    0    0  0.00000000000E+00  0.00000000000E+00 -0.64342330309E+03  0.32090528714E+04  0.31438872093E+04 0.  0.
        4    1    3    3  502    0  0.50227323659E+03  0.74097198403E+03 -0.16406590461E+04  0.18689787596E+04  0.12699999809E+01 0.  1.
       -4    1    3    3    0  502 -0.50227323659E+03 -0.74097198403E+03  0.99723574298E+03  0.13400741119E+04  0.12699999809E+01 0. -1.
</event>
<event>
 5   0  0.1556396E-06  0.3210436E+04  0.7818609E-02  0.8186066E-01
        2   -1    0    0  501    0  0.00000000000E+00  0.00000000000E+00  0.16723259905E+04  0.16723259905E+04  0.25500000920E-02 0. -1.
       -2   -1    0    0    0  501  0.00000000000E+00  0.00000000000E+00 -0.15408030993E+04  0.15408030993E+04  0.25500000920E-02 0.  1.
    10030    2    1    2    0    0  0.00000000000E+00  0.00000000000E+00  0.13152289121E+03  0.32131290898E+04  0.32104361505E+04 0.  0.
        3    1    3    3  502    0 -0.13544750284E+04 -0.68725907925E+03 -0.45409451578E+03  0.15852853005E+04  0.10100000352E+00 0.  1.
       -3    1    3    3    0  502  0.13544750284E+04  0.68725907925E+03  0.58561740699E+03  0.16278437893E+04  0.10100000352E+00 0. -1.
</event>
<event>
 5   0  0.1538349E-06  0.3199289E+04  0.7818609E-02  0.8189005E-01
        2   -1    0    0  501    0  0.00000000000E+00  0.00000000000E+00  0.19102929849E+04  0.19102929849E+04  0.25500000920E-02 0.  1.
       -2   -1    0    0    0  501  0.00000000000E+00  0.00000000000E+00 -0.13395133099E+04  0.13395133100E+04  0.25500000920E-02 0. -1.
    10030    2    1    2    0    0  0.00000000000E+00  0.00000000000E+00  0.57077967499E+03  0.32498062949E+04  0.31992892206E+04 0.  0.
        1    1    3    3  502    0 -0.53751974849E+03 -0.59473131431E+03  0.16915273602E+04  0.18718700880E+04  0.50400001928E-02 0.  1.
       -1    1    3    3    0  502  0.53751974849E+03  0.59473131431E+03 -0.11207476852E+04  0.13779362068E+04  0.50400001928E-02 0. -1.
</event>
<event>
 5   0  0.1572769E-06  0.3159267E+04  0.7818609E-02  0.8199658E-01
        2   -1    0    0  501    0  0.00000000000E+00  0.00000000000E+00  0.23227898005E+04  0.23227898005E+04  0.25500000920E-02 0. -1.
       -2   -1    0    0    0  501  0.00000000000E+00  0.00000000000E+00 -0.10742435877E+04  0.10742435877E+04  0.25500000920E-02 0.  1.
    10030    2    1    2    0    0  0.00000000000E+00  0.00000000000E+00  0.12485462128E+04  0.33970333882E+04  0.31592670345E+04 0.  0.
        5    1    3    3  502    0 -0.11903237242E+04 -0.31113474333E+03  0.16895646761E+04  0.20900541337E+04  0.46999998093E+01 0. -1.
       -5    1    3    3    0  502  0.11903237242E+04  0.31113474333E+03 -0.44101846332E+03  0.13069792546E+04  0.46999998093E+01 0.  1.
</event>
<event>
 5   0  0.5233813E-07  0.3190084E+04  0.7818609E-02  0.8191441E-01
        1   -1    0    0  501    0  0.00000000000E+00  0.00000000000E+00  0.21607038859E+04  0.21607038859E+04  0.50400001928E-02 0.  1.
       -1   -1    0    0    0  501  0.00000000000E+00  0.00000000000E+00 -0.11774673225E+04  0.11774673225E+04  0.50400001928E-02 0. -1.
    10030    2    1    2    0    0  0.00000000000E+00  0.00000000000E+00  0.98323656336E+03  0.33381712084E+04  0.31900835220E+04 0.  0.
        4    1    3    3  502    0 -0.13751604434E+04  0.36042892236E+02 -0.35319517567E+03  0.14202513088E+04  0.12699999809E+01 0. -1.
       -4    1    3    3    0  502  0.13751604434E+04 -0.36042892236E+02  0.13364317390E+04  0.19179198996E+04  0.12699999809E+01 0.  1.
</event>
<event>
 5   0  0.5281187E-07  0.3196731E+04  0.7818609E-02  0.8189681E-01
       -1   -1    0    0    0  501  0.00000000000E+00  0.00000000000E+00  0.24627444842E+04  0.24627444842E+04  0.50400001928E-02 0. -1.
        1   -1    0    0  501    0  0.00000000000E+00  0.00000000000E+00 -0.10373677000E+04  0.10373677000E+04  0.50400001928E-02 0.  1.
    10030    2    1    2    0    0  0.00000000000E+00  0.00000000000E+00  0.14253767843E+04  0.35001121842E+04  0.31967305681E+04 0.  0.
        5    1    3    3  502    0 -0.69579482619E+03  0.12505029662E+04 -0.66819528522E+02  0.14326112690E+04  0.46999998093E+01 0. -1.
       -5    1    3    3    0  502  0.69579482619E+03 -0.12505029662E+04  0.14921963128E+04  0.20675009152E+04  0.46999998093E+01 0.  1.
</event>
<event>
 5   0  0.1508771E-06  0.3186185E+04  0.7818609E-02  0.8192475E-01
       -2   -1    0    0    0  501  0.00000000000E+00  0.00000000000E+00  0.14001526649E+04  0.14001526649E+04  0.25500000920E-02 0.  1.
        2   -1    0    0  501    0  0.00000000000E+00  0.00000000000E+00 -0.18126189973E+04  0.18126189973E+04  0.25500000920E-02 0. -1.
    10030    2    1    2    0    0  0.00000000000E+00  0.00000000000E+00 -0.41246633240E+03  0.32127716622E+04  0.31861847527E+04 0.  0.
        4    1    3    3  502    0 -0.58548905362E+03  0.35712480898E+03  0.12436827347E+04  0.14202407960E+04  0.12699999809E+01 0.  1.
       -4    1    3    3    0  502  0.58548905362E+03 -0.35712480898E+03 -0.16561490671E+04  0.17925308662E+04  0.12699999809E+01 0. -1.
</event>
<event>
 5   0  0.1493485E-06  0.3195188E+04  0.7818609E-02  0.8190089E-01
       -2   -1    0    0    0  501  0.00000000000E+00  0.00000000000E+00  0.10415994254E+04  0.10415994254E+04  0.25500000920E-02 0.  1.
        2   -1    0    0  501    0  0.00000000000E+00  0.00000000000E+00 -0.24503724429E+04  0.24503724429E+04  0.25500000920E-02 0. -1.
    10030    2    1    2    0    0  0.00000000000E+00  0.00000000000E+00 -0.14087730174E+04  0.34919718683E+04  0.31951879623E+04 0.  0.
        2    1    3    3  502    0 -0.66438053203E+03 -0.12233588150E+04  0.15218566705E+03  0.14004173516E+04  0.25500000920E-02 0.  1.
       -2    1    3    3    0  502  0.66438053203E+03  0.12233588150E+04 -0.15609586845E+04  0.20915545167E+04  0.25500000920E-02 0. -1.
</event>
<event>
 5   0  0.5281187E-07  0.3212815E+04  0.7818609E-02  0.8185441E-01
       -1   -1    0    0    0  501  0.00000000000E+00  0.00000000000E+00  0.31609392816E+04  0.31609392816E+04  0.50400001928E-02 0.  1.
        1   -1    0    0  501    0  0.00000000000E+00  0.00000000000E+00 -0.81638526493E+03  0.81638526494E+03  0.50400001928E-02 0. -1.
    10030    2    1    2    0    0  0.00000000000E+00  0.00000000000E+00  0.23445540167E+04  0.39773245465E+04  0.32128145000E+04 0.  0.
        5    1    3    3  502    0 -0.11624173013E+04  0.75283321016E+03  0.16461515177E+03  0.13946655738E+04  0.46999998093E+01 0. -1.
       -5    1    3    3    0  502  0.11624173013E+04 -0.75283321016E+03  0.21799388649E+04  0.25826589727E+04  0.46999998093E+01 0.  1.
</event>
<event>
 5   0  0.5233813E-07  0.3199943E+04  0.7818609E-02  0.8188832E-01
        1   -1    0    0  501    0  0.00000000000E+00  0.00000000000E+00  0.27551635680E+04  0.27551635680E+04  0.50400001928E-02 0.  1.
       -1   -1    0    0    0  501  0.00000000000E+00  0.00000000000E+00 -0.92913144740E+03  0.92913144741E+03  0.50400001928E-02 0. -1.
    10030    2    1    2    0    0  0.00000000000E+00  0.00000000000E+00  0.18260321206E+04  0.36842950154E+04  0.31999431956E+04 0.  0.
        4    1    3    3  502    0  0.11927490718E+04  0.85062317802E+03  0.17246756275E+03  0.14751124745E+04  0.12699999809E+01 0. -1.
       -4    1    3    3    0  502 -0.11927490718E+04 -0.85062317802E+03  0.16535645578E+04  0.22091825409E+04  0.12699999809E+01 0.  1.
</event>
<event>
 5   0  0.1572769E-06  0.3204036E+04  0.7818609E-02  0.8187752E-01
       -2   -1    0    0    0  501  0.00000000000E+00  0.00000000000E+00  0.10347773560E+04  0.10347773560E+04  0.25500000920E-02 0. -1.
        2   -1    0    0  501    0  0.00000000000E+00  0.00000000000E+00 -0.24802072641E+04  0.24802072641E+04  0.25500000920E-02 0.  1.
    10030    2    1    2    0    0  0.00000000000E+00  0.00000000000E+00 -0.14454299082E+04  0.35149846201E+04  0.32040364012E+04 0.  0.
        5    1    3    3  502    0  0.14060263314E+04  0.38421330970E+03 -0.14519928595E+04  0.20573855414E+04  0.46999998093E+01 0.  1.
       -5    1    3    3    0  502 -0.14060263314E+04 -0.38421330970E+03  0.65629513114E+01  0.14575990787E+04  0.46999998093E+01 0. -1.
</event>
<event>
 5   0  0.5317728E-07  0.3149471E+04  0.7818609E-02  0.8202291E-01
        1   -1    0    0  501    0  0.00000000000E+00  0.00000000000E+00  0.15841985803E+04  0.15841985803E+04  0.50400001928E-02 0.  1.
       -1   -1    0    0    0  501  0.00000000000E+00  0.00000000000E+00 -0.15653285496E+04  0.15653285496E+04  0.50400001928E-02 0. -1.
    10030    2    1    2    0    0  0.00000000000E+00  0.00000000000E+00  0.18870030699E+02  0.31495271300E+04  0.31494706006E+04 0.  0.
        2    1    3    3  502    0  0.12904830513E+04  0.39031310408E+03  0.82314516604E+03  0.15796388161E+04  0.25500000920E-02 0.  1.
       -2    1    3    3    0  502 -0.12904830513E+04 -0.39031310408E+03 -0.80427513534E+03  0.15698883139E+04  0.25500000920E-02 0. -1.
</event>
<event>
 5   0  0.5177039E-07  0.3198173E+04  0.7818609E-02  0.8189300E-01
       -1   -1    0    0    0  501  0.00000000000E+00  0.00000000000E+00  0.15204407986E+04  0.15204407986E+04  0.50400001928E-02 0. -1.
        1   -1    0    0  501    0  0.00000000000E+00  0.00000000000E+00 -0.16817998855E+04  0.16817998855E+04  0.50400001928E-02 0.  1.
    10030    2    1    2    0    0  0.00000000000E+00  0.00000000000E+00 -0.16135908695E+03  0.32022406841E+04  0.31981727039E+04 0.  0.
        3    1    3    3  502    0 -0.90727187637E+03  0.16881622724E+03  0.12269049704E+04  0.15352319020E+04  0.10100000352E+00 0. -1.
       -3    1    3    3    0  502  0.90727187637E+03 -0.16881622724E+03 -0.13882640574E+04  0.16670087821E+04  0.10100000352E+00 0.  1.
</event>
<event>
 5   0  0.5370912E-07  0.3215825E+04  0.7818609E-02  0.8184650E-01
        1   -1    0    0  501    0  0.00000000000E+00  0.00000000000E+00  0.12387216218E+04  0.12387216218E+04  0.50400001928E-02 0. -1.
       -1   -1    0    0    0  501  0.00000000000E+00  0.00000000000E+00 -0.20871381635E+04  0.20871381635E+04  0.50400001928E-02 0.  1.
    10030    2    1    2    0    0  0.00000000000E+00  0.00000000000E+00 -0.84841654173E+03  0.33258597853E+04  0.32158253503E+04 0.  0.
        1    1    3    3  502    0 -0.14481392951E+03  0.72355275297E+03  0.10532682560E+04  0.12860302017E+04  0.50400001928E-02 0. -1.
       -1    1    3    3    0  502  0.14481392951E+03 -0.72355275297E+03 -0.19016847977E+04  0.20398295837E+04  0.50400001928E-02 0.  1.
</event>
<event>
 5   0  0.1538349E-06  0.3203601E+04  0.7818609E-02  0.8187867E-01
       -2   -1    0    0    0  501  0.00000000000E+00  0.00000000000E+00  0.10590067861E+04  0.10590067861E+04  0.25500000920E-02 0.  1.
        2   -1    0    0  501    0  0.00000000000E+00  0.00000000000E+00 -0.24228030759E+04  0.24228030759E+04  0.25500000920E-02 0. -1.
    10030    2    1    2    0    0  0.00000000000E+00  0.00000000000E+00 -0.13637962898E+04  0.34818098621E+04  0.32036010356E+04 0.  0.
        1    1    3    3  502    0 -0.15344669476E+04  0.17065903971E+03 -0.21816957930E+03  0.15592662654E+04  0.50400001928E-02 0.  1.
       -1    1    3    3    0  502  0.15344669476E+04 -0.17065903971E+03 -0.11456267105E+04  0.19225435966E+04  0.50400001928E-02 0. -1.
</event>
<event>
 5   0  0.1556396E-06  0.3219856E+04  0.7818609E-02  0.8183593E-01
       -2   -1    0    0    0  501  0.00000000000E+00  0.00000000000E+00  0.16957481115E+04  0.16957481115E+04  0.25500000920E-02 0.  1.
        2   -1    0    0  501    0  0.00000000000E+00  0.00000000000E+00 -0.15284507507E+04  0.15284507507E+04  0.25500000920E-02 0. -1.
    10030    2    1    2    0    0  0.00000000000E+00  0.00000000000E+00  0.16729736072E+03  0.32241988622E+04  0.32198555707E+04 0.  0.
        3    1    3    3  502    0 -0.14836558725E+04 -0.62034940883E+03  0.73926450663E+01  0.16081426549E+04  0.10100000352E+00 0. -1.
       -3    1    3    3    0  502  0.14836558725E+04  0.62034940883E+03  0.15990471565E+03  0.16160562073E+04  0.10100000352E+00 0.  1.
</event>
<event>
 5   0  0.1572769E-06  0.3200022E+04  0.7818609E-02  0.8188811E-01
        2   -1    0    0  501    0  0.00000000000E+00  0.00000000000E+00  0.19071503539E+04  0.19071503539E+04  0.25500000920E-02 0. -1.
       -2   -1    0    0    0  501  0.00000000000E+00  0.00000000000E+00 -0.13423348931E+04  0.13423348931E+04  0.25500000920E-02 0.  1.
    10030    2    1    2    0    0  0.00000000000E+00  0.00000000000E+00  0.56481546076E+03  0.32494852470E+04  0.32000215415E+04 0.  0.
        5    1    3    3  502    0  0.69536062981E+03 -0.11772361504E+04  0.11262771995E+04  0.17714214008E+04  0.46999998093E+01 0. -1.
       -5    1    3    3    0  502 -0.69536062981E+03  0.11772361504E+04 -0.56146173870E+03  0.14780638462E+04  0.46999998093E+01 0.  1.
</event>
<event>
 5   0  0.1508771E-06  0.3173788E+04  0.7818609E-02  0.8195774E-01
       -2   -1    0    0    0  501  0.00000000000E+00  0.00000000000E+00  0.17937565528E+04  0.17937565528E+04  0.25500000920E-02 0. -1.
        2   -1    0    0  501    0  0.00000000000E+00  0.00000000000E+00 -0.14038877057E+04  0.14038877057E+04  0.25500000920E-02 0.  1.
    10030    2    1    2    0    0  0.00000000000E+00  0.00000000000E+00  0.38986884707E+03  0.31976442586E+04  0.31737881288E+04 0.  0.
        4    1    3    3  502    0  0.68645177131E+03 -0.24954744437E+02 -0.12463399691E+04  0.14230965199E+04  0.12699999809E+01 0.  1.
       -4    1    3    3    0  502 -0.68645177131E+03  0.24954744437E+02  0.16362088162E+04  0.17745477386E+04  0.12699999809E+01 0. -1.
</event>
<event>
 5   0  0.1538349E-06  0.3148502E+04  0.7818609E-02  0.8202552E-01
        2   -1    0    0  501    0  0.00000000000E+00  0.00000000000E+00  0.28312822220E+04  0.28312822220E+04  0.25500000920E-02 0. -1.
       -2   -1    0    0    0  501  0.00000000000E+00  0.00000000000E+00 -0.87531605970E+03  0.87531605970E+03  0.25500000920E-02 0.  1.
    10030    2    1    2    0    0  0.00000000000E+00  0.00000000000E+00  0.19559661623E+04  0.37065982817E+04  0.31485023732E+04 0.  0.
        1    1    3    3  502    0 -0.86970943004E+03  0.24237177602E+03  0.24962018726E+04  0.26544608415E+04  0.50400001928E-02 0. -1.
       -1    1    3    3    0  502  0.86970943004E+03 -0.24237177602E+03 -0.54023571022E+03  0.10521374402E+04  0.50400001928E-02 0.  1.
</event>
<event>
 5   0  0.5317728E-07  0.2988390E+04  0.7818609E-02  0.8247054E-01
       -1   -1    0    0    0  501  0.00000000000E+00  0.00000000000E+00  0.10392939247E+04  0.10392939247E+04  0.50400001928E-02 0.  1.
        1   -1    0    0  501    0  0.00000000000E+00  0.00000000000E+00 -0.21482070835E+04  0.21482070835E+04  0.50400001928E-02 0. -1.
    10030    2    1    2    0    0  0.00000000000E+00  0.00000000000E+00 -0.11089131587E+04  0.31875010082E+04  0.29883899149E+04 0.  0.
        2    1    3    3  502    0 -0.18067335277E+03 -0.13393728167E+04 -0.12341391368E+04  0.18302081334E+04  0.25500000920E-02 0. -1.
       -2    1    3    3    0  502  0.18067335277E+03  0.13393728167E+04  0.12522597803E+03  0.13572928748E+04  0.25500000920E-02 0.  1.
</event>
<event>
 5   0  0.5177039E-07  0.3199979E+04  0.7818609E-02  0.8188823E-01
       -1   -1    0    0    0  501  0.00000000000E+00  0.00000000000E+00  0.10333904707E+04  0.10333904707E+04  0.50400001928E-02 0.  1.
        1   -1    0    0  501    0  0.00000000000E+00  0.00000000000E+00 -0.24772502836E+04  0.24772502836E+04  0.50400001928E-02 0. -1.
    10030    2    1    2    0    0  0.00000000000E+00  0.00000000000E+00 -0.14438598129E+04  0.35106407543E+04  0.31999792728E+04 0.  0.
        3    1    3    3  502    0 -0.19304379323E+03  0.70233103298E+03 -0.22848129568E+04  0.23981044689E+04  0.10100000352E+00 0. -1.
       -3    1    3    3    0  502  0.19304379323E+03 -0.70233103298E+03  0.84095314388E+03  0.11125362854E+04  0.10100000352E+00 0.  1.
</event>
<event>
 5   0  0.1556396E-06  0.3093513E+04  0.7818609E-02  0.8217520E-01
        2   -1    0    0  501    0  0.00000000000E+00  0.00000000000E+00  0.14190853557E+04  0.14190853557E+04  0.25500000920E-02 0.  1.
       -2   -1    0    0    0  501  0.00000000000E+00  0.00000000000E+00 -0.16859143692E+04  0.16859143692E+04  0.25500000920E-02 0. -1.
    10030    2    1    2    0    0  0.00000000000E+00  0.00000000000E+00 -0.26682901346E+03  0.31049997249E+04  0.30935134668E+04 0.  0.
        3    1    3    3  502    0 -0.17146393325E+03 -0.15333117232E+04 -0.23409844931E+02  0.15430465813E+04  0.10100000352E+00 0.  1.
       -3    1    3    3    0  502  0.17146393325E+03  0.15333117232E+04 -0.24341916853E+03  0.15619531436E+04  0.10100000352E+00 0. -1.
</event>
<event>
 5   0  0.1556396E-06  0.3203103E+04  0.7818609E-02  0.8187998E-01
        2   -1    0    0  501    0  0.00000000000E+00  0.00000000000E+00  0.20293119710E+04  0.20293119710E+04  0.25500000920E-02 0.  1.
       -2   -1    0    0    0  501  0.00000000000E+00  0.00000000000E+00 -0.12639588256E+04  0.12639588256E+04  0.25500000920E-02 0. -1.
    10030    2    1    2    0    0  0.00000000000E+00  0.00000000000E+00  0.76535314545E+03  0.32932707966E+04  0.32031027305E+04 0.  0.
        3    1    3    3  502    0  0.57023433945E+03  0.95764912204E+02 -0.11528955275E+04  0.12897698353E+04  0.10100000352E+00 0. -1.
       -3    1    3    3    0  502 -0.57023433945E+03 -0.95764912204E+02  0.19182486730E+04  0.20035009613E+04  0.10100000352E+00 0.  1.
</event>
<event>
 5   0  0.5233813E-07  0.3209733E+04  0.7818609E-02  0.8186251E-01
       -1   -1    0    0    0  501  0.00000000000E+00  0.00000000000E+00  0.22644263790E+04  0.22644263790E+04  0.50400001928E-02 0.  1.
        1   -1    0    0  501    0  0.00000000000E+00  0.00000000000E+00 -0.11374166617E+04  0.11374166617E+04  0.50400001928E-02 0. -1.
    10030    2    1    2    0    0  0.00000000000E+00  0.00000000000E+00  0.11270097173E+04  0.34018430408E+04  0.32097328816E+04 0.  0.
        4    1    3    3  502    0 -0.47922768736E+03  0.95808241591E+03  0.18300233946E+04  0.21205113369E+04  0.12699999809E+01 0.  1.
       -4    1    3    3    0  502  0.47922768736E+03 -0.95808241591E+03 -0.70301367734E+03  0.12813317039E+04  0.12699999809E+01 0. -1.
</event>
<event>
 5   0  0.5370912E-07  0.3197024E+04  0.7818609E-02  0.8189604E-01
       -1   -1    0    0    0  501  0.00000000000E+00  0.00000000000E+00  0.82658507639E+03  0.82658507640E+03  0.50400001928E-02 0. -1.
        1   -1    0    0  501    0  0.00000000000E+00  0.00000000000E+00 -0.30913222232E+04  0.30913222232E+04  0.50400001928E-02 0.  1.
    10030    2    1    2    0    0  0.00000000000E+00  0.00000000000E+00 -0.22647371468E+04  0.39179072996E+04  0.31970241263E+04 0.  0.
        1    1    3    3  502    0  0.10234018299E+04  0.71690578471E+03 -0.23541326932E+04  0.26651915404E+04  0.50400001928E-02 0.  1.
       -1    1    3    3    0  502 -0.10234018299E+04 -0.71690578471E+03  0.89395546433E+02  0.12527157592E+04  0.50400001928E-02 0. -1.
</event>
<event>
 5   0  0.1572769E-06  0.3526298E+04  0.7818609E-02  0.8107586E-01
        2   -1    0    0  501    0  0.00000000000E+00  0.00000000000E+00  0.15562850383E+04  0.15562850383E+04  0.25500000920E-02 0. -1.
       -2   -1    0    0    0  501  0.00000000000E+00  0.00000000000E+00 -0.19975101661E+04  0.19975101661E+04  0.25500000920E-02 0.  1.
    10030    2    1    2    0    0  0.00000000000E+00  0.00000000000E+00 -0.44122512783E+03  0.35537952044E+04  0.35262984476E+04 0.  0.
        5    1    3    3  502    0 -0.75194571565E+03 -0.30320650036E+03 -0.17984891438E+04  0.19728005048E+04  0.46999998093E+01 0.  1.
       -5    1    3    3    0  502  0.75194571565E+03  0.30320650036E+03  0.13572640160E+04  0.15809946996E+04  0.46999998093E+01 0. -1.
</event>
<event>
 5   0  0.5233813E-07  0.3195400E+04  0.7818609E-02  0.8190033E-01
       -1   -1    0    0    0  501  0.00000000000E+00  0.00000000000E+00  0.24354823101E+04  0.24354823102E+04  0.50400001928E-02 0. -1.
        1   -1    0    0  501    0  0.00000000000E+00  0.00000000000E+00 -0.10481069357E+04  0.10481069358E+04  0.50400001928E-02 0.  1.
    10030    2    1    2    0    0  0.00000000000E+00  0.00000000000E+00  0.13873753744E+04  0.34835892459E+04  0.31954003825E+04 0.  0.
        4    1    3    3  502    0 -0.84266606258E+03 -0.12470957483E+04  0.12780434402E+04  0.19745203332E+04  0.12699999809E+01 0. -1.
       -4    1    3    3    0  502  0.84266606258E+03  0.12470957483E+04  0.10933193425E+03  0.15090689127E+04  0.12699999809E+01 0.  1.
</event>
<event>
 5   0  0.5370912E-07  0.3167644E+04  0.7818609E-02  0.8197415E-01
       -1   -1    0    0    0  501  0.00000000000E+00  0.00000000000E+00  0.11704514964E+04  0.11704514964E+04  0.50400001928E-02 0.  1.
        1   -1    0    0  501    0  0.00000000000E+00  0.00000000000E+00 -0.21431828240E+04  0.21431828240E+04  0.50400001928E-02 0. -1.
    10030    2    1    2    0    0  0.00000000000E+00  0.00000000000E+00 -0.97273132754E+03  0.33136343204E+04  0.31676436311E+04 0.  0.
        1    1    3    3  502    0 -0.58898232059E+03  0.19547627975E+03 -0.20107067828E+04  0.21042939235E+04  0.50400001928E-02 0. -1.
       -1    1    3    3    0  502  0.58898232059E+03 -0.19547627975E+03  0.10379754553E+04  0.12093403969E+04  0.50400001928E-02 0.  1.
</event>
<event>
 5   0  0.1508771E-06  0.3190049E+04  0.7818609E-02  0.8191450E-01
        2   -1    0    0  501    0  0.00000000000E+00  0.00000000000E+00  0.18043864440E+04  0.18043864440E+04  0.25500000920E-02 0.  1.
       -2   -1    0    0    0  501  0.00000000000E+00  0.00000000000E+00 -0.14099542654E+04  0.14099542654E+04  0.25500000920E-02 0. -1.
    10030    2    1    2    0    0  0.00000000000E+00  0.00000000000E+00  0.39443217857E+03  0.32143407094E+04  0.31900485032E+04 0.  0.
        4    1    3    3  502    0 -0.32575873179E+03  0.74380358388E+03  0.15805280815E+04  0.17769167544E+04  0.12699999809E+01 0.  1.
       -4    1    3    3    0  502  0.32575873179E+03 -0.74380358388E+03 -0.11860959029E+04  0.14374239551E+04  0.12699999809E+01 0. -1.
</event>
<event>
 5   0  0.5177039E-07  0.3181982E+04  0.7818609E-02  0.8193592E-01
       -1   -1    0    0    0  501  0.00000000000E+00  0.00000000000E+00  0.11059369778E+04  0.11059369778E+04  0.50400001928E-02 0.  1.
        1   -1    0    0  501    0  0.00000000000E+00  0.00000000000E+00 -0.22887859703E+04  0.22887859703E+04  0.50400001928E-02 0. -1.
    10030    2    1    2    0    0  0.00000000000E+00  0.00000000000E+00 -0.11828489925E+04  0.33947229481E+04  0.31819824254E+04 0.  0.
        3    1    3    3  502    0 -0.16016608288E+03  0.46583765650E+03  0.10225291022E+04  0.11349994147E+04  0.10100000352E+00 0.  1.
       -3    1    3    3    0  502  0.16016608288E+03 -0.46583765650E+03 -0.22053780947E+04  0.22597235334E+04  0.10100000352E+00 0. -1.
</event>
<event>
 5   0  0.5370912E-07  0.3200575E+04  0.7818609E-02  0.8188665E-01
        1   -1    0    0  501    0  0.00000000000E+00  0.00000000000E+00  0.12459610312E+04  0.12459610312E+04  0.50400001928E-02 0. -1.
       -1   -1    0    0    0  501  0.00000000000E+00  0.00000000000E+00 -0.20553773884E+04  0.20553773884E+04  0.50400001928E-02 0.  1.
    10030    2    1    2    0    0  0.00000000000E+00  0.00000000000E+00 -0.80941635718E+03  0.33013384196E+04  0.32005750298E+04 0.  0.
        1    1    3    3  502    0 -0.11846628152E+04 -0.32263637793E+03  0.65395710663E+03  0.13911075140E+04  0.50400001928E-02 0. -1.
       -1    1    3    3    0  502  0.11846628152E+04  0.32263637793E+03 -0.14633734638E+04  0.19102309056E+04  0.50400001928E-02 0.  1.
</event>
<event>
 5   0  0.5370912E-07  0.3225414E+04  0.7818609E-02  0.8182138E-01
        1   -1    0    0  501    0  0.00000000000E+00  0.00000000000E+00  0.17708948481E+04  0.17708948481E+04  0.50400001928E-02 0. -1.
       -1   -1    0    0    0  501  0.00000000000E+00  0.00000000000E+00 -0.14686493044E+04  0.14686493044E+04  0.50400001928E-02 0.  1.
    10030    2    1    2    0    0  0.00000000000E+00  0.00000000000E+00  0.30224554363E+03  0.32395441525E+04  0.32254137638E+04 0.  0.
        1    1    3    3  502    0 -0.41644758327E+03  0.14886138629E+04 -0.31069991803E+03  0.15766845789E+04  0.50400001928E-02 0.  1.
       -1    1    3    3    0  502  0.41644758327E+03 -0.14886138629E+04  0.61294546166E+03  0.16628595736E+04  0.50400001928E-02 0. -1.
</event>
<event>
 5   0  0.5281187E-07  0.3192639E+04  0.7818609E-02  0.8190764E-01
       -1   -1    0    0    0  501  0.00000000000E+00  0.00000000000E+00  0.32287527999E+04  0.32287527999E+04  0.50400001928E-02 0.  1.
        1   -1    0    0  501    0  0.00000000000E+00  0.00000000000E+00 -0.78923231181E+03  0.78923231182E+03  0.50400001928E-02 0. -1.
    10030    2    1    2    0    0  0.00000000000E+00  0.00000000000E+00  0.24395204881E+04  0.40179851117E+04  0.31926390567E+04 0.  0.
        5    1    3    3  502    0  0.10450443398E+04  0.62487622661E+03 -0.79394549654E+02  0.12202104553E+04  0.46999998093E+01 0. -1.
       -5    1    3    3    0  502 -0.10450443398E+04 -0.62487622661E+03  0.25189150377E+04  0.27977746564E+04  0.46999998093E+01 0.  1.
</event>
<event>
 5   0  0.5281187E-07  0.3197450E+04  0.7818609E-02  0.8189491E-01
        1   -1    0    0  501    0  0.00000000000E+00  0.00000000000E+00  0.22165665464E+04  0.22165665465E+04  0.50400001928E-02 0.  1.
       -1   -1    0    0    0  501  0.00000000000E+00  0.00000000000E+00 -0.11530996924E+04  0.11530996924E+04  0.50400001928E-02 0. -1.
    10030    2    1    2    0    0  0.00000000000E+00  0.00000000000E+00  0.10634668541E+04  0.33696662388E+04  0.31974503611E+04 0.  0.
        5    1    3    3  502    0 -0.59829473319E+03  0.14628046872E+04  0.27761105868E+03  0.16046320857E+04  0.46999998093E+01 0. -1.
       -5    1    3    3    0  502  0.59829473319E+03 -0.14628046872E+04  0.78585579539E+03  0.17650341531E+04  0.46999998093E+01 0.  1.
</event>
<event>
 5   0  0.5317728E-07  0.3239108E+04  0.7818609E-02  0.8178564E-01
       -1   -1    0    0    0  501  0.00000000000E+00  0.00000000000E+00  0.23769510090E+04  0.23769510090E+04  0.50400001928E-02 0. -1.
        1   -1    0    0  501    0  0.00000000000E+00  0.00000000000E+00 -0.11034959196E+04  0.11034959196E+04  0.50400001928E-02 0.  1.
    10030    2    1    2    0    0  0.00000000000E+00  0.00000000000E+00  0.12734550895E+04  0.34804469286E+04  0.32391083585E+04 0.  0.
        2    1    3    3  502    0  0.76342332721E+03 -0.19944179366E+03  0.21564490303E+04  0.22962718972E+04  0.25500000920E-02 0. -1.
       -2    1    3    3    0  502 -0.76342332721E+03  0.19944179366E+03 -0.88299394080E+03  0.11841750314E+04  0.25500000920E-02 0.  1.
</event>
<event>
 5   0  0.5317728E-07  0.3185235E+04  0.7818609E-02  0.8192727E-01
        1   -1    0    0  501    0  0.00000000000E+00  0.00000000000E+00  0.14490808104E+04  0.14490808104E+04  0.50400001928E-02 0.  1.
       -1   -1    0    0    0  501  0.00000000000E+00  0.00000000000E+00 -0.17503723191E+04  0.17503723191E+04  0.50400001928E-02 0. -1.
    10030    2    1    2    0    0  0.00000000000E+00  0.00000000000E+00 -0.30129150874E+03  0.31994531295E+04  0.31852352746E+04 0.  0.
        2    1    3    3  502    0  0.75704396471E+03 -0.67540653467E+03 -0.13837824842E+04  0.17158506681E+04  0.25500000920E-02 0. -1.
       -2    1    3    3    0  502 -0.75704396471E+03  0.67540653467E+03  0.10824909754E+04  0.14836024614E+04  0.25500000920E-02 0.  1.
</event>
<event>
 5   0  0.5317728E-07  0.3201072E+04  0.7818609E-02  0.8188534E-01
       -1   -1    0    0    0  501  0.00000000000E+00  0.00000000000E+00  0.12811155151E+04  0.12811155151E+04  0.50400001928E-02 0.  1.
        1   -1    0    0  501    0  0.00000000000E+00  0.00000000000E+00 -0.19995978264E+04  0.19995978264E+04  0.50400001928E-02 0. -1.
    10030    2    1    2    0    0  0.00000000000E+00  0.00000000000E+00 -0.71848231133E+03  0.32807133415E+04  0.32010721950E+04 0.  0.
        2    1    3    3  502    0  0.98756602087E+03  0.29626869115E+03  0.89541148978E+03  0.13655854126E+04  0.25500000920E-02 0.  1.
       -2    1    3    3    0  502 -0.98756602087E+03 -0.29626869115E+03 -0.16138938011E+04  0.19151279289E+04  0.25500000920E-02 0. -1.
</event>
<event>
 5   0  0.1572769E-06  0.3195048E+04  0.7818609E-02  0.8190126E-01
        2   -1    0    0  501    0  0.00000000000E+00  0.00000000000E+00  0.21611019043E+04  0.21611019043E+04  0.25500000920E-02 0.  1.
       -2   -1    0    0    0  501  0.00000000000E+00  0.00000000000E+00 -0.11809172417E+04  0.11809172417E+04  0.25500000920E-02 0. -1.
    10030    2    1    2    0    0  0.00000000000E+00  0.00000000000E+00  0.98018466255E+03  0.33420191460E+04  0.31950477304E+04 0.  0.
        5    1    3    3  502    0 -0.44701303976E+03 -0.13723530774E+04 -0.22615922517E+03  0.14609393252E+04  0.46999998093E+01 0. -1.
       -5    1    3    3    0  502  0.44701303976E+03  0.13723530774E+04  0.12063438877E+04  0.18810798208E+04  0.46999998093E+01 0.  1.
</event>
<event>
 5   0  0.5370912E-07  0.3185331E+04  0.7818609E-02  0.8192702E-01
       -1   -1    0    0    0  501  0.00000000000E+00  0.00000000000E+00  0.11847553024E+04  0.11847553024E+04  0.50400001928E-02 0. -1.
        1   -1    0    0  501    0  0.00000000000E+00  0.00000000000E+00 -0.21410190309E+04  0.21410190309E+04  0.50400001928E-02 0.  1.
    10030    2    1    2    0    0  0.00000000000E+00  0.00000000000E+00 -0.95626372848E+03  0.33257743333E+04  0.31853311598E+04 0.  0.
        1    1    3    3  502    0  0.75493549877E+03  0.10474547268E+04 -0.14517118586E+04  0.19428217449E+04  0.50400001928E-02 0. -1.
       -1    1    3    3    0  502 -0.75493549877E+03 -0.10474547268E+04  0.49544813013E+03  0.13829525884E+04  0.50400001928E-02 0.  1.
</event>
<event>
 5   0  0.4995625E-07  0.3189968E+04  0.7818609E-02  0.8191472E-01
        3   -1    0    0  501    0  0.00000000000E+00  0.00000000000E+00  0.29549539206E+04  0.29549539223E+04  0.10100000352E+00 0. -1.
       -3   -1    0    0    0  501  0.00000000000E+00  0.00000000000E+00 -0.86091832318E+03  0.86091832910E+03  0.10100000352E+00 0.  1.
    10030    2    1    2    0    0  0.00000000000E+00  0.00000000000E+00  0.20940355974E+04  0.38158722514E+04  0.31899680180E+04 0.  0.
        1    1    3    3  502    0 -0.72620381357E+03  0.91232644532E+03 -0.25474387413E+03  0.11935685833E+04  0.50400001928E-02 0.  1.
       -1    1    3    3    0  502  0.72620381357E+03 -0.91232644532E+03  0.23487794715E+04  0.26223036681E+04  0.50400001928E-02 0. -1.
</event>
<event>
 5   0  0.1556396E-06  0.3189756E+04  0.7818609E-02  0.8191528E-01
        2   -1    0    0  501    0  0.00000000000E+00  0.00000000000E+00  0.11294615975E+04  0.11294615975E+04  0.25500000920E-02 0. -1.
       -2   -1    0    0    0  501  0.00000000000E+00  0.00000000000E+00 -0.22520778966E+04  0.22520778966E+04  0.25500000920E-02 0.  1.
    10030    2    1    2    0    0  0.00000000000E+00  0.00000000000E+00 -0.11226162992E+04  0.33815394941E+04  0.31897557893E+04 0.  0.
        3    1    3    3  502    0  0.90209366169E+03 -0.47153121797E+03 -0.18629415666E+04  0.21228909428E+04  0.10100000352E+00 0.  1.
       -3    1    3    3    0  502 -0.90209366169E+03  0.47153121797E+03  0.74032526746E+03  0.12586485514E+04  0.10100000352E+00 0. -1.
</event>
<event>
 5   0  0.5233813E-07  0.3216184E+04  0.7818609E-02  0.8184556E-01
       -1   -1    0    0    0  501  0.00000000000E+00  0.00000000000E+00  0.14663602642E+04  0.14663602642E+04  0.50400001928E-02 0.  1.
        1   -1    0    0  501    0  0.00000000000E+00  0.00000000000E+00 -0.17635225539E+04  0.17635225539E+04  0.50400001928E-02 0. -1.
    10030    2    1    2    0    0  0.00000000000E+00  0.00000000000E+00 -0.29716228970E+03  0.32298828180E+04  0.32161836999E+04 0.  0.
        4    1    3    3  502    0  0.78279032581E+03 -0.15414122232E+03  0.12535885806E+04  0.14859361201E+04  0.12699999809E+01 0.  1.
       -4    1    3    3    0  502 -0.78279032581E+03  0.15414122232E+03 -0.15507508703E+04  0.17439466980E+04  0.12699999809E+01 0. -1.
</event>
<event>
 5   0  0.1508771E-06  0.3186829E+04  0.7818609E-02  0.8192304E-01
        2   -1    0    0  501    0  0.00000000000E+00  0.00000000000E+00  0.13235323384E+04  0.13235323384E+04  0.25500000920E-02 0.  1.
       -2   -1    0    0    0  501  0.00000000000E+00  0.00000000000E+00 -0.19183280281E+04  0.19183280281E+04  0.25500000920E-02 0. -1.
    10030    2    1    2    0    0  0.00000000000E+00  0.00000000000E+00 -0.59479568972E+03  0.32418603666E+04  0.31868286311E+04 0.  0.
        4    1    3    3  502    0  0.33234993106E+03  0.10746142234E+04  0.85068119470E+03  0.14102880251E+04  0.12699999809E+01 0.  1.
       -4    1    3    3    0  502 -0.33234993106E+03 -0.10746142234E+04 -0.14454768844E+04  0.18315723415E+04  0.12699999809E+01 0. -1.
</event>
<event>
 5   0  0.1538349E-06  0.3177564E+04  0.7818609E-02  0.8194768E-01
        2   -1    0    0  501    0  0.00000000000E+00  0.00000000000E+00  0.15078042040E+04  0.15078042040E+04  0.25500000920E-02 0. -1.
       -2   -1    0    0    0  501  0.00000000000E+00  0.00000000000E+00 -0.16741085809E+04  0.16741085809E+04  0.25500000920E-02 0.  1.
    10030    2    1    2    0    0  0.00000000000E+00  0.00000000000E+00 -0.16630437692E+03  0.31819127849E+04  0.31775638192E+04 0.  0.
        1    1    3    3  502    0  0.36824276402E+03 -0.20653569425E+03  0.14505994971E+04  0.15107940387E+04  0.50400001928E-02 0. -1.
       -1    1    3    3    0  502 -0.36824276402E+03  0.20653569425E+03 -0.16169038740E+04  0.16711187463E+04  0.50400001928E-02 0.  1.
</event>
<event>
 5   0  0.5177039E-07  0.3216692E+04  0.7818609E-02  0.8184423E-01
        1   -1    0    0  501    0  0.00000000000E+00  0.00000000000E+00  0.14703765398E+04  0.14703765398E+04  0.50400001928E-02 0.  1.
       -1   -1    0    0    0  501  0.00000000000E+00  0.00000000000E+00 -0.17592616876E+04  0.17592616876E+04  0.50400001928E-02 0. -1.
    10030    2    1    2    0    0  0.00000000000E+00  0.00000000000E+00 -0.28888514781E+03  0.32296382275E+04  0.32166921599E+04 0.  0.
        3    1    3    3  502    0  0.32275685850E+03 -0.78190757764E+03  0.12289903615E+04  0.14919680857E+04  0.10100000352E+00 0.  1.
       -3    1    3    3    0  502 -0.32275685850E+03  0.78190757764E+03 -0.15178755093E+04  0.17376701418E+04  0.10100000352E+00 0. -1.
</event>
<event>
 5   0  0.1556396E-06  0.3205435E+04  0.7818609E-02  0.8187383E-01
        2   -1    0    0  501    0  0.00000000000E+00  0.00000000000E+00  0.21710480759E+04  0.21710480759E+04  0.25500000920E-02 0. -1.
       -2   -1    0    0    0  501  0.00000000000E+00  0.00000000000E+00 -0.11831630467E+04  0.11831630467E+04  0.25500000920E-02 0.  1.
    10030    2    1    2    0    0  0.00000000000E+00  0.00000000000E+00  0.98788502916E+03  0.33542111226E+04  0.32054352941E+04 0.  0.
        3    1    3    3  502    0  0.42787359769E+03  0.28314702366E+03 -0.10949033934E+04  0.12091573527E+04  0.10100000352E+00 0.  1.
       -3    1    3    3    0  502 -0.42787359769E+03 -0.28314702366E+03  0.20827884225E+04  0.21450537699E+04  0.10100000352E+00 0. -1.
</event>
<event>
 5   0  0.5233813E-07  0.3205242E+04  0.7818609E-02  0.8187434E-01
        1   -1    0    0  501    0  0.00000000000E+00  0.00000000000E+00  0.21772911422E+04  0.21772911422E+04  0.50400001928E-02 0. -1.
       -1   -1    0    0    0  501  0.00000000000E+00  0.00000000000E+00 -0.11796282501E+04  0.11796282501E+04  0.50400001928E-02 0.  1.
    10030    2    1    2    0    0  0.00000000000E+00  0.00000000000E+00  0.99766289203E+03  0.33569193923E+04  0.32052420440E+04 0.  0.
        4    1    3    3  502    0 -0.47170877092E+03  0.71662634322E+03  0.19165235931E+04  0.20997920793E+04  0.12699999809E+01 0. -1.
       -4    1    3    3    0  502  0.47170877092E+03 -0.71662634322E+03 -0.91886070106E+03  0.12571273131E+04  0.12699999809E+01 0.  1.
</event>
<event>
 5   0  0.1493485E-06  0.3197642E+04  0.7818609E-02  0.8189440E-01
        2   -1    0    0  501    0  0.00000000000E+00  0.00000000000E+00  0.23558155415E+04  0.23558155415E+04  0.25500000920E-02 0.  1.
       -2   -1    0    0    0  501  0.00000000000E+00  0.00000000000E+00 -0.10850718148E+04  0.10850718148E+04  0.25500000920E-02 0. -1.
    10030    2    1    2    0    0  0.00000000000E+00  0.00000000000E+00  0.12707437267E+04  0.34408873563E+04  0.31976422845E+04 0.  0.
        2    1    3    3  502    0 -0.12632338282E+04  0.48332492800E+03 -0.28204741147E+03  0.13816343341E+04  0.25500000920E-02 0. -1.
       -2    1    3    3    0  502  0.12632338282E+04 -0.48332492800E+03  0.15527911382E+04  0.20592530222E+04  0.25500000920E-02 0.  1.
</event>
<event>
 5   0  0.5233813E-07  0.3364961E+04  0.7818609E-02  0.8146560E-01
        1   -1    0    0  501    0  0.00000000000E+00  0.00000000000E+00  0.23069917575E+04  0.23069917575E+04  0.50400001928E-02 0. -1.
       -1   -1    0    0    0  501  0.00000000000E+00  0.00000000000E+00 -0.12270269525E+04  0.12270269525E+04  0.50400001928E-02 0.  1.
    10030    2    1    2    0    0  0.00000000000E+00  0.00000000000E+00  0.10799648050E+04  0.35340187100E+04  0.33649612573E+04 0.  0.
        4    1    3    3  502    0  0.91100115719E+03 -0.12204893853E+04  0.12909021851E+04  0.19964837871E+04  0.12699999809E+01 0.  1.
       -4    1    3    3    0  502 -0.91100115719E+03  0.12204893853E+04 -0.21093738009E+03  0.15375349229E+04  0.12699999809E+01 0. -1.
</event>
<event>
 5   0  0.5233813E-07  0.3200924E+04  0.7818609E-02  0.8188573E-01
        1   -1    0    0  501    0  0.00000000000E+00  0.00000000000E+00  0.17413076248E+04  0.17413076248E+04  0.50400001928E-02 0.  1.
       -1   -1    0    0    0  501  0.00000000000E+00  0.00000000000E+00 -0.14710090261E+04  0.14710090261E+04  0.50400001928E-02 0. -1.
    10030    2    1    2    0    0  0.00000000000E+00  0.00000000000E+00  0.27029859876E+03  0.32123166509E+04  0.32009243873E+04 0.  0.
        4    1    3    3  502    0 -0.53361667385E+03  0.13733847115E+04  0.76230971808E+03  0.16589303902E+04  0.12699999809E+01 0.  1.
       -4    1    3    3    0  502  0.53361667385E+03 -0.13733847115E+04 -0.49201111932E+03  0.15533862607E+04  0.12699999809E+01 0. -1.
</event>
<event>
 5   0  0.5317728E-07  0.3203157E+04  0.7818609E-02  0.8187984E-01
        1   -1    0    0  501    0  0.00000000000E+00  0.00000000000E+00  0.18730868155E+04  0.18730868155E+04  0.50400001928E-02 0.  1.
       -1   -1    0    0    0  501  0.00000000000E+00  0.00000000000E+00 -0.13694256267E+04  0.13694256267E+04  0.50400001928E-02 0. -1.
    10030    2    1    2    0    0  0.00000000000E+00  0.00000000000E+00  0.50366118882E+03  0.32425124423E+04  0.32031566220E+04 0.  0.
        2    1    3    3  502    0 -0.47128077293E+03 -0.10930810536E+04 -0.83283875830E+03  0.14527739515E+04  0.25500000920E-02 0. -1.
       -2    1    3    3    0  502  0.47128077293E+03  0.10930810536E+04  0.13364999471E+04  0.17897384908E+04  0.25500000920E-02 0.  1.
</event>
<event>
 5   0  0.1493485E-06  0.3172931E+04  0.7818609E-02  0.8196003E-01
       -2   -1    0    0    0  501  0.00000000000E+00  0.00000000000E+00  0.14314498539E+04  0.14314498539E+04  0.25500000920E-02 0.  1.
        2   -1    0    0  501    0  0.00000000000E+00  0.00000000000E+00 -0.17582683086E+04  0.17582683086E+04  0.25500000920E-02 0. -1.
    10030    2    1    2    0    0  0.00000000000E+00  0.00000000000E+00 -0.32681845476E+03  0.31897181625E+04  0.31729310824E+04 0.  0.
        2    1    3    3  502    0 -0.23141155754E+03  0.78923186068E+03  0.12003945082E+04  0.14551237797E+04  0.25500000920E-02 0.  1.
       -2    1    3    3    0  502  0.23141155754E+03 -0.78923186068E+03 -0.15272129629E+04  0.17345943829E+04  0.25500000920E-02 0. -1.
</event>
<event>
 5   0  0.1538349E-06  0.3202191E+04  0.7818609E-02  0.8188239E-01
       -2   -1    0    0    0  501  0.00000000000E+00  0.00000000000E+00  0.11669611511E+04  0.11669611511E+04  0.25500000920E-02 0.  1.
        2   -1    0    0  501    0  0.00000000000E+00  0.00000000000E+00 -0.21967370413E+04  0.21967370413E+04  0.25500000920E-02 0. -1.
    10030    2    1    2    0    0  0.00000000000E+00  0.00000000000E+00 -0.10297758903E+04  0.33636981924E+04  0.32021909914E+04 0.  0.
        1    1    3    3  502    0 -0.71218597482E+03 -0.13262480895E+04 -0.10877023534E+04  0.18572127684E+04  0.50400001928E-02 0. -1.
       -1    1    3    3    0  502  0.71218597482E+03  0.13262480895E+04  0.57926463171E+02  0.15064854240E+04  0.50400001928E-02 0.  1.
</event>
<event>
 5   0  0.1572769E-06  0.3198850E+04  0.7818609E-02  0.8189121E-01
       -2   -1    0    0    0  501  0.00000000000E+00  0.00000000000E+00  0.13399106624E+04  0.13399106624E+04  0.25500000920E-02 0. -1.
        2   -1    0    0  501    0  0.00000000000E+00  0.00000000000E+00 -0.19092025790E+04  0.19092025790E+04  0.25500000920E-02 0.  1.
    10030    2    1    2    0    0  0.00000000000E+00  0.00000000000E+00 -0.56929191656E+03  0.32491132414E+04  0.31988503512E+04 0.  0.
        5    1    3    3  502    0  0.34508195420E+03  0.14873463728E+04 -0.76842604502E+03  0.17093219312E+04  0.46999998093E+01 0. -1.
       -5    1    3    3    0  502 -0.34508195420E+03 -0.14873463728E+04  0.19913412846E+03  0.15397913102E+04  0.46999998093E+01 0.  1.
</event>
<event>
 5   0  0.1538349E-06  0.3183087E+04  0.7818609E-02  0.8193298E-01
        2   -1    0    0  501    0  0.00000000000E+00  0.00000000000E+00  0.11120573900E+04  0.11120573900E+04  0.25500000920E-02 0. -1.
       -2   -1    0    0    0  501  0.00000000000E+00  0.00000000000E+00 -0.22777698533E+04  0.22777698533E+04  0.25500000920E-02 0.  1.
    10030    2    1    2    0    0  0.00000000000E+00  0.00000000000E+00 -0.11657124633E+04  0.33898272433E+04  0.31830870538E+04 0.  0.
        1    1    3    3  502    0 -0.12422528716E+04  0.49755654697E+03  0.33464347138E+03  0.13793987703E+04  0.50400001928E-02 0. -1.
       -1    1    3    3    0  502  0.12422528716E+04 -0.49755654697E+03 -0.15003559347E+04  0.20104284730E+04  0.50400001928E-02 0.  1.
</event>
<event>
 5   0  0.5370912E-07  0.3209616E+04  0.7818609E-02  0.8186282E-01
       -1   -1    0    0    0  501  0.00000000000E+00  0.00000000000E+00  0.90361947053E+03  0.90361947055E+03  0.50400001928E-02 0. -1.
        1   -1    0    0  501    0  0.00000000000E+00  0.00000000000E+00 -0.28501028910E+04  0.28501028910E+04  0.50400001928E-02 0.  1.
    10030    2    1    2    0    0  0.00000000000E+00  0.00000000000E+00 -0.19464834204E+04  0.37537223615E+04  0.32096158433E+04 0.  0.
        1    1    3    3  502    0  0.15959018575E+04  0.50028917378E+02 -0.11618320461E+04  0.19746542317E+04  0.50400001928E-02 0. -1.
       -1    1    3    3    0  502 -0.15959018575E+04 -0.50028917378E+02 -0.78465137435E+03  0.17790681298E+04  0.50400001928E-02 0.  1.
</event>
<event>
 5   0  0.1572769E-06  0.3195246E+04  0.7818609E-02  0.8190074E-01
       -2   -1    0    0    0  501  0.00000000000E+00  0.00000000000E+00  0.15414811735E+04  0.15414811736E+04  0.25500000920E-02 0.  1.
        2   -1    0    0  501    0  0.00000000000E+00  0.00000000000E+00 -0.16558094493E+04  0.16558094493E+04  0.25500000920E-02 0. -1.
    10030    2    1    2    0    0  0.00000000000E+00  0.00000000000E+00 -0.11432827577E+03  0.31972906229E+04  0.31952459017E+04 0.  0.
        5    1    3    3  502    0  0.90663131133E+03  0.12719588501E+04 -0.39281485484E+03  0.16106474633E+04  0.46999998093E+01 0. -1.
       -5    1    3    3    0  502 -0.90663131133E+03 -0.12719588501E+04  0.27848657906E+03  0.15866431595E+04  0.46999998093E+01 0.  1.
</event>
<event>
 5   0  0.4995625E-07  0.3210658E+04  0.7818609E-02  0.8186008E-01
       -3   -1    0    0    0  501  0.00000000000E+00  0.00000000000E+00  0.30858330097E+04  0.30858330114E+04  0.10100000352E+00 0. -1.
        3   -1    0    0  501    0  0.00000000000E+00  0.00000000000E+00 -0.83513310931E+03  0.83513311541E+03  0.10100000352E+00 0.  1.
    10030    2    1    2    0    0  0.00000000000E+00  0.00000000000E+00  0.22506999004E+04  0.39209661268E+04  0.32106580830E+04 0.  0.
        5    1    3    3  502    0  0.66559463181E+03  0.13767404618E+04  0.17219185570E+04  0.23029233856E+04  0.46999998093E+01 0. -1.
       -5    1    3    3    0  502 -0.66559463181E+03 -0.13767404618E+04  0.52878134336E+03  0.16180427411E+04  0.46999998093E+01 0.  1.
</event>
<event>
 5   0  0.1508771E-06  0.3174426E+04  0.7818609E-02  0.8195604E-01
       -2   -1    0    0    0  501  0.00000000000E+00  0.00000000000E+00  0.14744305488E+04  0.14744305488E+04  0.25500000920E-02 0.  1.
        2   -1    0    0  501    0  0.00000000000E+00  0.00000000000E+00 -0.17086228806E+04  0.17086228806E+04  0.25500000920E-02 0. -1.
    10030    2    1    2    0    0  0.00000000000E+00  0.00000000000E+00 -0.23419233172E+03  0.31830534294E+04  0.31744264185E+04 0.  0.
        4    1    3    3  502    0  0.17905474921E+03  0.77978907185E+03  0.12574364873E+04  0.14903958307E+04  0.12699999809E+01 0.  1.
       -4    1    3    3    0  502 -0.17905474921E+03 -0.77978907185E+03 -0.14916288190E+04  0.16926575987E+04  0.12699999809E+01 0. -1.
</event>
<event>
 5   0  0.1508771E-06  0.3194930E+04  0.7818609E-02  0.8190157E-01
        2   -1    0    0  501    0  0.00000000000E+00  0.00000000000E+00  0.15041659740E+04  0.15041659740E+04  0.25500000920E-02 0. -1.
       -2   -1    0    0    0  501  0.00000000000E+00  0.00000000000E+00 -0.16965508132E+04  0.16965508132E+04  0.25500000920E-02 0.  1.
    10030    2    1    2    0    0  0.00000000000E+00  0.00000000000E+00 -0.19238483921E+03  0.32007167873E+04  0.31949297372E+04 0.  0.
        4    1    3    3  502    0 -0.71460325873E+03 -0.16091573517E+03  0.13260059424E+04  0.15148746032E+04  0.12699999809E+01 0. -1.
       -4    1    3    3    0  502  0.71460325873E+03  0.16091573517E+03 -0.15183907816E+04  0.16858421841E+04  0.12699999809E+01 0.  1.
</event>
<event>
 5   0  0.5317728E-07  0.3165021E+04  0.7818609E-02  0.8198117E-01
        1   -1    0    0  501    0  0.00000000000E+00  0.00000000000E+00  0.18868608947E+04  0.18868608947E+04  0.50400001928E-02 0. -1.
       -1   -1    0    0    0  501  0.00000000000E+00  0.00000000000E+00 -0.13272520276E+04  0.13272520276E+04  0.50400001928E-02 0.  1.
    10030    2    1    2    0    0  0.00000000000E+00  0.00000000000E+00  0.55960886711E+03  0.32141129223E+04  0.31650212942E+04 0.  0.
        2    1    3    3  502    0  0.10230352008E+04 -0.31689580362E+03  0.14629140245E+04  0.18130475491E+04  0.25500000920E-02 0. -1.
       -2    1    3    3    0  502 -0.10230352008E+04  0.31689580362E+03 -0.90330515737E+03  0.14010653731E+04  0.25500000920E-02 0.  1.
</event>
<event>
 5   0  0.5177039E-07  0.3168914E+04  0.7818609E-02  0.8197075E-01
       -1   -1    0    0    0  501  0.00000000000E+00  0.00000000000E+00  0.26176737531E+04  0.26176737531E+04  0.50400001928E-02 0.  1.
        1   -1    0    0  501    0  0.00000000000E+00  0.00000000000E+00 -0.95905921710E+03  0.95905921711E+03  0.50400001928E-02 0. -1.
    10030    2    1    2    0    0  0.00000000000E+00  0.00000000000E+00  0.16586145360E+04  0.35767329703E+04  0.31689140981E+04 0.  0.
        3    1    3    3  502    0  0.63959735249E+03  0.48390931047E+03 -0.71302312761E+03  0.10731518927E+04  0.10100000352E+00 0. -1.
       -3    1    3    3    0  502 -0.63959735249E+03 -0.48390931047E+03  0.23716376637E+04  0.25035810776E+04  0.10100000352E+00 0.  1.
</event>
<event>
 5   0  0.5281187E-07  0.3334135E+04  0.7818609E-02  0.8154264E-01
        1   -1    0    0  501    0  0.00000000000E+00  0.00000000000E+00  0.23340405388E+04  0.23340405388E+04  0.50400001928E-02 0.  1.
       -1   -1    0    0    0  501  0.00000000000E+00  0.00000000000E+00 -0.11906881460E+04  0.11906881460E+04  0.50400001928E-02 0. -1.
    10030    2    1    2    0    0  0.00000000000E+00  0.00000000000E+00  0.11433523928E+04  0.35247286848E+04  0.33341352113E+04 0.  0.
        5    1    3    3  502    0  0.12336450996E+04  0.52125266700E+03  0.16211521786E+04  0.21027936301E+04  0.46999998093E+01 0.  1.
       -5    1    3    3    0  502 -0.12336450996E+04 -0.52125266700E+03 -0.47779978574E+03  0.14219350547E+04  0.46999998093E+01 0. -1.
</event>
<event>
 5   0  0.1508771E-06  0.3179345E+04  0.7818609E-02  0.8194294E-01
        2   -1    0    0  501    0  0.00000000000E+00  0.00000000000E+00  0.26403554821E+04  0.26403554821E+04  0.25500000920E-02 0. -1.
       -2   -1    0    0    0  501  0.00000000000E+00  0.00000000000E+00 -0.95709014562E+03  0.95709014563E+03  0.25500000920E-02 0.  1.
    10030    2    1    2    0    0  0.00000000000E+00  0.00000000000E+00  0.16832653364E+04  0.35974456277E+04  0.31793447204E+04 0.  0.
        4    1    3    3  502    0 -0.11714237320E+04  0.82032665601E+03  0.56163173493E+02  0.14311971553E+04  0.12699999809E+01 0.  1.
       -4    1    3    3    0  502  0.11714237320E+04 -0.82032665601E+03  0.16271021629E+04  0.21662484724E+04  0.12699999809E+01 0. -1.
</event>
<event>
 5   0  0.1572769E-06  0.3198692E+04  0.7818609E-02  0.8189163E-01
       -2   -1    0    0    0  501  0.00000000000E+00  0.00000000000E+00  0.15791208122E+04  0.15791208122E+04  0.25500000920E-02 0.  1.
        2   -1    0    0  501    0  0.00000000000E+00  0.00000000000E+00 -0.16198300102E+04  0.16198300102E+04  0.25500000920E-02 0. -1.
    10030    2    1    2    0    0  0.00000000000E+00  0.00000000000E+00 -0.40709198014E+02  0.31989508225E+04  0.31986917835E+04 0.  0.
        5    1    3    3  502    0  0.14120055325E+04 -0.35277518011E+02 -0.77066935665E+03  0.16090237643E+04  0.46999998093E+01 0. -1.
       -5    1    3    3    0  502 -0.14120055325E+04  0.35277518011E+02  0.72996015863E+03  0.15899270581E+04  0.46999998093E+01 0.  1.
</event>
<event>
 5   0  0.1538349E-06  0.3239168E+04  0.7818609E-02  0.8178549E-01
        2   -1    0    0  501    0  0.00000000000E+00  0.00000000000E+00  0.20337054491E+04  0.20337054491E+04  0.25500000920E-02 0.  1.
       -2   -1    0    0    0  501  0.00000000000E+00  0.00000000000E+00 -0.12897896438E+04  0.12897896438E+04  0.25500000920E-02 0. -1.
    10030    2    1    2    0    0  0.00000000000E+00  0.00000000000E+00  0.74391580536E+03  0.33234950929E+04  0.32391679344E+04 0.  0.
        1    1    3    3  502    0  0.15539944830E+04 -0.30074088312E+03  0.72397609732E+03  0.17405416748E+04  0.50400001928E-02 0.  1.
       -1    1    3    3    0  502 -0.15539944830E+04  0.30074088312E+03  0.19939708045E+02  0.15829534181E+04  0.50400001928E-02 0. -1.
</event>
<event>
 5   0  0.1538349E-06  0.3199981E+04  0.7818609E-02  0.8188822E-01
        2   -1    0    0  501    0  0.00000000000E+00  0.00000000000E+00  0.22836452935E+04  0.22836452935E+04  0.25500000920E-02 0. -1.
       -2   -1    0    0    0  501  0.00000000000E+00  0.00000000000E+00 -0.11210015132E+04  0.11210015132E+04  0.25500000920E-02 0.  1.
    10030    2    1    2    0    0  0.00000000000E+00  0.00000000000E+00  0.11626437803E+04  0.34046468067E+04  0.31999811435E+04 0.  0.
        1    1    3    3  502    0 -0.10101856115E+04 -0.12406662153E+04  0.59788010829E+03  0.17079778252E+04  0.50400001928E-02 0.  1.
       -1    1    3    3    0  502  0.10101856115E+04  0.12406662153E+04  0.56476367196E+03  0.16966689815E+04  0.50400001928E-02 0. -1.
</event>
<event>
 5   0  0.5281187E-07  0.3208797E+04  0.7818609E-02  0.8186498E-01
        1   -1    0    0  501    0  0.00000000000E+00  0.00000000000E+00  0.13451441348E+04  0.13451441348E+04  0.50400001928E-02 0.  1.
       -1   -1    0    0    0  501  0.00000000000E+00  0.00000000000E+00 -0.19136197453E+04  0.19136197453E+04  0.50400001928E-02 0. -1.
    10030    2    1    2    0    0  0.00000000000E+00  0.00000000000E+00 -0.56847561045E+03  0.32587638801E+04  0.32087968940E+04 0.  0.
        5    1    3    3  502    0 -0.13834324126E+04 -0.71784299389E+03  0.10233170524E+03  0.15619467571E+04  0.46999998093E+01 0. -1.
       -5    1    3    3    0  502  0.13834324126E+04  0.71784299389E+03 -0.67080731569E+03  0.16968171230E+04  0.46999998093E+01 0.  1.
</event>
<event>
 5   0  0.5281187E-07  0.3186221E+04  0.7818609E-02  0.8192466E-01
        1   -1    0    0  501    0  0.00000000000E+00  0.00000000000E+00  0.13279756243E+04  0.13279756244E+04  0.50400001928E-02 0. -1.
       -1   -1    0    0    0  501  0.00000000000E+00  0.00000000000E+00 -0.19111810241E+04  0.19111810241E+04  0.50400001928E-02 0.  1.
    10030    2    1    2    0    0  0.00000000000E+00  0.00000000000E+00 -0.58320539974E+03  0.32391566484E+04  0.31862214698E+04 0.  0.
        5    1    3    3  502    0 -0.61223474965E+02  0.77787143044E+03  0.11204103256E+04  0.13653474517E+04  0.46999998093E+01 0. -1.
       -5    1    3    3    0  502  0.61223474965E+02 -0.77787143044E+03 -0.17036157253E+04  0.18738091967E+04  0.46999998093E+01 0.  1.
</event>
<event>
 5   0  0.1508771E-06  0.3209055E+04  0.7818609E-02  0.8186430E-01
       -2   -1    0    0    0  501  0.00000000000E+00  0.00000000000E+00  0.14506612190E+04  0.14506612190E+04  0.25500000920E-02 0.  1.
        2   -1    0    0  501    0  0.00000000000E+00  0.00000000000E+00 -0.17747132837E+04  0.17747132837E+04  0.25500000920E-02 0. -1.
    10030    2    1    2    0    0  0.00000000000E+00  0.00000000000E+00 -0.32405206475E+03  0.32253745027E+04  0.32090545246E+04 0.  0.
        4    1    3    3  502    0 -0.61099194147E+03 -0.91020957356E+03 -0.13396130388E+04  0.17309989391E+04  0.12699999809E+01 0. -1.
       -4    1    3    3    0  502  0.61099194147E+03  0.91020957356E+03  0.10155609741E+04  0.14943755637E+04  0.12699999809E+01 0.  1.
</event>
<event>
 5   0  0.5233813E-07  0.3193031E+04  0.7818609E-02  0.8190660E-01
       -1   -1    0    0    0  501  0.00000000000E+00  0.00000000000E+00  0.10331721013E+04  0.10331721013E+04  0.50400001928E-02 0. -1.
        1   -1    0    0  501    0  0.00000000000E+00  0.00000000000E+00 -0.24670245662E+04  0.24670245662E+04  0.50400001928E-02 0.  1.
    10030    2    1    2    0    0  0.00000000000E+00  0.00000000000E+00 -0.14338524649E+04  0.35001966675E+04  0.31930305072E+04 0.  0.
        4    1    3    3  502    0  0.76078794355E+03 -0.11022792326E+04 -0.16694477650E+04  0.21402979359E+04  0.12699999809E+01 0.  1.
       -4    1    3    3    0  502 -0.76078794355E+03  0.11022792326E+04  0.23559530013E+03  0.13598987315E+04  0.12699999809E+01 0. -1.
</event>
<event>
 5   0  0.1508771E-06  0.3056976E+04  0.7818609E-02  0.8227646E-01
        2   -1    0    0  501    0  0.00000000000E+00  0.00000000000E+00  0.17684423577E+04  0.17684423577E+04  0.25500000920E-02 0.  1.
       -2   -1    0    0    0  501  0.00000000000E+00  0.00000000000E+00 -0.13210920913E+04  0.13210920913E+04  0.25500000920E-02 0. -1.
    10030    2    1    2    0    0  0.00000000000E+00  0.00000000000E+00  0.44735026640E+03  0.30895344490E+04  0.30569757687E+04 0.  0.
        4    1    3    3  502    0  0.11993558377E+03 -0.11119336806E+04  0.12766414248E+04  0.16972318624E+04  0.12699999809E+01 0.  1.
       -4    1    3    3    0  502 -0.11993558377E+03  0.11119336806E+04 -0.82929115838E+03  0.13923025866E+04  0.12699999809E+01 0. -1.
</event>
<event>
 5   0  0.5177039E-07  0.3217318E+04  0.7818609E-02  0.8184258E-01
       -1   -1    0    0    0  501  0.00000000000E+00  0.00000000000E+00  0.92522601087E+03  0.92522601088E+03  0.50400001928E-02 0. -1.
        1   -1    0    0  501    0  0.00000000000E+00  0.00000000000E+00 -0.27969213071E+04  0.27969213071E+04  0.50400001928E-02 0.  1.
    10030    2    1    2    0    0  0.00000000000E+00  0.00000000000E+00 -0.18716952962E+04  0.37221473179E+04  0.32173183515E+04 0.  0.
        3    1    3    3  502    0 -0.94291237905E+03  0.12920513162E+04 -0.11338921503E+04  0.19606610561E+04  0.10100000352E+00 0.  1.
       -3    1    3    3    0  502  0.94291237905E+03 -0.12920513162E+04 -0.73780314594E+03  0.17614862618E+04  0.10100000352E+00 0. -1.
</event>
<event>
 5   0  0.5233813E-07  0.3232195E+04  0.7818609E-02  0.8180366E-01
        1   -1    0    0  501    0  0.00000000000E+00  0.00000000000E+00  0.21691499101E+04  0.21691499101E+04  0.50400001928E-02 0.  1.
       -1   -1    0    0    0  501  0.00000000000E+00  0.00000000000E+00 -0.12040526187E+04  0.12040526187E+04  0.50400001928E-02 0. -1.
    10030    2    1    2    0    0  0.00000000000E+00  0.00000000000E+00  0.96509729139E+03  0.33732025288E+04  0.32321946907E+04 0.  0.
        4    1    3    3  502    0  0.22142813093E+03  0.10549460916E+04  0.17391659844E+04  0.20461284436E+04  0.12699999809E+01 0.  1.
       -4    1    3    3    0  502 -0.22142813093E+03 -0.10549460916E+04 -0.77406869297E+03  0.13270740853E+04  0.12699999809E+01 0. -1.
</event>
<event>
 5   0  0.5317728E-07  0.3190066E+04  0.7818609E-02  0.8191446E-01
        1   -1    0    0  501    0  0.00000000000E+00  0.00000000000E+00  0.17494001953E+04  0.17494001953E+04  0.50400001928E-02 0. -1.
       -1   -1    0    0    0  501  0.00000000000E+00  0.00000000000E+00 -0.14542867720E+04  0.14542867720E+04  0.50400001928E-02 0.  1.
    10030    2    1    2    0    0  0.00000000000E+00  0.00000000000E+00  0.29511342328E+03  0.32036869674E+04  0.31900655561E+04 0.  0.
        2    1    3    3  502    0  0.10812626935E+04 -0.11048904327E+04 -0.24682571327E+03  0.15655142328E+04  0.25500000920E-02 0.  1.
       -2    1    3    3    0  502 -0.10812626935E+04  0.11048904327E+04  0.54193913655E+03  0.16381727345E+04  0.25500000920E-02 0. -1.
</event>
<event>
 5   0  0.1538349E-06  0.3203043E+04  0.7818609E-02  0.8188014E-01
        2   -1    0    0  501    0  0.00000000000E+00  0.00000000000E+00  0.15258517846E+04  0.15258517846E+04  0.25500000920E-02 0.  1.
       -2   -1    0    0    0  501  0.00000000000E+00  0.00000000000E+00 -0.16809434939E+04  0.16809434939E+04  0.25500000920E-02 0. -1.
    10030    2    1    2    0    0  0.00000000000E+00  0.00000000000E+00 -0.15509170925E+03  0.32067952785E+04  0.32030426972E+04 0.  0.
        1    1    3    3  502    0 -0.59303582249E+03  0.14097119696E+04 -0.55338291699E+03  0.16264107651E+04  0.50400001928E-02 0.  1.
       -1    1    3    3    0  502  0.59303582249E+03 -0.14097119696E+04  0.39829120773E+03  0.15803845134E+04  0.50400001928E-02 0. -1.
</event>
<event>
 5   0  0.5370912E-07  0.3249723E+04  0.7818609E-02  0.8175808E-01
       -1   -1    0    0    0  501  0.00000000000E+00  0.00000000000E+00  0.12777148212E+04  0.12777148212E+04  0.50400001928E-02 0.  1.
        1   -1    0    0  501    0  0.00000000000E+00  0.00000000000E+00 -0.20663250770E+04  0.20663250770E+04  0.50400001928E-02 0. -1.
    10030    2    1    2    0    0  0.00000000000E+00  0.00000000000E+00 -0.78861025584E+03  0.33440398983E+04  0.32497225582E+04 0.  0.
        1    1    3    3  502    0 -0.21161823734E+02  0.52743980400E+03  0.11870238537E+04  0.12991020741E+04  0.50400001928E-02 0.  1.
       -1    1    3    3    0  502  0.21161823734E+02 -0.52743980400E+03 -0.19756341096E+04  0.20449378241E+04  0.50400001928E-02 0. -1.
</event>
<event>
 5   0  0.1538349E-06  0.3172849E+04  0.7818609E-02  0.8196025E-01
        2   -1    0    0  501    0  0.00000000000E+00  0.00000000000E+00  0.24966185669E+04  0.24966185669E+04  0.25500000920E-02 0. -1.
       -2   -1    0    0    0  501  0.00000000000E+00  0.00000000000E+00 -0.10080605051E+04  0.10080605051E+04  0.25500000920E-02 0.  1.
    10030    2    1    2    0    0  0.00000000000E+00  0.00000000000E+00  0.14885580618E+04  0.35046790720E+04  0.31728489239E+04 0.  0.
        1    1    3    3  502    0  0.35105234234E+03 -0.16093401722E+03  0.24439055244E+04  0.24742295199E+04  0.50400001928E-02 0. -1.
       -1    1    3    3    0  502 -0.35105234234E+03  0.16093401722E+03 -0.95534746263E+03  0.10304495521E+04  0.50400001928E-02 0.  1.
</event>
<event>
 5   0  0.1493485E-06  0.3217937E+04  0.7818609E-02  0.8184096E-01
       -2   -1    0    0    0  501  0.00000000000E+00  0.00000000000E+00  0.14304680314E+04  0.14304680314E+04  0.25500000920E-02 0.  1.
        2   -1    0    0  501    0  0.00000000000E+00  0.00000000000E+00 -0.18097429001E+04  0.18097429001E+04  0.25500000920E-02 0. -1.
    10030    2    1    2    0    0  0.00000000000E+00  0.00000000000E+00 -0.37927486867E+03  0.32402109314E+04  0.32179368319E+04 0.  0.
        2    1    3    3  502    0  0.11363506964E+04 -0.30260863108E+03  0.91610511639E+03  0.14906755090E+04  0.25500000920E-02 0.  1.
       -2    1    3    3    0  502 -0.11363506964E+04  0.30260863108E+03 -0.12953799851E+04  0.17495354225E+04  0.25500000920E-02 0. -1.
</event>
<event>
 5   0  0.1508771E-06  0.3167786E+04  0.7818609E-02  0.8197377E-01
        2   -1    0    0  501    0  0.00000000000E+00  0.00000000000E+00  0.20029382616E+04  0.20029382616E+04  0.25500000920E-02 0. -1.
       -2   -1    0    0    0  501  0.00000000000E+00  0.00000000000E+00 -0.12525187521E+04  0.12525187521E+04  0.25500000920E-02 0.  1.
    10030    2    1    2    0    0  0.00000000000E+00  0.00000000000E+00  0.75041950951E+03  0.32554570137E+04  0.31677864397E+04 0.  0.
        4    1    3    3  502    0 -0.11393394302E+04  0.10994532099E+04  0.33131439521E+03  0.16176101320E+04  0.12699999809E+01 0. -1.
       -4    1    3    3    0  502  0.11393394302E+04 -0.10994532099E+04  0.41910511430E+03  0.16378468816E+04  0.12699999809E+01 0.  1.
</event>
<event>
 5   0  0.5233813E-07  0.3190143E+04  0.7818609E-02  0.8191425E-01
        1   -1    0    0  501    0  0.00000000000E+00  0.00000000000E+00  0.21707965594E+04  0.21707965594E+04  0.50400001928E-02 0. -1.
       -1   -1    0    0    0  501  0.00000000000E+00  0.00000000000E+00 -0.11720365985E+04  0.11720365985E+04  0.50400001928E-02 0.  1.
    10030    2    1    2    0    0  0.00000000000E+00  0.00000000000E+00  0.99875996096E+03  0.33428331579E+04  0.31901429532E+04 0.  0.
        4    1    3    3  502    0  0.75169631553E+03 -0.20150545020E+03  0.19583575555E+04  0.21073247793E+04  0.12699999809E+01 0. -1.
       -4    1    3    3    0  502 -0.75169631553E+03  0.20150545020E+03 -0.95959759457E+03  0.12355083786E+04  0.12699999809E+01 0.  1.
</event>
<event>
 5   0  0.5370912E-07  0.3202511E+04  0.7818609E-02  0.8188154E-01
       -1   -1    0    0    0  501  0.00000000000E+00  0.00000000000E+00  0.10021027782E+04  0.10021027782E+04  0.50400001928E-02 0.  1.
        1   -1    0    0  501    0  0.00000000000E+00  0.00000000000E+00 -0.25586383805E+04  0.25586383805E+04  0.50400001928E-02 0. -1.
    10030    2    1    2    0    0  0.00000000000E+00  0.00000000000E+00 -0.15565356024E+04  0.35607411587E+04  0.32025106585E+04 0.  0.
        1    1    3    3  502    0 -0.25743103612E+03 -0.85798215027E+03  0.69745661059E+03  0.11352752231E+04  0.50400001928E-02 0.  1.
       -1    1    3    3    0  502  0.25743103612E+03  0.85798215027E+03 -0.22539922130E+04  0.24254659356E+04  0.50400001928E-02 0. -1.
</event>
<event>
 5   0  0.1508771E-06  0.3132752E+04  0.7818609E-02  0.8206806E-01
       -2   -1    0    0    0  501  0.00000000000E+00  0.00000000000E+00  0.17441800218E+04  0.17441800218E+04  0.25500000920E-02 0.  1.
        2   -1    0    0  501    0  0.00000000000E+00  0.00000000000E+00 -0.14066975725E+04  0.14066975725E+04  0.25500000920E-02 0. -1.
    10030    2    1    2    0    0  0.00000000000E+00  0.00000000000E+00  0.33748244925E+03  0.31508775943E+04  0.31327520187E+04 0.  0.
        4    1    3    3  502    0  0.14211632798E+04  0.48265996924E+03 -0.28203317500E+03  0.15271575029E+04  0.12699999809E+01 0. -1.
       -4    1    3    3    0  502 -0.14211632798E+04 -0.48265996924E+03  0.61951562426E+03  0.16237200915E+04  0.12699999809E+01 0.  1.
</event>
<event>
 5   0  0.1556396E-06  0.3079278E+04  0.7818609E-02  0.8221448E-01
        2   -1    0    0  501    0  0.00000000000E+00  0.00000000000E+00  0.20699564615E+04  0.20699564615E+04  0.25500000920E-02 0. -1.
       -2   -1    0    0    0  501  0.00000000000E+00  0.00000000000E+00 -0.11451872320E+04  0.11451872320E+04  0.25500000920E-02 0.  1.
    10030    2    1    2    0    0  0.00000000000E+00  0.00000000000E+00  0.92476922955E+03  0.32151436935E+04  0.30792776493E+04 0.  0.
        3    1    3    3  502    0 -0.47566596186E+02  0.22695622697E+03  0.20516189372E+04  0.20646820540E+04  0.10100000352E+00 0. -1.
       -3    1    3    3    0  502  0.47566596186E+02 -0.22695622697E+03 -0.11268497077E+04  0.11504616395E+04  0.10100000352E+00 0.  1.
</event>
<event>
 5   0  0.5317728E-07  0.3215939E+04  0.7818609E-02  0.8184620E-01
        1   -1    0    0  501    0  0.00000000000E+00  0.00000000000E+00  0.20683342797E+04  0.20683342797E+04  0.50400001928E-02 0. -1.
       -1   -1    0    0    0  501  0.00000000000E+00  0.00000000000E+00 -0.12500718334E+04  0.12500718334E+04  0.50400001928E-02 0.  1.
    10030    2    1    2    0    0  0.00000000000E+00  0.00000000000E+00  0.81826244631E+03  0.33184061132E+04  0.32159393186E+04 0.  0.
        2    1    3    3  502    0  0.20956647842E+03 -0.45920535104E+03 -0.11662012135E+04  0.12707529003E+04  0.25500000920E-02 0.  1.
       -2    1    3    3    0  502 -0.20956647842E+03  0.45920535104E+03  0.19844636598E+04  0.20476532129E+04  0.25500000920E-02 0. -1.
</event>
<event>
 5   0  0.5177039E-07  0.3195720E+04  0.7818609E-02  0.8189948E-01
        1   -1    0    0  501    0  0.00000000000E+00  0.00000000000E+00  0.94520991673E+03  0.94520991675E+03  0.50400001928E-02 0.  1.
       -1   -1    0    0    0  501  0.00000000000E+00  0.00000000000E+00 -0.27011537798E+04  0.27011537798E+04  0.50400001928E-02 0. -1.
    10030    2    1    2    0    0  0.00000000000E+00  0.00000000000E+00 -0.17559438631E+04  0.36463636966E+04  0.31957204755E+04 0.  0.
        3    1    3    3  502    0  0.86725555874E+02 -0.15401982027E+04 -0.13531404734E+04  0.20520041366E+04  0.10100000352E+00 0. -1.
       -3    1    3    3    0  502 -0.86725555874E+02  0.15401982027E+04 -0.40280338968E+03  0.15943595600E+04  0.10100000352E+00 0.  1.
</event>
<event>
 5   0  0.1493485E-06  0.3248967E+04  0.7818609E-02  0.8176003E-01
        2   -1    0    0  501    0  0.00000000000E+00  0.00000000000E+00  0.16945936459E+04  0.16945936459E+04  0.25500000920E-02 0. -1.
       -2   -1    0    0    0  501  0.00000000000E+00  0.00000000000E+00 -0.15572744502E+04  0.15572744502E+04  0.25500000920E-02 0.  1.
    10030    2    1    2    0    0  0.00000000000E+00  0.00000000000E+00  0.13731919569E+03  0.32518680962E+04  0.32489674596E+04 0.  0.
        2    1    3    3  502    0  0.13880674830E+03 -0.38352860345E+03  0.16425092864E+04  0.16923942386E+04  0.25500000920E-02 0. -1.
       -2    1    3    3    0  502 -0.13880674830E+03  0.38352860345E+03 -0.15051900907E+04  0.15594738575E+04  0.25500000920E-02 0.  1.
</event>
<event>
 5   0  0.1508771E-06  0.3190531E+04  0.7818609E-02  0.8191322E-01
       -2   -1    0    0    0  501  0.00000000000E+00  0.00000000000E+00  0.11271285670E+04  0.11271285670E+04  0.25500000920E-02 0. -1.
        2   -1    0    0  501    0  0.00000000000E+00  0.00000000000E+00 -0.22578362341E+04  0.22578362341E+04  0.25500000920E-02 0.  1.
    10030    2    1    2    0    0  0.00000000000E+00  0.00000000000E+00 -0.11307076671E+04  0.33849648011E+04  0.31905308142E+04 0.  0.
        4    1    3    3  502    0 -0.16696635910E+03 -0.10202573885E+04 -0.18543281944E+04  0.21230491208E+04  0.12699999809E+01 0.  1.
       -4    1    3    3    0  502  0.16696635910E+03  0.10202573885E+04  0.72362052725E+03  0.12619156803E+04  0.12699999809E+01 0. -1.
</event>
<event>
 5   0  0.5370912E-07  0.3182417E+04  0.7818609E-02  0.8193476E-01
       -1   -1    0    0    0  501  0.00000000000E+00  0.00000000000E+00  0.11914939990E+04  0.11914939990E+04  0.50400001928E-02 0. -1.
        1   -1    0    0  501    0  0.00000000000E+00  0.00000000000E+00 -0.21250167352E+04  0.21250167352E+04  0.50400001928E-02 0.  1.
    10030    2    1    2    0    0  0.00000000000E+00  0.00000000000E+00 -0.93352273617E+03  0.33165107342E+04  0.31824171240E+04 0.  0.
        1    1    3    3  502    0 -0.43189968361E+03  0.44531437880E+03 -0.19938023370E+04  0.20880828508E+04  0.50400001928E-02 0.  1.
       -1    1    3    3    0  502  0.43189968361E+03 -0.44531437880E+03  0.10602796009E+04  0.12284278834E+04  0.50400001928E-02 0. -1.
</event>
<event>
 5   0  0.5370912E-07  0.3215401E+04  0.7818609E-02  0.8184762E-01
       -1   -1    0    0    0  501  0.00000000000E+00  0.00000000000E+00  0.14986930345E+04  0.14986930346E+04  0.50400001928E-02 0.  1.
        1   -1    0    0  501    0  0.00000000000E+00  0.00000000000E+00 -0.17246367390E+04  0.17246367390E+04  0.50400001928E-02 0. -1.
    10030    2    1    2    0    0  0.00000000000E+00  0.00000000000E+00 -0.22594370441E+03  0.32233297735E+04  0.32154011058E+04 0.  0.
        1    1    3    3  502    0 -0.16829205431E+03 -0.14689837140E+04 -0.74576978935E+03  0.16560217227E+04  0.50400001928E-02 0. -1.
       -1    1    3    3    0  502  0.16829205431E+03  0.14689837140E+04  0.51982608493E+03  0.15673080508E+04  0.50400001928E-02 0.  1.
</event>
<event>
 5   0  0.1556396E-06  0.3197095E+04  0.7818609E-02  0.8189585E-01
       -2   -1    0    0    0  501  0.00000000000E+00  0.00000000000E+00  0.10409226244E+04  0.10409226244E+04  0.25500000920E-02 0. -1.
        2   -1    0    0  501    0  0.00000000000E+00  0.00000000000E+00 -0.24548940336E+04  0.24548940336E+04  0.25500000920E-02 0.  1.
    10030    2    1    2    0    0  0.00000000000E+00  0.00000000000E+00 -0.14139714091E+04  0.34958166580E+04  0.31970953944E+04 0.  0.
        3    1    3    3  502    0 -0.78984332671E+03  0.13593585618E+04 -0.10232258988E+04  0.18758196690E+04  0.10100000352E+00 0.  1.
       -3    1    3    3    0  502  0.78984332671E+03 -0.13593585618E+04 -0.39074551033E+03  0.16199969890E+04  0.10100000352E+00 0. -1.
</event>
<event>
 5   0  0.5233813E-07  0.3161779E+04  0.7818609E-02  0.8198985E-01
       -1   -1    0    0    0  501  0.00000000000E+00  0.00000000000E+00  0.11762170341E+04  0.11762170341E+04  0.50400001928E-02 0.  1.
        1   -1    0    0  501    0  0.00000000000E+00  0.00000000000E+00 -0.21247871513E+04  0.21247871513E+04  0.50400001928E-02 0. -1.
    10030    2    1    2    0    0  0.00000000000E+00  0.00000000000E+00 -0.94857011722E+03  0.33010041853E+04  0.31617785129E+04 0.  0.
        4    1    3    3  502    0 -0.85296928908E+03 -0.91070158426E+03 -0.14877378472E+04  0.19417259071E+04  0.12699999809E+01 0. -1.
       -4    1    3    3    0  502  0.85296928908E+03  0.91070158426E+03  0.53916772994E+03  0.13592782782E+04  0.12699999809E+01 0.  1.
</event>
<event>
 5   0  0.5370912E-07  0.3200093E+04  0.7818609E-02  0.8188793E-01
       -1   -1    0    0    0  501  0.00000000000E+00  0.00000000000E+00  0.15442818878E+04  0.15442818878E+04  0.50400001928E-02 0.  1.
        1   -1    0    0  501    0  0.00000000000E+00  0.00000000000E+00 -0.16578246898E+04  0.16578246898E+04  0.50400001928E-02 0. -1.
    10030    2    1    2    0    0  0.00000000000E+00  0.00000000000E+00 -0.11354280194E+03  0.32021065776E+04  0.32000928997E+04 0.  0.
        1    1    3    3  502    0  0.87516614698E+03 -0.85959361227E+03 -0.10847112067E+04  0.16375027832E+04  0.50400001928E-02 0. -1.
       -1    1    3    3    0  502 -0.87516614698E+03  0.85959361227E+03  0.97116840473E+03  0.15646037944E+04  0.50400001928E-02 0.  1.
</event>
<event>
 5   0  0.5370912E-07  0.3202917E+04  0.7818609E-02  0.8188047E-01
       -1   -1    0    0    0  501  0.00000000000E+00  0.00000000000E+00  0.18904914424E+04  0.18904914424E+04  0.50400001928E-02 0. -1.
        1   -1    0    0  501    0  0.00000000000E+00  0.00000000000E+00 -0.13566154220E+04  0.13566154220E+04  0.50400001928E-02 0.  1.
    10030    2    1    2    0    0  0.00000000000E+00  0.00000000000E+00  0.53387602035E+03  0.32471068644E+04  0.32029173239E+04 0.  0.
        1    1    3    3  502    0  0.14819610369E+04  0.32457178261E+03 -0.25308580777E+03  0.15380532445E+04  0.50400001928E-02 0.  1.
       -1    1    3    3    0  502 -0.14819610369E+04 -0.32457178261E+03  0.78696182812E+03  0.17090536199E+04  0.50400001928E-02 0. -1.
</event>
<event>
 5   0  0.5177039E-07  0.3187103E+04  0.7818609E-02  0.8192231E-01
       -1   -1    0    0    0  501  0.00000000000E+00  0.00000000000E+00  0.21290530528E+04  0.21290530528E+04  0.50400001928E-02 0.  1.
        1   -1    0    0  501    0  0.00000000000E+00  0.00000000000E+00 -0.11927401089E+04  0.11927401089E+04  0.50400001928E-02 0. -1.
    10030    2    1    2    0    0  0.00000000000E+00  0.00000000000E+00  0.93631294390E+03  0.33217931616E+04  0.31871033682E+04 0.  0.
        3    1    3    3  502    0 -0.10081157623E+04  0.98016396110E+03 -0.31346148649E+03  0.14405821374E+04  0.10100000352E+00 0. -1.
       -3    1    3    3    0  502  0.10081157623E+04 -0.98016396110E+03  0.12497744304E+04  0.18812110243E+04  0.10100000352E+00 0.  1.
</event>
<event>
 5   0  0.1572769E-06  0.3197569E+04  0.7818609E-02  0.8189460E-01
       -2   -1    0    0    0  501  0.00000000000E+00  0.00000000000E+00  0.21111573897E+04  0.21111573897E+04  0.25500000920E-02 0. -1.
        2   -1    0    0  501    0  0.00000000000E+00  0.00000000000E+00 -0.12107632486E+04  0.12107632486E+04  0.25500000920E-02 0.  1.
    10030    2    1    2    0    0  0.00000000000E+00  0.00000000000E+00  0.90039414105E+03  0.33219206383E+04  0.31975689387E+04 0.  0.
        5    1    3    3  502    0  0.15758633462E+04 -0.18877406423E+03  0.25006921754E+03  0.16067164145E+04  0.46999998093E+01 0.  1.
       -5    1    3    3    0  502 -0.15758633462E+04  0.18877406423E+03  0.65032492352E+03  0.17152042238E+04  0.46999998093E+01 0. -1.
</event>
<event>
 5   0  0.5233813E-07  0.3169002E+04  0.7818609E-02  0.8197052E-01
        1   -1    0    0  501    0  0.00000000000E+00  0.00000000000E+00  0.12650896407E+04  0.12650896407E+04  0.50400001928E-02 0.  1.
       -1   -1    0    0    0  501  0.00000000000E+00  0.00000000000E+00 -0.19845576030E+04  0.19845576030E+04  0.50400001928E-02 0. -1.
    10030    2    1    2    0    0  0.00000000000E+00  0.00000000000E+00 -0.71946796231E+03  0.32496472437E+04  0.31690019027E+04 0.  0.
        4    1    3    3  502    0 -0.44948545833E+03  0.15194090873E+04 -0.36045914087E+03  0.16249841713E+04  0.12699999809E+01 0. -1.
       -4    1    3    3    0  502  0.44948545833E+03 -0.15194090873E+04 -0.35900882143E+03  0.16246630723E+04  0.12699999809E+01 0.  1.
</event>
<event>
 5   0  0.5370912E-07  0.3206444E+04  0.7818609E-02  0.8187117E-01
        1   -1    0    0  501    0  0.00000000000E+00  0.00000000000E+00  0.19159439258E+04  0.19159439258E+04  0.50400001928E-02 0.  1.
       -1   -1    0    0    0  501  0.00000000000E+00  0.00000000000E+00 -0.13415429970E+04  0.13415429970E+04  0.50400001928E-02 0. -1.
    10030    2    1    2    0    0  0.00000000000E+00  0.00000000000E+00  0.57440092884E+03  0.32574869228E+04  0.32064442339E+04 0.  0.
        1    1    3    3  502    0  0.19719602278E+03  0.51387673265E+03  0.18169480110E+04  0.18984877252E+04  0.50400001928E-02 0.  1.
       -1    1    3    3    0  502 -0.19719602278E+03 -0.51387673265E+03 -0.12425470822E+04  0.13589991977E+04  0.50400001928E-02 0. -1.
</event>
<event>
 5   0  0.5370912E-07  0.3190446E+04  0.7818609E-02  0.8191345E-01
        1   -1    0    0  501    0  0.00000000000E+00  0.00000000000E+00  0.21576244607E+04  0.21576244607E+04  0.50400001928E-02 0.  1.
       -1   -1    0    0    0  501  0.00000000000E+00  0.00000000000E+00 -0.11794159314E+04  0.11794159314E+04  0.50400001928E-02 0. -1.
    10030    2    1    2    0    0  0.00000000000E+00  0.00000000000E+00  0.97820852927E+03  0.33370403920E+04  0.31904461524E+04 0.  0.
        1    1    3    3  502    0 -0.51052935389E+03 -0.25642806561E+03  0.20469491259E+04  0.21251814741E+04  0.50400001928E-02 0.  1.
       -1    1    3    3    0  502  0.51052935389E+03  0.25642806561E+03 -0.10687405966E+04  0.12118589179E+04  0.50400001928E-02 0. -1.
</event>
<event>
 5   0  0.1572769E-06  0.3191868E+04  0.7818609E-02  0.8190968E-01
        2   -1    0    0  501    0  0.00000000000E+00  0.00000000000E+00  0.17612392064E+04  0.17612392064E+04  0.25500000920E-02 0.  1.
       -2   -1    0    0    0  501  0.00000000000E+00  0.00000000000E+00 -0.14461440247E+04  0.14461440247E+04  0.25500000920E-02 0. -1.
    10030    2    1    2    0    0  0.00000000000E+00  0.00000000000E+00  0.31509518165E+03  0.32073832311E+04  0.31918681391E+04 0.  0.
        5    1    3    3  502    0  0.13132922768E+03  0.14408214720E+04  0.83444617180E+03  0.16701905232E+04  0.46999998093E+01 0.  1.
       -5    1    3    3    0  502 -0.13132922768E+03 -0.14408214720E+04 -0.51935099015E+03  0.15371927079E+04  0.46999998093E+01 0. -1.
</event>
<event>
 5   0  0.1508771E-06  0.3197221E+04  0.7818609E-02  0.8189551E-01
        2   -1    0    0  501    0  0.00000000000E+00  0.00000000000E+00  0.23003700191E+04  0.23003700191E+04  0.25500000920E-02 0. -1.
       -2   -1    0    0    0  501  0.00000000000E+00  0.00000000000E+00 -0.11109324572E+04  0.11109324572E+04  0.25500000920E-02 0.  1.
    10030    2    1    2    0    0  0.00000000000E+00  0.00000000000E+00  0.11894375620E+04  0.34113024763E+04  0.31972211170E+04 0.  0.
        4    1    3    3  502    0 -0.12235256258E+04  0.65933756687E+03  0.14374223037E+04  0.19994813017E+04  0.12699999809E+01 0. -1.
       -4    1    3    3    0  502  0.12235256258E+04 -0.65933756687E+03 -0.24798474167E+03  0.14118211746E+04  0.12699999809E+01 0.  1.
</event>
<event>
 5   0  0.5281187E-07  0.3232819E+04  0.7818609E-02  0.8180203E-01
        1   -1    0    0  501    0  0.00000000000E+00  0.00000000000E+00  0.22594346141E+04  0.22594346141E+04  0.50400001928E-02 0.  1.
       -1   -1    0    0    0  501  0.00000000000E+00  0.00000000000E+00 -0.11563863024E+04  0.11563863024E+04  0.50400001928E-02 0. -1.
    10030    2    1    2    0    0  0.00000000000E+00  0.00000000000E+00  0.11030483116E+04  0.34158209165E+04  0.32328187323E+04 0.  0.
        5    1    3    3  502    0 -0.58341882133E+03  0.11138110441E+03 -0.10368962194E+04  0.11949724396E+04  0.46999998093E+01 0. -1.
       -5    1    3    3    0  502  0.58341882133E+03 -0.11138110441E+03  0.21399445310E+04  0.22208484769E+04  0.46999998093E+01 0.  1.
</event>
<event>
 5   0  0.1508771E-06  0.3203115E+04  0.7818609E-02  0.8187995E-01
       -2   -1    0    0    0  501  0.00000000000E+00  0.00000000000E+00  0.12439711873E+04  0.12439711873E+04  0.25500000920E-02 0. -1.
        2   -1    0    0  501    0  0.00000000000E+00  0.00000000000E+00 -0.20619333117E+04  0.20619333117E+04  0.25500000920E-02 0.  1.
    10030    2    1    2    0    0  0.00000000000E+00  0.00000000000E+00 -0.81796212441E+03  0.33059044989E+04  0.32031145030E+04 0.  0.
        4    1    3    3  502    0 -0.61693663778E+03  0.10466822495E+04 -0.14859365985E+04  0.19194175508E+04  0.12699999809E+01 0.  1.
       -4    1    3    3    0  502  0.61693663778E+03 -0.10466822495E+04  0.66797447407E+03  0.13864869482E+04  0.12699999809E+01 0. -1.
</event>
<event>
 5   0  0.5177039E-07  0.3216788E+04  0.7818609E-02  0.8184397E-01
       -1   -1    0    0    0  501  0.00000000000E+00  0.00000000000E+00  0.10813127714E+04  0.10813127714E+04  0.50400001928E-02 0. -1.
        1   -1    0    0  501    0  0.00000000000E+00  0.00000000000E+00 -0.23923993035E+04  0.23923993035E+04  0.50400001928E-02 0.  1.
    10030    2    1    2    0    0  0.00000000000E+00  0.00000000000E+00 -0.13110865320E+04  0.34737120749E+04  0.32167884116E+04 0.  0.
        3    1    3    3  502    0  0.85207609134E+03  0.50962364973E+03  0.71090020478E+03  0.12211179473E+04  0.10100000352E+00 0. -1.
       -3    1    3    3    0  502 -0.85207609134E+03 -0.50962364973E+03 -0.20219867368E+04  0.22525941276E+04  0.10100000352E+00 0.  1.
</event>
<event>
 5   0  0.1493485E-06  0.3201981E+04  0.7818609E-02  0.8188294E-01
       -2   -1    0    0    0  501  0.00000000000E+00  0.00000000000E+00  0.11490971075E+04  0.11490971075E+04  0.25500000920E-02 0. -1.
        2   -1    0    0  501    0  0.00000000000E+00  0.00000000000E+00 -0.22305958320E+04  0.22305958320E+04  0.25500000920E-02 0.  1.
    10030    2    1    2    0    0  0.00000000000E+00  0.00000000000E+00 -0.10814987245E+04  0.33796929395E+04  0.32019813982E+04 0.  0.
        2    1    3    3  502    0 -0.73179310982E+03 -0.15790232111E+03  0.95296729253E+03  0.12118584733E+04  0.25500000920E-02 0. -1.
       -2    1    3    3    0  502  0.73179310982E+03  0.15790232111E+03 -0.20344660170E+04  0.21678344662E+04  0.25500000920E-02 0.  1.
</event>
<event>
 5   0  0.1538349E-06  0.3237293E+04  0.7818609E-02  0.8179037E-01
       -2   -1    0    0    0  501  0.00000000000E+00  0.00000000000E+00  0.17029195436E+04  0.17029195437E+04  0.25500000920E-02 0. -1.
        2   -1    0    0  501    0  0.00000000000E+00  0.00000000000E+00 -0.15385443279E+04  0.15385443279E+04  0.25500000920E-02 0.  1.
    10030    2    1    2    0    0  0.00000000000E+00  0.00000000000E+00  0.16437521576E+03  0.32414638715E+04  0.32372934404E+04 0.  0.
        1    1    3    3  502    0 -0.31047557515E+03 -0.14661048119E+04 -0.53028560854E+03  0.15896733088E+04  0.50400001928E-02 0. -1.
       -1    1    3    3    0  502  0.31047557515E+03  0.14661048119E+04  0.69466082430E+03  0.16517905627E+04  0.50400001928E-02 0.  1.
</event>
<event>
 5   0  0.5233813E-07  0.3173549E+04  0.7818609E-02  0.8195838E-01
       -1   -1    0    0    0  501  0.00000000000E+00  0.00000000000E+00  0.13900827488E+04  0.13900827488E+04  0.50400001928E-02 0. -1.
        1   -1    0    0  501    0  0.00000000000E+00  0.00000000000E+00 -0.18112974269E+04  0.18112974269E+04  0.50400001928E-02 0.  1.
    10030    2    1    2    0    0  0.00000000000E+00  0.00000000000E+00 -0.42121467807E+03  0.32013801757E+04  0.31735489952E+04 0.  0.
        4    1    3    3  502    0  0.10672196653E+04  0.69692168319E+03 -0.11639849606E+04  0.17261286881E+04  0.12699999809E+01 0.  1.
       -4    1    3    3    0  502 -0.10672196653E+04 -0.69692168319E+03  0.74277028249E+03  0.14752514877E+04  0.12699999809E+01 0. -1.
</event>
<event>
 5   0  0.1538349E-06  0.3101882E+04  0.7818609E-02  0.8215222E-01
        2   -1    0    0  501    0  0.00000000000E+00  0.00000000000E+00  0.20161350343E+04  0.20161350343E+04  0.25500000920E-02 0.  1.
       -2   -1    0    0    0  501  0.00000000000E+00  0.00000000000E+00 -0.11930839321E+04  0.11930839321E+04  0.25500000920E-02 0. -1.
    10030    2    1    2    0    0  0.00000000000E+00  0.00000000000E+00  0.82305110222E+03  0.32092189665E+04  0.31018822121E+04 0.  0.
        1    1    3    3  502    0  0.13865069344E+04  0.58478833468E+03  0.22977858820E+02  0.15049607495E+04  0.50400001928E-02 0. -1.
       -1    1    3    3    0  502 -0.13865069344E+04 -0.58478833468E+03  0.80007324340E+03  0.17042582170E+04  0.50400001928E-02 0.  1.
</event>
<event>
 5   0  0.5317728E-07  0.3188390E+04  0.7818609E-02  0.8191890E-01
       -1   -1    0    0    0  501  0.00000000000E+00  0.00000000000E+00  0.14294856791E+04  0.14294856791E+04  0.50400001928E-02 0. -1.
        1   -1    0    0  501    0  0.00000000000E+00  0.00000000000E+00 -0.17778825803E+04  0.17778825803E+04  0.50400001928E-02 0.  1.
    10030    2    1    2    0    0  0.00000000000E+00  0.00000000000E+00 -0.34839690119E+03  0.32073682594E+04  0.31883899935E+04 0.  0.
        2    1    3    3  502    0  0.11339122735E+04 -0.95755768124E+03 -0.75971448238E+03  0.16672851741E+04  0.25500000920E-02 0.  1.
       -2    1    3    3    0  502 -0.11339122735E+04  0.95755768124E+03  0.41131758120E+03  0.15400830853E+04  0.25500000920E-02 0. -1.
</event>
<event>
 5   0  0.1508771E-06  0.3227630E+04  0.7818609E-02  0.8181558E-01
        2   -1    0    0  501    0  0.00000000000E+00  0.00000000000E+00  0.27964666618E+04  0.27964666618E+04  0.25500000920E-02 0.  1.
       -2   -1    0    0    0  501  0.00000000000E+00  0.00000000000E+00 -0.93131746517E+03  0.93131746517E+03  0.25500000920E-02 0. -1.
    10030    2    1    2    0    0  0.00000000000E+00  0.00000000000E+00  0.18651491966E+04  0.37277841270E+04  0.32276296212E+04 0.  0.
        4    1    3    3  502    0 -0.37726355720E+03 -0.15147879244E+04  0.14052432648E+04  0.21003857964E+04  0.12699999809E+01 0.  1.
       -4    1    3    3    0  502  0.37726355720E+03  0.15147879244E+04  0.45990593179E+03  0.16273983306E+04  0.12699999809E+01 0. -1.
</event>
<event>
 5   0  0.1556396E-06  0.3126368E+04  0.7818609E-02  0.8208538E-01
       -2   -1    0    0    0  501  0.00000000000E+00  0.00000000000E+00  0.28386954382E+04  0.28386954382E+04  0.25500000920E-02 0. -1.
        2   -1    0    0  501    0  0.00000000000E+00  0.00000000000E+00 -0.86079836063E+03  0.86079836064E+03  0.25500000920E-02 0.  1.
    10030    2    1    2    0    0  0.00000000000E+00  0.00000000000E+00  0.19778970775E+04  0.36994937988E+04  0.31263681034E+04 0.  0.
        3    1    3    3  502    0 -0.62173221102E+03 -0.14026575251E+04  0.63485045493E+03  0.16604319273E+04  0.10100000352E+00 0.  1.
       -3    1    3    3    0  502  0.62173221102E+03  0.14026575251E+04  0.13430466226E+04  0.20390618715E+04  0.10100000352E+00 0. -1.
</event>
<event>
 5   0  0.5317728E-07  0.3162560E+04  0.7818609E-02  0.8198775E-01
        1   -1    0    0  501    0  0.00000000000E+00  0.00000000000E+00  0.15188761744E+04  0.15188761744E+04  0.50400001928E-02 0.  1.
       -1   -1    0    0    0  501  0.00000000000E+00  0.00000000000E+00 -0.16462482047E+04  0.16462482047E+04  0.50400001928E-02 0. -1.
    10030    2    1    2    0    0  0.00000000000E+00  0.00000000000E+00 -0.12737203023E+03  0.31651243791E+04  0.31625604660E+04 0.  0.
        2    1    3    3  502    0 -0.92956173590E+03  0.36323495169E+03 -0.12912294188E+04  0.16319614159E+04  0.25500000920E-02 0. -1.
       -2    1    3    3    0  502  0.92956173590E+03 -0.36323495169E+03  0.11638573885E+04  0.15331629632E+04  0.25500000920E-02 0.  1.
</event>
<event>
 5   0  0.5233813E-07  0.3195258E+04  0.7818609E-02  0.8190071E-01
       -1   -1    0    0    0  501  0.00000000000E+00  0.00000000000E+00  0.14174921406E+04  0.14174921406E+04  0.50400001928E-02 0.  1.
        1   -1    0    0  501    0  0.00000000000E+00  0.00000000000E+00 -0.18006577582E+04  0.18006577582E+04  0.50400001928E-02 0. -1.
    10030    2    1    2    0    0  0.00000000000E+00  0.00000000000E+00 -0.38316561763E+03  0.32181498988E+04  0.31952578738E+04 0.  0.
        4    1    3    3  502    0 -0.83961272248E+03 -0.98818977257E+03 -0.11315149115E+04  0.17209869721E+04  0.12699999809E+01 0. -1.
       -4    1    3    3    0  502  0.83961272248E+03  0.98818977257E+03  0.74834929387E+03  0.14971629266E+04  0.12699999809E+01 0.  1.
</event>
<event>
 5   0  0.5177039E-07  0.3193084E+04  0.7818609E-02  0.8190646E-01
       -1   -1    0    0    0  501  0.00000000000E+00  0.00000000000E+00  0.14833309886E+04  0.14833309886E+04  0.50400001928E-02 0. -1.
        1   -1    0    0  501    0  0.00000000000E+00  0.00000000000E+00 -0.17183935473E+04  0.17183935473E+04  0.50400001928E-02 0.  1.
    10030    2    1    2    0    0  0.00000000000E+00  0.00000000000E+00 -0.23506255863E+03  0.32017245359E+04  0.31930840260E+04 0.  0.
        3    1    3    3  502    0  0.11506916635E+04 -0.86997522141E+02  0.98876135950E+03  0.15196410463E+04  0.10100000352E+00 0. -1.
       -3    1    3    3    0  502 -0.11506916635E+04  0.86997522141E+02 -0.12238239181E+04  0.16820834896E+04  0.10100000352E+00 0.  1.
</event>
<event>
 5   0  0.5177039E-07  0.3194253E+04  0.7818609E-02  0.8190337E-01
        1   -1    0    0  501    0  0.00000000000E+00  0.00000000000E+00  0.14088492749E+04  0.14088492749E+04  0.50400001928E-02 0. -1.
       -1   -1    0    0    0  501  0.00000000000E+00  0.00000000000E+00 -0.18105649042E+04  0.18105649042E+04  0.50400001928E-02 0.  1.
    10030    2    1    2    0    0  0.00000000000E+00  0.00000000000E+00 -0.40171562930E+03  0.32194141791E+04  0.31942529972E+04 0.  0.
        3    1    3    3  502    0  0.45940574314E+03 -0.14245720756E+04 -0.76234012728E+03  0.16797683516E+04  0.10100000352E+00 0.  1.
       -3    1    3    3    0  502 -0.45940574314E+03  0.14245720756E+04  0.36062449798E+03  0.15396458275E+04  0.10100000352E+00 0. -1.
</event>
<event>
 5   0  0.1538349E-06  0.3242920E+04  0.7818609E-02  0.8177573E-01
       -2   -1    0    0    0  501  0.00000000000E+00  0.00000000000E+00  0.27956227282E+04  0.27956227282E+04  0.25500000920E-02 0.  1.
        2   -1    0    0  501    0  0.00000000000E+00  0.00000000000E+00 -0.94044636246E+03  0.94044636247E+03  0.25500000920E-02 0. -1.
    10030    2    1    2    0    0  0.00000000000E+00  0.00000000000E+00  0.18551763657E+04  0.37360690906E+04  0.32429204280E+04 0.  0.
        1    1    3    3  502    0 -0.10266013132E+04 -0.19258635608E+03 -0.50122555440E+03  0.11585451296E+04  0.50400001928E-02 0. -1.
       -1    1    3    3    0  502  0.10266013132E+04  0.19258635608E+03  0.23564019201E+04  0.25775239611E+04  0.50400001928E-02 0.  1.
</event>
<event>
 5   0  0.1572769E-06  0.3238911E+04  0.7818609E-02  0.8178616E-01
        2   -1    0    0  501    0  0.00000000000E+00  0.00000000000E+00  0.18973255816E+04  0.18973255816E+04  0.25500000920E-02 0. -1.
       -2   -1    0    0    0  501  0.00000000000E+00  0.00000000000E+00 -0.13822808247E+04  0.13822808247E+04  0.25500000920E-02 0.  1.
    10030    2    1    2    0    0  0.00000000000E+00  0.00000000000E+00  0.51504475693E+03  0.32796064063E+04  0.32389114034E+04 0.  0.
        5    1    3    3  502    0 -0.13756002323E+04  0.65250848650E+03  0.81633625967E+03  0.17275619534E+04  0.46999998093E+01 0. -1.
       -5    1    3    3    0  502  0.13756002323E+04 -0.65250848650E+03 -0.30129150274E+03  0.15520444529E+04  0.46999998093E+01 0.  1.
</event>
<event>
 5   0  0.1493485E-06  0.3177488E+04  0.7818609E-02  0.8194788E-01
       -2   -1    0    0    0  501  0.00000000000E+00  0.00000000000E+00  0.12792200631E+04  0.12792200631E+04  0.25500000920E-02 0. -1.
        2   -1    0    0  501    0  0.00000000000E+00  0.00000000000E+00 -0.19731612334E+04  0.19731612334E+04  0.25500000920E-02 0.  1.
    10030    2    1    2    0    0  0.00000000000E+00  0.00000000000E+00 -0.69394117030E+03  0.32523812966E+04  0.31774879623E+04 0.  0.
        2    1    3    3  502    0  0.10837884219E+04  0.63010894525E+03 -0.13459207772E+04  0.18393306839E+04  0.25500000920E-02 0.  1.
       -2    1    3    3    0  502 -0.10837884219E+04 -0.63010894525E+03  0.65197960687E+03  0.14130506127E+04  0.25500000920E-02 0. -1.
</event>
<event>
 5   0  0.5370912E-07  0.3223996E+04  0.7818609E-02  0.8182509E-01
        1   -1    0    0  501    0  0.00000000000E+00  0.00000000000E+00  0.16131966657E+04  0.16131966657E+04  0.50400001928E-02 0. -1.
       -1   -1    0    0    0  501  0.00000000000E+00  0.00000000000E+00 -0.16108000538E+04  0.16108000538E+04  0.50400001928E-02 0.  1.
    10030    2    1    2    0    0  0.00000000000E+00  0.00000000000E+00  0.23966119422E+01  0.32239967195E+04  0.32239958287E+04 0.  0.
        1    1    3    3  502    0 -0.41682416620E+03  0.49282957442E+03  0.14783290066E+04  0.16130964096E+04  0.50400001928E-02 0. -1.
       -1    1    3    3    0  502  0.41682416620E+03 -0.49282957442E+03 -0.14759323946E+04  0.16109003099E+04  0.50400001928E-02 0.  1.
</event>
<event>
 5   0  0.1493485E-06  0.3198831E+04  0.7818609E-02  0.8189126E-01
       -2   -1    0    0    0  501  0.00000000000E+00  0.00000000000E+00  0.15952617645E+04  0.15952617645E+04  0.25500000920E-02 0.  1.
        2   -1    0    0  501    0  0.00000000000E+00  0.00000000000E+00 -0.16035797982E+04  0.16035797982E+04  0.25500000920E-02 0. -1.
    10030    2    1    2    0    0  0.00000000000E+00  0.00000000000E+00 -0.83180337083E+01  0.31988415627E+04  0.31988307479E+04 0.  0.
        2    1    3    3  502    0 -0.26420579107E+03  0.79756414701E+03  0.13568071084E+04  0.15958818246E+04  0.25500000920E-02 0.  1.
       -2    1    3    3    0  502  0.26420579107E+03 -0.79756414701E+03 -0.13651251421E+04  0.16029597382E+04  0.25500000920E-02 0. -1.
</event>
<event>
 5   0  0.5370912E-07  0.3206497E+04  0.7818609E-02  0.8187103E-01
        1   -1    0    0  501    0  0.00000000000E+00  0.00000000000E+00  0.24315370236E+04  0.24315370236E+04  0.50400001928E-02 0. -1.
       -1   -1    0    0    0  501  0.00000000000E+00  0.00000000000E+00 -0.10571116430E+04  0.10571116430E+04  0.50400001928E-02 0.  1.
    10030    2    1    2    0    0  0.00000000000E+00  0.00000000000E+00  0.13744253806E+04  0.34886486666E+04  0.32064972154E+04 0.  0.
        1    1    3    3  502    0 -0.36282117041E+03  0.11780117711E+04 -0.42820909600E+03  0.13048808239E+04  0.50400001928E-02 0.  1.
       -1    1    3    3    0  502  0.36282117041E+03 -0.11780117711E+04  0.18026344766E+04  0.21837678427E+04  0.50400001928E-02 0. -1.
</event>
<event>
 5   0  0.5281187E-07  0.3224554E+04  0.7818609E-02  0.8182362E-01
        1   -1    0    0  501    0  0.00000000000E+00  0.00000000000E+00  0.14385798606E+04  0.14385798606E+04  0.50400001928E-02 0. -1.
       -1   -1    0    0    0  501  0.00000000000E+00  0.00000000000E+00 -0.18069469933E+04  0.18069469933E+04  0.50400001928E-02 0.  1.
    10030    2    1    2    0    0  0.00000000000E+00  0.00000000000E+00 -0.36836713272E+03  0.32455268539E+04  0.32245542661E+04 0.  0.
        5    1    3    3  502    0  0.10557593401E+04 -0.11701663824E+04  0.15787726346E+03  0.15839395402E+04  0.46999998093E+01 0. -1.
       -5    1    3    3    0  502 -0.10557593401E+04  0.11701663824E+04 -0.52624439618E+03  0.16615873137E+04  0.46999998093E+01 0.  1.
</event>
<event>
 5   0  0.1508771E-06  0.3189755E+04  0.7818609E-02  0.8191528E-01
        2   -1    0    0  501    0  0.00000000000E+00  0.00000000000E+00  0.21049100069E+04  0.21049100069E+04  0.25500000920E-02 0. -1.
       -2   -1    0    0    0  501  0.00000000000E+00  0.00000000000E+00 -0.12084290277E+04  0.12084290277E+04  0.25500000920E-02 0.  1.
    10030    2    1    2    0    0  0.00000000000E+00  0.00000000000E+00  0.89648097925E+03  0.33133390346E+04  0.31897550709E+04 0.  0.
        4    1    3    3  502    0  0.49527140447E+02 -0.13823381708E+04  0.12729280110E+04  0.18798029392E+04  0.12699999809E+01 0. -1.
       -4    1    3    3    0  502 -0.49527140447E+02  0.13823381708E+04 -0.37644703179E+03  0.14335360954E+04  0.12699999809E+01 0.  1.
</event>
<event>
 5   0  0.5177039E-07  0.3206306E+04  0.7818609E-02  0.8187154E-01
        1   -1    0    0  501    0  0.00000000000E+00  0.00000000000E+00  0.22791035163E+04  0.22791035163E+04  0.50400001928E-02 0. -1.
       -1   -1    0    0    0  501  0.00000000000E+00  0.00000000000E+00 -0.11276797104E+04  0.11276797104E+04  0.50400001928E-02 0.  1.
    10030    2    1    2    0    0  0.00000000000E+00  0.00000000000E+00  0.11514238060E+04  0.34067832267E+04  0.32063055333E+04 0.  0.
        3    1    3    3  502    0  0.68761023561E+03  0.91873468926E+03  0.17651800713E+04  0.21054077894E+04  0.10100000352E+00 0. -1.
       -3    1    3    3    0  502 -0.68761023561E+03 -0.91873468926E+03 -0.61375626533E+03  0.13013754373E+04  0.10100000352E+00 0.  1.
</event>
<event>
 5   0  0.4995625E-07  0.3172810E+04  0.7818609E-02  0.8196035E-01
       -3   -1    0    0    0  501  0.00000000000E+00  0.00000000000E+00  0.16789569806E+04  0.16789569836E+04  0.10100000352E+00 0. -1.
        3   -1    0    0  501    0  0.00000000000E+00  0.00000000000E+00 -0.14989546268E+04  0.14989546302E+04  0.10100000352E+00 0.  1.
    10030    2    1    2    0    0  0.00000000000E+00  0.00000000000E+00  0.18000235376E+03  0.31779116138E+04  0.31728096977E+04 0.  0.
        1    1    3    3  502    0  0.56730383728E+03 -0.11278585235E+04  0.10521612084E+04  0.16434541981E+04  0.50400001928E-02 0. -1.
       -1    1    3    3    0  502 -0.56730383728E+03  0.11278585235E+04 -0.87215885463E+03  0.15344574157E+04  0.50400001928E-02 0.  1.
</event>
<event>
 5   0  0.5370912E-07  0.3266191E+04  0.7818609E-02  0.8171552E-01
       -1   -1    0    0    0  501  0.00000000000E+00  0.00000000000E+00  0.17930710310E+04  0.17930710310E+04  0.50400001928E-02 0.  1.
        1   -1    0    0  501    0  0.00000000000E+00  0.00000000000E+00 -0.14873931934E+04  0.14873931934E+04  0.50400001928E-02 0. -1.
    10030    2    1    2    0    0  0.00000000000E+00  0.00000000000E+00  0.30567783760E+03  0.32804642244E+04  0.32661914499E+04 0.  0.
        1    1    3    3  502    0 -0.65134557414E+03 -0.11585820622E+04  0.11058997528E+04  0.17290395355E+04  0.50400001928E-02 0.  1.
       -1    1    3    3    0  502  0.65134557414E+03  0.11585820622E+04 -0.80022191521E+03  0.15514246889E+04  0.50400001928E-02 0. -1.
</event>
<event>
 5   0  0.5317728E-07  0.2842221E+04  0.7818609E-02  0.8290279E-01
       -1   -1    0    0    0  501  0.00000000000E+00  0.00000000000E+00  0.18912406751E+04  0.18912406751E+04  0.50400001928E-02 0. -1.
        1   -1    0    0  501    0  0.00000000000E+00  0.00000000000E+00 -0.10678466174E+04  0.10678466174E+04  0.50400001928E-02 0.  1.
    10030    2    1    2    0    0  0.00000000000E+00  0.00000000000E+00  0.82339405772E+03  0.29590872925E+04  0.28422209327E+04 0.  0.
        2    1    3    3  502    0  0.11271927712E+03  0.12533981873E+04 -0.27563191899E+03  0.12882878584E+04  0.25500000920E-02 0.  1.
       -2    1    3    3    0  502 -0.11271927712E+03 -0.12533981873E+04  0.10990259767E+04  0.16707994341E+04  0.25500000920E-02 0. -1.
</event>
<event>
 5   0  0.5233813E-07  0.3190578E+04  0.7818609E-02  0.8191310E-01
        1   -1    0    0  501    0  0.00000000000E+00  0.00000000000E+00  0.22256366417E+04  0.22256366417E+04  0.50400001928E-02 0. -1.
       -1   -1    0    0    0  501  0.00000000000E+00  0.00000000000E+00 -0.11434693460E+04  0.11434693460E+04  0.50400001928E-02 0.  1.
    10030    2    1    2    0    0  0.00000000000E+00  0.00000000000E+00  0.10821672957E+04  0.33691059877E+04  0.31905781765E+04 0.  0.
        4    1    3    3  502    0  0.93547872729E+02  0.15912045096E+04  0.47214131879E+03  0.16624085039E+04  0.12699999809E+01 0. -1.
       -4    1    3    3    0  502 -0.93547872729E+02 -0.15912045096E+04  0.61002597693E+03  0.17066974839E+04  0.12699999809E+01 0.  1.
</event>
<event>
 5   0  0.5281187E-07  0.3249103E+04  0.7818609E-02  0.8175968E-01
        1   -1    0    0  501    0  0.00000000000E+00  0.00000000000E+00  0.10454590242E+04  0.10454590242E+04  0.50400001928E-02 0. -1.
       -1   -1    0    0    0  501  0.00000000000E+00  0.00000000000E+00 -0.25244096544E+04  0.25244096544E+04  0.50400001928E-02 0.  1.
    10030    2    1    2    0    0  0.00000000000E+00  0.00000000000E+00 -0.14789506302E+04  0.35698686786E+04  0.32491025555E+04 0.  0.
        5    1    3    3  502    0 -0.10518047425E+04  0.10810775540E+04 -0.14024742019E+04  0.20596062418E+04  0.46999998093E+01 0.  1.
       -5    1    3    3    0  502  0.10518047425E+04 -0.10810775540E+04 -0.76476428234E+02  0.15102624368E+04  0.46999998093E+01 0. -1.
</event>
<event>
 5   0  0.1538349E-06  0.3188742E+04  0.7818609E-02  0.8191797E-01
       -2   -1    0    0    0  501  0.00000000000E+00  0.00000000000E+00  0.17196360244E+04  0.17196360244E+04  0.25500000920E-02 0. -1.
        2   -1    0    0  501    0  0.00000000000E+00  0.00000000000E+00 -0.14782305236E+04  0.14782305236E+04  0.25500000920E-02 0.  1.
    10030    2    1    2    0    0  0.00000000000E+00  0.00000000000E+00  0.24140550080E+03  0.31978665481E+04  0.31887417336E+04 0.  0.
        1    1    3    3  502    0 -0.10106224889E+04  0.12230871574E+04  0.27837367633E+03  0.16108357810E+04  0.50400001928E-02 0. -1.
       -1    1    3    3    0  502  0.10106224889E+04 -0.12230871574E+04 -0.36968175533E+02  0.15870307671E+04  0.50400001928E-02 0.  1.
</event>
<event>
 5   0  0.5317728E-07  0.3204292E+04  0.7818609E-02  0.8187685E-01
        1   -1    0    0  501    0  0.00000000000E+00  0.00000000000E+00  0.16426768926E+04  0.16426768926E+04  0.50400001928E-02 0. -1.
       -1   -1    0    0    0  501  0.00000000000E+00  0.00000000000E+00 -0.15626146956E+04  0.15626146956E+04  0.50400001928E-02 0.  1.
    10030    2    1    2    0    0  0.00000000000E+00  0.00000000000E+00  0.80062197027E+02  0.32052915882E+04  0.32042915301E+04 0.  0.
        2    1    3    3  502    0 -0.13393170417E+04 -0.55080365925E+03 -0.64554127964E+03  0.15855214766E+04  0.25500000920E-02 0.  1.
       -2    1    3    3    0  502  0.13393170417E+04  0.55080365925E+03  0.72560347667E+03  0.16197701116E+04  0.25500000920E-02 0. -1.
</event>
<event>
 5   0  0.1556396E-06  0.3200484E+04  0.7818609E-02  0.8188689E-01
       -2   -1    0    0    0  501  0.00000000000E+00  0.00000000000E+00  0.28141308740E+04  0.28141308740E+04  0.25500000920E-02 0. -1.
        2   -1    0    0  501    0  0.00000000000E+00  0.00000000000E+00 -0.90997002225E+03  0.90997002225E+03  0.25500000920E-02 0.  1.
    10030    2    1    2    0    0  0.00000000000E+00  0.00000000000E+00  0.19041608517E+04  0.37241008962E+04  0.32004841721E+04 0.  0.
        3    1    3    3  502    0 -0.12151836779E+04  0.89481190916E+03  0.15715459925E+04  0.21787878604E+04  0.10100000352E+00 0. -1.
       -3    1    3    3    0  502  0.12151836779E+04 -0.89481190916E+03  0.33261485919E+03  0.15453130358E+04  0.10100000352E+00 0.  1.
</event>
<event>
 5   0  0.5233813E-07  0.3193444E+04  0.7818609E-02  0.8190551E-01
        1   -1    0    0  501    0  0.00000000000E+00  0.00000000000E+00  0.27233565456E+04  0.27233565456E+04  0.50400001928E-02 0. -1.
       -1   -1    0    0    0  501  0.00000000000E+00  0.00000000000E+00 -0.93616841934E+03  0.93616841935E+03  0.50400001928E-02 0.  1.
    10030    2    1    2    0    0  0.00000000000E+00  0.00000000000E+00  0.17871881263E+04  0.36595249650E+04  0.31934435286E+04 0.  0.
        4    1    3    3  502    0  0.47253082370E+02 -0.66349885748E+03  0.25570198485E+04  0.26421233329E+04  0.12699999809E+01 0. -1.
       -4    1    3    3    0  502 -0.47253082370E+02  0.66349885748E+03 -0.76983172218E+03  0.10174016321E+04  0.12699999809E+01 0.  1.
</event>
<event>
 5   0  0.1538349E-06  0.3131512E+04  0.7818609E-02  0.8207143E-01
        2   -1    0    0  501    0  0.00000000000E+00  0.00000000000E+00  0.24349000568E+04  0.24349000569E+04  0.25500000920E-02 0. -1.
       -2   -1    0    0    0  501  0.00000000000E+00  0.00000000000E+00 -0.10068549240E+04  0.10068549240E+04  0.25500000920E-02 0.  1.
    10030    2    1    2    0    0  0.00000000000E+00  0.00000000000E+00  0.14280451329E+04  0.34417549808E+04  0.31315115275E+04 0.  0.
        1    1    3    3  502    0  0.94226979796E+03 -0.11523386973E+03  0.20825496677E+04  0.22887036364E+04  0.50400001928E-02 0. -1.
       -1    1    3    3    0  502 -0.94226979796E+03  0.11523386973E+03 -0.65450453479E+03  0.11530513445E+04  0.50400001928E-02 0.  1.
</event>
<event>
 5   0  0.5177039E-07  0.3181566E+04  0.7818609E-02  0.8193702E-01
       -1   -1    0    0    0  501  0.00000000000E+00  0.00000000000E+00  0.17045661856E+04  0.17045661856E+04  0.50400001928E-02 0. -1.
        1   -1    0    0  501    0  0.00000000000E+00  0.00000000000E+00 -0.14845955344E+04  0.14845955344E+04  0.50400001928E-02 0.  1.
    10030    2    1    2    0    0  0.00000000000E+00  0.00000000000E+00  0.21997065120E+03  0.31891617200E+04  0.31815664992E+04 0.  0.
        3    1    3    3  502    0  0.38388607245E+03 -0.75981913695E+03  0.14570303432E+04  0.16874925389E+04  0.10100000352E+00 0. -1.
       -3    1    3    3    0  502 -0.38388607245E+03  0.75981913695E+03 -0.12370596920E+04  0.15016691811E+04  0.10100000352E+00 0.  1.
</event>
<event>
 5   0  0.1508771E-06  0.3192453E+04  0.7818609E-02  0.8190813E-01
        2   -1    0    0  501    0  0.00000000000E+00  0.00000000000E+00  0.21543171361E+04  0.21543171361E+04  0.25500000920E-02 0. -1.
       -2   -1    0    0    0  501  0.00000000000E+00  0.00000000000E+00 -0.11827128765E+04  0.11827128765E+04  0.25500000920E-02 0.  1.
    10030    2    1    2    0    0  0.00000000000E+00  0.00000000000E+00  0.97160425964E+03  0.33370300126E+04  0.31924527354E+04 0.  0.
        4    1    3    3  502    0  0.39650517100E+03 -0.27097492732E+03 -0.11054028672E+04  0.12052223337E+04  0.12699999809E+01 0.  1.
       -4    1    3    3    0  502 -0.39650517100E+03  0.27097492732E+03  0.20770071269E+04  0.21318076789E+04  0.12699999809E+01 0. -1.
</event>
<event>
 5   0  0.1493485E-06  0.3069660E+04  0.7818609E-02  0.8224114E-01
        2   -1    0    0  501    0  0.00000000000E+00  0.00000000000E+00  0.20291617662E+04  0.20291617662E+04  0.25500000920E-02 0.  1.
       -2   -1    0    0    0  501  0.00000000000E+00  0.00000000000E+00 -0.11609243170E+04  0.11609243170E+04  0.25500000920E-02 0. -1.
    10030    2    1    2    0    0  0.00000000000E+00  0.00000000000E+00  0.86823744917E+03  0.31900860832E+04  0.30696600708E+04 0.  0.
        2    1    3    3  502    0 -0.46694074887E+03 -0.73130510565E+03 -0.88159147187E+03  0.12369496125E+04  0.25500000920E-02 0. -1.
       -2    1    3    3    0  502  0.46694074887E+03  0.73130510565E+03  0.17498289210E+04  0.19531364708E+04  0.25500000920E-02 0.  1.
</event>
<event>
 5   0  0.1572769E-06  0.3192579E+04  0.7818609E-02  0.8190780E-01
        2   -1    0    0  501    0  0.00000000000E+00  0.00000000000E+00  0.13448718005E+04  0.13448718005E+04  0.25500000920E-02 0.  1.
       -2   -1    0    0    0  501  0.00000000000E+00  0.00000000000E+00 -0.18947086997E+04  0.18947086997E+04  0.25500000920E-02 0. -1.
    10030    2    1    2    0    0  0.00000000000E+00  0.00000000000E+00 -0.54983689917E+03  0.32395805002E+04  0.31925790830E+04 0.  0.
        5    1    3    3  502    0  0.12986889368E+04 -0.82015448245E+03 -0.71591050405E+03  0.16946375038E+04  0.46999998093E+01 0.  1.
       -5    1    3    3    0  502 -0.12986889368E+04  0.82015448245E+03  0.16607360487E+03  0.15449429963E+04  0.46999998093E+01 0. -1.
</event>
<event>
 5   0  0.1493485E-06  0.3192916E+04  0.7818609E-02  0.8190691E-01
        2   -1    0    0  501    0  0.00000000000E+00  0.00000000000E+00  0.17358613990E+04  0.17358613990E+04  0.25500000920E-02 0.  1.
       -2   -1    0    0    0  501  0.00000000000E+00  0.00000000000E+00 -0.14682494679E+04  0.14682494679E+04  0.25500000920E-02 0. -1.
    10030    2    1    2    0    0  0.00000000000E+00  0.00000000000E+00  0.26761193109E+03  0.32041108669E+04  0.31929156428E+04 0.  0.
        2    1    3    3  502    0  0.27462918636E+03 -0.40322868281E+03 -0.13916103837E+04  0.14746504741E+04  0.25500000920E-02 0. -1.
       -2    1    3    3    0  502 -0.27462918636E+03  0.40322868281E+03  0.16592223148E+04  0.17294603929E+04  0.25500000920E-02 0.  1.
</event>
<event>
 5   0  0.1556396E-06  0.3200745E+04  0.7818609E-02  0.8188620E-01
        2   -1    0    0  501    0  0.00000000000E+00  0.00000000000E+00  0.13789382268E+04  0.13789382268E+04  0.25500000920E-02 0.  1.
       -2   -1    0    0    0  501  0.00000000000E+00  0.00000000000E+00 -0.18573653213E+04  0.18573653213E+04  0.25500000920E-02 0. -1.
    10030    2    1    2    0    0  0.00000000000E+00  0.00000000000E+00 -0.47842709456E+03  0.32363035481E+04  0.32007449400E+04 0.  0.
        3    1    3    3  502    0 -0.62037118422E+03 -0.91283967312E+03  0.93256390947E+03  0.14449263408E+04  0.10100000352E+00 0.  1.
       -3    1    3    3    0  502  0.62037118422E+03  0.91283967312E+03 -0.14109910040E+04  0.17913772073E+04  0.10100000352E+00 0. -1.
</event>
<event>
 5   0  0.1556396E-06  0.3185267E+04  0.7818609E-02  0.8192719E-01
        2   -1    0    0  501    0  0.00000000000E+00  0.00000000000E+00  0.24439570715E+04  0.24439570715E+04  0.25500000920E-02 0. -1.
       -2   -1    0    0    0  501  0.00000000000E+00  0.00000000000E+00 -0.10378581470E+04  0.10378581470E+04  0.25500000920E-02 0.  1.
    10030    2    1    2    0    0  0.00000000000E+00  0.00000000000E+00  0.14060989244E+04  0.34818152185E+04  0.31852665556E+04 0.  0.
        3    1    3    3  502    0 -0.45909918696E+03  0.58262790445E+03 -0.83750574158E+03  0.11187686159E+04  0.10100000352E+00 0.  1.
       -3    1    3    3    0  502  0.45909918696E+03 -0.58262790445E+03  0.22436046660E+04  0.23630466026E+04  0.10100000352E+00 0. -1.
</event>
<event>
 5   0  0.1493485E-06  0.3204172E+04  0.7818609E-02  0.8187716E-01
        2   -1    0    0  501    0  0.00000000000E+00  0.00000000000E+00  0.27614083512E+04  0.27614083512E+04  0.25500000920E-02 0. -1.
       -2   -1    0    0    0  501  0.00000000000E+00  0.00000000000E+00 -0.92948222653E+03  0.92948222654E+03  0.25500000920E-02 0.  1.
    10030    2    1    2    0    0  0.00000000000E+00  0.00000000000E+00  0.18319261247E+04  0.36908905777E+04  0.32041722692E+04 0.  0.
        2    1    3    3  502    0 -0.14554190800E+04 -0.12171817251E+03  0.16744881520E+04  0.22219294730E+04  0.25500000920E-02 0. -1.
       -2    1    3    3    0  502  0.14554190800E+04  0.12171817251E+03  0.15743797266E+03  0.14689611047E+04  0.25500000920E-02 0.  1.
</event>
<event>
 5   0  0.4995625E-07  0.3171829E+04  0.7818609E-02  0.8196297E-01
       -3   -1    0    0    0  501  0.00000000000E+00  0.00000000000E+00  0.31148827258E+04  0.31148827274E+04  0.10100000352E+00 0.  1.
        3   -1    0    0  501    0  0.00000000000E+00  0.00000000000E+00 -0.80745429509E+03  0.80745430141E+03  0.10100000352E+00 0. -1.
    10030    2    1    2    0    0  0.00000000000E+00  0.00000000000E+00  0.23074284307E+04  0.39223370288E+04  0.31718294098E+04 0.  0.
        5    1    3    3  502    0 -0.23144531199E+03  0.78084113329E+03 -0.52909502492E+03  0.97120720923E+03  0.46999998093E+01 0. -1.
       -5    1    3    3    0  502  0.23144531199E+03 -0.78084113329E+03  0.28365234556E+04  0.29511298196E+04  0.46999998093E+01 0.  1.
</event>
<event>
 5   0  0.1572769E-06  0.3202000E+04  0.7818609E-02  0.8188289E-01
        2   -1    0    0  501    0  0.00000000000E+00  0.00000000000E+00  0.97550764356E+03  0.97550764357E+03  0.25500000920E-02 0.  1.
       -2   -1    0    0    0  501  0.00000000000E+00  0.00000000000E+00 -0.26275567037E+04  0.26275567037E+04  0.25500000920E-02 0. -1.
    10030    2    1    2    0    0  0.00000000000E+00  0.00000000000E+00 -0.16520490601E+04  0.36030643473E+04  0.32020004050E+04 0.  0.
        5    1    3    3  502    0  0.10531577505E+04 -0.70213682264E+03  0.27709319600E+03  0.12957392077E+04  0.46999998093E+01 0.  1.
       -5    1    3    3    0  502 -0.10531577505E+04  0.70213682264E+03 -0.19291422561E+04  0.23073251395E+04  0.46999998093E+01 0. -1.
</event>
<event>
 5   0  0.1556396E-06  0.3179625E+04  0.7818609E-02  0.8194219E-01
        2   -1    0    0  501    0  0.00000000000E+00  0.00000000000E+00  0.14458457113E+04  0.14458457113E+04  0.25500000920E-02 0.  1.
       -2   -1    0    0    0  501  0.00000000000E+00  0.00000000000E+00 -0.17481149424E+04  0.17481149424E+04  0.25500000920E-02 0. -1.
    10030    2    1    2    0    0  0.00000000000E+00  0.00000000000E+00 -0.30226923110E+03  0.31939606537E+04  0.31796254448E+04 0.  0.
        3    1    3    3  502    0  0.71857512000E+03 -0.11881999492E+04  0.62652308370E+03  0.15233845565E+04  0.10100000352E+00 0.  1.
       -3    1    3    3    0  502 -0.71857512000E+03  0.11881999492E+04 -0.92879231480E+03  0.16705760972E+04  0.10100000352E+00 0. -1.
</event>
<event>
 5   0  0.5233813E-07  0.3177945E+04  0.7818609E-02  0.8194666E-01
       -1   -1    0    0    0  501  0.00000000000E+00  0.00000000000E+00  0.95189556654E+03  0.95189556656E+03  0.50400001928E-02 0.  1.
        1   -1    0    0  501    0  0.00000000000E+00  0.00000000000E+00 -0.26524267174E+04  0.26524267174E+04  0.50400001928E-02 0. -1.
    10030    2    1    2    0    0  0.00000000000E+00  0.00000000000E+00 -0.17005311508E+04  0.36043222840E+04  0.31779447653E+04 0.  0.
        4    1    3    3  502    0  0.78872499918E+03 -0.10345747768E+04  0.18450288880E+03  0.13139539650E+04  0.12699999809E+01 0.  1.
       -4    1    3    3    0  502 -0.78872499918E+03  0.10345747768E+04 -0.18850340396E+04  0.22903683190E+04  0.12699999809E+01 0. -1.
</event>
<event>
 5   0  0.1538349E-06  0.3037165E+04  0.7818609E-02  0.8233197E-01
        2   -1    0    0  501    0  0.00000000000E+00  0.00000000000E+00  0.18062205692E+04  0.18062205692E+04  0.25500000920E-02 0.  1.
       -2   -1    0    0    0  501  0.00000000000E+00  0.00000000000E+00 -0.12767503727E+04  0.12767503727E+04  0.25500000920E-02 0. -1.
    10030    2    1    2    0    0  0.00000000000E+00  0.00000000000E+00  0.52947019644E+03  0.30829709419E+04  0.30371649839E+04 0.  0.
        1    1    3    3  502    0  0.11335689250E+04 -0.69322855293E+03 -0.48157335465E+03  0.14133142716E+04  0.50400001928E-02 0. -1.
       -1    1    3    3    0  502 -0.11335689250E+04  0.69322855293E+03  0.10110435511E+04  0.16696566703E+04  0.50400001928E-02 0.  1.
</event>
<event>
 5   0  0.1493485E-06  0.3201409E+04  0.7818609E-02  0.8188445E-01
       -2   -1    0    0    0  501  0.00000000000E+00  0.00000000000E+00  0.14720361505E+04  0.14720361505E+04  0.25500000920E-02 0. -1.
        2   -1    0    0  501    0  0.00000000000E+00  0.00000000000E+00 -0.17406199204E+04  0.17406199204E+04  0.25500000920E-02 0.  1.
    10030    2    1    2    0    0  0.00000000000E+00  0.00000000000E+00 -0.26858376990E+03  0.32126560710E+04  0.32014093442E+04 0.  0.
        2    1    3    3  502    0 -0.10318003920E+04  0.44432444696E+03 -0.12785692611E+04  0.17019916623E+04  0.25500000920E-02 0.  1.
       -2    1    3    3    0  502  0.10318003920E+04 -0.44432444696E+03  0.10099854912E+04  0.15106644086E+04  0.25500000920E-02 0. -1.
</event>
<event>
 5   0  0.5317728E-07  0.3211433E+04  0.7818609E-02  0.8185804E-01
       -1   -1    0    0    0  501  0.00000000000E+00  0.00000000000E+00  0.10146945969E+04  0.10146945969E+04  0.50400001928E-02 0. -1.
        1   -1    0    0  501    0  0.00000000000E+00  0.00000000000E+00 -0.25409871332E+04  0.25409871332E+04  0.50400001928E-02 0.  1.
    10030    2    1    2    0    0  0.00000000000E+00  0.00000000000E+00 -0.15262925364E+04  0.35556817301E+04  0.32114332718E+04 0.  0.
        2    1    3    3  502    0 -0.63780684305E+03 -0.51278195428E+02 -0.23937319753E+04  0.24777771877E+04  0.25500000920E-02 0.  1.
       -2    1    3    3    0  502  0.63780684305E+03  0.51278195428E+02  0.86743943893E+03  0.10779045424E+04  0.25500000920E-02 0. -1.
</event>
<event>
 5   0  0.1572769E-06  0.3199868E+04  0.7818609E-02  0.8188852E-01
       -2   -1    0    0    0  501  0.00000000000E+00  0.00000000000E+00  0.18948164933E+04  0.18948164933E+04  0.25500000920E-02 0. -1.
        2   -1    0    0  501    0  0.00000000000E+00  0.00000000000E+00 -0.13509424858E+04  0.13509424858E+04  0.25500000920E-02 0.  1.
    10030    2    1    2    0    0  0.00000000000E+00  0.00000000000E+00  0.54387400749E+03  0.32457589791E+04  0.31998675620E+04 0.  0.
        5    1    3    3  502    0 -0.60141283811E+03 -0.14104702519E+03  0.17689672774E+04  0.18737286313E+04  0.46999998093E+01 0. -1.
       -5    1    3    3    0  502  0.60141283811E+03  0.14104702519E+03 -0.12250932700E+04  0.13720303478E+04  0.46999998093E+01 0.  1.
</event>
<event>
 5   0  0.5177039E-07  0.3185594E+04  0.7818609E-02  0.8192632E-01
       -1   -1    0    0    0  501  0.00000000000E+00  0.00000000000E+00  0.98909546336E+03  0.98909546338E+03  0.50400001928E-02 0. -1.
        1   -1    0    0  501    0  0.00000000000E+00  0.00000000000E+00 -0.25649716138E+04  0.25649716138E+04  0.50400001928E-02 0.  1.
    10030    2    1    2    0    0  0.00000000000E+00  0.00000000000E+00 -0.15758761504E+04  0.35540670772E+04  0.31855936884E+04 0.  0.
        3    1    3    3  502    0  0.10473355405E+04 -0.11766794646E+04 -0.10508088391E+04  0.18935906430E+04  0.10100000352E+00 0.  1.
       -3    1    3    3    0  502 -0.10473355405E+04  0.11766794646E+04 -0.52506731130E+03  0.16604764341E+04  0.10100000352E+00 0. -1.
</event>
<event>
 5   0  0.5177039E-07  0.3179776E+04  0.7818609E-02  0.8194179E-01
        1   -1    0    0  501    0  0.00000000000E+00  0.00000000000E+00  0.13941624098E+04  0.13941624098E+04  0.50400001928E-02 0.  1.
       -1   -1    0    0    0  501  0.00000000000E+00  0.00000000000E+00 -0.18130917858E+04  0.18130917858E+04  0.50400001928E-02 0. -1.
    10030    2    1    2    0    0  0.00000000000E+00  0.00000000000E+00 -0.41892937597E+03  0.32072541956E+04  0.31797763527E+04 0.  0.
        3    1    3    3  502    0  0.69853448356E+03  0.12711554284E+04 -0.86621176706E+03  0.16894109575E+04  0.10100000352E+00 0. -1.
       -3    1    3    3    0  502 -0.69853448356E+03 -0.12711554284E+04  0.44728239110E+03  0.15178432381E+04  0.10100000352E+00 0.  1.
</event>
<event>
 5   0  0.5233813E-07  0.3195920E+04  0.7818609E-02  0.8189896E-01
        1   -1    0    0  501    0  0.00000000000E+00  0.00000000000E+00  0.10721929849E+04  0.10721929849E+04  0.50400001928E-02 0.  1.
       -1   -1    0    0    0  501  0.00000000000E+00  0.00000000000E+00 -0.23815451886E+04  0.23815451886E+04  0.50400001928E-02 0. -1.
    10030    2    1    2    0    0  0.00000000000E+00  0.00000000000E+00 -0.13093522037E+04  0.34537381735E+04  0.31959199267E+04 0.  0.
        4    1    3    3  502    0 -0.65806147534E+03  0.13223413511E+04 -0.13136576508E+04  0.19766966359E+04  0.12699999809E+01 0. -1.
       -4    1    3    3    0  502  0.65806147534E+03 -0.13223413511E+04  0.43054470080E+01  0.14770415376E+04  0.12699999809E+01 0.  1.
</event>
<event>
 5   0  0.1508771E-06  0.2976403E+04  0.7818609E-02  0.8250501E-01
       -2   -1    0    0    0  501  0.00000000000E+00  0.00000000000E+00  0.15112294941E+04  0.15112294941E+04  0.25500000920E-02 0. -1.
        2   -1    0    0  501    0  0.00000000000E+00  0.00000000000E+00 -0.14655246542E+04  0.14655246542E+04  0.25500000920E-02 0.  1.
    10030    2    1    2    0    0  0.00000000000E+00  0.00000000000E+00  0.45704839866E+02  0.29767541483E+04  0.29764032535E+04 0.  0.
        4    1    3    3  502    0  0.34225764939E+03  0.48746617629E+03 -0.13411187958E+04  0.14674347716E+04  0.12699999809E+01 0.  1.
       -4    1    3    3    0  502 -0.34225764939E+03 -0.48746617629E+03  0.13868236357E+04  0.15093193767E+04  0.12699999809E+01 0. -1.
</event>
<event>
 5   0  0.1493485E-06  0.3206641E+04  0.7818609E-02  0.8187065E-01
       -2   -1    0    0    0  501  0.00000000000E+00  0.00000000000E+00  0.93587830266E+03  0.93587830267E+03  0.25500000920E-02 0.  1.
        2   -1    0    0  501    0  0.00000000000E+00  0.00000000000E+00 -0.27467643500E+04  0.27467643500E+04  0.25500000920E-02 0. -1.
    10030    2    1    2    0    0  0.00000000000E+00  0.00000000000E+00 -0.18108860473E+04  0.36826426527E+04  0.32066413318E+04 0.  0.
        2    1    3    3  502    0 -0.12104667206E+04  0.44204128954E+03 -0.20009913840E+04  0.23800413236E+04  0.25500000920E-02 0. -1.
       -2    1    3    3    0  502  0.12104667206E+04 -0.44204128954E+03  0.19010533667E+03  0.13026013290E+04  0.25500000920E-02 0.  1.
</event>
<event>
 5   0  0.1508771E-06  0.3205490E+04  0.7818609E-02  0.8187369E-01
        2   -1    0    0  501    0  0.00000000000E+00  0.00000000000E+00  0.13008969118E+04  0.13008969118E+04  0.25500000920E-02 0. -1.
       -2   -1    0    0    0  501  0.00000000000E+00  0.00000000000E+00 -0.19746307239E+04  0.19746307239E+04  0.25500000920E-02 0.  1.
    10030    2    1    2    0    0  0.00000000000E+00  0.00000000000E+00 -0.67373381214E+03  0.32755276357E+04  0.32054896729E+04 0.  0.
        4    1    3    3  502    0  0.13994434650E+04  0.70586647928E+03  0.52617861946E+01  0.15673923560E+04  0.12699999809E+01 0. -1.
       -4    1    3    3    0  502 -0.13994434650E+04 -0.70586647928E+03 -0.67899559834E+03  0.17081352797E+04  0.12699999809E+01 0.  1.
</event>
<event>
 5   0  0.1538349E-06  0.3184362E+04  0.7818609E-02  0.8192959E-01
        2   -1    0    0  501    0  0.00000000000E+00  0.00000000000E+00  0.14308230927E+04  0.14308230927E+04  0.25500000920E-02 0. -1.
       -2   -1    0    0    0  501  0.00000000000E+00  0.00000000000E+00 -0.17717354078E+04  0.17717354078E+04  0.25500000920E-02 0.  1.
    10030    2    1    2    0    0  0.00000000000E+00  0.00000000000E+00 -0.34091231511E+03  0.32025585006E+04  0.31843617481E+04 0.  0.
        1    1    3    3  502    0  0.11515091470E+04  0.18396073522E+03 -0.12607290055E+04  0.17173387823E+04  0.50400001928E-02 0.  1.
       -1    1    3    3    0  502 -0.11515091470E+04 -0.18396073522E+03  0.91981669044E+03  0.14852197183E+04  0.50400001928E-02 0. -1.
</event>
<event>
 5   0  0.1556396E-06  0.3193342E+04  0.7818609E-02  0.8190578E-01
       -2   -1    0    0    0  501  0.00000000000E+00  0.00000000000E+00  0.20256620294E+04  0.20256620294E+04  0.25500000920E-02 0. -1.
        2   -1    0    0  501    0  0.00000000000E+00  0.00000000000E+00 -0.12585307202E+04  0.12585307202E+04  0.25500000920E-02 0.  1.
    10030    2    1    2    0    0  0.00000000000E+00  0.00000000000E+00  0.76713130924E+03  0.32841927496E+04  0.31933417561E+04 0.  0.
        3    1    3    3  502    0 -0.77975829186E+03 -0.11033694763E+04  0.12586012751E+04  0.18464897440E+04  0.10100000352E+00 0. -1.
       -3    1    3    3    0  502  0.77975829186E+03  0.11033694763E+04 -0.49146996583E+03  0.14377030056E+04  0.10100000352E+00 0.  1.
</event>
<event>
 5   0  0.5370912E-07  0.3187173E+04  0.7818609E-02  0.8192213E-01
       -1   -1    0    0    0  501  0.00000000000E+00  0.00000000000E+00  0.12474356129E+04  0.12474356129E+04  0.50400001928E-02 0.  1.
        1   -1    0    0  501    0  0.00000000000E+00  0.00000000000E+00 -0.20357913946E+04  0.20357913946E+04  0.50400001928E-02 0. -1.
    10030    2    1    2    0    0  0.00000000000E+00  0.00000000000E+00 -0.78835578171E+03  0.32832270075E+04  0.31871734726E+04 0.  0.
        1    1    3    3  502    0 -0.15633418108E+04 -0.27226749557E+03 -0.54470308488E+03  0.16777570317E+04  0.50400001928E-02 0. -1.
       -1    1    3    3    0  502  0.15633418108E+04  0.27226749557E+03 -0.24365269683E+03  0.16054699759E+04  0.50400001928E-02 0.  1.
</event>
<event>
 5   0  0.1493485E-06  0.3193769E+04  0.7818609E-02  0.8190465E-01
        2   -1    0    0  501    0  0.00000000000E+00  0.00000000000E+00  0.21883352231E+04  0.21883352231E+04  0.25500000920E-02 0. -1.
       -2   -1    0    0    0  501  0.00000000000E+00  0.00000000000E+00 -0.11652880504E+04  0.11652880504E+04  0.25500000920E-02 0.  1.
    10030    2    1    2    0    0  0.00000000000E+00  0.00000000000E+00  0.10230471727E+04  0.33536232736E+04  0.31937694881E+04 0.  0.
        2    1    3    3  502    0  0.15014349780E+04 -0.95587526225E+02 -0.50618970768E+02  0.15053259609E+04  0.25500000920E-02 0.  1.
       -2    1    3    3    0  502 -0.15014349780E+04  0.95587526225E+02  0.10736661435E+04  0.18482973127E+04  0.25500000920E-02 0. -1.
</event>
<event>
 5   0  0.5317728E-07  0.3184307E+04  0.7818609E-02  0.8192974E-01
        1   -1    0    0  501    0  0.00000000000E+00  0.00000000000E+00  0.23497393222E+04  0.23497393222E+04  0.50400001928E-02 0. -1.
       -1   -1    0    0    0  501  0.00000000000E+00  0.00000000000E+00 -0.10788229495E+04  0.10788229495E+04  0.50400001928E-02 0.  1.
    10030    2    1    2    0    0  0.00000000000E+00  0.00000000000E+00  0.12709163727E+04  0.34285622717E+04  0.31843069614E+04 0.  0.
        2    1    3    3  502    0  0.13605944066E+04  0.13248078606E+03 -0.24335051325E+03  0.13885199928E+04  0.25500000920E-02 0.  1.
       -2    1    3    3    0  502 -0.13605944066E+04 -0.13248078606E+03  0.15142668859E+04  0.20400422789E+04  0.25500000920E-02 0. -1.
</event>
<event>
 5   0  0.1493485E-06  0.3198022E+04  0.7818609E-02  0.8189340E-01
        2   -1    0    0  501    0  0.00000000000E+00  0.00000000000E+00  0.16542073973E+04  0.16542073973E+04  0.25500000920E-02 0. -1.
       -2   -1    0    0    0  501  0.00000000000E+00  0.00000000000E+00 -0.15456561234E+04  0.15456561234E+04  0.25500000920E-02 0.  1.
    10030    2    1    2    0    0  0.00000000000E+00  0.00000000000E+00  0.10855127384E+03  0.31998635207E+04  0.31980217591E+04 0.  0.
        2    1    3    3  502    0  0.30666417486E+03  0.48959790834E+03 -0.14375849740E+04  0.15493222988E+04  0.25500000920E-02 0.  1.
       -2    1    3    3    0  502 -0.30666417486E+03 -0.48959790834E+03  0.15461362479E+04  0.16505412219E+04  0.25500000920E-02 0. -1.
</event>
<event>
 5   0  0.1508771E-06  0.3205561E+04  0.7818609E-02  0.8187350E-01
        2   -1    0    0  501    0  0.00000000000E+00  0.00000000000E+00  0.16633178981E+04  0.16633178981E+04  0.25500000920E-02 0.  1.
       -2   -1    0    0    0  501  0.00000000000E+00  0.00000000000E+00 -0.15444463749E+04  0.15444463749E+04  0.25500000920E-02 0. -1.
    10030    2    1    2    0    0  0.00000000000E+00  0.00000000000E+00  0.11887152320E+03  0.32077642730E+04  0.32055609793E+04 0.  0.
        4    1    3    3  502    0 -0.14069748500E+04  0.56391710287E+03 -0.46180896535E+03  0.15845661427E+04  0.12699999809E+01 0. -1.
       -4    1    3    3    0  502  0.14069748500E+04 -0.56391710287E+03  0.58068048855E+03  0.16231981302E+04  0.12699999809E+01 0.  1.
</event>
<event>
 5   0  0.5370912E-07  0.2944398E+04  0.7818609E-02  0.8259789E-01
        1   -1    0    0  501    0  0.00000000000E+00  0.00000000000E+00  0.19598245383E+04  0.19598245383E+04  0.50400001928E-02 0.  1.
       -1   -1    0    0    0  501  0.00000000000E+00  0.00000000000E+00 -0.11059002657E+04  0.11059002657E+04  0.50400001928E-02 0. -1.
    10030    2    1    2    0    0  0.00000000000E+00  0.00000000000E+00  0.85392427258E+03  0.30657248041E+04  0.29443983954E+04 0.  0.
        1    1    3    3  502    0  0.12862625968E+03  0.10763986074E+04 -0.61017076620E+03  0.12439803216E+04  0.50400001928E-02 0. -1.
       -1    1    3    3    0  502 -0.12862625968E+03 -0.10763986074E+04  0.14640950388E+04  0.18217444824E+04  0.50400001928E-02 0.  1.
</event>
<event>
 5   0  0.5177039E-07  0.3148395E+04  0.7818609E-02  0.8202581E-01
       -1   -1    0    0    0  501  0.00000000000E+00  0.00000000000E+00  0.12046191973E+04  0.12046191973E+04  0.50400001928E-02 0.  1.
        1   -1    0    0  501    0  0.00000000000E+00  0.00000000000E+00 -0.20571621403E+04  0.20571621403E+04  0.50400001928E-02 0. -1.
    10030    2    1    2    0    0  0.00000000000E+00  0.00000000000E+00 -0.85254294305E+03  0.32617813376E+04  0.31483945154E+04 0.  0.
        3    1    3    3  502    0 -0.89323674336E+02 -0.15703489567E+04 -0.35975297661E+03  0.16135045023E+04  0.10100000352E+00 0. -1.
       -3    1    3    3    0  502  0.89323674336E+02  0.15703489567E+04 -0.49278996644E+03  0.16482768353E+04  0.10100000352E+00 0.  1.
</event>
<event>
 5   0  0.1556396E-06  0.3206330E+04  0.7818609E-02  0.8187147E-01
       -2   -1    0    0    0  501  0.00000000000E+00  0.00000000000E+00  0.18257821314E+04  0.18257821314E+04  0.25500000920E-02 0.  1.
        2   -1    0    0  501    0  0.00000000000E+00  0.00000000000E+00 -0.14076915833E+04  0.14076915833E+04  0.25500000920E-02 0. -1.
    10030    2    1    2    0    0  0.00000000000E+00  0.00000000000E+00  0.41809054808E+03  0.32334737147E+04  0.32063300762E+04 0.  0.
        3    1    3    3  502    0  0.95394824960E+03 -0.73568128150E+03  0.12757778619E+04  0.17546661717E+04  0.10100000352E+00 0.  1.
       -3    1    3    3    0  502 -0.95394824960E+03  0.73568128150E+03 -0.85768731384E+03  0.14788075430E+04  0.10100000352E+00 0. -1.
</event>
<event>
 5   0  0.5281187E-07  0.3194888E+04  0.7818609E-02  0.8190168E-01
        1   -1    0    0  501    0  0.00000000000E+00  0.00000000000E+00  0.16590905873E+04  0.16590905873E+04  0.50400001928E-02 0. -1.
       -1   -1    0    0    0  501  0.00000000000E+00  0.00000000000E+00 -0.15380882841E+04  0.15380882841E+04  0.50400001928E-02 0.  1.
    10030    2    1    2    0    0  0.00000000000E+00  0.00000000000E+00  0.12100230322E+03  0.31971788714E+04  0.31948882889E+04 0.  0.
        5    1    3    3  502    0  0.57865990704E+03 -0.14355690086E+04 -0.33487708612E+03  0.15836257195E+04  0.46999998093E+01 0.  1.
       -5    1    3    3    0  502 -0.57865990704E+03  0.14355690086E+04  0.45587938934E+03  0.16135531520E+04  0.46999998093E+01 0. -1.
</event>
<event>
 5   0  0.5233813E-07  0.3195778E+04  0.7818609E-02  0.8189933E-01
       -1   -1    0    0    0  501  0.00000000000E+00  0.00000000000E+00  0.19961676039E+04  0.19961676039E+04  0.50400001928E-02 0. -1.
        1   -1    0    0  501    0  0.00000000000E+00  0.00000000000E+00 -0.12790758720E+04  0.12790758720E+04  0.50400001928E-02 0.  1.
    10030    2    1    2    0    0  0.00000000000E+00  0.00000000000E+00  0.71709173197E+03  0.32752434759E+04  0.31957783519E+04 0.  0.
        4    1    3    3  502    0  0.11482671670E+04 -0.35356890221E+03 -0.72108078675E+03  0.14012450069E+04  0.12699999809E+01 0.  1.
       -4    1    3    3    0  502 -0.11482671670E+04  0.35356890221E+03  0.14381725187E+04  0.18739984690E+04  0.12699999809E+01 0. -1.
</event>
<event>
 5   0  0.1508771E-06  0.3197562E+04  0.7818609E-02  0.8189461E-01
       -2   -1    0    0    0  501  0.00000000000E+00  0.00000000000E+00  0.13197562027E+04  0.13197562027E+04  0.25500000920E-02 0. -1.
        2   -1    0    0  501    0  0.00000000000E+00  0.00000000000E+00 -0.19367973916E+04  0.19367973916E+04  0.25500000920E-02 0.  1.
    10030    2    1    2    0    0  0.00000000000E+00  0.00000000000E+00 -0.61704118896E+03  0.32565535943E+04  0.31975618029E+04 0.  0.
        4    1    3    3  502    0 -0.87837034340E+03 -0.13193250244E+04 -0.52202058511E+03  0.16687300813E+04  0.12699999809E+01 0. -1.
       -4    1    3    3    0  502  0.87837034340E+03  0.13193250244E+04 -0.95020603850E+02  0.15878235129E+04  0.12699999809E+01 0.  1.
</event>
<event>
 5   0  0.1538349E-06  0.3310127E+04  0.7818609E-02  0.8160323E-01
        2   -1    0    0  501    0  0.00000000000E+00  0.00000000000E+00  0.20778087695E+04  0.20778087695E+04  0.25500000920E-02 0. -1.
       -2   -1    0    0    0  501  0.00000000000E+00  0.00000000000E+00 -0.13183290856E+04  0.13183290856E+04  0.25500000920E-02 0.  1.
    10030    2    1    2    0    0  0.00000000000E+00  0.00000000000E+00  0.75947968383E+03  0.33961378551E+04  0.33101273300E+04 0.  0.
        1    1    3    3  502    0 -0.95729184402E+03  0.30080942518E+03  0.17301241939E+04  0.20000559270E+04  0.50400001928E-02 0. -1.
       -1    1    3    3    0  502  0.95729184402E+03 -0.30080942518E+03 -0.97064451009E+03  0.13960819281E+04  0.50400001928E-02 0.  1.
</event>
<event>
 5   0  0.5317728E-07  0.3195673E+04  0.7818609E-02  0.8189961E-01
        1   -1    0    0  501    0  0.00000000000E+00  0.00000000000E+00  0.74615791619E+03  0.74615791621E+03  0.50400001928E-02 0.  1.
       -1   -1    0    0    0  501  0.00000000000E+00  0.00000000000E+00 -0.34216375328E+04  0.34216375328E+04  0.50400001928E-02 0. -1.
    10030    2    1    2    0    0  0.00000000000E+00  0.00000000000E+00 -0.26754796166E+04  0.41677954490E+04  0.31956732821E+04 0.  0.
        2    1    3    3  502    0 -0.96826648323E+03 -0.10878472688E+04 -0.48040320046E+03  0.15335380327E+04  0.25500000920E-02 0.  1.
       -2    1    3    3    0  502  0.96826648323E+03  0.10878472688E+04 -0.21950764162E+04  0.26342574163E+04  0.25500000920E-02 0. -1.
</event>
<event>
 5   0  0.1493485E-06  0.3190526E+04  0.7818609E-02  0.8191324E-01
       -2   -1    0    0    0  501  0.00000000000E+00  0.00000000000E+00  0.10514040059E+04  0.10514040059E+04  0.25500000920E-02 0.  1.
        2   -1    0    0  501    0  0.00000000000E+00  0.00000000000E+00 -0.24204429844E+04  0.24204429844E+04  0.25500000920E-02 0. -1.
    10030    2    1    2    0    0  0.00000000000E+00  0.00000000000E+00 -0.13690389784E+04  0.34718469903E+04  0.31905256306E+04 0.  0.
        2    1    3    3  502    0  0.12523503153E+04  0.69830532697E+03 -0.14453483035E+04  0.20359379559E+04  0.25500000920E-02 0.  1.
       -2    1    3    3    0  502 -0.12523503153E+04 -0.69830532697E+03  0.76309325086E+02  0.14359090344E+04  0.25500000920E-02 0. -1.
</event>
<event>
 5   0  0.1538349E-06  0.3187222E+04  0.7818609E-02  0.8192200E-01
        2   -1    0    0  501    0  0.00000000000E+00  0.00000000000E+00  0.18996621296E+04  0.18996621296E+04  0.25500000920E-02 0. -1.
       -2   -1    0    0    0  501  0.00000000000E+00  0.00000000000E+00 -0.13368673950E+04  0.13368673950E+04  0.25500000920E-02 0.  1.
    10030    2    1    2    0    0  0.00000000000E+00  0.00000000000E+00  0.56279473460E+03  0.32365295247E+04  0.31872222155E+04 0.  0.
        1    1    3    3  502    0 -0.15801752109E+04  0.18684049902E+03  0.37069695866E+03  0.16337929197E+04  0.50400001928E-02 0. -1.
       -1    1    3    3    0  502  0.15801752109E+04 -0.18684049902E+03  0.19209777594E+03  0.16027366050E+04  0.50400001928E-02 0.  1.
</event>
<event>
 5   0  0.1556396E-06  0.2996333E+04  0.7818609E-02  0.8244779E-01
       -2   -1    0    0    0  501  0.00000000000E+00  0.00000000000E+00  0.17773367988E+04  0.17773367988E+04  0.25500000920E-02 0.  1.
        2   -1    0    0  501    0  0.00000000000E+00  0.00000000000E+00 -0.12628457673E+04  0.12628457673E+04  0.25500000920E-02 0. -1.
    10030    2    1    2    0    0  0.00000000000E+00  0.00000000000E+00  0.51449103155E+03  0.30401825661E+04  0.29963325940E+04 0.  0.
        3    1    3    3  502    0 -0.10246811508E+04 -0.78127444457E+03  0.10327217627E+04  0.16513253670E+04  0.10100000352E+00 0.  1.
       -3    1    3    3    0  502  0.10246811508E+04  0.78127444457E+03 -0.51823073114E+03  0.13888571991E+04  0.10100000352E+00 0. -1.
</event>
<event>
 5   0  0.1493485E-06  0.3210762E+04  0.7818609E-02  0.8185981E-01
       -2   -1    0    0    0  501  0.00000000000E+00  0.00000000000E+00  0.31000725086E+04  0.31000725086E+04  0.25500000920E-02 0.  1.
        2   -1    0    0  501    0  0.00000000000E+00  0.00000000000E+00 -0.83135109141E+03  0.83135109141E+03  0.25500000920E-02 0. -1.
    10030    2    1    2    0    0  0.00000000000E+00  0.00000000000E+00  0.22687214172E+04  0.39314236000E+04  0.32107623166E+04 0.  0.
        2    1    3    3  502    0 -0.22106449253E+03 -0.77923487303E+03  0.28315286757E+04  0.29451029080E+04  0.25500000920E-02 0.  1.
       -2    1    3    3    0  502  0.22106449253E+03  0.77923487303E+03 -0.56280725854E+03  0.98632069201E+03  0.25500000920E-02 0. -1.
</event>
<event>
 5   0  0.5281187E-07  0.3200975E+04  0.7818609E-02  0.8188560E-01
       -1   -1    0    0    0  501  0.00000000000E+00  0.00000000000E+00  0.13706008118E+04  0.13706008118E+04  0.50400001928E-02 0.  1.
        1   -1    0    0  501    0  0.00000000000E+00  0.00000000000E+00 -0.18689325802E+04  0.18689325802E+04  0.50400001928E-02 0. -1.
    10030    2    1    2    0    0  0.00000000000E+00  0.00000000000E+00 -0.49833176841E+03  0.32395333920E+04  0.32009751712E+04 0.  0.
        5    1    3    3  502    0 -0.18836311678E+03  0.14472005462E+04 -0.91409485024E+03  0.17220515585E+04  0.46999998093E+01 0. -1.
       -5    1    3    3    0  502  0.18836311678E+03 -0.14472005462E+04  0.41576308183E+03  0.15174818335E+04  0.46999998093E+01 0.  1.
</event>
<event>
 5   0  0.1508771E-06  0.3190051E+04  0.7818609E-02  0.8191450E-01
        2   -1    0    0  501    0  0.00000000000E+00  0.00000000000E+00  0.15010752345E+04  0.15010752345E+04  0.25500000920E-02 0. -1.
       -2   -1    0    0    0  501  0.00000000000E+00  0.00000000000E+00 -0.16948564270E+04  0.16948564270E+04  0.25500000920E-02 0.  1.
    10030    2    1    2    0    0  0.00000000000E+00  0.00000000000E+00 -0.19378119250E+03  0.31959316615E+04  0.31900514157E+04 0.  0.
        4    1    3    3  502    0  0.83538720430E+03 -0.57656179749E+03  0.11357472610E+04  0.15232264248E+04  0.12699999809E+01 0. -1.
       -4    1    3    3    0  502 -0.83538720430E+03  0.57656179749E+03 -0.13295284535E+04  0.16727052367E+04  0.12699999809E+01 0.  1.
</event>
<event>
 5   0  0.5177039E-07  0.3231202E+04  0.7818609E-02  0.8180625E-01
       -1   -1    0    0    0  501  0.00000000000E+00  0.00000000000E+00  0.18710194575E+04  0.18710194575E+04  0.50400001928E-02 0.  1.
        1   -1    0    0  501    0  0.00000000000E+00  0.00000000000E+00 -0.13950504841E+04  0.13950504841E+04  0.50400001928E-02 0. -1.
    10030    2    1    2    0    0  0.00000000000E+00  0.00000000000E+00  0.47596897334E+03  0.32660699416E+04  0.32312020054E+04 0.  0.
        3    1    3    3  502    0  0.58827935478E+03  0.12046889697E+04 -0.67330876596E+03  0.15002309214E+04  0.10100000352E+00 0.  1.
       -3    1    3    3    0  502 -0.58827935478E+03 -0.12046889697E+04  0.11492777393E+04  0.17658390202E+04  0.10100000352E+00 0. -1.
</event>
<event>
 5   0  0.5177039E-07  0.3262039E+04  0.7818609E-02  0.8172622E-01
       -1   -1    0    0    0  501  0.00000000000E+00  0.00000000000E+00  0.23226183920E+04  0.23226183920E+04  0.50400001928E-02 0.  1.
        1   -1    0    0  501    0  0.00000000000E+00  0.00000000000E+00 -0.11453560955E+04  0.11453560955E+04  0.50400001928E-02 0. -1.
    10030    2    1    2    0    0  0.00000000000E+00  0.00000000000E+00  0.11772622965E+04  0.34679744874E+04  0.32620393208E+04 0.  0.
        3    1    3    3  502    0  0.10827676870E+04 -0.49238327262E+03 -0.59779518943E+03  0.13312348590E+04  0.10100000352E+00 0. -1.
       -3    1    3    3    0  502 -0.10827676870E+04  0.49238327262E+03  0.17750574859E+04  0.21367396284E+04  0.10100000352E+00 0.  1.
</event>
<event>
 5   0  0.1556396E-06  0.3201722E+04  0.7818609E-02  0.8188363E-01
        2   -1    0    0  501    0  0.00000000000E+00  0.00000000000E+00  0.20174347818E+04  0.20174347818E+04  0.25500000920E-02 0. -1.
       -2   -1    0    0    0  501  0.00000000000E+00  0.00000000000E+00 -0.12703039182E+04  0.12703039182E+04  0.25500000920E-02 0.  1.
    10030    2    1    2    0    0  0.00000000000E+00  0.00000000000E+00  0.74713086365E+03  0.32877387000E+04  0.32017216044E+04 0.  0.
        3    1    3    3  502    0 -0.44017650290E+01 -0.62787144045E+03 -0.11385842415E+04  0.13002369040E+04  0.10100000352E+00 0.  1.
       -3    1    3    3    0  502  0.44017650290E+01  0.62787144045E+03  0.18857151052E+04  0.19875017960E+04  0.10100000352E+00 0. -1.
</event>
<event>
 5   0  0.4995625E-07  0.3211981E+04  0.7818609E-02  0.8185660E-01
       -3   -1    0    0    0  501  0.00000000000E+00  0.00000000000E+00  0.13256227196E+04  0.13256227234E+04  0.10100000352E+00 0.  1.
        3   -1    0    0  501    0  0.00000000000E+00  0.00000000000E+00 -0.19456562353E+04  0.19456562379E+04  0.10100000352E+00 0. -1.
    10030    2    1    2    0    0  0.00000000000E+00  0.00000000000E+00 -0.62003351573E+03  0.32712789614E+04  0.32119813951E+04 0.  0.
        1    1    3    3  502    0  0.46285269123E+03 -0.11850593025E+04 -0.13082169503E+04  0.18248369114E+04  0.50400001928E-02 0. -1.
       -1    1    3    3    0  502 -0.46285269123E+03  0.11850593025E+04  0.68818343457E+03  0.14464420499E+04  0.50400001928E-02 0.  1.
</event>
<event>
 5   0  0.5177039E-07  0.3201505E+04  0.7818609E-02  0.8188420E-01
       -1   -1    0    0    0  501  0.00000000000E+00  0.00000000000E+00  0.11004751429E+04  0.11004751429E+04  0.50400001928E-02 0. -1.
        1   -1    0    0  501    0  0.00000000000E+00  0.00000000000E+00 -0.23284571959E+04  0.23284571959E+04  0.50400001928E-02 0.  1.
    10030    2    1    2    0    0  0.00000000000E+00  0.00000000000E+00 -0.12279820529E+04  0.34289323388E+04  0.32015054368E+04 0.  0.
        3    1    3    3  502    0  0.11728674411E+04 -0.92153387733E+03  0.82868543025E+01  0.14916136911E+04  0.10100000352E+00 0. -1.
       -3    1    3    3    0  502 -0.11728674411E+04  0.92153387733E+03 -0.12362689072E+04  0.19373186477E+04  0.10100000352E+00 0.  1.
</event>
<event>
 5   0  0.5233813E-07  0.3067201E+04  0.7818609E-02  0.8224797E-01
        1   -1    0    0  501    0  0.00000000000E+00  0.00000000000E+00  0.18014669124E+04  0.18014669124E+04  0.50400001928E-02 0. -1.
       -1   -1    0    0    0  501  0.00000000000E+00  0.00000000000E+00 -0.13055642198E+04  0.13055642198E+04  0.50400001928E-02 0.  1.
    10030    2    1    2    0    0  0.00000000000E+00  0.00000000000E+00  0.49590269259E+03  0.31070311321E+04  0.30672011632E+04 0.  0.
        4    1    3    3  502    0 -0.37081642175E+00  0.10184743407E+03  0.17980367532E+04  0.18009194363E+04  0.12699999809E+01 0. -1.
       -4    1    3    3    0  502  0.37081642175E+00 -0.10184743407E+03 -0.13021340606E+04  0.13061116958E+04  0.12699999809E+01 0.  1.
</event>
<event>
 5   0  0.5281187E-07  0.3161870E+04  0.7818609E-02  0.8198960E-01
       -1   -1    0    0    0  501  0.00000000000E+00  0.00000000000E+00  0.11680054433E+04  0.11680054434E+04  0.50400001928E-02 0. -1.
        1   -1    0    0  501    0  0.00000000000E+00  0.00000000000E+00 -0.21398488432E+04  0.21398488432E+04  0.50400001928E-02 0.  1.
    10030    2    1    2    0    0  0.00000000000E+00  0.00000000000E+00 -0.97184339986E+03  0.33078542866E+04  0.31618697613E+04 0.  0.
        5    1    3    3  502    0 -0.66875636949E+03 -0.75411324558E+03 -0.17601086736E+04  0.20282816623E+04  0.46999998093E+01 0.  1.
       -5    1    3    3    0  502  0.66875636949E+03  0.75411324558E+03  0.78826527374E+03  0.12795726242E+04  0.46999998093E+01 0. -1.
</event>
<event>
 5   0  0.5233813E-07  0.3197367E+04  0.7818609E-02  0.8189513E-01
        1   -1    0    0  501    0  0.00000000000E+00  0.00000000000E+00  0.17146166113E+04  0.17146166113E+04  0.50400001928E-02 0.  1.
       -1   -1    0    0    0  501  0.00000000000E+00  0.00000000000E+00 -0.14905892814E+04  0.14905892814E+04  0.50400001928E-02 0. -1.
    10030    2    1    2    0    0  0.00000000000E+00  0.00000000000E+00  0.22402732989E+03  0.32052058927E+04  0.31973671310E+04 0.  0.
        4    1    3    3  502    0 -0.15621176749E+03  0.86328985074E+03  0.14517466885E+04  0.16962433620E+04  0.12699999809E+01 0.  1.
       -4    1    3    3    0  502  0.15621176749E+03 -0.86328985074E+03 -0.12277193586E+04  0.15089625307E+04  0.12699999809E+01 0. -1.
</event>
<event>
 5   0  0.1538349E-06  0.3214737E+04  0.7818609E-02  0.8184936E-01
        2   -1    0    0  501    0  0.00000000000E+00  0.00000000000E+00  0.12073887353E+04  0.12073887353E+04  0.25500000920E-02 0. -1.
       -2   -1    0    0    0  501  0.00000000000E+00  0.00000000000E+00 -0.21398526521E+04  0.21398526521E+04  0.25500000920E-02 0.  1.
    10030    2    1    2    0    0  0.00000000000E+00  0.00000000000E+00 -0.93246391683E+03  0.33472413874E+04  0.32147373064E+04 0.  0.
        1    1    3    3  502    0  0.90273125572E+03 -0.90102847735E+03 -0.14847419117E+04  0.19573539745E+04  0.50400001928E-02 0.  1.
       -1    1    3    3    0  502 -0.90273125572E+03  0.90102847735E+03  0.55227799484E+03  0.13898874129E+04  0.50400001928E-02 0. -1.
</event>
<event>
 5   0  0.5370912E-07  0.3217989E+04  0.7818609E-02  0.8184082E-01
        1   -1    0    0  501    0  0.00000000000E+00  0.00000000000E+00  0.13501318245E+04  0.13501318245E+04  0.50400001928E-02 0.  1.
       -1   -1    0    0    0  501  0.00000000000E+00  0.00000000000E+00 -0.19174896455E+04  0.19174896455E+04  0.50400001928E-02 0. -1.
    10030    2    1    2    0    0  0.00000000000E+00  0.00000000000E+00 -0.56735782104E+03  0.32676214700E+04  0.32179893061E+04 0.  0.
        1    1    3    3  502    0 -0.84410471415E+03 -0.39512732781E+03 -0.16154814077E+04  0.18650518900E+04  0.50400001928E-02 0. -1.
       -1    1    3    3    0  502  0.84410471415E+03  0.39512732781E+03  0.10481235867E+04  0.14025695800E+04  0.50400001928E-02 0.  1.
</event>
<event>
 5   0  0.1556396E-06  0.3196175E+04  0.7818609E-02  0.8189828E-01
        2   -1    0    0  501    0  0.00000000000E+00  0.00000000000E+00  0.18511422576E+04  0.18511422576E+04  0.25500000920E-02 0. -1.
       -2   -1    0    0    0  501  0.00000000000E+00  0.00000000000E+00 -0.13796255032E+04  0.13796255032E+04  0.25500000920E-02 0.  1.
    10030    2    1    2    0    0  0.00000000000E+00  0.00000000000E+00  0.47151675439E+03  0.32307677609E+04  0.31961746315E+04 0.  0.
        3    1    3    3  502    0  0.60339141140E+03 -0.54541236015E+03  0.16262659509E+04  0.18183225212E+04  0.10100000352E+00 0. -1.
       -3    1    3    3    0  502 -0.60339141140E+03  0.54541236015E+03 -0.11547491965E+04  0.14124452396E+04  0.10100000352E+00 0.  1.
</event>
<event>
 5   0  0.1508771E-06  0.3181312E+04  0.7818609E-02  0.8193770E-01
        2   -1    0    0  501    0  0.00000000000E+00  0.00000000000E+00  0.16912879757E+04  0.16912879757E+04  0.25500000920E-02 0.  1.
       -2   -1    0    0    0  501  0.00000000000E+00  0.00000000000E+00 -0.14960115684E+04  0.14960115684E+04  0.25500000920E-02 0. -1.
    10030    2    1    2    0    0  0.00000000000E+00  0.00000000000E+00  0.19527640722E+03  0.31872995441E+04  0.31813119163E+04 0.  0.
        4    1    3    3  502    0  0.41496101213E+03  0.67840937053E+03  0.14778205063E+04  0.16782094558E+04  0.12699999809E+01 0.  1.
       -4    1    3    3    0  502 -0.41496101213E+03 -0.67840937053E+03 -0.12825440991E+04  0.15090900883E+04  0.12699999809E+01 0. -1.
</event>
<event>
 5   0  0.5233813E-07  0.3127736E+04  0.7818609E-02  0.8208167E-01
        1   -1    0    0  501    0  0.00000000000E+00  0.00000000000E+00  0.20981348591E+04  0.20981348591E+04  0.50400001928E-02 0. -1.
       -1   -1    0    0    0  501  0.00000000000E+00  0.00000000000E+00 -0.11656461624E+04  0.11656461624E+04  0.50400001928E-02 0.  1.
    10030    2    1    2    0    0  0.00000000000E+00  0.00000000000E+00  0.93248869665E+03  0.32637810215E+04  0.31277358243E+04 0.  0.
        4    1    3    3  502    0 -0.90431828528E+02  0.15741234170E+03  0.20871018337E+04  0.20949826343E+04  0.12699999809E+01 0. -1.
       -4    1    3    3    0  502  0.90431828528E+02 -0.15741234170E+03 -0.11546131370E+04  0.11687983872E+04  0.12699999809E+01 0.  1.
</event>
<event>
 5   0  0.5370912E-07  0.3230775E+04  0.7818609E-02  0.8180737E-01
        1   -1    0    0  501    0  0.00000000000E+00  0.00000000000E+00  0.13063937537E+04  0.13063937537E+04  0.50400001928E-02 0.  1.
       -1   -1    0    0    0  501  0.00000000000E+00  0.00000000000E+00 -0.19974652284E+04  0.19974652284E+04  0.50400001928E-02 0. -1.
    10030    2    1    2    0    0  0.00000000000E+00  0.00000000000E+00 -0.69107147470E+03  0.33038589821E+04  0.32307745805E+04 0.  0.
        1    1    3    3  502    0 -0.26408812041E+03  0.36385370434E+03 -0.19321959291E+04  0.19838127840E+04  0.50400001928E-02 0. -1.
       -1    1    3    3    0  502  0.26408812041E+03 -0.36385370434E+03  0.12411244544E+04  0.13200461980E+04  0.50400001928E-02 0.  1.
</event>
<event>
 5   0  0.1493485E-06  0.3278312E+04  0.7818609E-02  0.8168436E-01
       -2   -1    0    0    0  501  0.00000000000E+00  0.00000000000E+00  0.13585387913E+04  0.13585387913E+04  0.25500000920E-02 0.  1.
        2   -1    0    0  501    0  0.00000000000E+00  0.00000000000E+00 -0.19777364294E+04  0.19777364294E+04  0.25500000920E-02 0. -1.
    10030    2    1    2    0    0  0.00000000000E+00  0.00000000000E+00 -0.61919763805E+03  0.33362752207E+04  0.32783115522E+04 0.  0.
        2    1    3    3  502    0 -0.16855765432E+02 -0.18156190725E+03 -0.19673829146E+04  0.19758148637E+04  0.25500000920E-02 0. -1.
       -2    1    3    3    0  502  0.16855765432E+02  0.18156190725E+03  0.13481852765E+04  0.13604603570E+04  0.25500000920E-02 0.  1.
</event>
<event>
 5   0  0.1556396E-06  0.3193050E+04  0.7818609E-02  0.8190655E-01
        2   -1    0    0  501    0  0.00000000000E+00  0.00000000000E+00  0.19824507621E+04  0.19824507621E+04  0.25500000920E-02 0. -1.
       -2   -1    0    0    0  501  0.00000000000E+00  0.00000000000E+00 -0.12857277833E+04  0.12857277833E+04  0.25500000920E-02 0.  1.
    10030    2    1    2    0    0  0.00000000000E+00  0.00000000000E+00  0.69672297877E+03  0.32681785454E+04  0.31930499676E+04 0.  0.
        3    1    3    3  502    0  0.15903185869E+04  0.13889252233E+03  0.37096440583E+03  0.16389078501E+04  0.10100000352E+00 0. -1.
       -3    1    3    3    0  502 -0.15903185869E+04 -0.13889252233E+03  0.32575857294E+03  0.16292706953E+04  0.10100000352E+00 0.  1.
</event>
<event>
 5   0  0.5233813E-07  0.3194237E+04  0.7818609E-02  0.8190341E-01
       -1   -1    0    0    0  501  0.00000000000E+00  0.00000000000E+00  0.12802835576E+04  0.12802835577E+04  0.50400001928E-02 0. -1.
        1   -1    0    0  501    0  0.00000000000E+00  0.00000000000E+00 -0.19923617260E+04  0.19923617260E+04  0.50400001928E-02 0.  1.
    10030    2    1    2    0    0  0.00000000000E+00  0.00000000000E+00 -0.71207816832E+03  0.32726452836E+04  0.31942372853E+04 0.  0.
        4    1    3    3  502    0 -0.29666805754E+03  0.13500116709E+04 -0.11758319706E+04  0.18146971879E+04  0.12699999809E+01 0.  1.
       -4    1    3    3    0  502  0.29666805754E+03 -0.13500116709E+04  0.46375380226E+03  0.14579480957E+04  0.12699999809E+01 0. -1.
</event>
<event>
 5   0  0.5317728E-07  0.3191204E+04  0.7818609E-02  0.8191144E-01
        1   -1    0    0  501    0  0.00000000000E+00  0.00000000000E+00  0.77101704192E+03  0.77101704193E+03  0.50400001928E-02 0. -1.
       -1   -1    0    0    0  501  0.00000000000E+00  0.00000000000E+00 -0.33020617123E+04  0.33020617123E+04  0.50400001928E-02 0.  1.
    10030    2    1    2    0    0  0.00000000000E+00  0.00000000000E+00 -0.25310446704E+04  0.40730787542E+04  0.31912040697E+04 0.  0.
        2    1    3    3  502    0  0.11648341592E+04  0.10792587803E+04 -0.10665281677E+04  0.19128827632E+04  0.25500000920E-02 0.  1.
       -2    1    3    3    0  502 -0.11648341592E+04 -0.10792587803E+04 -0.14645165026E+04  0.21601959910E+04  0.25500000920E-02 0. -1.
</event>
<event>
 5   0  0.5370912E-07  0.3189903E+04  0.7818609E-02  0.8191489E-01
       -1   -1    0    0    0  501  0.00000000000E+00  0.00000000000E+00  0.16505174394E+04  0.16505174395E+04  0.50400001928E-02 0. -1.
        1   -1    0    0  501    0  0.00000000000E+00  0.00000000000E+00 -0.15412559212E+04  0.15412559213E+04  0.50400001928E-02 0.  1.
    10030    2    1    2    0    0  0.00000000000E+00  0.00000000000E+00  0.10926151820E+03  0.31917733607E+04  0.31899026798E+04 0.  0.
        1    1    3    3  502    0  0.19570398433E+03 -0.58501371196E+03  0.15263191586E+04  0.16462658554E+04  0.50400001928E-02 0. -1.
       -1    1    3    3    0  502 -0.19570398433E+03  0.58501371196E+03 -0.14170576404E+04  0.15455075053E+04  0.50400001928E-02 0.  1.
</event>
<event>
 5   0  0.1493485E-06  0.3202207E+04  0.7818609E-02  0.8188235E-01
        2   -1    0    0  501    0  0.00000000000E+00  0.00000000000E+00  0.22957526090E+04  0.22957526090E+04  0.25500000920E-02 0.  1.
       -2   -1    0    0    0  501  0.00000000000E+00  0.00000000000E+00 -0.11166412911E+04  0.11166412911E+04  0.25500000920E-02 0. -1.
    10030    2    1    2    0    0  0.00000000000E+00  0.00000000000E+00  0.11791113179E+04  0.34123939001E+04  0.32022068374E+04 0.  0.
        2    1    3    3  502    0 -0.34074628265E+03  0.15595579622E+04  0.72094971579E+03  0.17515985725E+04  0.25500000920E-02 0.  1.
       -2    1    3    3    0  502  0.34074628265E+03 -0.15595579622E+04  0.45816160213E+03  0.16607953276E+04  0.25500000920E-02 0. -1.
</event>
<event>
 5   0  0.5281187E-07  0.3180572E+04  0.7818609E-02  0.8193967E-01
       -1   -1    0    0    0  501  0.00000000000E+00  0.00000000000E+00  0.97094276524E+03  0.97094276526E+03  0.50400001928E-02 0.  1.
        1   -1    0    0  501    0  0.00000000000E+00  0.00000000000E+00 -0.26046950092E+04  0.26046950092E+04  0.50400001928E-02 0. -1.
    10030    2    1    2    0    0  0.00000000000E+00  0.00000000000E+00 -0.16337522439E+04  0.35756377744E+04  0.31805721340E+04 0.  0.
        5    1    3    3  502    0 -0.11582077147E+03 -0.15854813229E+04 -0.76888650389E+03  0.17658918490E+04  0.46999998093E+01 0. -1.
       -5    1    3    3    0  502  0.11582077147E+03  0.15854813229E+04 -0.86486574003E+03  0.18097459255E+04  0.46999998093E+01 0.  1.
</event>
<event>
 5   0  0.5177039E-07  0.3179225E+04  0.7818609E-02  0.8194325E-01
        1   -1    0    0  501    0  0.00000000000E+00  0.00000000000E+00  0.19437612307E+04  0.19437612307E+04  0.50400001928E-02 0. -1.
       -1   -1    0    0    0  501  0.00000000000E+00  0.00000000000E+00 -0.12999887602E+04  0.12999887602E+04  0.50400001928E-02 0.  1.
    10030    2    1    2    0    0  0.00000000000E+00  0.00000000000E+00  0.64377247045E+03  0.32437499909E+04  0.31792249071E+04 0.  0.
        3    1    3    3  502    0 -0.57922999416E+03 -0.11098856082E+04  0.13213150027E+04  0.18202271275E+04  0.10100000352E+00 0. -1.
       -3    1    3    3    0  502  0.57922999416E+03  0.11098856082E+04 -0.67754253223E+03  0.14235228634E+04  0.10100000352E+00 0.  1.
</event>
<event>
 5   0  0.1556396E-06  0.3213555E+04  0.7818609E-02  0.8185247E-01
       -2   -1    0    0    0  501  0.00000000000E+00  0.00000000000E+00  0.10529667076E+04  0.10529667076E+04  0.25500000920E-02 0. -1.
        2   -1    0    0  501    0  0.00000000000E+00  0.00000000000E+00 -0.24518661126E+04  0.24518661126E+04  0.25500000920E-02 0.  1.
    10030    2    1    2    0    0  0.00000000000E+00  0.00000000000E+00 -0.13988994050E+04  0.35048328202E+04  0.32135546600E+04 0.  0.
        3    1    3    3  502    0 -0.15067058121E+04 -0.52780742174E+03 -0.50135414131E+03  0.16733496538E+04  0.10100000352E+00 0.  1.
       -3    1    3    3    0  502  0.15067058121E+04  0.52780742174E+03 -0.89754526365E+03  0.18314831665E+04  0.10100000352E+00 0. -1.
</event>
<event>
 5   0  0.1556396E-06  0.3202891E+04  0.7818609E-02  0.8188054E-01
       -2   -1    0    0    0  501  0.00000000000E+00  0.00000000000E+00  0.16207420618E+04  0.16207420618E+04  0.25500000920E-02 0.  1.
        2   -1    0    0  501    0  0.00000000000E+00  0.00000000000E+00 -0.15823789493E+04  0.15823789493E+04  0.25500000920E-02 0. -1.
    10030    2    1    2    0    0  0.00000000000E+00  0.00000000000E+00  0.38363112561E+02  0.32031210111E+04  0.32028912694E+04 0.  0.
        3    1    3    3  502    0  0.29234404548E+03  0.15742431507E+04  0.49541139760E+02  0.16019241160E+04  0.10100000352E+00 0. -1.
       -3    1    3    3    0  502 -0.29234404548E+03 -0.15742431507E+04 -0.11178027199E+02  0.16011968952E+04  0.10100000352E+00 0.  1.
</event>
<event>
 5   0  0.5370912E-07  0.3195894E+04  0.7818609E-02  0.8189902E-01
       -1   -1    0    0    0  501  0.00000000000E+00  0.00000000000E+00  0.27602530895E+04  0.27602530895E+04  0.50400001928E-02 0. -1.
        1   -1    0    0  501    0  0.00000000000E+00  0.00000000000E+00 -0.92507251966E+03  0.92507251967E+03  0.50400001928E-02 0.  1.
    10030    2    1    2    0    0  0.00000000000E+00  0.00000000000E+00  0.18351805699E+04  0.36853256092E+04  0.31958937908E+04 0.  0.
        1    1    3    3  502    0 -0.65759239128E+03 -0.14462632106E+04  0.72010532430E+03  0.17443212736E+04  0.50400001928E-02 0.  1.
       -1    1    3    3    0  502  0.65759239128E+03  0.14462632106E+04  0.11150752456E+04  0.19410043356E+04  0.50400001928E-02 0. -1.
</event>
<event>
 5   0  0.1538349E-06  0.3042657E+04  0.7818609E-02  0.8231654E-01
        2   -1    0    0  501    0  0.00000000000E+00  0.00000000000E+00  0.88207798585E+03  0.88207798585E+03  0.25500000920E-02 0.  1.
       -2   -1    0    0    0  501  0.00000000000E+00  0.00000000000E+00 -0.26238495797E+04  0.26238495797E+04  0.25500000920E-02 0. -1.
    10030    2    1    2    0    0  0.00000000000E+00  0.00000000000E+00 -0.17417715939E+04  0.35059275656E+04  0.30426567026E+04 0.  0.
        1    1    3    3  502    0  0.32151279564E+03  0.53112580199E+03  0.72945791622E+03  0.95790080220E+03  0.50400001928E-02 0.  1.
       -1    1    3    3    0  502 -0.32151279564E+03 -0.53112580199E+03 -0.24712295101E+04  0.25480267634E+04  0.50400001928E-02 0. -1.
</event>
<event>
 5   0  0.5317728E-07  0.3188127E+04  0.7818609E-02  0.8191960E-01
       -1   -1    0    0    0  501  0.00000000000E+00  0.00000000000E+00  0.29470567981E+04  0.29470567981E+04  0.50400001928E-02 0.  1.
        1   -1    0    0  501    0  0.00000000000E+00  0.00000000000E+00 -0.86222937736E+03  0.86222937737E+03  0.50400001928E-02 0. -1.
    10030    2    1    2    0    0  0.00000000000E+00  0.00000000000E+00  0.20848274207E+04  0.38092861754E+04  0.31881273174E+04 0.  0.
        2    1    3    3  502    0 -0.50942022918E+03 -0.13307200678E+04  0.18853367519E+03  0.14373134020E+04  0.25500000920E-02 0. -1.
       -2    1    3    3    0  502  0.50942022918E+03  0.13307200678E+04  0.18962937455E+04  0.23719727735E+04  0.25500000920E-02 0.  1.
</event>
<event>
 5   0  0.5370912E-07  0.3196404E+04  0.7818609E-02  0.8189768E-01
        1   -1    0    0  501    0  0.00000000000E+00  0.00000000000E+00  0.24218928814E+04  0.24218928815E+04  0.50400001928E-02 0.  1.
       -1   -1    0    0    0  501  0.00000000000E+00  0.00000000000E+00 -0.10546499536E+04  0.10546499536E+04  0.50400001928E-02 0. -1.
    10030    2    1    2    0    0  0.00000000000E+00  0.00000000000E+00  0.13672429279E+04  0.34765428350E+04  0.31964037386E+04 0.  0.
        1    1    3    3  502    0  0.13742292604E+04 -0.35484211838E+03  0.14827461625E+04  0.20525484578E+04  0.50400001928E-02 0.  1.
       -1    1    3    3    0  502 -0.13742292604E+04  0.35484211838E+03 -0.11550323458E+03  0.14239943772E+04  0.50400001928E-02 0. -1.
</event>
<event>
 5   0  0.4995625E-07  0.3204858E+04  0.7818609E-02  0.8187535E-01
        4   -1    0    0  501    0  0.00000000000E+00  0.00000000000E+00  0.13085143501E+04  0.13085149664E+04  0.12699999809E+01 0.  1.
       -4   -1    0    0    0  501  0.00000000000E+00  0.00000000000E+00 -0.19623607618E+04  0.19623611727E+04  0.12699999809E+01 0. -1.
    10030    2    1    2    0    0  0.00000000000E+00  0.00000000000E+00 -0.65384641173E+03  0.32708761391E+04  0.32048581228E+04 0.  0.
        3    1    3    3  502    0  0.90855677816E+03  0.12659017559E+04 -0.70851848389E+03  0.17117187640E+04  0.10100000352E+00 0. -1.
       -3    1    3    3    0  502 -0.90855677816E+03 -0.12659017559E+04  0.54672072154E+02  0.15591573751E+04  0.10100000352E+00 0.  1.
</event>
<event>
 5   0  0.1538349E-06  0.3198612E+04  0.7818609E-02  0.8189184E-01
       -2   -1    0    0    0  501  0.00000000000E+00  0.00000000000E+00  0.14814817768E+04  0.14814817768E+04  0.25500000920E-02 0.  1.
        2   -1    0    0  501    0  0.00000000000E+00  0.00000000000E+00 -0.17265007609E+04  0.17265007609E+04  0.25500000920E-02 0. -1.
    10030    2    1    2    0    0  0.00000000000E+00  0.00000000000E+00 -0.24501898411E+03  0.32079825377E+04  0.31986118332E+04 0.  0.
        1    1    3    3  502    0 -0.15029535383E+04  0.93054326627E+02  0.41781828618E+03  0.15627221654E+04  0.50400001928E-02 0.  1.
       -1    1    3    3    0  502  0.15029535383E+04 -0.93054326627E+02 -0.66283727029E+03  0.16452603723E+04  0.50400001928E-02 0. -1.
</event>
<event>
 5   0  0.5233813E-07  0.3187719E+04  0.7818609E-02  0.8192068E-01
       -1   -1    0    0    0  501  0.00000000000E+00  0.00000000000E+00  0.17412679170E+04  0.17412679170E+04  0.50400001928E-02 0. -1.
        1   -1    0    0  501    0  0.00000000000E+00  0.00000000000E+00 -0.14589297370E+04  0.14589297370E+04  0.50400001928E-02 0.  1.
    10030    2    1    2    0    0  0.00000000000E+00  0.00000000000E+00  0.28233817993E+03  0.32001976540E+04  0.31877186477E+04 0.  0.
        4    1    3    3  502    0 -0.61807334957E+03 -0.14544888675E+04 -0.66603424455E+02  0.15817680488E+04  0.12699999809E+01 0.  1.
       -4    1    3    3    0  502  0.61807334957E+03  0.14544888675E+04  0.34894160439E+03  0.16184296053E+04  0.12699999809E+01 0. -1.
</event>
<event>
 5   0  0.5317728E-07  0.3216067E+04  0.7818609E-02  0.8184587E-01
       -1   -1    0    0    0  501  0.00000000000E+00  0.00000000000E+00  0.95740907646E+03  0.95740907647E+03  0.50400001928E-02 0.  1.
        1   -1    0    0  501    0  0.00000000000E+00  0.00000000000E+00 -0.27008006894E+04  0.27008006894E+04  0.50400001928E-02 0. -1.
    10030    2    1    2    0    0  0.00000000000E+00  0.00000000000E+00 -0.17433916129E+04  0.36582097658E+04  0.32160665999E+04 0.  0.
        2    1    3    3  502    0  0.91144795056E+03 -0.10060430444E+04 -0.18521154419E+04  0.22963430893E+04  0.25500000920E-02 0. -1.
       -2    1    3    3    0  502 -0.91144795056E+03  0.10060430444E+04  0.10872382895E+03  0.13618666766E+04  0.25500000920E-02 0.  1.
</event>
<event>
 5   0  0.1493485E-06  0.3266542E+04  0.7818609E-02  0.8171461E-01
        2   -1    0    0  501    0  0.00000000000E+00  0.00000000000E+00  0.27340143038E+04  0.27340143038E+04  0.25500000920E-02 0.  1.
       -2   -1    0    0    0  501  0.00000000000E+00  0.00000000000E+00 -0.97569855446E+03  0.97569855446E+03  0.25500000920E-02 0. -1.
    10030    2    1    2    0    0  0.00000000000E+00  0.00000000000E+00  0.17583157493E+04  0.37097128583E+04  0.32665417824E+04 0.  0.
        2    1    3    3  502    0  0.12353026773E+04  0.10508025898E+04  0.10988300498E+04  0.19589758206E+04  0.25500000920E-02 0.  1.
       -2    1    3    3    0  502 -0.12353026773E+04 -0.10508025898E+04  0.65948569950E+03  0.17507370377E+04  0.25500000920E-02 0. -1.
</event>
<event>
 5   0  0.5177039E-07  0.3216778E+04  0.7818609E-02  0.8184400E-01
        1   -1    0    0  501    0  0.00000000000E+00  0.00000000000E+00  0.31335969074E+04  0.31335969074E+04  0.50400001928E-02 0. -1.
       -1   -1    0    0    0  501  0.00000000000E+00  0.00000000000E+00 -0.82554202451E+03  0.82554202453E+03  0.50400001928E-02 0.  1.
    10030    2    1    2    0    0  0.00000000000E+00  0.00000000000E+00  0.23080548829E+04  0.39591389320E+04  0.32167784723E+04 0.  0.
        3    1    3    3  502    0 -0.57070073839E+03  0.10294297495E+04  0.25031140962E+04  0.27660450342E+04  0.10100000352E+00 0. -1.
       -3    1    3    3    0  502  0.57070073839E+03 -0.10294297495E+04 -0.19505921333E+03  0.11930938978E+04  0.10100000352E+00 0.  1.
</event>
<event>
 5   0  0.1572769E-06  0.3280348E+04  0.7818609E-02  0.8167914E-01
       -2   -1    0    0    0  501  0.00000000000E+00  0.00000000000E+00  0.21731736222E+04  0.21731736222E+04  0.25500000920E-02 0.  1.
        2   -1    0    0  501    0  0.00000000000E+00  0.00000000000E+00 -0.12378997338E+04  0.12378997338E+04  0.25500000920E-02 0. -1.
    10030    2    1    2    0    0  0.00000000000E+00  0.00000000000E+00  0.93527388847E+03  0.34110733560E+04  0.32803481818E+04 0.  0.
        5    1    3    3  502    0  0.14202603954E+03 -0.45716820545E+03  0.20989026235E+04  0.21528094381E+04  0.46999998093E+01 0.  1.
       -5    1    3    3    0  502 -0.14202603954E+03  0.45716820545E+03 -0.11636287350E+04  0.12582639179E+04  0.46999998093E+01 0. -1.
</event>
<event>
 5   0  0.5177039E-07  0.3210197E+04  0.7818609E-02  0.8186129E-01
        1   -1    0    0  501    0  0.00000000000E+00  0.00000000000E+00  0.17201064580E+04  0.17201064580E+04  0.50400001928E-02 0. -1.
       -1   -1    0    0    0  501  0.00000000000E+00  0.00000000000E+00 -0.14977800888E+04  0.14977800888E+04  0.50400001928E-02 0.  1.
    10030    2    1    2    0    0  0.00000000000E+00  0.00000000000E+00  0.22232636917E+03  0.32178865469E+04  0.32101970055E+04 0.  0.
        3    1    3    3  502    0 -0.23222472847E+03 -0.92265222284E+02  0.17004893802E+04  0.17187510983E+04  0.10100000352E+00 0. -1.
       -3    1    3    3    0  502  0.23222472847E+03  0.92265222284E+02 -0.14781630110E+04  0.14991354485E+04  0.10100000352E+00 0.  1.
</event>
<event>
 5   0  0.1493485E-06  0.3193808E+04  0.7818609E-02  0.8190454E-01
       -2   -1    0    0    0  501  0.00000000000E+00  0.00000000000E+00  0.12739879438E+04  0.12739879438E+04  0.25500000920E-02 0.  1.
        2   -1    0    0  501    0  0.00000000000E+00  0.00000000000E+00 -0.20016691502E+04  0.20016691502E+04  0.25500000920E-02 0. -1.
    10030    2    1    2    0    0  0.00000000000E+00  0.00000000000E+00 -0.72768120640E+03  0.32756570940E+04  0.31938079872E+04 0.  0.
        2    1    3    3  502    0  0.84883337641E+03  0.10201609557E+04  0.54709665463E+03  0.14354655085E+04  0.25500000920E-02 0.  1.
       -2    1    3    3    0  502 -0.84883337641E+03 -0.10201609557E+04 -0.12747778610E+04  0.18401915855E+04  0.25500000920E-02 0. -1.
</event>
<event>
 5   0  0.1493485E-06  0.3207981E+04  0.7818609E-02  0.8186713E-01
       -2   -1    0    0    0  501  0.00000000000E+00  0.00000000000E+00  0.10806671679E+04  0.10806671679E+04  0.25500000920E-02 0.  1.
        2   -1    0    0  501    0  0.00000000000E+00  0.00000000000E+00 -0.23807379349E+04  0.23807379349E+04  0.25500000920E-02 0. -1.
    10030    2    1    2    0    0  0.00000000000E+00  0.00000000000E+00 -0.13000707670E+04  0.34614051028E+04  0.32079808738E+04 0.  0.
        2    1    3    3  502    0  0.15042233168E+04  0.54555318560E+03 -0.52954817602E+03  0.16854487046E+04  0.25500000920E-02 0.  1.
       -2    1    3    3    0  502 -0.15042233168E+04 -0.54555318560E+03 -0.77052259094E+03  0.17759563982E+04  0.25500000920E-02 0. -1.
</event>
<event>
 5   0  0.5370912E-07  0.3170345E+04  0.7818609E-02  0.8196693E-01
        1   -1    0    0  501    0  0.00000000000E+00  0.00000000000E+00  0.11101040981E+04  0.11101040981E+04  0.50400001928E-02 0. -1.
       -1   -1    0    0    0  501  0.00000000000E+00  0.00000000000E+00 -0.22635463205E+04  0.22635463205E+04  0.50400001928E-02 0.  1.
    10030    2    1    2    0    0  0.00000000000E+00  0.00000000000E+00 -0.11534422224E+04  0.33736504186E+04  0.31703451211E+04 0.  0.
        1    1    3    3  502    0  0.12592044181E+04  0.96239907545E+03 -0.60976563714E+03  0.16981230460E+04  0.50400001928E-02 0. -1.
       -1    1    3    3    0  502 -0.12592044181E+04 -0.96239907545E+03 -0.54367658528E+03  0.16755273726E+04  0.50400001928E-02 0.  1.
</event>
<event>
 5   0  0.1556396E-06  0.3200703E+04  0.7818609E-02  0.8188631E-01
       -2   -1    0    0    0  501  0.00000000000E+00  0.00000000000E+00  0.18074618869E+04  0.18074618869E+04  0.25500000920E-02 0.  1.
        2   -1    0    0  501    0  0.00000000000E+00  0.00000000000E+00 -0.14169732681E+04  0.14169732681E+04  0.25500000920E-02 0. -1.
    10030    2    1    2    0    0  0.00000000000E+00  0.00000000000E+00  0.39048861884E+03  0.32244351550E+04  0.32007031582E+04 0.  0.
        3    1    3    3  502    0 -0.11081005010E+04  0.11280920351E+04  0.44333599959E+03  0.16422622138E+04  0.10100000352E+00 0.  1.
       -3    1    3    3    0  502  0.11081005010E+04 -0.11280920351E+04 -0.52847380748E+02  0.15821729412E+04  0.10100000352E+00 0. -1.
</event>
<event>
 5   0  0.1493485E-06  0.3198795E+04  0.7818609E-02  0.8189135E-01
        2   -1    0    0  501    0  0.00000000000E+00  0.00000000000E+00  0.17503419145E+04  0.17503419145E+04  0.25500000920E-02 0.  1.
       -2   -1    0    0    0  501  0.00000000000E+00  0.00000000000E+00 -0.14614702646E+04  0.14614702646E+04  0.25500000920E-02 0. -1.
    10030    2    1    2    0    0  0.00000000000E+00  0.00000000000E+00  0.28887164990E+03  0.32118121791E+04  0.31987951863E+04 0.  0.
        2    1    3    3  502    0  0.12554486189E+04 -0.83318244649E+02  0.11358644367E+04  0.16950755686E+04  0.25500000920E-02 0.  1.
       -2    1    3    3    0  502 -0.12554486189E+04  0.83318244649E+02 -0.84699278681E+03  0.15167366105E+04  0.25500000920E-02 0. -1.
</event>
<event>
 5   0  0.5177039E-07  0.3199853E+04  0.7818609E-02  0.8188856E-01
        1   -1    0    0  501    0  0.00000000000E+00  0.00000000000E+00  0.14985919254E+04  0.14985919254E+04  0.50400001928E-02 0.  1.
       -1   -1    0    0    0  501  0.00000000000E+00  0.00000000000E+00 -0.17081138347E+04  0.17081138347E+04  0.50400001928E-02 0. -1.
    10030    2    1    2    0    0  0.00000000000E+00  0.00000000000E+00 -0.20952190930E+03  0.32067057602E+04  0.31998534970E+04 0.  0.
        3    1    3    3  502    0  0.95083006147E+02  0.38281050666E+03  0.14491015634E+04  0.15018255602E+04  0.10100000352E+00 0.  1.
       -3    1    3    3    0  502 -0.95083006147E+02 -0.38281050666E+03 -0.16586234727E+04  0.17048802000E+04  0.10100000352E+00 0. -1.
</event>
<event>
 5   0  0.5177039E-07  0.3202264E+04  0.7818609E-02  0.8188219E-01
       -1   -1    0    0    0  501  0.00000000000E+00  0.00000000000E+00  0.12485633151E+04  0.12485633151E+04  0.50400001928E-02 0. -1.
        1   -1    0    0  501    0  0.00000000000E+00  0.00000000000E+00 -0.20532592562E+04  0.20532592562E+04  0.50400001928E-02 0.  1.
    10030    2    1    2    0    0  0.00000000000E+00  0.00000000000E+00 -0.80469594107E+03  0.33018225713E+04  0.32022643136E+04 0.  0.
        3    1    3    3  502    0  0.56495367948E+03 -0.23911182101E+03 -0.19272728659E+04  0.20225547786E+04  0.10100000352E+00 0.  1.
       -3    1    3    3    0  502 -0.56495367948E+03  0.23911182101E+03  0.11225769248E+04  0.12792677926E+04  0.10100000352E+00 0. -1.
</event>
<event>
 5   0  0.5233813E-07  0.3208804E+04  0.7818609E-02  0.8186496E-01
        1   -1    0    0  501    0  0.00000000000E+00  0.00000000000E+00  0.26601176123E+04  0.26601176123E+04  0.50400001928E-02 0. -1.
       -1   -1    0    0    0  501  0.00000000000E+00  0.00000000000E+00 -0.96766641320E+03  0.96766641322E+03  0.50400001928E-02 0.  1.
    10030    2    1    2    0    0  0.00000000000E+00  0.00000000000E+00  0.16924511991E+04  0.36277840255E+04  0.32088044307E+04 0.  0.
        4    1    3    3  502    0  0.20957326203E+03  0.27466760210E+03 -0.92511088434E+03  0.98751962260E+03  0.12699999809E+01 0.  1.
       -4    1    3    3    0  502 -0.20957326203E+03 -0.27466760210E+03  0.26175620834E+04  0.26402644029E+04  0.12699999809E+01 0. -1.
</event>
<event>
 5   0  0.1556396E-06  0.3204327E+04  0.7818609E-02  0.8187675E-01
        2   -1    0    0  501    0  0.00000000000E+00  0.00000000000E+00  0.20900981540E+04  0.20900981540E+04  0.25500000920E-02 0. -1.
       -2   -1    0    0    0  501  0.00000000000E+00  0.00000000000E+00 -0.12281378175E+04  0.12281378175E+04  0.25500000920E-02 0.  1.
    10030    2    1    2    0    0  0.00000000000E+00  0.00000000000E+00  0.86196033643E+03  0.33182359715E+04  0.32043274397E+04 0.  0.
        3    1    3    3  502    0  0.11136744417E+04 -0.92355662423E+03  0.11437060294E+04  0.18442589547E+04  0.10100000352E+00 0. -1.
       -3    1    3    3    0  502 -0.11136744417E+04  0.92355662423E+03 -0.28174569294E+03  0.14739770168E+04  0.10100000352E+00 0.  1.
</event>
<event>
 5   0  0.1493485E-06  0.3164962E+04  0.7818609E-02  0.8198133E-01
        2   -1    0    0  501    0  0.00000000000E+00  0.00000000000E+00  0.14043793563E+04  0.14043793563E+04  0.25500000920E-02 0. -1.
       -2   -1    0    0    0  501  0.00000000000E+00  0.00000000000E+00 -0.17831687170E+04  0.17831687170E+04  0.25500000920E-02 0.  1.
    10030    2    1    2    0    0  0.00000000000E+00  0.00000000000E+00 -0.37878936074E+03  0.31875480732E+04  0.31649615068E+04 0.  0.
        2    1    3    3  502    0  0.52589781294E+03  0.13950348131E+04  0.34500931710E+03  0.15302686262E+04  0.25500000920E-02 0. -1.
       -2    1    3    3    0  502 -0.52589781294E+03 -0.13950348131E+04 -0.72379867783E+03  0.16572794470E+04  0.25500000920E-02 0.  1.
</event>
<event>
 5   0  0.1508771E-06  0.3173884E+04  0.7818609E-02  0.8195749E-01
       -2   -1    0    0    0  501  0.00000000000E+00  0.00000000000E+00  0.12559800882E+04  0.12559800882E+04  0.25500000920E-02 0. -1.
        2   -1    0    0  501    0  0.00000000000E+00  0.00000000000E+00 -0.20051150299E+04  0.20051150299E+04  0.25500000920E-02 0.  1.
    10030    2    1    2    0    0  0.00000000000E+00  0.00000000000E+00 -0.74913494167E+03  0.32610951181E+04  0.31738837736E+04 0.  0.
        4    1    3    3  502    0 -0.10901856724E+04 -0.30745557219E+03 -0.15165706639E+04  0.18928871917E+04  0.12699999809E+01 0.  1.
       -4    1    3    3    0  502  0.10901856724E+04  0.30745557219E+03  0.76743572220E+03  0.13682079264E+04  0.12699999809E+01 0. -1.
</event>
<event>
 5   0  0.5317728E-07  0.3213669E+04  0.7818609E-02  0.8185217E-01
       -1   -1    0    0    0  501  0.00000000000E+00  0.00000000000E+00  0.13550155599E+04  0.13550155599E+04  0.50400001928E-02 0.  1.
        1   -1    0    0  501    0  0.00000000000E+00  0.00000000000E+00 -0.19054520565E+04  0.19054520565E+04  0.50400001928E-02 0. -1.
    10030    2    1    2    0    0  0.00000000000E+00  0.00000000000E+00 -0.55043649661E+03  0.32604676164E+04  0.32136690465E+04 0.  0.
        2    1    3    3  502    0  0.12129381598E+03  0.12341869337E+04  0.76141805323E+03  0.14552274836E+04  0.25500000920E-02 0.  1.
       -2    1    3    3    0  502 -0.12129381598E+03 -0.12341869337E+04 -0.13118545498E+04  0.18052401328E+04  0.25500000920E-02 0. -1.
</event>
<event>
 5   0  0.4995625E-07  0.3191660E+04  0.7818609E-02  0.8191023E-01
       -3   -1    0    0    0  501  0.00000000000E+00  0.00000000000E+00  0.13545755928E+04  0.13545755966E+04  0.10100000352E+00 0.  1.
        3   -1    0    0  501    0  0.00000000000E+00  0.00000000000E+00 -0.18800528927E+04  0.18800528954E+04  0.10100000352E+00 0. -1.
    10030    2    1    2    0    0  0.00000000000E+00  0.00000000000E+00 -0.52547729985E+03  0.32346284919E+04  0.31916602401E+04 0.  0.
        3    1    3    3  502    0  0.12536727008E+03  0.11656526258E+04  0.83452402685E+03  0.14390598869E+04  0.10100000352E+00 0.  1.
       -3    1    3    3    0  502 -0.12536727008E+03 -0.11656526258E+04 -0.13600013267E+04  0.17955686050E+04  0.10100000352E+00 0. -1.
</event>
<event>
 5   0  0.1538349E-06  0.3182406E+04  0.7818609E-02  0.8193479E-01
        2   -1    0    0  501    0  0.00000000000E+00  0.00000000000E+00  0.27342983138E+04  0.27342983138E+04  0.25500000920E-02 0. -1.
       -2   -1    0    0    0  501  0.00000000000E+00  0.00000000000E+00 -0.92598770753E+03  0.92598770754E+03  0.25500000920E-02 0.  1.
    10030    2    1    2    0    0  0.00000000000E+00  0.00000000000E+00  0.18083106063E+04  0.36602860214E+04  0.31824057738E+04 0.  0.
        1    1    3    3  502    0  0.22125123352E+03 -0.21771396854E+03  0.26991378760E+04  0.27169278154E+04  0.50400001928E-02 0. -1.
       -1    1    3    3    0  502 -0.22125123352E+03  0.21771396854E+03 -0.89082726967E+03  0.94335820600E+03  0.50400001928E-02 0.  1.
</event>
<event>
 5   0  0.1493485E-06  0.3229632E+04  0.7818609E-02  0.8181035E-01
       -2   -1    0    0    0  501  0.00000000000E+00  0.00000000000E+00  0.21094737804E+04  0.21094737804E+04  0.25500000920E-02 0.  1.
        2   -1    0    0  501    0  0.00000000000E+00  0.00000000000E+00 -0.12361519533E+04  0.12361519533E+04  0.25500000920E-02 0. -1.
    10030    2    1    2    0    0  0.00000000000E+00  0.00000000000E+00  0.87332182713E+03  0.33456257338E+04  0.32296316410E+04 0.  0.
        2    1    3    3  502    0 -0.21076006975E+03 -0.79180469873E+03  0.18781312623E+04  0.20490855342E+04  0.25500000920E-02 0.  1.
       -2    1    3    3    0  502  0.21076006975E+03  0.79180469873E+03 -0.10048094352E+04  0.12965401995E+04  0.25500000920E-02 0. -1.
</event>
<event>
 5   0  0.5370912E-07  0.3189927E+04  0.7818609E-02  0.8191482E-01
       -1   -1    0    0    0  501  0.00000000000E+00  0.00000000000E+00  0.12771083622E+04  0.12771083622E+04  0.50400001928E-02 0. -1.
        1   -1    0    0  501    0  0.00000000000E+00  0.00000000000E+00 -0.19919290553E+04  0.19919290553E+04  0.50400001928E-02 0.  1.
    10030    2    1    2    0    0  0.00000000000E+00  0.00000000000E+00 -0.71482069305E+03  0.32690374175E+04  0.31899274308E+04 0.  0.
        1    1    3    3  502    0  0.60967043613E+03 -0.88676135570E+03  0.84901271884E+03  0.13707174543E+04  0.50400001928E-02 0. -1.
       -1    1    3    3    0  502 -0.60967043613E+03  0.88676135570E+03 -0.15638334119E+04  0.18983199632E+04  0.50400001928E-02 0.  1.
</event>
<event>
 5   0  0.5177039E-07  0.3177952E+04  0.7818609E-02  0.8194664E-01
        1   -1    0    0  501    0  0.00000000000E+00  0.00000000000E+00  0.18432612764E+04  0.18432612764E+04  0.50400001928E-02 0.  1.
       -1   -1    0    0    0  501  0.00000000000E+00  0.00000000000E+00 -0.13697703321E+04  0.13697703321E+04  0.50400001928E-02 0. -1.
    10030    2    1    2    0    0  0.00000000000E+00  0.00000000000E+00  0.47349094436E+03  0.32130316085E+04  0.31779519258E+04 0.  0.
        3    1    3    3  502    0 -0.13305007256E+04  0.69042095687E+03  0.76975677837E+03  0.16850634370E+04  0.10100000352E+00 0. -1.
       -3    1    3    3    0  502  0.13305007256E+04 -0.69042095687E+03 -0.29626583401E+03  0.15279681715E+04  0.10100000352E+00 0.  1.
</event>
<event>
 5   0  0.5233813E-07  0.2952167E+04  0.7818609E-02  0.8257523E-01
        1   -1    0    0  501    0  0.00000000000E+00  0.00000000000E+00  0.16930099867E+04  0.16930099867E+04  0.50400001928E-02 0.  1.
       -1   -1    0    0    0  501  0.00000000000E+00  0.00000000000E+00 -0.12869519375E+04  0.12869519375E+04  0.50400001928E-02 0. -1.
    10030    2    1    2    0    0  0.00000000000E+00  0.00000000000E+00  0.40605804920E+03  0.29799619241E+04  0.29521669888E+04 0.  0.
        4    1    3    3  502    0 -0.12510720360E+04 -0.98566112536E+01  0.99369329394E+03  0.15977191141E+04  0.12699999809E+01 0.  1.
       -4    1    3    3    0  502  0.12510720360E+04  0.98566112536E+01 -0.58763524474E+03  0.13822428100E+04  0.12699999809E+01 0. -1.
</event>
<event>
 5   0  0.5177039E-07  0.3153303E+04  0.7818609E-02  0.8201260E-01
       -1   -1    0    0    0  501  0.00000000000E+00  0.00000000000E+00  0.14831080959E+04  0.14831080959E+04  0.50400001928E-02 0.  1.
        1   -1    0    0  501    0  0.00000000000E+00  0.00000000000E+00 -0.16760947502E+04  0.16760947502E+04  0.50400001928E-02 0. -1.
    10030    2    1    2    0    0  0.00000000000E+00  0.00000000000E+00 -0.19298665433E+03  0.31592028462E+04  0.31533028358E+04 0.  0.
        3    1    3    3  502    0 -0.58482348353E+03  0.14629363838E+04 -0.36145140111E+02  0.15759149252E+04  0.10100000352E+00 0.  1.
       -3    1    3    3    0  502  0.58482348353E+03 -0.14629363838E+04 -0.15684151422E+03  0.15832879210E+04  0.10100000352E+00 0. -1.
</event>
<event>
 5   0  0.1556396E-06  0.3207769E+04  0.7818609E-02  0.8186769E-01
        2   -1    0    0  501    0  0.00000000000E+00  0.00000000000E+00  0.26628101312E+04  0.26628101312E+04  0.25500000920E-02 0. -1.
       -2   -1    0    0    0  501  0.00000000000E+00  0.00000000000E+00 -0.96606397018E+03  0.96606397018E+03  0.25500000920E-02 0.  1.
    10030    2    1    2    0    0  0.00000000000E+00  0.00000000000E+00  0.16967461611E+04  0.36288741014E+04  0.32077686495E+04 0.  0.
        3    1    3    3  502    0  0.12823883923E+03 -0.72053578810E+03 -0.76615658705E+03  0.10595343071E+04  0.10100000352E+00 0.  1.
       -3    1    3    3    0  502 -0.12823883923E+03  0.72053578810E+03  0.24629027481E+04  0.25693397943E+04  0.10100000352E+00 0. -1.
</event>
<event>
 5   0  0.5317728E-07  0.3204411E+04  0.7818609E-02  0.8187653E-01
       -1   -1    0    0    0  501  0.00000000000E+00  0.00000000000E+00  0.15142083150E+04  0.15142083150E+04  0.50400001928E-02 0.  1.
        1   -1    0    0  501    0  0.00000000000E+00  0.00000000000E+00 -0.16953161950E+04  0.16953161950E+04  0.50400001928E-02 0. -1.
    10030    2    1    2    0    0  0.00000000000E+00  0.00000000000E+00 -0.18110787998E+03  0.32095245100E+04  0.32044106348E+04 0.  0.
        2    1    3    3  502    0  0.15667841914E+04 -0.22215711080E+03 -0.34174371431E+03  0.16189364566E+04  0.25500000920E-02 0.  1.
       -2    1    3    3    0  502 -0.15667841914E+04  0.22215711080E+03  0.16063583432E+03  0.15905880534E+04  0.25500000920E-02 0. -1.
</event>
<event>
 5   0  0.1538349E-06  0.3189573E+04  0.7818609E-02  0.8191576E-01
       -2   -1    0    0    0  501  0.00000000000E+00  0.00000000000E+00  0.97130600074E+03  0.97130600075E+03  0.25500000920E-02 0. -1.
        2   -1    0    0  501    0  0.00000000000E+00  0.00000000000E+00 -0.26184792590E+04  0.26184792590E+04  0.25500000920E-02 0.  1.
    10030    2    1    2    0    0  0.00000000000E+00  0.00000000000E+00 -0.16471732583E+04  0.35897852597E+04  0.31895733991E+04 0.  0.
        1    1    3    3  502    0  0.18847792675E+03  0.15376487425E+04 -0.39730482867E+03  0.15992931911E+04  0.50400001928E-02 0. -1.
       -1    1    3    3    0  502 -0.18847792675E+03 -0.15376487425E+04 -0.12498684296E+04  0.19904920687E+04  0.50400001928E-02 0.  1.
</event>
<event>
 5   0  0.5317728E-07  0.3167452E+04  0.7818609E-02  0.8197466E-01
       -1   -1    0    0    0  501  0.00000000000E+00  0.00000000000E+00  0.13134243950E+04  0.13134243950E+04  0.50400001928E-02 0.  1.
        1   -1    0    0  501    0  0.00000000000E+00  0.00000000000E+00 -0.19096557276E+04  0.19096557276E+04  0.50400001928E-02 0. -1.
    10030    2    1    2    0    0  0.00000000000E+00  0.00000000000E+00 -0.59623133260E+03  0.32230801225E+04  0.31674522371E+04 0.  0.
        2    1    3    3  502    0 -0.12841086418E+04 -0.85827332464E+03  0.58206007985E+02  0.15456248067E+04  0.25500000920E-02 0.  1.
       -2    1    3    3    0  502  0.12841086418E+04  0.85827332464E+03 -0.65443734059E+03  0.16774553158E+04  0.25500000920E-02 0. -1.
</event>
<event>
 5   0  0.5177039E-07  0.3203610E+04  0.7818609E-02  0.8187865E-01
       -1   -1    0    0    0  501  0.00000000000E+00  0.00000000000E+00  0.15822013333E+04  0.15822013333E+04  0.50400001928E-02 0.  1.
        1   -1    0    0  501    0  0.00000000000E+00  0.00000000000E+00 -0.16216512326E+04  0.16216512326E+04  0.50400001928E-02 0. -1.
    10030    2    1    2    0    0  0.00000000000E+00  0.00000000000E+00 -0.39449899284E+02  0.32038525659E+04  0.32036096781E+04 0.  0.
        3    1    3    3  502    0  0.82631284761E+03 -0.13209971168E+04  0.35172268674E+03  0.15973525482E+04  0.10100000352E+00 0.  1.
       -3    1    3    3    0  502 -0.82631284761E+03  0.13209971168E+04 -0.39117258603E+03  0.16065000177E+04  0.10100000352E+00 0. -1.
</event>
<event>
 5   0  0.1508771E-06  0.3200792E+04  0.7818609E-02  0.8188608E-01
        2   -1    0    0  501    0  0.00000000000E+00  0.00000000000E+00  0.14031510669E+04  0.14031510669E+04  0.25500000920E-02 0.  1.
       -2   -1    0    0    0  501  0.00000000000E+00  0.00000000000E+00 -0.18253687612E+04  0.18253687612E+04  0.25500000920E-02 0. -1.
    10030    2    1    2    0    0  0.00000000000E+00  0.00000000000E+00 -0.42221769432E+03  0.32285198281E+04  0.32007924798E+04 0.  0.
        4    1    3    3  502    0 -0.94042993358E+03  0.12648349449E+04  0.68875654749E+02  0.15776442458E+04  0.12699999809E+01 0. -1.
       -4    1    3    3    0  502  0.94042993358E+03 -0.12648349449E+04 -0.49109334907E+03  0.16508755823E+04  0.12699999809E+01 0.  1.
</event>
<event>
 5   0  0.5233813E-07  0.3185660E+04  0.7818609E-02  0.8192615E-01
        1   -1    0    0  501    0  0.00000000000E+00  0.00000000000E+00  0.16791214842E+04  0.16791214842E+04  0.50400001928E-02 0. -1.
       -1   -1    0    0    0  501  0.00000000000E+00  0.00000000000E+00 -0.15109729124E+04  0.15109729124E+04  0.50400001928E-02 0.  1.
    10030    2    1    2    0    0  0.00000000000E+00  0.00000000000E+00  0.16814857183E+03  0.31900943966E+04  0.31856597931E+04 0.  0.
        4    1    3    3  502    0  0.11531128592E+04  0.10630901277E+04 -0.19429754050E+03  0.15803743331E+04  0.12699999809E+01 0. -1.
       -4    1    3    3    0  502 -0.11531128592E+04 -0.10630901277E+04  0.36244611233E+03  0.16097200635E+04  0.12699999809E+01 0.  1.
</event>
<event>
 5   0  0.1493485E-06  0.3215668E+04  0.7818609E-02  0.8184692E-01
       -2   -1    0    0    0  501  0.00000000000E+00  0.00000000000E+00  0.17565622052E+04  0.17565622052E+04  0.25500000920E-02 0. -1.
        2   -1    0    0  501    0  0.00000000000E+00  0.00000000000E+00 -0.14716982068E+04  0.14716982068E+04  0.25500000920E-02 0.  1.
    10030    2    1    2    0    0  0.00000000000E+00  0.00000000000E+00  0.28486399838E+03  0.32282604121E+04  0.32156675498E+04 0.  0.
        2    1    3    3  502    0  0.84176198764E+03 -0.73761977411E+03 -0.10164208697E+04  0.15118722034E+04  0.25500000920E-02 0.  1.
       -2    1    3    3    0  502 -0.84176198764E+03  0.73761977411E+03  0.13012848681E+04  0.17163882087E+04  0.25500000920E-02 0. -1.
</event>
<event>
 5   0  0.5281187E-07  0.3555500E+04  0.7818609E-02  0.8100762E-01
       -1   -1    0    0    0  501  0.00000000000E+00  0.00000000000E+00  0.10265867109E+04  0.10265867109E+04  0.50400001928E-02 0. -1.
        1   -1    0    0  501    0  0.00000000000E+00  0.00000000000E+00 -0.30785464411E+04  0.30785464411E+04  0.50400001928E-02 0.  1.
    10030    2    1    2    0    0  0.00000000000E+00  0.00000000000E+00 -0.20519597302E+04  0.41051331520E+04  0.35554998890E+04 0.  0.
        5    1    3    3  502    0  0.10989752814E+04  0.59433159593E+03 -0.24861537934E+04  0.27824376883E+04  0.46999998093E+01 0.  1.
       -5    1    3    3    0  502 -0.10989752814E+04 -0.59433159593E+03  0.43419406316E+03  0.13226954636E+04  0.46999998093E+01 0. -1.
</event>
<event>
 5   0  0.1556396E-06  0.3208671E+04  0.7818609E-02  0.8186531E-01
       -2   -1    0    0    0  501  0.00000000000E+00  0.00000000000E+00  0.11706079784E+04  0.11706079784E+04  0.25500000920E-02 0. -1.
        2   -1    0    0  501    0  0.00000000000E+00  0.00000000000E+00 -0.21987658500E+04  0.21987658500E+04  0.25500000920E-02 0.  1.
    10030    2    1    2    0    0  0.00000000000E+00  0.00000000000E+00 -0.10281578716E+04  0.33693738284E+04  0.32086712805E+04 0.  0.
        3    1    3    3  502    0  0.15822241419E+04 -0.25025941910E+03 -0.42116090930E+03  0.16563331591E+04  0.10100000352E+00 0.  1.
       -3    1    3    3    0  502 -0.15822241419E+04  0.25025941910E+03 -0.60699696234E+03  0.17130406693E+04  0.10100000352E+00 0. -1.
</event>
<event>
 5   0  0.5317728E-07  0.3201594E+04  0.7818609E-02  0.8188396E-01
       -1   -1    0    0    0  501  0.00000000000E+00  0.00000000000E+00  0.14064647762E+04  0.14064647762E+04  0.50400001928E-02 0.  1.
        1   -1    0    0  501    0  0.00000000000E+00  0.00000000000E+00 -0.18219803826E+04  0.18219803826E+04  0.50400001928E-02 0. -1.
    10030    2    1    2    0    0  0.00000000000E+00  0.00000000000E+00 -0.41551560642E+03  0.32284451588E+04  0.32015941223E+04 0.  0.
        2    1    3    3  502    0  0.10171123667E+04  0.87396055870E+02 -0.14511422789E+04  0.17742518285E+04  0.25500000920E-02 0. -1.
       -2    1    3    3    0  502 -0.10171123667E+04 -0.87396055870E+02  0.10356266725E+04  0.14541933303E+04  0.25500000920E-02 0.  1.
</event>
<event>
 5   0  0.1493485E-06  0.3223645E+04  0.7818609E-02  0.8182600E-01
       -2   -1    0    0    0  501  0.00000000000E+00  0.00000000000E+00  0.10101960082E+04  0.10101960083E+04  0.25500000920E-02 0.  1.
        2   -1    0    0  501    0  0.00000000000E+00  0.00000000000E+00 -0.25717500612E+04  0.25717500612E+04  0.25500000920E-02 0. -1.
    10030    2    1    2    0    0  0.00000000000E+00  0.00000000000E+00 -0.15615540529E+04  0.35819460694E+04  0.32236449221E+04 0.  0.
        2    1    3    3  502    0 -0.72485240323E+03 -0.11710128225E+04  0.14973190411E+03  0.13853164548E+04  0.25500000920E-02 0.  1.
       -2    1    3    3    0  502  0.72485240323E+03  0.11710128225E+04 -0.17112859570E+04  0.21966296146E+04  0.25500000920E-02 0. -1.
</event>
<event>
 5   0  0.1538349E-06  0.3210614E+04  0.7818609E-02  0.8186020E-01
       -2   -1    0    0    0  501  0.00000000000E+00  0.00000000000E+00  0.13146119724E+04  0.13146119724E+04  0.25500000920E-02 0. -1.
        2   -1    0    0  501    0  0.00000000000E+00  0.00000000000E+00 -0.19602817276E+04  0.19602817276E+04  0.25500000920E-02 0.  1.
    10030    2    1    2    0    0  0.00000000000E+00  0.00000000000E+00 -0.64566975516E+03  0.32748937000E+04  0.32106135416E+04 0.  0.
        1    1    3    3  502    0  0.64699576931E+02  0.68846574789E+03  0.11549074293E+04  0.13460989160E+04  0.50400001928E-02 0. -1.
       -1    1    3    3    0  502 -0.64699576931E+02 -0.68846574789E+03 -0.18005771845E+04  0.19287947840E+04  0.50400001928E-02 0.  1.
</event>
<event>
 5   0  0.5177039E-07  0.3201477E+04  0.7818609E-02  0.8188427E-01
        1   -1    0    0  501    0  0.00000000000E+00  0.00000000000E+00  0.19074567487E+04  0.19074567487E+04  0.50400001928E-02 0.  1.
       -1   -1    0    0    0  501  0.00000000000E+00  0.00000000000E+00 -0.13433405388E+04  0.13433405388E+04  0.50400001928E-02 0. -1.
    10030    2    1    2    0    0  0.00000000000E+00  0.00000000000E+00  0.56411620989E+03  0.32507972875E+04  0.32014771444E+04 0.  0.
        3    1    3    3  502    0  0.13999788918E+04 -0.92606330208E+02 -0.50042832801E+03  0.14896124837E+04  0.10100000352E+00 0. -1.
       -3    1    3    3    0  502 -0.13999788918E+04  0.92606330208E+02  0.10645445379E+04  0.17611848038E+04  0.10100000352E+00 0.  1.
</event>
<event>
 5   0  0.5233813E-07  0.3219267E+04  0.7818609E-02  0.8183747E-01
       -1   -1    0    0    0  501  0.00000000000E+00  0.00000000000E+00  0.13797645187E+04  0.13797645187E+04  0.50400001928E-02 0.  1.
        1   -1    0    0  501    0  0.00000000000E+00  0.00000000000E+00 -0.18777991588E+04  0.18777991588E+04  0.50400001928E-02 0. -1.
    10030    2    1    2    0    0  0.00000000000E+00  0.00000000000E+00 -0.49803464014E+03  0.32575636776E+04  0.32192674028E+04 0.  0.
        4    1    3    3  502    0  0.82505447966E+03  0.42951824903E+03 -0.15783105836E+04  0.18320116625E+04  0.12699999809E+01 0. -1.
       -4    1    3    3    0  502 -0.82505447966E+03 -0.42951824903E+03  0.10802759434E+04  0.14255520150E+04  0.12699999809E+01 0.  1.
</event>
<event>
 5   0  0.1493485E-06  0.3215580E+04  0.7818609E-02  0.8184715E-01
       -2   -1    0    0    0  501  0.00000000000E+00  0.00000000000E+00  0.12531087832E+04  0.12531087832E+04  0.25500000920E-02 0.  1.
        2   -1    0    0  501    0  0.00000000000E+00  0.00000000000E+00 -0.20628610550E+04  0.20628610550E+04  0.25500000920E-02 0. -1.
    10030    2    1    2    0    0  0.00000000000E+00  0.00000000000E+00 -0.80975227187E+03  0.33159698382E+04  0.32155803871E+04 0.  0.
        2    1    3    3  502    0  0.15848416106E+03  0.25465625260E+01  0.12450320678E+04  0.12550810986E+04  0.25500000920E-02 0.  1.
       -2    1    3    3    0  502 -0.15848416106E+03 -0.25465625260E+01 -0.20547843397E+04  0.20608887396E+04  0.25500000920E-02 0. -1.
</event>
<event>
 5   0  0.1508771E-06  0.3173146E+04  0.7818609E-02  0.8195945E-01
       -2   -1    0    0    0  501  0.00000000000E+00  0.00000000000E+00  0.18768450050E+04  0.18768450050E+04  0.25500000920E-02 0. -1.
        2   -1    0    0  501    0  0.00000000000E+00  0.00000000000E+00 -0.13411942311E+04  0.13411942311E+04  0.25500000920E-02 0.  1.
    10030    2    1    2    0    0  0.00000000000E+00  0.00000000000E+00  0.53565077392E+03  0.32180392361E+04  0.31731458796E+04 0.  0.
        4    1    3    3  502    0 -0.60705995771E+03 -0.72919627125E+02  0.17525645905E+04  0.18561582155E+04  0.12699999809E+01 0. -1.
       -4    1    3    3    0  502  0.60705995771E+03  0.72919627125E+02 -0.12169138166E+04  0.13618810206E+04  0.12699999809E+01 0.  1.
</event>
<event>
 5   0  0.1556396E-06  0.3147200E+04  0.7818609E-02  0.8202902E-01
       -2   -1    0    0    0  501  0.00000000000E+00  0.00000000000E+00  0.93672880402E+03  0.93672880402E+03  0.25500000920E-02 0.  1.
        2   -1    0    0  501    0  0.00000000000E+00  0.00000000000E+00 -0.26434733769E+04  0.26434733769E+04  0.25500000920E-02 0. -1.
    10030    2    1    2    0    0  0.00000000000E+00  0.00000000000E+00 -0.17067445729E+04  0.35802021809E+04  0.31472004415E+04 0.  0.
        3    1    3    3  502    0  0.71090724140E+03  0.11214439953E+04  0.10732453014E+03  0.13321202293E+04  0.10100000352E+00 0. -1.
       -3    1    3    3    0  502 -0.71090724140E+03 -0.11214439953E+04 -0.18140691030E+04  0.22480819516E+04  0.10100000352E+00 0.  1.
</event>
<event>
 5   0  0.1572769E-06  0.3134128E+04  0.7818609E-02  0.8206434E-01
        2   -1    0    0  501    0  0.00000000000E+00  0.00000000000E+00  0.29199755398E+04  0.29199755398E+04  0.25500000920E-02 0. -1.
       -2   -1    0    0    0  501  0.00000000000E+00  0.00000000000E+00 -0.84099677427E+03  0.84099677427E+03  0.25500000920E-02 0.  1.
    10030    2    1    2    0    0  0.00000000000E+00  0.00000000000E+00  0.20789787655E+04  0.37609723141E+04  0.31341282743E+04 0.  0.
        5    1    3    3  502    0 -0.43051886873E+03  0.47422254774E+03 -0.67674321540E+03  0.93179235385E+03  0.46999998093E+01 0.  1.
       -5    1    3    3    0  502  0.43051886873E+03 -0.47422254774E+03  0.27557219809E+04  0.28291799602E+04  0.46999998093E+01 0. -1.
</event>
<event>
 5   0  0.5233813E-07  0.3196353E+04  0.7818609E-02  0.8189781E-01
       -1   -1    0    0    0  501  0.00000000000E+00  0.00000000000E+00  0.18555344504E+04  0.18555344504E+04  0.50400001928E-02 0.  1.
        1   -1    0    0  501    0  0.00000000000E+00  0.00000000000E+00 -0.13765135940E+04  0.13765135940E+04  0.50400001928E-02 0. -1.
    10030    2    1    2    0    0  0.00000000000E+00  0.00000000000E+00  0.47902085641E+03  0.32320480445E+04  0.31963531690E+04 0.  0.
        4    1    3    3  502    0 -0.86246024720E+03  0.60684077432E+02  0.15986361967E+04  0.18174596385E+04  0.12699999809E+01 0.  1.
       -4    1    3    3    0  502  0.86246024720E+03 -0.60684077432E+02 -0.11196153403E+04  0.14145884060E+04  0.12699999809E+01 0. -1.
</event>
<event>
 5   0  0.5281187E-07  0.3112160E+04  0.7818609E-02  0.8212409E-01
       -1   -1    0    0    0  501  0.00000000000E+00  0.00000000000E+00  0.16063631406E+04  0.16063631406E+04  0.50400001928E-02 0. -1.
        1   -1    0    0  501    0  0.00000000000E+00  0.00000000000E+00 -0.15073712163E+04  0.15073712163E+04  0.50400001928E-02 0.  1.
    10030    2    1    2    0    0  0.00000000000E+00  0.00000000000E+00  0.98991924352E+02  0.31137343569E+04  0.31121603822E+04 0.  0.
        5    1    3    3  502    0  0.12591392995E+04  0.34494738037E+03  0.89664906019E+03  0.15837998920E+04  0.46999998093E+01 0. -1.
       -5    1    3    3    0  502 -0.12591392995E+04 -0.34494738037E+03 -0.79765713584E+03  0.15299344650E+04  0.46999998093E+01 0.  1.
</event>
<event>
 5   0  0.5370912E-07  0.3209747E+04  0.7818609E-02  0.8186248E-01
       -1   -1    0    0    0  501  0.00000000000E+00  0.00000000000E+00  0.11253920448E+04  0.11253920448E+04  0.50400001928E-02 0. -1.
        1   -1    0    0  501    0  0.00000000000E+00  0.00000000000E+00 -0.22886412502E+04  0.22886412502E+04  0.50400001928E-02 0.  1.
    10030    2    1    2    0    0  0.00000000000E+00  0.00000000000E+00 -0.11632492054E+04  0.34140332950E+04  0.32097468164E+04 0.  0.
        1    1    3    3  502    0 -0.11838932042E+04  0.70562961924E+03 -0.14562119842E+04  0.20050111276E+04  0.50400001928E-02 0.  1.
       -1    1    3    3    0  502  0.11838932042E+04 -0.70562961924E+03  0.29296277883E+03  0.14090221675E+04  0.50400001928E-02 0. -1.
</event>
<event>
 5   0  0.1508771E-06  0.3192739E+04  0.7818609E-02  0.8190737E-01
        2   -1    0    0  501    0  0.00000000000E+00  0.00000000000E+00  0.20911089322E+04  0.20911089322E+04  0.25500000920E-02 0.  1.
       -2   -1    0    0    0  501  0.00000000000E+00  0.00000000000E+00 -0.12186816396E+04  0.12186816396E+04  0.25500000920E-02 0. -1.
    10030    2    1    2    0    0  0.00000000000E+00  0.00000000000E+00  0.87242729263E+03  0.33097905719E+04  0.31927393017E+04 0.  0.
        4    1    3    3  502    0 -0.61770000277E+03  0.79659598476E+03 -0.84701945798E+03  0.13166480287E+04  0.12699999809E+01 0. -1.
       -4    1    3    3    0  502  0.61770000277E+03 -0.79659598476E+03  0.17194467506E+04  0.19931425432E+04  0.12699999809E+01 0.  1.
</event>
<event>
 5   0  0.1508771E-06  0.3223660E+04  0.7818609E-02  0.8182596E-01
        2   -1    0    0  501    0  0.00000000000E+00  0.00000000000E+00  0.22976212915E+04  0.22976212915E+04  0.25500000920E-02 0. -1.
       -2   -1    0    0    0  501  0.00000000000E+00  0.00000000000E+00 -0.11307330699E+04  0.11307330699E+04  0.25500000920E-02 0.  1.
    10030    2    1    2    0    0  0.00000000000E+00  0.00000000000E+00  0.11668882216E+04  0.34283543614E+04  0.32236602653E+04 0.  0.
        4    1    3    3  502    0  0.11404906956E+04  0.10609268917E+04  0.10241349928E+04  0.18641724687E+04  0.12699999809E+01 0.  1.
       -4    1    3    3    0  502 -0.11404906956E+04 -0.10609268917E+04  0.14275322883E+03  0.15641818928E+04  0.12699999809E+01 0. -1.
</event>
<event>
 5   0  0.4995625E-07  0.3099888E+04  0.7818609E-02  0.8215769E-01
       -3   -1    0    0    0  501  0.00000000000E+00  0.00000000000E+00  0.18751386155E+04  0.18751386182E+04  0.10100000352E+00 0. -1.
        3   -1    0    0  501    0  0.00000000000E+00  0.00000000000E+00 -0.12811464388E+04  0.12811464428E+04  0.10100000352E+00 0.  1.
    10030    2    1    2    0    0  0.00000000000E+00  0.00000000000E+00  0.59399217666E+03  0.31562850610E+04  0.30998884949E+04 0.  0.
        2    1    3    3  502    0 -0.49429416152E+03 -0.72511365467E+03 -0.10038270395E+04  0.13333361375E+04  0.25500000920E-02 0.  1.
       -2    1    3    3    0  502  0.49429416152E+03  0.72511365467E+03  0.15978192162E+04  0.18229489235E+04  0.25500000920E-02 0. -1.
</event>
<event>
 5   0  0.1493485E-06  0.3171673E+04  0.7818609E-02  0.8196339E-01
       -2   -1    0    0    0  501  0.00000000000E+00  0.00000000000E+00  0.18704036011E+04  0.18704036011E+04  0.25500000920E-02 0. -1.
        2   -1    0    0  501    0  0.00000000000E+00  0.00000000000E+00 -0.13445639471E+04  0.13445639471E+04  0.25500000920E-02 0.  1.
    10030    2    1    2    0    0  0.00000000000E+00  0.00000000000E+00  0.52583965401E+03  0.32149675482E+04  0.31716729015E+04 0.  0.
        2    1    3    3  502    0 -0.89251084449E+03 -0.74989091932E+03  0.13527544259E+04  0.17857369726E+04  0.25500000920E-02 0. -1.
       -2    1    3    3    0  502  0.89251084449E+03  0.74989091932E+03 -0.82691477188E+03  0.14292305756E+04  0.25500000920E-02 0.  1.
</event>
<event>
 5   0  0.5317728E-07  0.3207451E+04  0.7818609E-02  0.8186852E-01
        1   -1    0    0  501    0  0.00000000000E+00  0.00000000000E+00  0.18054818551E+04  0.18054818551E+04  0.50400001928E-02 0.  1.
       -1   -1    0    0    0  501  0.00000000000E+00  0.00000000000E+00 -0.14245142893E+04  0.14245142893E+04  0.50400001928E-02 0. -1.
    10030    2    1    2    0    0  0.00000000000E+00  0.00000000000E+00  0.38096756580E+03  0.32299961445E+04  0.32074505151E+04 0.  0.
        2    1    3    3  502    0 -0.25901845754E+03 -0.15814238104E+04  0.25371745460E+03  0.16224562787E+04  0.25500000920E-02 0.  1.
       -2    1    3    3    0  502  0.25901845754E+03  0.15814238104E+04  0.12725011120E+03  0.16075398658E+04  0.25500000920E-02 0. -1.
</event>
<event>
 5   0  0.5177039E-07  0.3214867E+04  0.7818609E-02  0.8184902E-01
        1   -1    0    0  501    0  0.00000000000E+00  0.00000000000E+00  0.95128704111E+03  0.95128704113E+03  0.50400001928E-02 0. -1.
       -1   -1    0    0    0  501  0.00000000000E+00  0.00000000000E+00 -0.27161540698E+04  0.27161540698E+04  0.50400001928E-02 0.  1.
    10030    2    1    2    0    0  0.00000000000E+00  0.00000000000E+00 -0.17648670287E+04  0.36674411110E+04  0.32148668205E+04 0.  0.
        3    1    3    3  502    0  0.15199516703E+04 -0.10438383066E+02 -0.14790057561E+04  0.21208064685E+04  0.10100000352E+00 0.  1.
       -3    1    3    3    0  502 -0.15199516703E+04  0.10438383066E+02 -0.28586127260E+03  0.15466346425E+04  0.10100000352E+00 0. -1.
</event>
<event>
 5   0  0.1572769E-06  0.3206916E+04  0.7818609E-02  0.8186993E-01
        2   -1    0    0  501    0  0.00000000000E+00  0.00000000000E+00  0.18108897721E+04  0.18108897721E+04  0.25500000920E-02 0.  1.
       -2   -1    0    0    0  501  0.00000000000E+00  0.00000000000E+00 -0.14197871139E+04  0.14197871139E+04  0.25500000920E-02 0. -1.
    10030    2    1    2    0    0  0.00000000000E+00  0.00000000000E+00  0.39110265821E+03  0.32306768860E+04  0.32069162528E+04 0.  0.
        5    1    3    3  502    0  0.11738010404E+04 -0.63735315362E+03 -0.69816765524E+03  0.15071456763E+04  0.46999998093E+01 0. -1.
       -5    1    3    3    0  502 -0.11738010404E+04  0.63735315362E+03  0.10892703134E+04  0.17235312096E+04  0.46999998093E+01 0.  1.
</event>
<event>
 5   0  0.1538349E-06  0.3200995E+04  0.7818609E-02  0.8188554E-01
       -2   -1    0    0    0  501  0.00000000000E+00  0.00000000000E+00  0.11315924596E+04  0.11315924596E+04  0.25500000920E-02 0. -1.
        2   -1    0    0  501    0  0.00000000000E+00  0.00000000000E+00 -0.22637062404E+04  0.22637062404E+04  0.25500000920E-02 0.  1.
    10030    2    1    2    0    0  0.00000000000E+00  0.00000000000E+00 -0.11321137808E+04  0.33952987000E+04  0.32009954155E+04 0.  0.
        1    1    3    3  502    0 -0.11514918074E+04 -0.98264085589E+03 -0.14822485356E+02  0.15138481232E+04  0.50400001928E-02 0.  1.
       -1    1    3    3    0  502  0.11514918074E+04  0.98264085589E+03 -0.11172912955E+04  0.18814505768E+04  0.50400001928E-02 0. -1.
</event>
<event>
 5   0  0.5233813E-07  0.3137337E+04  0.7818609E-02  0.8205565E-01
        1   -1    0    0  501    0  0.00000000000E+00  0.00000000000E+00  0.12853459487E+04  0.12853459487E+04  0.50400001928E-02 0.  1.
       -1   -1    0    0    0  501  0.00000000000E+00  0.00000000000E+00 -0.19144421899E+04  0.19144421899E+04  0.50400001928E-02 0. -1.
    10030    2    1    2    0    0  0.00000000000E+00  0.00000000000E+00 -0.62909624125E+03  0.31997881386E+04  0.31373367768E+04 0.  0.
        4    1    3    3  502    0 -0.14993740779E+04 -0.44615147503E+03 -0.43324840626E+03  0.16232312092E+04  0.12699999809E+01 0. -1.
       -4    1    3    3    0  502  0.14993740779E+04  0.44615147503E+03 -0.19584783498E+03  0.15765569294E+04  0.12699999809E+01 0.  1.
</event>
<event>
 5   0  0.5233813E-07  0.3186604E+04  0.7818609E-02  0.8192364E-01
       -1   -1    0    0    0  501  0.00000000000E+00  0.00000000000E+00  0.13378913138E+04  0.13378913138E+04  0.50400001928E-02 0. -1.
        1   -1    0    0  501    0  0.00000000000E+00  0.00000000000E+00 -0.18974724200E+04  0.18974724200E+04  0.50400001928E-02 0.  1.
    10030    2    1    2    0    0  0.00000000000E+00  0.00000000000E+00 -0.55958110623E+03  0.32353637338E+04  0.31866043802E+04 0.  0.
        4    1    3    3  502    0 -0.27872789154E+03 -0.96831476196E+03  0.97330996391E+03  0.14009484696E+04  0.12699999809E+01 0. -1.
       -4    1    3    3    0  502  0.27872789154E+03  0.96831476196E+03 -0.15328910701E+04  0.18344152642E+04  0.12699999809E+01 0.  1.
</event>
<event>
 5   0  0.5281187E-07  0.3005184E+04  0.7818609E-02  0.8242252E-01
        1   -1    0    0  501    0  0.00000000000E+00  0.00000000000E+00  0.21098952233E+04  0.21098952234E+04  0.50400001928E-02 0.  1.
       -1   -1    0    0    0  501  0.00000000000E+00  0.00000000000E+00 -0.10700920616E+04  0.10700920616E+04  0.50400001928E-02 0. -1.
    10030    2    1    2    0    0  0.00000000000E+00  0.00000000000E+00  0.10398031617E+04  0.31799872850E+04  0.30051836079E+04 0.  0.
        5    1    3    3  502    0  0.10079196394E+04  0.53633247707E+03 -0.51375276076E+03  0.12520057966E+04  0.46999998093E+01 0. -1.
       -5    1    3    3    0  502 -0.10079196394E+04 -0.53633247707E+03  0.15535559225E+04  0.19279814884E+04  0.46999998093E+01 0.  1.
</event>
<event>
 5   0  0.1508771E-06  0.2843209E+04  0.7818609E-02  0.8289978E-01
       -2   -1    0    0    0  501  0.00000000000E+00  0.00000000000E+00  0.15405184848E+04  0.15405184848E+04  0.25500000920E-02 0. -1.
        2   -1    0    0  501    0  0.00000000000E+00  0.00000000000E+00 -0.13118698428E+04  0.13118698428E+04  0.25500000920E-02 0.  1.
    10030    2    1    2    0    0  0.00000000000E+00  0.00000000000E+00  0.22864864206E+03  0.28523883276E+04  0.28432092730E+04 0.  0.
        4    1    3    3  502    0 -0.90338688670E+03  0.84750779204E+03  0.81412975420E+03  0.14822908602E+04  0.12699999809E+01 0. -1.
       -4    1    3    3    0  502  0.90338688670E+03 -0.84750779204E+03 -0.58548111213E+03  0.13700974674E+04  0.12699999809E+01 0.  1.
</event>
<event>
 5   0  0.5281187E-07  0.3159851E+04  0.7818609E-02  0.8199502E-01
       -1   -1    0    0    0  501  0.00000000000E+00  0.00000000000E+00  0.98841167926E+03  0.98841167927E+03  0.50400001928E-02 0. -1.
        1   -1    0    0  501    0  0.00000000000E+00  0.00000000000E+00 -0.25254300179E+04  0.25254300179E+04  0.50400001928E-02 0.  1.
    10030    2    1    2    0    0  0.00000000000E+00  0.00000000000E+00 -0.15370183386E+04  0.35138416971E+04  0.31598509616E+04 0.  0.
        5    1    3    3  502    0  0.13504820854E+04  0.11862656091E+02 -0.16802361320E+04  0.21557268228E+04  0.46999998093E+01 0.  1.
       -5    1    3    3    0  502 -0.13504820854E+04 -0.11862656091E+02  0.14321779335E+03  0.13581148743E+04  0.46999998093E+01 0. -1.
</event>
<event>
 5   0  0.1556396E-06  0.3206835E+04  0.7818609E-02  0.8187014E-01
        2   -1    0    0  501    0  0.00000000000E+00  0.00000000000E+00  0.20208908154E+04  0.20208908154E+04  0.25500000920E-02 0. -1.
       -2   -1    0    0    0  501  0.00000000000E+00  0.00000000000E+00 -0.12721851573E+04  0.12721851573E+04  0.25500000920E-02 0.  1.
    10030    2    1    2    0    0  0.00000000000E+00  0.00000000000E+00  0.74870565812E+03  0.32930759727E+04  0.32068347633E+04 0.  0.
        3    1    3    3  502    0 -0.71968901653E+03  0.97504539322E+03 -0.70377790031E+03  0.14014168340E+04  0.10100000352E+00 0.  1.
       -3    1    3    3    0  502  0.71968901653E+03 -0.97504539322E+03  0.14524835584E+04  0.18916591387E+04  0.10100000352E+00 0. -1.
</event>
<event>
 5   0  0.1556396E-06  0.3163126E+04  0.7818609E-02  0.8198624E-01
       -2   -1    0    0    0  501  0.00000000000E+00  0.00000000000E+00  0.17805030771E+04  0.17805030771E+04  0.25500000920E-02 0. -1.
        2   -1    0    0  501    0  0.00000000000E+00  0.00000000000E+00 -0.14048514036E+04  0.14048514036E+04  0.25500000920E-02 0.  1.
    10030    2    1    2    0    0  0.00000000000E+00  0.00000000000E+00  0.37565167350E+03  0.31853544807E+04  0.31631264578E+04 0.  0.
        3    1    3    3  502    0 -0.30907019010E+02  0.15199449408E+04  0.62695711310E+03  0.16444643805E+04  0.10100000352E+00 0. -1.
       -3    1    3    3    0  502  0.30907019010E+02 -0.15199449408E+04 -0.25130543960E+03  0.15408901002E+04  0.10100000352E+00 0.  1.
</event>
<event>
 5   0  0.4995625E-07  0.3205419E+04  0.7818609E-02  0.8187388E-01
        3   -1    0    0  501    0  0.00000000000E+00  0.00000000000E+00  0.10719900378E+04  0.10719900425E+04  0.10100000352E+00 0. -1.
       -3   -1    0    0    0  501  0.00000000000E+00  0.00000000000E+00 -0.23961766066E+04  0.23961766087E+04  0.10100000352E+00 0.  1.
    10030    2    1    2    0    0  0.00000000000E+00  0.00000000000E+00 -0.13241865688E+04  0.34681666513E+04  0.32054188263E+04 0.  0.
        1    1    3    3  502    0 -0.11739979267E+04 -0.10185860119E+04 -0.10851543961E+04  0.18956130035E+04  0.50400001928E-02 0. -1.
       -1    1    3    3    0  502  0.11739979267E+04  0.10185860119E+04 -0.23903217272E+03  0.15725536478E+04  0.50400001928E-02 0.  1.
</event>
<event>
 5   0  0.5281187E-07  0.3211770E+04  0.7818609E-02  0.8185716E-01
       -1   -1    0    0    0  501  0.00000000000E+00  0.00000000000E+00  0.14258286170E+04  0.14258286171E+04  0.50400001928E-02 0.  1.
        1   -1    0    0  501    0  0.00000000000E+00  0.00000000000E+00 -0.18086792726E+04  0.18086792726E+04  0.50400001928E-02 0. -1.
    10030    2    1    2    0    0  0.00000000000E+00  0.00000000000E+00 -0.38285065558E+03  0.32345078897E+04  0.32117700204E+04 0.  0.
        5    1    3    3  502    0  0.52520188081E+01  0.14300693017E+04 -0.92715796029E+03  0.17043385124E+04  0.46999998093E+01 0.  1.
       -5    1    3    3    0  502 -0.52520188081E+01 -0.14300693017E+04  0.54430730470E+03  0.15301693773E+04  0.46999998093E+01 0. -1.
</event>
<event>
 5   0  0.1556396E-06  0.3167915E+04  0.7818609E-02  0.8197343E-01
        2   -1    0    0  501    0  0.00000000000E+00  0.00000000000E+00  0.20958255270E+04  0.20958255270E+04  0.25500000920E-02 0. -1.
       -2   -1    0    0    0  501  0.00000000000E+00  0.00000000000E+00 -0.11971039393E+04  0.11971039393E+04  0.25500000920E-02 0.  1.
    10030    2    1    2    0    0  0.00000000000E+00  0.00000000000E+00  0.89872158765E+03  0.32929294663E+04  0.31679147681E+04 0.  0.
        3    1    3    3  502    0  0.82194437969E+03  0.10485300491E+04  0.13398553659E+04  0.18895026433E+04  0.10100000352E+00 0. -1.
       -3    1    3    3    0  502 -0.82194437969E+03 -0.10485300491E+04 -0.44113377821E+03  0.14034268231E+04  0.10100000352E+00 0.  1.
</event>
<event>
 5   0  0.4995625E-07  0.3184031E+04  0.7818609E-02  0.8193047E-01
        3   -1    0    0  501    0  0.00000000000E+00  0.00000000000E+00  0.14729301932E+04  0.14729301966E+04  0.10100000352E+00 0. -1.
       -3   -1    0    0    0  501  0.00000000000E+00  0.00000000000E+00 -0.17207284106E+04  0.17207284136E+04  0.10100000352E+00 0.  1.
    10030    2    1    2    0    0  0.00000000000E+00  0.00000000000E+00 -0.24779821742E+03  0.31936586102E+04  0.31840306786E+04 0.  0.
        5    1    3    3  502    0 -0.11859279591E+04  0.69802606028E+03 -0.92683533516E+03  0.16591296916E+04  0.46999998093E+01 0. -1.
       -5    1    3    3    0  502  0.11859279591E+04 -0.69802606028E+03  0.67903711773E+03  0.15345289187E+04  0.46999998093E+01 0.  1.
</event>
<event>
 5   0  0.1493485E-06  0.3202738E+04  0.7818609E-02  0.8188094E-01
       -2   -1    0    0    0  501  0.00000000000E+00  0.00000000000E+00  0.14984932132E+04  0.14984932132E+04  0.25500000920E-02 0. -1.
        2   -1    0    0  501    0  0.00000000000E+00  0.00000000000E+00 -0.17113076061E+04  0.17113076061E+04  0.25500000920E-02 0.  1.
    10030    2    1    2    0    0  0.00000000000E+00  0.00000000000E+00 -0.21281439296E+03  0.32098008193E+04  0.32027380995E+04 0.  0.
        2    1    3    3  502    0 -0.11741877467E+04 -0.49410972479E+03 -0.10788672927E+04  0.16693759073E+04  0.25500000920E-02 0.  1.
       -2    1    3    3    0  502  0.11741877467E+04  0.49410972479E+03  0.86605289970E+03  0.15404249121E+04  0.25500000920E-02 0. -1.
</event>
<event>
 5   0  0.1538349E-06  0.3196862E+04  0.7818609E-02  0.8189646E-01
       -2   -1    0    0    0  501  0.00000000000E+00  0.00000000000E+00  0.11725654141E+04  0.11725654141E+04  0.25500000920E-02 0.  1.
        2   -1    0    0  501    0  0.00000000000E+00  0.00000000000E+00 -0.21789674109E+04  0.21789674109E+04  0.25500000920E-02 0. -1.
    10030    2    1    2    0    0  0.00000000000E+00  0.00000000000E+00 -0.10064019968E+04  0.33515328250E+04  0.31968621018E+04 0.  0.
        1    1    3    3  502    0  0.12687768743E+04 -0.85522762334E+03 -0.98792639713E+03  0.18213202933E+04  0.50400001928E-02 0. -1.
       -1    1    3    3    0  502 -0.12687768743E+04  0.85522762334E+03 -0.18475599687E+02  0.15302125317E+04  0.50400001928E-02 0.  1.
</event>
<event>
 5   0  0.5370912E-07  0.3178895E+04  0.7818609E-02  0.8194413E-01
       -1   -1    0    0    0  501  0.00000000000E+00  0.00000000000E+00  0.15612919617E+04  0.15612919617E+04  0.50400001928E-02 0. -1.
        1   -1    0    0  501    0  0.00000000000E+00  0.00000000000E+00 -0.16181104985E+04  0.16181104985E+04  0.50400001928E-02 0.  1.
    10030    2    1    2    0    0  0.00000000000E+00  0.00000000000E+00 -0.56818536771E+02  0.31794024602E+04  0.31788947226E+04 0.  0.
        1    1    3    3  502    0 -0.15489074917E+04 -0.31551034890E+03 -0.19481407550E+03  0.15926750208E+04  0.50400001928E-02 0.  1.
       -1    1    3    3    0  502  0.15489074917E+04  0.31551034890E+03  0.13799553873E+03  0.15867274393E+04  0.50400001928E-02 0. -1.
</event>
<event>
 5   0  0.1508771E-06  0.3200804E+04  0.7818609E-02  0.8188605E-01
        2   -1    0    0  501    0  0.00000000000E+00  0.00000000000E+00  0.22589037100E+04  0.22589037100E+04  0.25500000920E-02 0.  1.
       -2   -1    0    0    0  501  0.00000000000E+00  0.00000000000E+00 -0.11338627402E+04  0.11338627402E+04  0.25500000920E-02 0. -1.
    10030    2    1    2    0    0  0.00000000000E+00  0.00000000000E+00  0.11250409699E+04  0.33927664502E+04  0.32008041180E+04 0.  0.
        4    1    3    3  502    0 -0.90236607364E+03 -0.11288616602E+04 -0.16623858842E+03  0.14547267991E+04  0.12699999809E+01 0.  1.
       -4    1    3    3    0  502  0.90236607364E+03  0.11288616602E+04  0.12912795583E+04  0.19380396511E+04  0.12699999809E+01 0. -1.
</event>
<event>
 5   0  0.1508771E-06  0.3241685E+04  0.7818609E-02  0.8177894E-01
        2   -1    0    0  501    0  0.00000000000E+00  0.00000000000E+00  0.21071649057E+04  0.21071649057E+04  0.25500000920E-02 0.  1.
       -2   -1    0    0    0  501  0.00000000000E+00  0.00000000000E+00 -0.12467605367E+04  0.12467605367E+04  0.25500000920E-02 0. -1.
    10030    2    1    2    0    0  0.00000000000E+00  0.00000000000E+00  0.86040436892E+03  0.33539254424E+04  0.32416847773E+04 0.  0.
        4    1    3    3  502    0  0.34653677510E+03 -0.14551325249E+04 -0.21561386830E+03  0.15112873170E+04  0.12699999809E+01 0.  1.
       -4    1    3    3    0  502 -0.34653677510E+03  0.14551325249E+04  0.10760182372E+04  0.18426381254E+04  0.12699999809E+01 0. -1.
</event>
<event>
 5   0  0.1556396E-06  0.3138304E+04  0.7818609E-02  0.8205304E-01
       -2   -1    0    0    0  501  0.00000000000E+00  0.00000000000E+00  0.11287968370E+04  0.11287968370E+04  0.25500000920E-02 0. -1.
        2   -1    0    0  501    0  0.00000000000E+00  0.00000000000E+00 -0.21812944845E+04  0.21812944845E+04  0.25500000920E-02 0.  1.
    10030    2    1    2    0    0  0.00000000000E+00  0.00000000000E+00 -0.10524976475E+04  0.33100913214E+04  0.31383042010E+04 0.  0.
        3    1    3    3  502    0 -0.12802933446E+04 -0.73438897454E+03 -0.10880990941E+04  0.18336951390E+04  0.10100000352E+00 0. -1.
       -3    1    3    3    0  502  0.12802933446E+04  0.73438897454E+03  0.35601446570E+02  0.14763961824E+04  0.10100000352E+00 0.  1.
</event>
<event>
 5   0  0.5233813E-07  0.3204711E+04  0.7818609E-02  0.8187574E-01
        1   -1    0    0  501    0  0.00000000000E+00  0.00000000000E+00  0.22325885743E+04  0.22325885743E+04  0.50400001928E-02 0. -1.
       -1   -1    0    0    0  501  0.00000000000E+00  0.00000000000E+00 -0.11500295953E+04  0.11500295953E+04  0.50400001928E-02 0.  1.
    10030    2    1    2    0    0  0.00000000000E+00  0.00000000000E+00  0.10825589790E+04  0.33826181696E+04  0.32047108665E+04 0.  0.
        4    1    3    3  502    0 -0.44160253933E+03  0.11322419441E+04 -0.56099117463E+03  0.13385429891E+04  0.12699999809E+01 0.  1.
       -4    1    3    3    0  502  0.44160253933E+03 -0.11322419441E+04  0.16435501537E+04  0.20440751804E+04  0.12699999809E+01 0. -1.
</event>
<event>
 5   0  0.5317728E-07  0.3190024E+04  0.7818609E-02  0.8191457E-01
       -1   -1    0    0    0  501  0.00000000000E+00  0.00000000000E+00  0.13278023783E+04  0.13278023783E+04  0.50400001928E-02 0. -1.
        1   -1    0    0  501    0  0.00000000000E+00  0.00000000000E+00 -0.19159952585E+04  0.19159952585E+04  0.50400001928E-02 0.  1.
    10030    2    1    2    0    0  0.00000000000E+00  0.00000000000E+00 -0.58819288017E+03  0.32437976369E+04  0.31900238627E+04 0.  0.
        2    1    3    3  502    0  0.15021422626E+04 -0.42915910020E+03  0.32968341284E+02  0.15625926602E+04  0.25500000920E-02 0. -1.
       -2    1    3    3    0  502 -0.15021422626E+04  0.42915910020E+03 -0.62116122146E+03  0.16812049766E+04  0.25500000920E-02 0.  1.
</event>
<event>
 5   0  0.1556396E-06  0.2993895E+04  0.7818609E-02  0.8245476E-01
       -2   -1    0    0    0  501  0.00000000000E+00  0.00000000000E+00  0.12286106611E+04  0.12286106611E+04  0.25500000920E-02 0.  1.
        2   -1    0    0  501    0  0.00000000000E+00  0.00000000000E+00 -0.18238908679E+04  0.18238908679E+04  0.25500000920E-02 0. -1.
    10030    2    1    2    0    0  0.00000000000E+00  0.00000000000E+00 -0.59528020681E+03  0.30525015291E+04  0.29938949648E+04 0.  0.
        3    1    3    3  502    0 -0.44641925651E+03  0.33550611205E+03  0.11184312416E+04  0.12500971787E+04  0.10100000352E+00 0.  1.
       -3    1    3    3    0  502  0.44641925651E+03 -0.33550611205E+03 -0.17137114484E+04  0.18024043504E+04  0.10100000352E+00 0. -1.
</event>
<event>
 5   0  0.1508771E-06  0.3150686E+04  0.7818609E-02  0.8201964E-01
       -2   -1    0    0    0  501  0.00000000000E+00  0.00000000000E+00  0.15620295623E+04  0.15620295623E+04  0.25500000920E-02 0. -1.
        2   -1    0    0  501    0  0.00000000000E+00  0.00000000000E+00 -0.15887696674E+04  0.15887696674E+04  0.25500000920E-02 0.  1.
    10030    2    1    2    0    0  0.00000000000E+00  0.00000000000E+00 -0.26740105062E+02  0.31507992297E+04  0.31506857591E+04 0.  0.
        4    1    3    3  502    0 -0.28899181911E+03  0.13630130216E+04 -0.74850387089E+03  0.15816385257E+04  0.12699999809E+01 0.  1.
       -4    1    3    3    0  502  0.28899181911E+03 -0.13630130216E+04  0.72176376583E+03  0.15691607040E+04  0.12699999809E+01 0. -1.
</event>
<event>
 5   0  0.1508771E-06  0.3207459E+04  0.7818609E-02  0.8186850E-01
        2   -1    0    0  501    0  0.00000000000E+00  0.00000000000E+00  0.15484397009E+04  0.15484397010E+04  0.25500000920E-02 0. -1.
       -2   -1    0    0    0  501  0.00000000000E+00  0.00000000000E+00 -0.16609934112E+04  0.16609934112E+04  0.25500000920E-02 0.  1.
    10030    2    1    2    0    0  0.00000000000E+00  0.00000000000E+00 -0.11255371024E+03  0.32094331121E+04  0.32074588951E+04 0.  0.
        4    1    3    3  502    0 -0.14325945363E+04  0.32108275128E+00 -0.77756679427E+03  0.16300119450E+04  0.12699999809E+01 0.  1.
       -4    1    3    3    0  502  0.14325945363E+04 -0.32108275128E+00  0.66501308403E+03  0.15794211671E+04  0.12699999809E+01 0. -1.
</event>
<event>
 5   0  0.5177039E-07  0.3192730E+04  0.7818609E-02  0.8190740E-01
       -1   -1    0    0    0  501  0.00000000000E+00  0.00000000000E+00  0.11615441492E+04  0.11615441492E+04  0.50400001928E-02 0.  1.
        1   -1    0    0  501    0  0.00000000000E+00  0.00000000000E+00 -0.21939596347E+04  0.21939596347E+04  0.50400001928E-02 0. -1.
    10030    2    1    2    0    0  0.00000000000E+00  0.00000000000E+00 -0.10324154855E+04  0.33555037839E+04  0.31927298522E+04 0.  0.
        3    1    3    3  502    0  0.41137325686E+03 -0.11142395551E+03  0.11006455874E+04  0.11802813112E+04  0.10100000352E+00 0.  1.
       -3    1    3    3    0  502 -0.41137325686E+03  0.11142395551E+03 -0.21330610730E+04  0.21752224726E+04  0.10100000352E+00 0. -1.
</event>
<event>
 5   0  0.5370912E-07  0.3197651E+04  0.7818609E-02  0.8189438E-01
        1   -1    0    0  501    0  0.00000000000E+00  0.00000000000E+00  0.23053288047E+04  0.23053288047E+04  0.50400001928E-02 0.  1.
       -1   -1    0    0    0  501  0.00000000000E+00  0.00000000000E+00 -0.11088406962E+04  0.11088406962E+04  0.50400001928E-02 0. -1.
    10030    2    1    2    0    0  0.00000000000E+00  0.00000000000E+00  0.11964881085E+04  0.34141695010E+04  0.31976506356E+04 0.  0.
        1    1    3    3  502    0 -0.79473238550E+03  0.24206379668E+03 -0.86028627902E+03  0.11959460390E+04  0.50400001928E-02 0. -1.
       -1    1    3    3    0  502  0.79473238550E+03 -0.24206379668E+03  0.20567743875E+04  0.22182234620E+04  0.50400001928E-02 0.  1.
</event>
<event>
 5   0  0.5233813E-07  0.3178662E+04  0.7818609E-02  0.8194475E-01
        1   -1    0    0  501    0  0.00000000000E+00  0.00000000000E+00  0.31005664376E+04  0.31005664376E+04  0.50400001928E-02 0.  1.
       -1   -1    0    0    0  501  0.00000000000E+00  0.00000000000E+00 -0.81468091479E+03  0.81468091481E+03  0.50400001928E-02 0. -1.
    10030    2    1    2    0    0  0.00000000000E+00  0.00000000000E+00  0.22858855228E+04  0.39152473524E+04  0.31786615433E+04 0.  0.
        4    1    3    3  502    0  0.13271819152E+04 -0.16057376898E+03  0.22016380684E+04  0.25757343746E+04  0.12699999809E+01 0.  1.
       -4    1    3    3    0  502 -0.13271819152E+04  0.16057376898E+03  0.84247454340E+02  0.13395129778E+04  0.12699999809E+01 0. -1.
</event>
<event>
 5   0  0.1538349E-06  0.3225936E+04  0.7818609E-02  0.8182001E-01
       -2   -1    0    0    0  501  0.00000000000E+00  0.00000000000E+00  0.16556348655E+04  0.16556348655E+04  0.25500000920E-02 0.  1.
        2   -1    0    0  501    0  0.00000000000E+00  0.00000000000E+00 -0.15714008214E+04  0.15714008214E+04  0.25500000920E-02 0. -1.
    10030    2    1    2    0    0  0.00000000000E+00  0.00000000000E+00  0.84234044115E+02  0.32270356870E+04  0.32259361356E+04 0.  0.
        1    1    3    3  502    0  0.10697629079E+04  0.47003368653E+03 -0.10701709771E+04  0.15844842270E+04  0.50400001928E-02 0. -1.
       -1    1    3    3    0  502 -0.10697629079E+04 -0.47003368653E+03  0.11544050212E+04  0.16425514599E+04  0.50400001928E-02 0.  1.
</event>
<event>
 5   0  0.1508771E-06  0.3193635E+04  0.7818609E-02  0.8190500E-01
        2   -1    0    0  501    0  0.00000000000E+00  0.00000000000E+00  0.25029786804E+04  0.25029786804E+04  0.25500000920E-02 0. -1.
       -2   -1    0    0    0  501  0.00000000000E+00  0.00000000000E+00 -0.10187164785E+04  0.10187164785E+04  0.25500000920E-02 0.  1.
    10030    2    1    2    0    0  0.00000000000E+00  0.00000000000E+00  0.14842622018E+04  0.35216951589E+04  0.31936346862E+04 0.  0.
        4    1    3    3  502    0 -0.61322202778E+01 -0.10914646313E+03  0.24988468947E+04  0.25012372879E+04  0.12699999809E+01 0. -1.
       -4    1    3    3    0  502  0.61322202778E+01  0.10914646313E+03 -0.10145846929E+04  0.10204578710E+04  0.12699999809E+01 0.  1.
</event>
<event>
 5   0  0.5281187E-07  0.3211368E+04  0.7818609E-02  0.8185821E-01
       -1   -1    0    0    0  501  0.00000000000E+00  0.00000000000E+00  0.14666150896E+04  0.14666150896E+04  0.50400001928E-02 0.  1.
        1   -1    0    0  501    0  0.00000000000E+00  0.00000000000E+00 -0.17579394121E+04  0.17579394121E+04  0.50400001928E-02 0. -1.
    10030    2    1    2    0    0  0.00000000000E+00  0.00000000000E+00 -0.29132432249E+03  0.32245545017E+04  0.32113676017E+04 0.  0.
        5    1    3    3  502    0  0.12757842316E+04 -0.74827518489E+03 -0.77325449230E+03  0.16689774588E+04  0.46999998093E+01 0.  1.
       -5    1    3    3    0  502 -0.12757842316E+04  0.74827518489E+03  0.48193016981E+03  0.15555770429E+04  0.46999998093E+01 0. -1.
</event>
<event>
 5   0  0.1538349E-06  0.3043500E+04  0.7818609E-02  0.8231417E-01
       -2   -1    0    0    0  501  0.00000000000E+00  0.00000000000E+00  0.15313361396E+04  0.15313361396E+04  0.25500000920E-02 0.  1.
        2   -1    0    0  501    0  0.00000000000E+00  0.00000000000E+00 -0.15122234998E+04  0.15122234998E+04  0.25500000920E-02 0. -1.
    10030    2    1    2    0    0  0.00000000000E+00  0.00000000000E+00  0.19112639750E+02  0.30435596394E+04  0.30434996280E+04 0.  0.
        1    1    3    3  502    0  0.15167512518E+04  0.92888276676E+02  0.90551155862E+02  0.15222884429E+04  0.50400001928E-02 0. -1.
       -1    1    3    3    0  502 -0.15167512518E+04 -0.92888276676E+02 -0.71438516112E+02  0.15212711965E+04  0.50400001928E-02 0.  1.
</event>
<event>
 5   0  0.5177039E-07  0.3216739E+04  0.7818609E-02  0.8184410E-01
       -1   -1    0    0    0  501  0.00000000000E+00  0.00000000000E+00  0.13095378548E+04  0.13095378548E+04  0.50400001928E-02 0. -1.
        1   -1    0    0  501    0  0.00000000000E+00  0.00000000000E+00 -0.19753939589E+04  0.19753939589E+04  0.50400001928E-02 0.  1.
    10030    2    1    2    0    0  0.00000000000E+00  0.00000000000E+00 -0.66585610411E+03  0.32849318136E+04  0.32167394469E+04 0.  0.
        3    1    3    3  502    0 -0.23561905312E+03  0.68447573431E+03 -0.17996310221E+04  0.19397667888E+04  0.10100000352E+00 0.  1.
       -3    1    3    3    0  502  0.23561905312E+03 -0.68447573431E+03  0.11337749180E+04  0.13451650248E+04  0.10100000352E+00 0. -1.
</event>
<event>
 5   0  0.5281187E-07  0.3187389E+04  0.7818609E-02  0.8192156E-01
        1   -1    0    0  501    0  0.00000000000E+00  0.00000000000E+00  0.10289355825E+04  0.10289355825E+04  0.50400001928E-02 0.  1.
       -1   -1    0    0    0  501  0.00000000000E+00  0.00000000000E+00 -0.24684359044E+04  0.24684359044E+04  0.50400001928E-02 0. -1.
    10030    2    1    2    0    0  0.00000000000E+00  0.00000000000E+00 -0.14395003220E+04  0.34973714869E+04  0.31873886083E+04 0.  0.
        5    1    3    3  502    0 -0.10123548725E+04 -0.14115704992E+03 -0.20613866484E+04  0.23008965003E+04  0.46999998093E+01 0. -1.
       -5    1    3    3    0  502  0.10123548725E+04  0.14115704992E+03  0.62188632649E+03  0.11964749866E+04  0.46999998093E+01 0.  1.
</event>
<event>
 5   0  0.5281187E-07  0.3208308E+04  0.7818609E-02  0.8186626E-01
        1   -1    0    0  501    0  0.00000000000E+00  0.00000000000E+00  0.24797818539E+04  0.24797818539E+04  0.50400001928E-02 0. -1.
       -1   -1    0    0    0  501  0.00000000000E+00  0.00000000000E+00 -0.10377164086E+04  0.10377164086E+04  0.50400001928E-02 0.  1.
    10030    2    1    2    0    0  0.00000000000E+00  0.00000000000E+00  0.14420654452E+04  0.35174982625E+04  0.32083081645E+04 0.  0.
        5    1    3    3  502    0  0.14950666172E+04  0.18025771556E+03  0.13270904903E+04  0.20072140627E+04  0.46999998093E+01 0. -1.
       -5    1    3    3    0  502 -0.14950666172E+04 -0.18025771556E+03  0.11497495491E+03  0.15102841998E+04  0.46999998093E+01 0.  1.
</event>
<event>
 5   0  0.1572769E-06  0.3202653E+04  0.7818609E-02  0.8188117E-01
       -2   -1    0    0    0  501  0.00000000000E+00  0.00000000000E+00  0.97063706565E+03  0.97063706566E+03  0.25500000920E-02 0. -1.
        2   -1    0    0  501    0  0.00000000000E+00  0.00000000000E+00 -0.26418173591E+04  0.26418173591E+04  0.25500000920E-02 0.  1.
    10030    2    1    2    0    0  0.00000000000E+00  0.00000000000E+00 -0.16711802934E+04  0.36124544247E+04  0.32026525565E+04 0.  0.
        5    1    3    3  502    0  0.15118835735E+04  0.42347964988E+03 -0.11906670131E+04  0.19704915579E+04  0.46999998093E+01 0. -1.
       -5    1    3    3    0  502 -0.15118835735E+04 -0.42347964988E+03 -0.48051328033E+03  0.16419628669E+04  0.46999998093E+01 0.  1.
</event>
<event>
 5   0  0.1572769E-06  0.3218061E+04  0.7818609E-02  0.8184063E-01
       -2   -1    0    0    0  501  0.00000000000E+00  0.00000000000E+00  0.17343231740E+04  0.17343231740E+04  0.25500000920E-02 0. -1.
        2   -1    0    0  501    0  0.00000000000E+00  0.00000000000E+00 -0.14927895613E+04  0.14927895613E+04  0.25500000920E-02 0.  1.
    10030    2    1    2    0    0  0.00000000000E+00  0.00000000000E+00  0.24153361279E+03  0.32271127353E+04  0.32180612362E+04 0.  0.
        5    1    3    3  502    0  0.11696418829E+04  0.51049587807E+03 -0.86193299897E+03  0.15400060911E+04  0.46999998093E+01 0.  1.
       -5    1    3    3    0  502 -0.11696418829E+04 -0.51049587807E+03  0.11034666118E+04  0.16871066442E+04  0.46999998093E+01 0. -1.
</event>
<event>
 5   0  0.1493485E-06  0.3204094E+04  0.7818609E-02  0.8187737E-01
       -2   -1    0    0    0  501  0.00000000000E+00  0.00000000000E+00  0.10718987401E+04  0.10718987401E+04  0.25500000920E-02 0.  1.
        2   -1    0    0  501    0  0.00000000000E+00  0.00000000000E+00 -0.23944004727E+04  0.23944004727E+04  0.25500000920E-02 0. -1.
    10030    2    1    2    0    0  0.00000000000E+00  0.00000000000E+00 -0.13225017326E+04  0.34662992128E+04  0.32040941622E+04 0.  0.
        2    1    3    3  502    0 -0.15690509647E+04  0.30575098602E+03 -0.54701481768E+03  0.16895649754E+04  0.25500000920E-02 0. -1.
       -2    1    3    3    0  502  0.15690509647E+04 -0.30575098602E+03 -0.77548691496E+03  0.17767342374E+04  0.25500000920E-02 0.  1.
</event>
<event>
 5   0  0.5370912E-07  0.3213859E+04  0.7818609E-02  0.8185167E-01
       -1   -1    0    0    0  501  0.00000000000E+00  0.00000000000E+00  0.14052036791E+04  0.14052036791E+04  0.50400001928E-02 0. -1.
        1   -1    0    0  501    0  0.00000000000E+00  0.00000000000E+00 -0.18376137614E+04  0.18376137614E+04  0.50400001928E-02 0.  1.
    10030    2    1    2    0    0  0.00000000000E+00  0.00000000000E+00 -0.43241008228E+03  0.32428174405E+04  0.32138585023E+04 0.  0.
        1    1    3    3  502    0 -0.89779885598E+03  0.12904196280E+04 -0.55236767967E+03  0.16662339738E+04  0.50400001928E-02 0.  1.
       -1    1    3    3    0  502  0.89779885598E+03 -0.12904196280E+04  0.11995759739E+03  0.15765834666E+04  0.50400001928E-02 0. -1.
</event>
<event>
 5   0  0.1572769E-06  0.3207483E+04  0.7818609E-02  0.8186844E-01
       -2   -1    0    0    0  501  0.00000000000E+00  0.00000000000E+00  0.14537713409E+04  0.14537713409E+04  0.25500000920E-02 0.  1.
        2   -1    0    0  501    0  0.00000000000E+00  0.00000000000E+00 -0.17691822411E+04  0.17691822411E+04  0.25500000920E-02 0. -1.
    10030    2    1    2    0    0  0.00000000000E+00  0.00000000000E+00 -0.31541090016E+03  0.32229535820E+04  0.32074827756E+04 0.  0.
        5    1    3    3  502    0 -0.12525528914E+04 -0.10012482045E+04 -0.13355545969E+03  0.16091133781E+04  0.46999998093E+01 0. -1.
       -5    1    3    3    0  502  0.12525528914E+04  0.10012482045E+04 -0.18185544047E+03  0.16138402040E+04  0.46999998093E+01 0.  1.
</event>
<event>
 5   0  0.5281187E-07  0.3212888E+04  0.7818609E-02  0.8185422E-01
        1   -1    0    0  501    0  0.00000000000E+00  0.00000000000E+00  0.17392011133E+04  0.17392011133E+04  0.50400001928E-02 0.  1.
       -1   -1    0    0    0  501  0.00000000000E+00  0.00000000000E+00 -0.14838205829E+04  0.14838205830E+04  0.50400001928E-02 0. -1.
    10030    2    1    2    0    0  0.00000000000E+00  0.00000000000E+00  0.25538053035E+03  0.32230216963E+04  0.32128880527E+04 0.  0.
        5    1    3    3  502    0  0.24377740506E+03  0.25791845015E+03 -0.14439966875E+04  0.14869760838E+04  0.46999998093E+01 0. -1.
       -5    1    3    3    0  502 -0.24377740506E+03 -0.25791845015E+03  0.16993772178E+04  0.17360456125E+04  0.46999998093E+01 0.  1.
</event>
<event>
 5   0  0.1556396E-06  0.3210985E+04  0.7818609E-02  0.8185922E-01
        2   -1    0    0  501    0  0.00000000000E+00  0.00000000000E+00  0.22002562495E+04  0.22002562495E+04  0.25500000920E-02 0. -1.
       -2   -1    0    0    0  501  0.00000000000E+00  0.00000000000E+00 -0.11715026169E+04  0.11715026169E+04  0.25500000920E-02 0.  1.
    10030    2    1    2    0    0  0.00000000000E+00  0.00000000000E+00  0.10287536326E+04  0.33717588664E+04  0.32109848670E+04 0.  0.
        3    1    3    3  502    0  0.72505129724E+03 -0.79434805062E+03  0.17660839196E+04  0.20677864083E+04  0.10100000352E+00 0. -1.
       -3    1    3    3    0  502 -0.72505129724E+03  0.79434805062E+03 -0.73733028693E+03  0.13039724581E+04  0.10100000352E+00 0.  1.
</event>
<event>
 5   0  0.1572769E-06  0.3195679E+04  0.7818609E-02  0.8189959E-01
       -2   -1    0    0    0  501  0.00000000000E+00  0.00000000000E+00  0.11123272026E+04  0.11123272026E+04  0.25500000920E-02 0.  1.
        2   -1    0    0  501    0  0.00000000000E+00  0.00000000000E+00 -0.22952693852E+04  0.22952693852E+04  0.25500000920E-02 0. -1.
    10030    2    1    2    0    0  0.00000000000E+00  0.00000000000E+00 -0.11829421826E+04  0.34075965879E+04  0.31956786913E+04 0.  0.
        5    1    3    3  502    0 -0.94894866119E+03  0.12753240216E+04 -0.41915805596E+03  0.16439800752E+04  0.46999998093E+01 0. -1.
       -5    1    3    3    0  502  0.94894866119E+03 -0.12753240216E+04 -0.76378412662E+03  0.17636165127E+04  0.46999998093E+01 0.  1.
</event>
<event>
 5   0  0.5233813E-07  0.3204123E+04  0.7818609E-02  0.8187729E-01
       -1   -1    0    0    0  501  0.00000000000E+00  0.00000000000E+00  0.10736931476E+04  0.10736931476E+04  0.50400001928E-02 0. -1.
        1   -1    0    0  501    0  0.00000000000E+00  0.00000000000E+00 -0.23904419312E+04  0.23904419312E+04  0.50400001928E-02 0.  1.
    10030    2    1    2    0    0  0.00000000000E+00  0.00000000000E+00 -0.13167487836E+04  0.34641350788E+04  0.32041230446E+04 0.  0.
        4    1    3    3  502    0 -0.11282594961E+04  0.68233851497E+03 -0.16421870009E+04  0.21060235275E+04  0.12699999809E+01 0.  1.
       -4    1    3    3    0  502  0.11282594961E+04 -0.68233851497E+03  0.32543821728E+03  0.13581115513E+04  0.12699999809E+01 0. -1.
</event>
<event>
 5   0  0.1556396E-06  0.2938828E+04  0.7818609E-02  0.8261418E-01
        2   -1    0    0  501    0  0.00000000000E+00  0.00000000000E+00  0.20855997967E+04  0.20855997967E+04  0.25500000920E-02 0.  1.
       -2   -1    0    0    0  501  0.00000000000E+00  0.00000000000E+00 -0.10352789688E+04  0.10352789688E+04  0.25500000920E-02 0. -1.
    10030    2    1    2    0    0  0.00000000000E+00  0.00000000000E+00  0.10503208279E+04  0.31208787655E+04  0.29388280704E+04 0.  0.
        3    1    3    3  502    0  0.48715503822E+03  0.10791634493E+04  0.14492760560E+04  0.18714472684E+04  0.10100000352E+00 0.  1.
       -3    1    3    3    0  502 -0.48715503822E+03 -0.10791634493E+04 -0.39895522813E+03  0.12494314971E+04  0.10100000352E+00 0. -1.
</event>
<event>
 5   0  0.1493485E-06  0.3241431E+04  0.7818609E-02  0.8177960E-01
       -2   -1    0    0    0  501  0.00000000000E+00  0.00000000000E+00  0.14829654308E+04  0.14829654308E+04  0.25500000920E-02 0.  1.
        2   -1    0    0  501    0  0.00000000000E+00  0.00000000000E+00 -0.17712613375E+04  0.17712613375E+04  0.25500000920E-02 0. -1.
    10030    2    1    2    0    0  0.00000000000E+00  0.00000000000E+00 -0.28829590677E+03  0.32542267683E+04  0.32414313705E+04 0.  0.
        2    1    3    3  502    0  0.11174944708E+04 -0.43240168469E+03  0.95146842687E+03  0.15300513967E+04  0.25500000920E-02 0.  1.
       -2    1    3    3    0  502 -0.11174944708E+04  0.43240168469E+03 -0.12397643336E+04  0.17241753716E+04  0.25500000920E-02 0. -1.
</event>
<event>
 5   0  0.1508771E-06  0.3197138E+04  0.7818609E-02  0.8189574E-01
       -2   -1    0    0    0  501  0.00000000000E+00  0.00000000000E+00  0.26901622549E+04  0.26901622549E+04  0.25500000920E-02 0. -1.
        2   -1    0    0  501    0  0.00000000000E+00  0.00000000000E+00 -0.94991374812E+03  0.94991374812E+03  0.25500000920E-02 0.  1.
    10030    2    1    2    0    0  0.00000000000E+00  0.00000000000E+00  0.17402485068E+04  0.36400760030E+04  0.31971375389E+04 0.  0.
        4    1    3    3  502    0  0.14913240982E+04 -0.39801655776E+03  0.13436206044E+04  0.20464072633E+04  0.12699999809E+01 0.  1.
       -4    1    3    3    0  502 -0.14913240982E+04  0.39801655776E+03  0.39662790240E+03  0.15936687397E+04  0.12699999809E+01 0. -1.
</event>
<event>
 5   0  0.1556396E-06  0.3325086E+04  0.7818609E-02  0.8156541E-01
        2   -1    0    0  501    0  0.00000000000E+00  0.00000000000E+00  0.22301386897E+04  0.22301386897E+04  0.25500000920E-02 0.  1.
       -2   -1    0    0    0  501  0.00000000000E+00  0.00000000000E+00 -0.12394067827E+04  0.12394067827E+04  0.25500000920E-02 0. -1.
    10030    2    1    2    0    0  0.00000000000E+00  0.00000000000E+00  0.99073190696E+03  0.34695454724E+04  0.33250858747E+04 0.  0.
        3    1    3    3  502    0 -0.86726248756E+03 -0.84724082007E+03 -0.69163641545E+03  0.13958231159E+04  0.10100000352E+00 0. -1.
       -3    1    3    3    0  502  0.86726248756E+03  0.84724082007E+03  0.16823683224E+04  0.20737223565E+04  0.10100000352E+00 0.  1.
</event>
<event>
 5   0  0.1538349E-06  0.3063307E+04  0.7818609E-02  0.8225881E-01
       -2   -1    0    0    0  501  0.00000000000E+00  0.00000000000E+00  0.16375439707E+04  0.16375439707E+04  0.25500000920E-02 0.  1.
        2   -1    0    0  501    0  0.00000000000E+00  0.00000000000E+00 -0.14326102129E+04  0.14326102129E+04  0.25500000920E-02 0. -1.
    10030    2    1    2    0    0  0.00000000000E+00  0.00000000000E+00  0.20493375779E+03  0.30701541836E+04  0.30633068514E+04 0.  0.
        1    1    3    3  502    0 -0.78895204805E+03 -0.11581158681E+04 -0.51720678538E+03  0.14937136797E+04  0.50400001928E-02 0. -1.
       -1    1    3    3    0  502  0.78895204805E+03  0.11581158681E+04  0.72214054317E+03  0.15764405039E+04  0.50400001928E-02 0.  1.
</event>
<event>
 5   0  0.1538349E-06  0.3189672E+04  0.7818609E-02  0.8191550E-01
       -2   -1    0    0    0  501  0.00000000000E+00  0.00000000000E+00  0.10887824965E+04  0.10887824965E+04  0.25500000920E-02 0.  1.
        2   -1    0    0  501    0  0.00000000000E+00  0.00000000000E+00 -0.23360972256E+04  0.23360972256E+04  0.25500000920E-02 0. -1.
    10030    2    1    2    0    0  0.00000000000E+00  0.00000000000E+00 -0.12473147291E+04  0.34248797222E+04  0.31896719389E+04 0.  0.
        1    1    3    3  502    0  0.77901507776E+03 -0.22306427342E+03  0.85127261069E+03  0.11752817616E+04  0.50400001928E-02 0.  1.
       -1    1    3    3    0  502 -0.77901507776E+03  0.22306427342E+03 -0.20985873397E+04  0.22495979605E+04  0.50400001928E-02 0. -1.
</event>
<event>
 5   0  0.5370912E-07  0.3197537E+04  0.7818609E-02  0.8189468E-01
       -1   -1    0    0    0  501  0.00000000000E+00  0.00000000000E+00  0.11525043125E+04  0.11525043125E+04  0.50400001928E-02 0. -1.
        1   -1    0    0  501    0  0.00000000000E+00  0.00000000000E+00 -0.22178311587E+04  0.22178311587E+04  0.50400001928E-02 0.  1.
    10030    2    1    2    0    0  0.00000000000E+00  0.00000000000E+00 -0.10653268463E+04  0.33703354712E+04  0.31975365360E+04 0.  0.
        1    1    3    3  502    0  0.87133113578E+03  0.21229592877E+03  0.86240806682E+03  0.12442006202E+04  0.50400001928E-02 0. -1.
       -1    1    3    3    0  502 -0.87133113578E+03 -0.21229592877E+03 -0.19277349131E+04  0.21261348510E+04  0.50400001928E-02 0.  1.
</event>
<event>
 5   0  0.5317728E-07  0.3207906E+04  0.7818609E-02  0.8186732E-01
       -1   -1    0    0    0  501  0.00000000000E+00  0.00000000000E+00  0.30345266239E+04  0.30345266239E+04  0.50400001928E-02 0.  1.
        1   -1    0    0  501    0  0.00000000000E+00  0.00000000000E+00 -0.84779808026E+03  0.84779808028E+03  0.50400001928E-02 0. -1.
    10030    2    1    2    0    0  0.00000000000E+00  0.00000000000E+00  0.21867285436E+04  0.38823247041E+04  0.32079063866E+04 0.  0.
        2    1    3    3  502    0  0.43568950470E+02  0.67342580962E+03 -0.66762944465E+03  0.94927848910E+03  0.25500000920E-02 0. -1.
       -2    1    3    3    0  502 -0.43568950470E+02 -0.67342580962E+03  0.28543579882E+04  0.29330462150E+04  0.25500000920E-02 0.  1.
</event>
<event>
 5   0  0.1538349E-06  0.3218826E+04  0.7818609E-02  0.8183863E-01
       -2   -1    0    0    0  501  0.00000000000E+00  0.00000000000E+00  0.17895277760E+04  0.17895277760E+04  0.25500000920E-02 0.  1.
        2   -1    0    0  501    0  0.00000000000E+00  0.00000000000E+00 -0.14474267537E+04  0.14474267537E+04  0.25500000920E-02 0. -1.
    10030    2    1    2    0    0  0.00000000000E+00  0.00000000000E+00  0.34210102235E+03  0.32369545297E+04  0.32188261087E+04 0.  0.
        1    1    3    3  502    0  0.96593042517E+03  0.34339936253E+03  0.14187094296E+04  0.17503374401E+04  0.50400001928E-02 0.  1.
       -1    1    3    3    0  502 -0.96593042517E+03 -0.34339936253E+03 -0.10766084073E+04  0.14866170896E+04  0.50400001928E-02 0. -1.
</event>
<event>
 5   0  0.5281187E-07  0.3158457E+04  0.7818609E-02  0.8199875E-01
        1   -1    0    0  501    0  0.00000000000E+00  0.00000000000E+00  0.13523985466E+04  0.13523985466E+04  0.50400001928E-02 0.  1.
       -1   -1    0    0    0  501  0.00000000000E+00  0.00000000000E+00 -0.18441036202E+04  0.18441036202E+04  0.50400001928E-02 0. -1.
    10030    2    1    2    0    0  0.00000000000E+00  0.00000000000E+00 -0.49170507360E+03  0.31965021668E+04  0.31584572536E+04 0.  0.
        5    1    3    3  502    0  0.59031823152E+03 -0.86738783531E+03 -0.14403678499E+04  0.17819985703E+04  0.46999998093E+01 0. -1.
       -5    1    3    3    0  502 -0.59031823152E+03  0.86738783531E+03  0.94866277635E+03  0.14145035965E+04  0.46999998093E+01 0.  1.
</event>
<event>
 5   0  0.1572769E-06  0.3312299E+04  0.7818609E-02  0.8159773E-01
        2   -1    0    0  501    0  0.00000000000E+00  0.00000000000E+00  0.20223636126E+04  0.20223636126E+04  0.25500000920E-02 0.  1.
       -2   -1    0    0    0  501  0.00000000000E+00  0.00000000000E+00 -0.13562499232E+04  0.13562499232E+04  0.25500000920E-02 0. -1.
    10030    2    1    2    0    0  0.00000000000E+00  0.00000000000E+00  0.66611368935E+03  0.33786135358E+04  0.33122985942E+04 0.  0.
        5    1    3    3  502    0  0.15164647065E+04 -0.30978136568E+01 -0.34595348128E+03  0.15554358565E+04  0.46999998093E+01 0. -1.
       -5    1    3    3    0  502 -0.15164647065E+04  0.30978136568E+01  0.10120671706E+04  0.18231776793E+04  0.46999998093E+01 0.  1.
</event>
<event>
 5   0  0.5177039E-07  0.3177924E+04  0.7818609E-02  0.8194672E-01
       -1   -1    0    0    0  501  0.00000000000E+00  0.00000000000E+00  0.21435007890E+04  0.21435007890E+04  0.50400001928E-02 0. -1.
        1   -1    0    0  501    0  0.00000000000E+00  0.00000000000E+00 -0.11778860716E+04  0.11778860716E+04  0.50400001928E-02 0.  1.
    10030    2    1    2    0    0  0.00000000000E+00  0.00000000000E+00  0.96561471745E+03  0.33213868606E+04  0.31779236768E+04 0.  0.
        3    1    3    3  502    0 -0.29891130444E+03 -0.10673329589E+04 -0.70712078710E+03  0.13147499499E+04  0.10100000352E+00 0.  1.
       -3    1    3    3    0  502  0.29891130444E+03  0.10673329589E+04  0.16727355045E+04  0.20066369107E+04  0.10100000352E+00 0. -1.
</event>
<event>
 5   0  0.1493485E-06  0.3162793E+04  0.7818609E-02  0.8198713E-01
        2   -1    0    0  501    0  0.00000000000E+00  0.00000000000E+00  0.16360968623E+04  0.16360968623E+04  0.25500000920E-02 0.  1.
       -2   -1    0    0    0  501  0.00000000000E+00  0.00000000000E+00 -0.15285252374E+04  0.15285252374E+04  0.25500000920E-02 0. -1.
    10030    2    1    2    0    0  0.00000000000E+00  0.00000000000E+00  0.10757162488E+03  0.31646220997E+04  0.31627932875E+04 0.  0.
        2    1    3    3  502    0 -0.89664936494E+03  0.10571034678E+04 -0.70781626543E+03  0.15564227225E+04  0.25500000920E-02 0. -1.
       -2    1    3    3    0  502  0.89664936494E+03 -0.10571034678E+04  0.81538789031E+03  0.16081993773E+04  0.25500000920E-02 0.  1.
</event>
<event>
 5   0  0.5233813E-07  0.3183469E+04  0.7818609E-02  0.8193197E-01
        1   -1    0    0  501    0  0.00000000000E+00  0.00000000000E+00  0.17752745679E+04  0.17752745679E+04  0.50400001928E-02 0.  1.
       -1   -1    0    0    0  501  0.00000000000E+00  0.00000000000E+00 -0.14271700663E+04  0.14271700663E+04  0.50400001928E-02 0. -1.
    10030    2    1    2    0    0  0.00000000000E+00  0.00000000000E+00  0.34810450165E+03  0.32024446342E+04  0.31834690027E+04 0.  0.
        4    1    3    3  502    0  0.12349917134E+04 -0.63401301814E+03 -0.60933220424E+03  0.15160687278E+04  0.12699999809E+01 0.  1.
       -4    1    3    3    0  502 -0.12349917134E+04  0.63401301814E+03  0.95743670589E+03  0.16863759065E+04  0.12699999809E+01 0. -1.
</event>
<event>
 5   0  0.5281187E-07  0.3176564E+04  0.7818609E-02  0.8195034E-01
        1   -1    0    0  501    0  0.00000000000E+00  0.00000000000E+00  0.19648337862E+04  0.19648337863E+04  0.50400001928E-02 0. -1.
       -1   -1    0    0    0  501  0.00000000000E+00  0.00000000000E+00 -0.12838948747E+04  0.12838948748E+04  0.50400001928E-02 0.  1.
    10030    2    1    2    0    0  0.00000000000E+00  0.00000000000E+00  0.68093891150E+03  0.32487286610E+04  0.31765641992E+04 0.  0.
        5    1    3    3  502    0  0.51907440226E+03 -0.93498473963E+03 -0.86050922141E+03  0.13726372094E+04  0.46999998093E+01 0.  1.
       -5    1    3    3    0  502 -0.51907440226E+03  0.93498473963E+03  0.15414481329E+04  0.18760914516E+04  0.46999998093E+01 0. -1.
</event>
<event>
 5   0  0.5370912E-07  0.3031129E+04  0.7818609E-02  0.8234897E-01
        1   -1    0    0  501    0  0.00000000000E+00  0.00000000000E+00  0.14591037219E+04  0.14591037219E+04  0.50400001928E-02 0. -1.
       -1   -1    0    0    0  501  0.00000000000E+00  0.00000000000E+00 -0.15742103244E+04  0.15742103244E+04  0.50400001928E-02 0.  1.
    10030    2    1    2    0    0  0.00000000000E+00  0.00000000000E+00 -0.11510660246E+03  0.30333140463E+04  0.30311292571E+04 0.  0.
        1    1    3    3  502    0  0.24206506341E+03  0.10906123609E+03  0.14356503102E+04  0.14599937196E+04  0.50400001928E-02 0. -1.
       -1    1    3    3    0  502 -0.24206506341E+03 -0.10906123609E+03 -0.15507569126E+04  0.15733203267E+04  0.50400001928E-02 0.  1.
</event>
<event>
 5   0  0.5317728E-07  0.3195911E+04  0.7818609E-02  0.8189898E-01
       -1   -1    0    0    0  501  0.00000000000E+00  0.00000000000E+00  0.15142373993E+04  0.15142373993E+04  0.50400001928E-02 0.  1.
        1   -1    0    0  501    0  0.00000000000E+00  0.00000000000E+00 -0.16863019298E+04  0.16863019298E+04  0.50400001928E-02 0. -1.
    10030    2    1    2    0    0  0.00000000000E+00  0.00000000000E+00 -0.17206453041E+03  0.32005393291E+04  0.31959107926E+04 0.  0.
        2    1    3    3  502    0 -0.81412749426E+03 -0.35921635774E+03 -0.14152153889E+04  0.16717280178E+04  0.25500000920E-02 0. -1.
       -2    1    3    3    0  502  0.81412749426E+03  0.35921635774E+03  0.12431508585E+04  0.15288113113E+04  0.25500000920E-02 0.  1.
</event>
<event>
 5   0  0.1556396E-06  0.3243959E+04  0.7818609E-02  0.8177303E-01
       -2   -1    0    0    0  501  0.00000000000E+00  0.00000000000E+00  0.19221521669E+04  0.19221521669E+04  0.25500000920E-02 0. -1.
        2   -1    0    0  501    0  0.00000000000E+00  0.00000000000E+00 -0.13686828957E+04  0.13686828957E+04  0.25500000920E-02 0.  1.
    10030    2    1    2    0    0  0.00000000000E+00  0.00000000000E+00  0.55346927120E+03  0.32908350625E+04  0.32439585655E+04 0.  0.
        3    1    3    3  502    0  0.88561120558E+03  0.12622801816E+04 -0.23368446653E+03  0.15595726672E+04  0.10100000352E+00 0. -1.
       -3    1    3    3    0  502 -0.88561120558E+03 -0.12622801816E+04  0.78715373773E+03  0.17312623953E+04  0.10100000352E+00 0.  1.
</event>
<event>
 5   0  0.1538349E-06  0.3196487E+04  0.7818609E-02  0.8189746E-01
       -2   -1    0    0    0  501  0.00000000000E+00  0.00000000000E+00  0.93822378200E+03  0.93822378200E+03  0.25500000920E-02 0.  1.
        2   -1    0    0  501    0  0.00000000000E+00  0.00000000000E+00 -0.27225724299E+04  0.27225724299E+04  0.25500000920E-02 0. -1.
    10030    2    1    2    0    0  0.00000000000E+00  0.00000000000E+00 -0.17843486479E+04  0.36607962119E+04  0.31964869478E+04 0.  0.
        1    1    3    3  502    0 -0.74633919085E+03 -0.72874539848E+03 -0.22789703157E+04  0.25063514804E+04  0.50400001928E-02 0. -1.
       -1    1    3    3    0  502  0.74633919085E+03  0.72874539848E+03  0.49462166784E+03  0.11544447314E+04  0.50400001928E-02 0.  1.
</event>
<event>
 5   0  0.5317728E-07  0.3197026E+04  0.7818609E-02  0.8189603E-01
        1   -1    0    0  501    0  0.00000000000E+00  0.00000000000E+00  0.22462299136E+04  0.22462299136E+04  0.50400001928E-02 0. -1.
       -1   -1    0    0    0  501  0.00000000000E+00  0.00000000000E+00 -0.11375699392E+04  0.11375699392E+04  0.50400001928E-02 0.  1.
    10030    2    1    2    0    0  0.00000000000E+00  0.00000000000E+00  0.11086599744E+04  0.33837998528E+04  0.31970258843E+04 0.  0.
        2    1    3    3  502    0 -0.13578759737E+04 -0.68161514545E+03  0.10801610982E+04  0.18641819559E+04  0.25500000920E-02 0. -1.
       -2    1    3    3    0  502  0.13578759737E+04  0.68161514545E+03  0.28498876210E+02  0.15196178969E+04  0.25500000920E-02 0.  1.
</event>
<event>
 5   0  0.5233813E-07  0.3206535E+04  0.7818609E-02  0.8187093E-01
        1   -1    0    0  501    0  0.00000000000E+00  0.00000000000E+00  0.18961307404E+04  0.18961307404E+04  0.50400001928E-02 0.  1.
       -1   -1    0    0    0  501  0.00000000000E+00  0.00000000000E+00 -0.13556381074E+04  0.13556381074E+04  0.50400001928E-02 0. -1.
    10030    2    1    2    0    0  0.00000000000E+00  0.00000000000E+00  0.54049263297E+03  0.32517688478E+04  0.32065352568E+04 0.  0.
        4    1    3    3  502    0 -0.71156032181E+03  0.12996972249E+04  0.89120306763E+03  0.17290967262E+04  0.12699999809E+01 0. -1.
       -4    1    3    3    0  502  0.71156032181E+03 -0.12996972249E+04 -0.35071043465E+03  0.15226721216E+04  0.12699999809E+01 0.  1.
</event>
<event>
 5   0  0.5177039E-07  0.3217781E+04  0.7818609E-02  0.8184137E-01
       -1   -1    0    0    0  501  0.00000000000E+00  0.00000000000E+00  0.16345790515E+04  0.16345790515E+04  0.50400001928E-02 0.  1.
        1   -1    0    0  501    0  0.00000000000E+00  0.00000000000E+00 -0.15836055437E+04  0.15836055437E+04  0.50400001928E-02 0. -1.
    10030    2    1    2    0    0  0.00000000000E+00  0.00000000000E+00  0.50973507829E+02  0.32181845952E+04  0.32177808798E+04 0.  0.
        3    1    3    3  502    0  0.77773610344E+03 -0.13771838775E+04 -0.26954103329E+03  0.16044192900E+04  0.10100000352E+00 0. -1.
       -3    1    3    3    0  502 -0.77773610344E+03  0.13771838775E+04  0.32051454112E+03  0.16137653053E+04  0.10100000352E+00 0.  1.
</event>
<event>
 5   0  0.5233813E-07  0.3124160E+04  0.7818609E-02  0.8209139E-01
       -1   -1    0    0    0  501  0.00000000000E+00  0.00000000000E+00  0.13836720152E+04  0.13836720152E+04  0.50400001928E-02 0. -1.
        1   -1    0    0  501    0  0.00000000000E+00  0.00000000000E+00 -0.17634913725E+04  0.17634913725E+04  0.50400001928E-02 0.  1.
    10030    2    1    2    0    0  0.00000000000E+00  0.00000000000E+00 -0.37981935726E+03  0.31471633877E+04  0.31241598302E+04 0.  0.
        4    1    3    3  502    0 -0.78645332321E+03  0.46519884446E+03 -0.14661927347E+04  0.17276115138E+04  0.12699999809E+01 0.  1.
       -4    1    3    3    0  502  0.78645332321E+03 -0.46519884446E+03  0.10863733775E+04  0.14195518739E+04  0.12699999809E+01 0. -1.
</event>
<event>
 5   0  0.1493485E-06  0.3206389E+04  0.7818609E-02  0.8187132E-01
        2   -1    0    0  501    0  0.00000000000E+00  0.00000000000E+00  0.27902827848E+04  0.27902827848E+04  0.25500000920E-02 0.  1.
       -2   -1    0    0    0  501  0.00000000000E+00  0.00000000000E+00 -0.92113684258E+03  0.92113684258E+03  0.25500000920E-02 0. -1.
    10030    2    1    2    0    0  0.00000000000E+00  0.00000000000E+00  0.18691459422E+04  0.37114196274E+04  0.32063887938E+04 0.  0.
        2    1    3    3  502    0 -0.81662116415E+03 -0.15414711684E+03  0.25214990252E+04  0.26549178506E+04  0.25500000920E-02 0.  1.
       -2    1    3    3    0  502  0.81662116415E+03  0.15414711684E+03 -0.65235308300E+03  0.10565017768E+04  0.25500000920E-02 0. -1.
</event>
<event>
 5   0  0.1538349E-06  0.3179486E+04  0.7818609E-02  0.8194256E-01
        2   -1    0    0  501    0  0.00000000000E+00  0.00000000000E+00  0.20823785645E+04  0.20823785645E+04  0.25500000920E-02 0.  1.
       -2   -1    0    0    0  501  0.00000000000E+00  0.00000000000E+00 -0.12136517201E+04  0.12136517201E+04  0.25500000920E-02 0. -1.
    10030    2    1    2    0    0  0.00000000000E+00  0.00000000000E+00  0.86872684434E+03  0.32960302846E+04  0.31794856985E+04 0.  0.
        1    1    3    3  502    0 -0.29120479290E+03  0.58788687123E+03 -0.10667730847E+04  0.12523641719E+04  0.50400001928E-02 0. -1.
       -1    1    3    3    0  502  0.29120479290E+03 -0.58788687123E+03  0.19354999290E+04  0.20436661127E+04  0.50400001928E-02 0.  1.
</event>
<event>
 5   0  0.5370912E-07  0.2959272E+04  0.7818609E-02  0.8255458E-01
        1   -1    0    0  501    0  0.00000000000E+00  0.00000000000E+00  0.26185461564E+04  0.26185461564E+04  0.50400001928E-02 0.  1.
       -1   -1    0    0    0  501  0.00000000000E+00  0.00000000000E+00 -0.83608301988E+03  0.83608301990E+03  0.50400001928E-02 0. -1.
    10030    2    1    2    0    0  0.00000000000E+00  0.00000000000E+00  0.17824631365E+04  0.34546291763E+04  0.29592715172E+04 0.  0.
        1    1    3    3  502    0 -0.81021729431E+03  0.78992639634E+03  0.20041706102E+04  0.23015506969E+04  0.50400001928E-02 0.  1.
       -1    1    3    3    0  502  0.81021729431E+03 -0.78992639634E+03 -0.22170747372E+03  0.11530784794E+04  0.50400001928E-02 0. -1.
</event>
<event>
 5   0  0.1493485E-06  0.3185131E+04  0.7818609E-02  0.8192755E-01
        2   -1    0    0  501    0  0.00000000000E+00  0.00000000000E+00  0.17247506533E+04  0.17247506533E+04  0.25500000920E-02 0.  1.
       -2   -1    0    0    0  501  0.00000000000E+00  0.00000000000E+00 -0.14705110533E+04  0.14705110533E+04  0.25500000920E-02 0. -1.
    10030    2    1    2    0    0  0.00000000000E+00  0.00000000000E+00  0.25423960000E+03  0.31952617066E+04  0.31851310177E+04 0.  0.
        2    1    3    3  502    0  0.10213522531E+04 -0.55823663666E+03  0.12175343713E+04  0.16843926243E+04  0.25500000920E-02 0.  1.
       -2    1    3    3    0  502 -0.10213522531E+04  0.55823663666E+03 -0.96329477131E+03  0.15108690823E+04  0.25500000920E-02 0. -1.
</event>
<event>
 5   0  0.5177039E-07  0.3196999E+04  0.7818609E-02  0.8189610E-01
        1   -1    0    0  501    0  0.00000000000E+00  0.00000000000E+00  0.25431971775E+04  0.25431971775E+04  0.50400001928E-02 0.  1.
       -1   -1    0    0    0  501  0.00000000000E+00  0.00000000000E+00 -0.10047201290E+04  0.10047201290E+04  0.50400001928E-02 0. -1.
    10030    2    1    2    0    0  0.00000000000E+00  0.00000000000E+00  0.15384770485E+04  0.35479173065E+04  0.31969994659E+04 0.  0.
        3    1    3    3  502    0  0.26320139440E+03  0.14326625219E+04  0.38641938282E+02  0.14571513598E+04  0.10100000352E+00 0.  1.
       -3    1    3    3    0  502 -0.26320139440E+03 -0.14326625219E+04  0.14998351102E+04  0.20907659467E+04  0.10100000352E+00 0. -1.
</event>
<event>
 5   0  0.1538349E-06  0.3165107E+04  0.7818609E-02  0.8198094E-01
       -2   -1    0    0    0  501  0.00000000000E+00  0.00000000000E+00  0.14416325402E+04  0.14416325402E+04  0.25500000920E-02 0. -1.
        2   -1    0    0  501    0  0.00000000000E+00  0.00000000000E+00 -0.17372499064E+04  0.17372499064E+04  0.25500000920E-02 0.  1.
    10030    2    1    2    0    0  0.00000000000E+00  0.00000000000E+00 -0.29561736612E+03  0.31788824466E+04  0.31651072623E+04 0.  0.
        1    1    3    3  502    0 -0.11888431651E+03  0.14433498648E+04  0.49299925531E+03  0.15298498549E+04  0.50400001928E-02 0. -1.
       -1    1    3    3    0  502  0.11888431651E+03 -0.14433498648E+04 -0.78861662142E+03  0.16490325917E+04  0.50400001928E-02 0.  1.
</event>
<event>
 5   0  0.5177039E-07  0.3187428E+04  0.7818609E-02  0.8192145E-01
        1   -1    0    0  501    0  0.00000000000E+00  0.00000000000E+00  0.18178596425E+04  0.18178596426E+04  0.50400001928E-02 0.  1.
       -1   -1    0    0    0  501  0.00000000000E+00  0.00000000000E+00 -0.13972055147E+04  0.13972055147E+04  0.50400001928E-02 0. -1.
    10030    2    1    2    0    0  0.00000000000E+00  0.00000000000E+00  0.42065412781E+03  0.32150651573E+04  0.31874275004E+04 0.  0.
        3    1    3    3  502    0 -0.77645116225E+03 -0.16181489494E+03 -0.11839986728E+04  0.14251011665E+04  0.10100000352E+00 0. -1.
       -3    1    3    3    0  502  0.77645116225E+03  0.16181489494E+03  0.16046528006E+04  0.17899639908E+04  0.10100000352E+00 0.  1.
</event>
<event>
 5   0  0.1572769E-06  0.3203309E+04  0.7818609E-02  0.8187944E-01
       -2   -1    0    0    0  501  0.00000000000E+00  0.00000000000E+00  0.89985646370E+03  0.89985646370E+03  0.25500000920E-02 0. -1.
        2   -1    0    0  501    0  0.00000000000E+00  0.00000000000E+00 -0.28507856925E+04  0.28507856925E+04  0.25500000920E-02 0.  1.
    10030    2    1    2    0    0  0.00000000000E+00  0.00000000000E+00 -0.19509292288E+04  0.37506421562E+04  0.32033094962E+04 0.  0.
        5    1    3    3  502    0 -0.68124136845E+03  0.45791217978E+03  0.63484796846E+03  0.10377029438E+04  0.46999998093E+01 0. -1.
       -5    1    3    3    0  502  0.68124136845E+03 -0.45791217978E+03 -0.25857771973E+04  0.27129392124E+04  0.46999998093E+01 0.  1.
</event>
<event>
 5   0  0.1538349E-06  0.3206805E+04  0.7818609E-02  0.8187022E-01
       -2   -1    0    0    0  501  0.00000000000E+00  0.00000000000E+00  0.12622759131E+04  0.12622759131E+04  0.25500000920E-02 0. -1.
        2   -1    0    0  501    0  0.00000000000E+00  0.00000000000E+00 -0.20367181842E+04  0.20367181842E+04  0.25500000920E-02 0.  1.
    10030    2    1    2    0    0  0.00000000000E+00  0.00000000000E+00 -0.77444227107E+03  0.32989940974E+04  0.32068054545E+04 0.  0.
        1    1    3    3  502    0  0.34202543249E+03  0.91328573782E+03  0.92209157885E+03  0.13421345369E+04  0.50400001928E-02 0. -1.
       -1    1    3    3    0  502 -0.34202543249E+03 -0.91328573782E+03 -0.16965338499E+04  0.19568595604E+04  0.50400001928E-02 0.  1.
</event>
<event>
 5   0  0.5317728E-07  0.3175661E+04  0.7818609E-02  0.8195275E-01
       -1   -1    0    0    0  501  0.00000000000E+00  0.00000000000E+00  0.27858130116E+04  0.27858130116E+04  0.50400001928E-02 0.  1.
        1   -1    0    0  501    0  0.00000000000E+00  0.00000000000E+00 -0.90501615618E+03  0.90501615619E+03  0.50400001928E-02 0. -1.
    10030    2    1    2    0    0  0.00000000000E+00  0.00000000000E+00  0.18807968554E+04  0.36908291678E+04  0.31756610547E+04 0.  0.
        2    1    3    3  502    0  0.12182063395E+03  0.10147048383E+04  0.23527465690E+04  0.25651281827E+04  0.25500000920E-02 0.  1.
       -2    1    3    3    0  502 -0.12182063395E+03 -0.10147048383E+04 -0.47194971358E+03  0.11257009851E+04  0.25500000920E-02 0. -1.
</event>
<event>
 5   0  0.1493485E-06  0.3193861E+04  0.7818609E-02  0.8190440E-01
        2   -1    0    0  501    0  0.00000000000E+00  0.00000000000E+00  0.16253634318E+04  0.16253634318E+04  0.25500000920E-02 0.  1.
       -2   -1    0    0    0  501  0.00000000000E+00  0.00000000000E+00 -0.15689954046E+04  0.15689954046E+04  0.25500000920E-02 0. -1.
    10030    2    1    2    0    0  0.00000000000E+00  0.00000000000E+00  0.56368027210E+02  0.31943588364E+04  0.31938614593E+04 0.  0.
        2    1    3    3  502    0 -0.14253744895E+04  0.69827621066E+03 -0.14764340188E+03  0.15940767472E+04  0.25500000920E-02 0.  1.
       -2    1    3    3    0  502  0.14253744895E+04 -0.69827621066E+03  0.20401142909E+03  0.16002820892E+04  0.25500000920E-02 0. -1.
</event>
<event>
 5   0  0.1538349E-06  0.3185280E+04  0.7818609E-02  0.8192716E-01
       -2   -1    0    0    0  501  0.00000000000E+00  0.00000000000E+00  0.10463611525E+04  0.10463611525E+04  0.25500000920E-02 0. -1.
        2   -1    0    0  501    0  0.00000000000E+00  0.00000000000E+00 -0.24241165970E+04  0.24241165970E+04  0.25500000920E-02 0.  1.
    10030    2    1    2    0    0  0.00000000000E+00  0.00000000000E+00 -0.13777554445E+04  0.34704777495E+04  0.31852795395E+04 0.  0.
        1    1    3    3  502    0  0.20958631552E+02  0.27814127514E+03 -0.23972969393E+04  0.24134693801E+04  0.50400001928E-02 0.  1.
       -1    1    3    3    0  502 -0.20958631552E+02 -0.27814127514E+03  0.10195414949E+04  0.10570083694E+04  0.50400001928E-02 0. -1.
</event>
<event>
 5   0  0.5317728E-07  0.3222307E+04  0.7818609E-02  0.8182951E-01
       -1   -1    0    0    0  501  0.00000000000E+00  0.00000000000E+00  0.21467041367E+04  0.21467041367E+04  0.50400001928E-02 0.  1.
        1   -1    0    0  501    0  0.00000000000E+00  0.00000000000E+00 -0.12092098272E+04  0.12092098272E+04  0.50400001928E-02 0. -1.
    10030    2    1    2    0    0  0.00000000000E+00  0.00000000000E+00  0.93749430947E+03  0.33559139639E+04  0.32223070854E+04 0.  0.
        2    1    3    3  502    0 -0.26920542168E+02 -0.15517813801E+04  0.18303136564E+02  0.15521227954E+04  0.25500000920E-02 0. -1.
       -2    1    3    3    0  502  0.26920542168E+02  0.15517813801E+04  0.91919117291E+03  0.18037911685E+04  0.25500000920E-02 0.  1.
</event>
<event>
 5   0  0.5233813E-07  0.3207552E+04  0.7818609E-02  0.8186826E-01
        1   -1    0    0  501    0  0.00000000000E+00  0.00000000000E+00  0.26762226175E+04  0.26762226175E+04  0.50400001928E-02 0. -1.
       -1   -1    0    0    0  501  0.00000000000E+00  0.00000000000E+00 -0.96109257674E+03  0.96109257676E+03  0.50400001928E-02 0.  1.
    10030    2    1    2    0    0  0.00000000000E+00  0.00000000000E+00  0.17151300407E+04  0.36373151942E+04  0.32075521454E+04 0.  0.
        4    1    3    3  502    0  0.13942163625E+03 -0.95835967766E+03  0.23072058112E+04  0.25022174032E+04  0.12699999809E+01 0. -1.
       -4    1    3    3    0  502 -0.13942163625E+03  0.95835967766E+03 -0.59207577049E+03  0.11350977911E+04  0.12699999809E+01 0.  1.
</event>
<event>
 5   0  0.1572769E-06  0.3185870E+04  0.7818609E-02  0.8192559E-01
        2   -1    0    0  501    0  0.00000000000E+00  0.00000000000E+00  0.14927379597E+04  0.14927379597E+04  0.25500000920E-02 0. -1.
       -2   -1    0    0    0  501  0.00000000000E+00  0.00000000000E+00 -0.16998574584E+04  0.16998574584E+04  0.25500000920E-02 0.  1.
    10030    2    1    2    0    0  0.00000000000E+00  0.00000000000E+00 -0.20711949871E+03  0.31925954180E+04  0.31858698995E+04 0.  0.
        5    1    3    3  502    0  0.10857807666E+02 -0.56431457519E+03 -0.15962850804E+04  0.16931382045E+04  0.46999998093E+01 0.  1.
       -5    1    3    3    0  502 -0.10857807666E+02  0.56431457519E+03  0.13891655817E+04  0.14994572135E+04  0.46999998093E+01 0. -1.
</event>
<event>
 5   0  0.5177039E-07  0.3252340E+04  0.7818609E-02  0.8175129E-01
       -1   -1    0    0    0  501  0.00000000000E+00  0.00000000000E+00  0.10803240442E+04  0.10803240442E+04  0.50400001928E-02 0.  1.
        1   -1    0    0  501    0  0.00000000000E+00  0.00000000000E+00 -0.24478113082E+04  0.24478113082E+04  0.50400001928E-02 0. -1.
    10030    2    1    2    0    0  0.00000000000E+00  0.00000000000E+00 -0.13674872640E+04  0.35281353524E+04  0.32523403339E+04 0.  0.
        3    1    3    3  502    0  0.13932645683E+03  0.11413447175E+04  0.56370429548E+03  0.12805632233E+04  0.10100000352E+00 0.  1.
       -3    1    3    3    0  502 -0.13932645683E+03 -0.11413447175E+04 -0.19311915595E+04  0.22475721291E+04  0.10100000352E+00 0. -1.
</event>
<event>
 5   0  0.5177039E-07  0.3224793E+04  0.7818609E-02  0.8182300E-01
       -1   -1    0    0    0  501  0.00000000000E+00  0.00000000000E+00  0.13531540861E+04  0.13531540861E+04  0.50400001928E-02 0.  1.
        1   -1    0    0  501    0  0.00000000000E+00  0.00000000000E+00 -0.19213054835E+04  0.19213054835E+04  0.50400001928E-02 0. -1.
    10030    2    1    2    0    0  0.00000000000E+00  0.00000000000E+00 -0.56815139739E+03  0.32744595696E+04  0.32247929333E+04 0.  0.
        3    1    3    3  502    0  0.13541834575E+04 -0.45136140667E+03 -0.10454795053E+04  0.17693409401E+04  0.10100000352E+00 0. -1.
       -3    1    3    3    0  502 -0.13541834575E+04  0.45136140667E+03  0.47732810793E+03  0.15051186295E+04  0.10100000352E+00 0.  1.
</event>
<event>
 5   0  0.1556396E-06  0.3205061E+04  0.7818609E-02  0.8187482E-01
       -2   -1    0    0    0  501  0.00000000000E+00  0.00000000000E+00  0.15785757548E+04  0.15785757548E+04  0.25500000920E-02 0.  1.
        2   -1    0    0  501    0  0.00000000000E+00  0.00000000000E+00 -0.16268485567E+04  0.16268485567E+04  0.25500000920E-02 0. -1.
    10030    2    1    2    0    0  0.00000000000E+00  0.00000000000E+00 -0.48272801885E+02  0.32054243116E+04  0.32050608034E+04 0.  0.
        3    1    3    3  502    0  0.46745673533E+03 -0.13587320542E+04  0.68547566656E+03  0.15920255947E+04  0.10100000352E+00 0.  1.
       -3    1    3    3    0  502 -0.46745673533E+03  0.13587320542E+04 -0.73374846845E+03  0.16133987169E+04  0.10100000352E+00 0. -1.
</event>
<event>
 5   0  0.1572769E-06  0.3197005E+04  0.7818609E-02  0.8189609E-01
        2   -1    0    0  501    0  0.00000000000E+00  0.00000000000E+00  0.14330040167E+04  0.14330040167E+04  0.25500000920E-02 0. -1.
       -2   -1    0    0    0  501  0.00000000000E+00  0.00000000000E+00 -0.17831142718E+04  0.17831142718E+04  0.25500000920E-02 0.  1.
    10030    2    1    2    0    0  0.00000000000E+00  0.00000000000E+00 -0.35011025512E+03  0.32161182885E+04  0.31970047943E+04 0.  0.
        5    1    3    3  502    0  0.15767731147E+04 -0.21455565182E+03 -0.22689252505E+02  0.15914724237E+04  0.46999998093E+01 0. -1.
       -5    1    3    3    0  502 -0.15767731147E+04  0.21455565182E+03 -0.32742100262E+03  0.16246458648E+04  0.46999998093E+01 0.  1.
</event>
<event>
 5   0  0.5281187E-07  0.3187288E+04  0.7818609E-02  0.8192182E-01
       -1   -1    0    0    0  501  0.00000000000E+00  0.00000000000E+00  0.29994073183E+04  0.29994073183E+04  0.50400001928E-02 0. -1.
        1   -1    0    0  501    0  0.00000000000E+00  0.00000000000E+00 -0.84673450020E+03  0.84673450021E+03  0.50400001928E-02 0.  1.
    10030    2    1    2    0    0  0.00000000000E+00  0.00000000000E+00  0.21526728181E+04  0.38461418185E+04  0.31872882873E+04 0.  0.
        5    1    3    3  502    0 -0.25254774196E+03 -0.15688374793E+04  0.12223844061E+04  0.20048134887E+04  0.46999998093E+01 0. -1.
       -5    1    3    3    0  502  0.25254774196E+03  0.15688374793E+04  0.93028841204E+03  0.18413283298E+04  0.46999998093E+01 0.  1.
</event>
<event>
 5   0  0.5317728E-07  0.3152031E+04  0.7818609E-02  0.8201602E-01
        1   -1    0    0  501    0  0.00000000000E+00  0.00000000000E+00  0.19541586718E+04  0.19541586718E+04  0.50400001928E-02 0.  1.
       -1   -1    0    0    0  501  0.00000000000E+00  0.00000000000E+00 -0.12710457292E+04  0.12710457292E+04  0.50400001928E-02 0. -1.
    10030    2    1    2    0    0  0.00000000000E+00  0.00000000000E+00  0.68311294263E+03  0.32252044010E+04  0.31520311128E+04 0.  0.
        2    1    3    3  502    0 -0.17746362895E+02 -0.13026195196E+04 -0.56599078804E+03  0.14203795685E+04  0.25500000920E-02 0. -1.
       -2    1    3    3    0  502  0.17746362895E+02  0.13026195196E+04  0.12491037307E+04  0.18048248326E+04  0.25500000920E-02 0.  1.
</event>
<event>
 5   0  0.1508771E-06  0.3224975E+04  0.7818609E-02  0.8182252E-01
       -2   -1    0    0    0  501  0.00000000000E+00  0.00000000000E+00  0.14499809360E+04  0.14499809360E+04  0.25500000920E-02 0.  1.
        2   -1    0    0  501    0  0.00000000000E+00  0.00000000000E+00 -0.17932065627E+04  0.17932065627E+04  0.25500000920E-02 0. -1.
    10030    2    1    2    0    0  0.00000000000E+00  0.00000000000E+00 -0.34322562678E+03  0.32431874987E+04  0.32249746233E+04 0.  0.
        4    1    3    3  502    0  0.31316208764E+03 -0.99147449412E+03  0.10678335099E+04  0.14904234913E+04  0.12699999809E+01 0.  1.
       -4    1    3    3    0  502 -0.31316208764E+03  0.99147449412E+03 -0.14110591367E+04  0.17527640074E+04  0.12699999809E+01 0. -1.
</event>
<event>
 5   0  0.1572769E-06  0.3202892E+04  0.7818609E-02  0.8188054E-01
        2   -1    0    0  501    0  0.00000000000E+00  0.00000000000E+00  0.16054549951E+04  0.16054549951E+04  0.25500000920E-02 0.  1.
       -2   -1    0    0    0  501  0.00000000000E+00  0.00000000000E+00 -0.15974470558E+04  0.15974470558E+04  0.25500000920E-02 0. -1.
    10030    2    1    2    0    0  0.00000000000E+00  0.00000000000E+00  0.80079392605E+01  0.32029020509E+04  0.32028920401E+04 0.  0.
        5    1    3    3  502    0  0.12423800462E+03 -0.12721158311E+04  0.96883520602E+03  0.16038633096E+04  0.46999998093E+01 0.  1.
       -5    1    3    3    0  502 -0.12423800462E+03  0.12721158311E+04 -0.96082726676E+03  0.15990387413E+04  0.46999998093E+01 0. -1.
</event>
<event>
 5   0  0.5370912E-07  0.3192901E+04  0.7818609E-02  0.8190695E-01
       -1   -1    0    0    0  501  0.00000000000E+00  0.00000000000E+00  0.14012224815E+04  0.14012224815E+04  0.50400001928E-02 0. -1.
        1   -1    0    0  501    0  0.00000000000E+00  0.00000000000E+00 -0.18188787596E+04  0.18188787596E+04  0.50400001928E-02 0.  1.
    10030    2    1    2    0    0  0.00000000000E+00  0.00000000000E+00 -0.41765627811E+03  0.32201012411E+04  0.31929007558E+04 0.  0.
        1    1    3    3  502    0  0.38384978827E+03 -0.16080236453E+03  0.13455532184E+04  0.14084429431E+04  0.50400001928E-02 0. -1.
       -1    1    3    3    0  502 -0.38384978827E+03  0.16080236453E+03 -0.17632094965E+04  0.18116582981E+04  0.50400001928E-02 0.  1.
</event>
<event>
 5   0  0.1493485E-06  0.3185226E+04  0.7818609E-02  0.8192730E-01
       -2   -1    0    0    0  501  0.00000000000E+00  0.00000000000E+00  0.17789515663E+04  0.17789515663E+04  0.25500000920E-02 0.  1.
        2   -1    0    0  501    0  0.00000000000E+00  0.00000000000E+00 -0.14257928609E+04  0.14257928609E+04  0.25500000920E-02 0. -1.
    10030    2    1    2    0    0  0.00000000000E+00  0.00000000000E+00  0.35315870544E+03  0.32047444273E+04  0.31852261729E+04 0.  0.
        2    1    3    3  502    0  0.94472241531E+03 -0.51464011585E+03 -0.10049511846E+04  0.14721690712E+04  0.25500000920E-02 0. -1.
       -2    1    3    3    0  502 -0.94472241531E+03  0.51464011585E+03  0.13581098901E+04  0.17325753560E+04  0.25500000920E-02 0.  1.
</event>
<event>
 5   0  0.5317728E-07  0.3212581E+04  0.7818609E-02  0.8185502E-01
        1   -1    0    0  501    0  0.00000000000E+00  0.00000000000E+00  0.85712593390E+03  0.85712593392E+03  0.50400001928E-02 0. -1.
       -1   -1    0    0    0  501  0.00000000000E+00  0.00000000000E+00 -0.30102570149E+04  0.30102570149E+04  0.50400001928E-02 0.  1.
    10030    2    1    2    0    0  0.00000000000E+00  0.00000000000E+00 -0.21531310810E+04  0.38673829489E+04  0.32125811151E+04 0.  0.
        2    1    3    3  502    0 -0.13941579783E+04  0.79698276417E+03 -0.11201592794E+04  0.19579619011E+04  0.25500000920E-02 0.  1.
       -2    1    3    3    0  502  0.13941579783E+04 -0.79698276417E+03 -0.10329718016E+04  0.19094210478E+04  0.25500000920E-02 0. -1.
</event>
<event>
 5   0  0.1538349E-06  0.3190416E+04  0.7818609E-02  0.8191353E-01
       -2   -1    0    0    0  501  0.00000000000E+00  0.00000000000E+00  0.14399014804E+04  0.14399014804E+04  0.25500000920E-02 0. -1.
        2   -1    0    0  501    0  0.00000000000E+00  0.00000000000E+00 -0.17672655982E+04  0.17672655982E+04  0.25500000920E-02 0.  1.
    10030    2    1    2    0    0  0.00000000000E+00  0.00000000000E+00 -0.32736411777E+03  0.32071670786E+04  0.31904158670E+04 0.  0.
        1    1    3    3  502    0  0.79281142355E+02 -0.14624408975E+04  0.47183143678E+03  0.15387149778E+04  0.50400001928E-02 0. -1.
       -1    1    3    3    0  502 -0.79281142355E+02  0.14624408975E+04 -0.79919555454E+03  0.16684521008E+04  0.50400001928E-02 0.  1.
</event>
<event>
 5   0  0.5177039E-07  0.3210690E+04  0.7818609E-02  0.8186000E-01
        1   -1    0    0  501    0  0.00000000000E+00  0.00000000000E+00  0.13585388750E+04  0.13585388750E+04  0.50400001928E-02 0.  1.
       -1   -1    0    0    0  501  0.00000000000E+00  0.00000000000E+00 -0.18969885594E+04  0.18969885594E+04  0.50400001928E-02 0. -1.
    10030    2    1    2    0    0  0.00000000000E+00  0.00000000000E+00 -0.53844968443E+03  0.32555274344E+04  0.32106900837E+04 0.  0.
        3    1    3    3  502    0 -0.59128697127E+03  0.58698716137E+03  0.11221474323E+04  0.13976369629E+04  0.10100000352E+00 0.  1.
       -3    1    3    3    0  502  0.59128697127E+03 -0.58698716137E+03 -0.16605971167E+04  0.18578904715E+04  0.10100000352E+00 0. -1.
</event>
<event>
 5   0  0.5177039E-07  0.3206758E+04  0.7818609E-02  0.8187035E-01
        1   -1    0    0  501    0  0.00000000000E+00  0.00000000000E+00  0.13851480257E+04  0.13851480257E+04  0.50400001928E-02 0. -1.
       -1   -1    0    0    0  501  0.00000000000E+00  0.00000000000E+00 -0.18559919820E+04  0.18559919820E+04  0.50400001928E-02 0.  1.
    10030    2    1    2    0    0  0.00000000000E+00  0.00000000000E+00 -0.47084395630E+03  0.32411400076E+04  0.32067576332E+04 0.  0.
        3    1    3    3  502    0 -0.85139406829E+03 -0.42552047290E+03 -0.15395602966E+04  0.18100236047E+04  0.10100000352E+00 0.  1.
       -3    1    3    3    0  502  0.85139406829E+03  0.42552047290E+03  0.10687163404E+04  0.14311164029E+04  0.10100000352E+00 0. -1.
</event>
<event>
 5   0  0.1508771E-06  0.3133624E+04  0.7818609E-02  0.8206570E-01
        2   -1    0    0  501    0  0.00000000000E+00  0.00000000000E+00  0.11943321221E+04  0.11943321221E+04  0.25500000920E-02 0.  1.
       -2   -1    0    0    0  501  0.00000000000E+00  0.00000000000E+00 -0.20554585638E+04  0.20554585638E+04  0.25500000920E-02 0. -1.
    10030    2    1    2    0    0  0.00000000000E+00  0.00000000000E+00 -0.86112644172E+03  0.32497906858E+04  0.31336242201E+04 0.  0.
        4    1    3    3  502    0  0.13026441029E+04  0.27588120529E+03 -0.12869518302E+04  0.18518203812E+04  0.12699999809E+01 0. -1.
       -4    1    3    3    0  502 -0.13026441029E+04 -0.27588120529E+03  0.42582538847E+03  0.13979703046E+04  0.12699999809E+01 0.  1.
</event>
<event>
 5   0  0.1538349E-06  0.3179835E+04  0.7818609E-02  0.8194163E-01
       -2   -1    0    0    0  501  0.00000000000E+00  0.00000000000E+00  0.12580435153E+04  0.12580435153E+04  0.25500000920E-02 0. -1.
        2   -1    0    0  501    0  0.00000000000E+00  0.00000000000E+00 -0.20093406007E+04  0.20093406007E+04  0.25500000920E-02 0.  1.
    10030    2    1    2    0    0  0.00000000000E+00  0.00000000000E+00 -0.75129708542E+03  0.32673841161E+04  0.31798351610E+04 0.  0.
        1    1    3    3  502    0 -0.49872530994E+03  0.43821735998E+03 -0.18600958035E+04  0.19750234904E+04  0.50400001928E-02 0.  1.
       -1    1    3    3    0  502  0.49872530994E+03 -0.43821735998E+03  0.11087987181E+04  0.12923606256E+04  0.50400001928E-02 0. -1.
</event>
<event>
 5   0  0.4995625E-07  0.3162825E+04  0.7818609E-02  0.8198704E-01
        4   -1    0    0  501    0  0.00000000000E+00  0.00000000000E+00  0.18626148592E+04  0.18626152922E+04  0.12699999809E+01 0.  1.
       -4   -1    0    0    0  501  0.00000000000E+00  0.00000000000E+00 -0.13426630605E+04  0.13426636611E+04  0.12699999809E+01 0. -1.
    10030    2    1    2    0    0  0.00000000000E+00  0.00000000000E+00  0.51995179877E+03  0.32052789533E+04  0.31628252078E+04 0.  0.
        5    1    3    3  502    0  0.58405892812E+02 -0.11088775111E+04  0.14010661093E+04  0.17877440856E+04  0.46999998093E+01 0.  1.
       -5    1    3    3    0  502 -0.58405892812E+02  0.11088775111E+04 -0.88111431053E+03  0.14175348677E+04  0.46999998093E+01 0. -1.
</event>
<event>
 5   0  0.5233813E-07  0.3183988E+04  0.7818609E-02  0.8193059E-01
        1   -1    0    0  501    0  0.00000000000E+00  0.00000000000E+00  0.16235570731E+04  0.16235570731E+04  0.50400001928E-02 0. -1.
       -1   -1    0    0    0  501  0.00000000000E+00  0.00000000000E+00 -0.15610441746E+04  0.15610441746E+04  0.50400001928E-02 0.  1.
    10030    2    1    2    0    0  0.00000000000E+00  0.00000000000E+00  0.62512898480E+02  0.31846012477E+04  0.31839876326E+04 0.  0.
        4    1    3    3  502    0  0.13268316417E+04  0.87722669622E+03 -0.35343290614E+02  0.15909932882E+04  0.12699999809E+01 0. -1.
       -4    1    3    3    0  502 -0.13268316417E+04 -0.87722669622E+03  0.97856189094E+02  0.15936079595E+04  0.12699999809E+01 0.  1.
</event>
<event>
 5   0  0.5281187E-07  0.3192596E+04  0.7818609E-02  0.8190775E-01
       -1   -1    0    0    0  501  0.00000000000E+00  0.00000000000E+00  0.19060749981E+04  0.19060749981E+04  0.50400001928E-02 0. -1.
        1   -1    0    0  501    0  0.00000000000E+00  0.00000000000E+00 -0.13368666443E+04  0.13368666443E+04  0.50400001928E-02 0.  1.
    10030    2    1    2    0    0  0.00000000000E+00  0.00000000000E+00  0.56920835376E+03  0.32429416424E+04  0.31925964897E+04 0.  0.
        5    1    3    3  502    0 -0.50211489165E+03  0.12694057915E+03  0.18183528946E+04  0.18906778187E+04  0.46999998093E+01 0. -1.
       -5    1    3    3    0  502  0.50211489165E+03 -0.12694057915E+03 -0.12491445408E+04  0.13522638237E+04  0.46999998093E+01 0.  1.
</event>
<event>
 5   0  0.1493485E-06  0.3206591E+04  0.7818609E-02  0.8187079E-01
       -2   -1    0    0    0  501  0.00000000000E+00  0.00000000000E+00  0.14425040244E+04  0.14425040244E+04  0.25500000920E-02 0.  1.
        2   -1    0    0  501    0  0.00000000000E+00  0.00000000000E+00 -0.17820100901E+04  0.17820100901E+04  0.25500000920E-02 0. -1.
    10030    2    1    2    0    0  0.00000000000E+00  0.00000000000E+00 -0.33950606564E+03  0.32245141145E+04  0.32065911660E+04 0.  0.
        2    1    3    3  502    0  0.56199813602E+03  0.13319708285E+04 -0.86685828691E+03  0.16856546154E+04  0.25500000920E-02 0. -1.
       -2    1    3    3    0  502 -0.56199813602E+03 -0.13319708285E+04  0.52735222127E+03  0.15388594991E+04  0.25500000920E-02 0.  1.
</event>
<event>
 5   0  0.5233813E-07  0.3185879E+04  0.7818609E-02  0.8192556E-01
        1   -1    0    0  501    0  0.00000000000E+00  0.00000000000E+00  0.11901473365E+04  0.11901473365E+04  0.50400001928E-02 0. -1.
       -1   -1    0    0    0  501  0.00000000000E+00  0.00000000000E+00 -0.21320523230E+04  0.21320523230E+04  0.50400001928E-02 0.  1.
    10030    2    1    2    0    0  0.00000000000E+00  0.00000000000E+00 -0.94190498650E+03  0.33221996596E+04  0.31858790897E+04 0.  0.
        4    1    3    3  502    0  0.14438970530E+04 -0.63136387685E+03 -0.22863979524E+03  0.15923997028E+04  0.12699999809E+01 0.  1.
       -4    1    3    3    0  502 -0.14438970530E+04  0.63136387685E+03 -0.71326519126E+03  0.17297999568E+04  0.12699999809E+01 0. -1.
</event>
<event>
 5   0  0.1572769E-06  0.3205753E+04  0.7818609E-02  0.8187299E-01
       -2   -1    0    0    0  501  0.00000000000E+00  0.00000000000E+00  0.22216422111E+04  0.22216422111E+04  0.25500000920E-02 0. -1.
        2   -1    0    0  501    0  0.00000000000E+00  0.00000000000E+00 -0.11564477191E+04  0.11564477191E+04  0.25500000920E-02 0.  1.
    10030    2    1    2    0    0  0.00000000000E+00  0.00000000000E+00  0.10651944920E+04  0.33780899302E+04  0.32057529959E+04 0.  0.
        5    1    3    3  502    0 -0.84021394725E+03  0.25128891638E+03 -0.88120185980E+03  0.12432394799E+04  0.46999998093E+01 0.  1.
       -5    1    3    3    0  502  0.84021394725E+03 -0.25128891638E+03  0.19463963518E+04  0.21348504503E+04  0.46999998093E+01 0. -1.
</event>
<event>
 5   0  0.5281187E-07  0.3219831E+04  0.7818609E-02  0.8183600E-01
       -1   -1    0    0    0  501  0.00000000000E+00  0.00000000000E+00  0.11206282111E+04  0.11206282111E+04  0.50400001928E-02 0. -1.
        1   -1    0    0  501    0  0.00000000000E+00  0.00000000000E+00 -0.23128343119E+04  0.23128343119E+04  0.50400001928E-02 0.  1.
    10030    2    1    2    0    0  0.00000000000E+00  0.00000000000E+00 -0.11922061008E+04  0.34334625230E+04  0.32198306648E+04 0.  0.
        5    1    3    3  502    0  0.11989131800E+04 -0.11694883918E+03  0.54281308803E+03  0.13212637824E+04  0.46999998093E+01 0. -1.
       -5    1    3    3    0  502 -0.11989131800E+04  0.11694883918E+03 -0.17350191888E+04  0.21121987406E+04  0.46999998093E+01 0.  1.
</event>
<event>
 5   0  0.5370912E-07  0.3223341E+04  0.7818609E-02  0.8182680E-01
        1   -1    0    0  501    0  0.00000000000E+00  0.00000000000E+00  0.16498374184E+04  0.16498374184E+04  0.50400001928E-02 0. -1.
       -1   -1    0    0    0  501  0.00000000000E+00  0.00000000000E+00 -0.15743863065E+04  0.15743863065E+04  0.50400001928E-02 0.  1.
    10030    2    1    2    0    0  0.00000000000E+00  0.00000000000E+00  0.75451111935E+02  0.32242237249E+04  0.32233407760E+04 0.  0.
        1    1    3    3  502    0  0.52848780303E+02 -0.19216776824E+03 -0.15620123751E+04  0.15746758729E+04  0.50400001928E-02 0.  1.
       -1    1    3    3    0  502 -0.52848780303E+02  0.19216776824E+03  0.16374634870E+04  0.16495478520E+04  0.50400001928E-02 0. -1.
</event>
<event>
 5   0  0.1493485E-06  0.3171665E+04  0.7818609E-02  0.8196341E-01
        2   -1    0    0  501    0  0.00000000000E+00  0.00000000000E+00  0.20958887591E+04  0.20958887591E+04  0.25500000920E-02 0.  1.
       -2   -1    0    0    0  501  0.00000000000E+00  0.00000000000E+00 -0.11999037692E+04  0.11999037692E+04  0.25500000920E-02 0. -1.
    10030    2    1    2    0    0  0.00000000000E+00  0.00000000000E+00  0.89598498990E+03  0.32957925282E+04  0.31716650654E+04 0.  0.
        2    1    3    3  502    0  0.16747021183E+03 -0.68004730469E+03 -0.10304886800E+04  0.12459604841E+04  0.25500000920E-02 0. -1.
       -2    1    3    3    0  502 -0.16747021183E+03  0.68004730469E+03  0.19264736698E+04  0.20498320441E+04  0.25500000920E-02 0.  1.
</event>
<event>
 5   0  0.5281187E-07  0.3210579E+04  0.7818609E-02  0.8186029E-01
        1   -1    0    0  501    0  0.00000000000E+00  0.00000000000E+00  0.12533350996E+04  0.12533350996E+04  0.50400001928E-02 0. -1.
       -1   -1    0    0    0  501  0.00000000000E+00  0.00000000000E+00 -0.20560778507E+04  0.20560778507E+04  0.50400001928E-02 0.  1.
    10030    2    1    2    0    0  0.00000000000E+00  0.00000000000E+00 -0.80274275116E+03  0.33094129503E+04  0.32105790990E+04 0.  0.
        5    1    3    3  502    0 -0.12566227807E+04 -0.51443164803E+03  0.48125390421E+03  0.14406138080E+04  0.46999998093E+01 0. -1.
       -5    1    3    3    0  502  0.12566227807E+04  0.51443164803E+03 -0.12839966554E+04  0.18687991423E+04  0.46999998093E+01 0.  1.
</event>
<event>
 5   0  0.1538349E-06  0.3210028E+04  0.7818609E-02  0.8186174E-01
       -2   -1    0    0    0  501  0.00000000000E+00  0.00000000000E+00  0.18873017986E+04  0.18873017986E+04  0.25500000920E-02 0.  1.
        2   -1    0    0  501    0  0.00000000000E+00  0.00000000000E+00 -0.13649483362E+04  0.13649483362E+04  0.25500000920E-02 0. -1.
    10030    2    1    2    0    0  0.00000000000E+00  0.00000000000E+00  0.52235346240E+03  0.32522501349E+04  0.32100276946E+04 0.  0.
        1    1    3    3  502    0 -0.70524293738E+03 -0.94438999479E+03  0.13649231481E+04  0.18034010267E+04  0.50400001928E-02 0.  1.
       -1    1    3    3    0  502  0.70524293738E+03  0.94438999479E+03 -0.84256968567E+03  0.14488491082E+04  0.50400001928E-02 0. -1.
</event>
<event>
 5   0  0.5370912E-07  0.3192955E+04  0.7818609E-02  0.8190680E-01
       -1   -1    0    0    0  501  0.00000000000E+00  0.00000000000E+00  0.11552704971E+04  0.11552704971E+04  0.50400001928E-02 0. -1.
        1   -1    0    0  501    0  0.00000000000E+00  0.00000000000E+00 -0.22061853146E+04  0.22061853146E+04  0.50400001928E-02 0.  1.
    10030    2    1    2    0    0  0.00000000000E+00  0.00000000000E+00 -0.10509148174E+04  0.33614558117E+04  0.31929552488E+04 0.  0.
        1    1    3    3  502    0  0.82424965957E+03  0.38172878125E+03  0.85669969001E+03  0.12486147215E+04  0.50400001928E-02 0. -1.
       -1    1    3    3    0  502 -0.82424965957E+03 -0.38172878125E+03 -0.19076145074E+04  0.21128410903E+04  0.50400001928E-02 0.  1.
</event>
<event>
 5   0  0.5317728E-07  0.3202188E+04  0.7818609E-02  0.8188240E-01
        1   -1    0    0  501    0  0.00000000000E+00  0.00000000000E+00  0.14840507529E+04  0.14840507529E+04  0.50400001928E-02 0.  1.
       -1   -1    0    0    0  501  0.00000000000E+00  0.00000000000E+00 -0.17273682200E+04  0.17273682200E+04  0.50400001928E-02 0. -1.
    10030    2    1    2    0    0  0.00000000000E+00  0.00000000000E+00 -0.24331746713E+03  0.32114189729E+04  0.32021880691E+04 0.  0.
        2    1    3    3  502    0  0.36480159679E+02  0.45098387770E+03 -0.16619196603E+04  0.17224094221E+04  0.25500000920E-02 0. -1.
       -2    1    3    3    0  502 -0.36480159679E+02 -0.45098387770E+03  0.14186021932E+04  0.14890095508E+04  0.25500000920E-02 0.  1.
</event>
<event>
 5   0  0.1508771E-06  0.3149028E+04  0.7818609E-02  0.8202410E-01
        2   -1    0    0  501    0  0.00000000000E+00  0.00000000000E+00  0.21016810311E+04  0.21016810311E+04  0.25500000920E-02 0. -1.
       -2   -1    0    0    0  501  0.00000000000E+00  0.00000000000E+00 -0.11795766562E+04  0.11795766562E+04  0.25500000920E-02 0.  1.
    10030    2    1    2    0    0  0.00000000000E+00  0.00000000000E+00  0.92210437494E+03  0.32812576873E+04  0.31490277122E+04 0.  0.
        4    1    3    3  502    0 -0.71924817141E+03  0.85453170227E+03 -0.69529930084E+03  0.13156690666E+04  0.12699999809E+01 0.  1.
       -4    1    3    3    0  502  0.71924817141E+03 -0.85453170227E+03  0.16174036758E+04  0.19655886206E+04  0.12699999809E+01 0. -1.
</event>
<event>
 5   0  0.1493485E-06  0.3202328E+04  0.7818609E-02  0.8188203E-01
        2   -1    0    0  501    0  0.00000000000E+00  0.00000000000E+00  0.15444237324E+04  0.15444237324E+04  0.25500000920E-02 0. -1.
       -2   -1    0    0    0  501  0.00000000000E+00  0.00000000000E+00 -0.16599884417E+04  0.16599884417E+04  0.25500000920E-02 0.  1.
    10030    2    1    2    0    0  0.00000000000E+00  0.00000000000E+00 -0.11556470937E+03  0.32044121741E+04  0.32023276190E+04 0.  0.
        2    1    3    3  502    0 -0.98765020775E+03  0.12596756347E+04 -0.96406797219E+02  0.16035990484E+04  0.25500000920E-02 0. -1.
       -2    1    3    3    0  502  0.98765020775E+03 -0.12596756347E+04 -0.19157912153E+02  0.16008131256E+04  0.25500000920E-02 0.  1.
</event>
<event>
 5   0  0.1508771E-06  0.3184943E+04  0.7818609E-02  0.8192805E-01
        2   -1    0    0  501    0  0.00000000000E+00  0.00000000000E+00  0.20105223512E+04  0.20105223512E+04  0.25500000920E-02 0.  1.
       -2   -1    0    0    0  501  0.00000000000E+00  0.00000000000E+00 -0.12613466529E+04  0.12613466529E+04  0.25500000920E-02 0. -1.
    10030    2    1    2    0    0  0.00000000000E+00  0.00000000000E+00  0.74917569825E+03  0.32718690041E+04  0.31849431004E+04 0.  0.
        4    1    3    3  502    0  0.11629279027E+04  0.50806619372E+03 -0.61366109595E+03  0.14096503529E+04  0.12699999809E+01 0. -1.
       -4    1    3    3    0  502 -0.11629279027E+04 -0.50806619372E+03  0.13628367942E+04  0.18622186511E+04  0.12699999809E+01 0.  1.
</event>
<event>
 5   0  0.5317728E-07  0.3234526E+04  0.7818609E-02  0.8179758E-01
       -1   -1    0    0    0  501  0.00000000000E+00  0.00000000000E+00  0.16980315591E+04  0.16980315591E+04  0.50400001928E-02 0.  1.
        1   -1    0    0  501    0  0.00000000000E+00  0.00000000000E+00 -0.15403361404E+04  0.15403361404E+04  0.50400001928E-02 0. -1.
    10030    2    1    2    0    0  0.00000000000E+00  0.00000000000E+00  0.15769541866E+03  0.32383676995E+04  0.32345258558E+04 0.  0.
        2    1    3    3  502    0  0.54838012548E+03  0.54578785493E+03 -0.13430272326E+04  0.15499442868E+04  0.25500000920E-02 0. -1.
       -2    1    3    3    0  502 -0.54838012548E+03 -0.54578785493E+03  0.15007226512E+04  0.16884234127E+04  0.25500000920E-02 0.  1.
</event>
<event>
 5   0  0.1538349E-06  0.3199022E+04  0.7818609E-02  0.8189075E-01
       -2   -1    0    0    0  501  0.00000000000E+00  0.00000000000E+00  0.13180168440E+04  0.13180168440E+04  0.25500000920E-02 0. -1.
        2   -1    0    0  501    0  0.00000000000E+00  0.00000000000E+00 -0.19411255444E+04  0.19411255444E+04  0.25500000920E-02 0.  1.
    10030    2    1    2    0    0  0.00000000000E+00  0.00000000000E+00 -0.62310870039E+03  0.32591423884E+04  0.31990224531E+04 0.  0.
        1    1    3    3  502    0  0.88276453614E+03  0.12911077825E+04 -0.65281758512E+03  0.16948166071E+04  0.50400001928E-02 0.  1.
       -1    1    3    3    0  502 -0.88276453614E+03 -0.12911077825E+04  0.29708884737E+02  0.15643257813E+04  0.50400001928E-02 0. -1.
</event>
<event>
 5   0  0.5233813E-07  0.3156999E+04  0.7818609E-02  0.8200267E-01
       -1   -1    0    0    0  501  0.00000000000E+00  0.00000000000E+00  0.15743670238E+04  0.15743670238E+04  0.50400001928E-02 0.  1.
        1   -1    0    0  501    0  0.00000000000E+00  0.00000000000E+00 -0.15826433118E+04  0.15826433118E+04  0.50400001928E-02 0. -1.
    10030    2    1    2    0    0  0.00000000000E+00  0.00000000000E+00 -0.82762879833E+01  0.31570103356E+04  0.31569994872E+04 0.  0.
        4    1    3    3  502    0 -0.35676437519E+03  0.13647868511E+04 -0.71247373357E+03  0.15803621111E+04  0.12699999809E+01 0. -1.
       -4    1    3    3    0  502  0.35676437519E+03 -0.13647868511E+04  0.70419744559E+03  0.15766482245E+04  0.12699999809E+01 0.  1.
</event>
<event>
 5   0  0.5317728E-07  0.3201091E+04  0.7818609E-02  0.8188529E-01
       -1   -1    0    0    0  501  0.00000000000E+00  0.00000000000E+00  0.10996902309E+04  0.10996902310E+04  0.50400001928E-02 0. -1.
        1   -1    0    0  501    0  0.00000000000E+00  0.00000000000E+00 -0.23295152991E+04  0.23295152991E+04  0.50400001928E-02 0.  1.
    10030    2    1    2    0    0  0.00000000000E+00  0.00000000000E+00 -0.12298250681E+04  0.34292055300E+04  0.32010905749E+04 0.  0.
        2    1    3    3  502    0 -0.54479635529E+02  0.16763073868E+03  0.10892614152E+04  0.11034303448E+04  0.25500000920E-02 0. -1.
       -2    1    3    3    0  502  0.54479635529E+02 -0.16763073868E+03 -0.23190864833E+04  0.23257751852E+04  0.25500000920E-02 0.  1.
</event>
<event>
 5   0  0.5370912E-07  0.3204787E+04  0.7818609E-02  0.8187554E-01
        1   -1    0    0  501    0  0.00000000000E+00  0.00000000000E+00  0.18240512644E+04  0.18240512644E+04  0.50400001928E-02 0. -1.
       -1   -1    0    0    0  501  0.00000000000E+00  0.00000000000E+00 -0.14076711125E+04  0.14076711125E+04  0.50400001928E-02 0.  1.
    10030    2    1    2    0    0  0.00000000000E+00  0.00000000000E+00  0.41638015183E+03  0.32317223769E+04  0.32047865905E+04 0.  0.
        1    1    3    3  502    0  0.37257411225E+02  0.76503398936E+03  0.16274994643E+04  0.17987272239E+04  0.50400001928E-02 0. -1.
       -1    1    3    3    0  502 -0.37257411225E+02 -0.76503398936E+03 -0.12111193125E+04  0.14329951530E+04  0.50400001928E-02 0.  1.
</event>
<event>
 5   0  0.1538349E-06  0.3185403E+04  0.7818609E-02  0.8192683E-01
       -2   -1    0    0    0  501  0.00000000000E+00  0.00000000000E+00  0.87844514235E+03  0.87844514236E+03  0.25500000920E-02 0. -1.
        2   -1    0    0  501    0  0.00000000000E+00  0.00000000000E+00 -0.28877144938E+04  0.28877144938E+04  0.25500000920E-02 0.  1.
    10030    2    1    2    0    0  0.00000000000E+00  0.00000000000E+00 -0.20092693514E+04  0.37661596361E+04  0.31854034404E+04 0.  0.
        1    1    3    3  502    0  0.77627869995E+03  0.12105326839E+04 -0.18140699259E+04  0.23149185072E+04  0.50400001928E-02 0.  1.
       -1    1    3    3    0  502 -0.77627869995E+03 -0.12105326839E+04 -0.19519942550E+03  0.14512411290E+04  0.50400001928E-02 0. -1.
</event>
<event>
 5   0  0.5177039E-07  0.3249727E+04  0.7818609E-02  0.8175806E-01
        1   -1    0    0  501    0  0.00000000000E+00  0.00000000000E+00  0.14197800492E+04  0.14197800492E+04  0.50400001928E-02 0.  1.
       -1   -1    0    0    0  501  0.00000000000E+00  0.00000000000E+00 -0.18595711467E+04  0.18595711467E+04  0.50400001928E-02 0. -1.
    10030    2    1    2    0    0  0.00000000000E+00  0.00000000000E+00 -0.43979109750E+03  0.32793511958E+04  0.32497273818E+04 0.  0.
        3    1    3    3  502    0 -0.35281177276E+03  0.15139186573E+04  0.25744518409E+03  0.15756598240E+04  0.10100000352E+00 0. -1.
       -3    1    3    3    0  502  0.35281177276E+03 -0.15139186573E+04 -0.69723628160E+03  0.17036913718E+04  0.10100000352E+00 0.  1.
</event>
<event>
 5   0  0.5281187E-07  0.3200199E+04  0.7818609E-02  0.8188765E-01
        1   -1    0    0  501    0  0.00000000000E+00  0.00000000000E+00  0.20151993649E+04  0.20151993649E+04  0.50400001928E-02 0. -1.
       -1   -1    0    0    0  501  0.00000000000E+00  0.00000000000E+00 -0.12705040840E+04  0.12705040840E+04  0.50400001928E-02 0.  1.
    10030    2    1    2    0    0  0.00000000000E+00  0.00000000000E+00  0.74469528093E+03  0.32857034489E+04  0.32001993833E+04 0.  0.
        5    1    3    3  502    0  0.10023692837E+04  0.10127095828E+04 -0.37509489803E+03  0.14734460128E+04  0.46999998093E+01 0.  1.
       -5    1    3    3    0  502 -0.10023692837E+04 -0.10127095828E+04  0.11197901790E+04  0.18122574362E+04  0.46999998093E+01 0. -1.
</event>
<event>
 5   0  0.5177039E-07  0.3502724E+04  0.7818609E-02  0.8113145E-01
        1   -1    0    0  501    0  0.00000000000E+00  0.00000000000E+00  0.23593153911E+04  0.23593153911E+04  0.50400001928E-02 0. -1.
       -1   -1    0    0    0  501  0.00000000000E+00  0.00000000000E+00 -0.13000676101E+04  0.13000676101E+04  0.50400001928E-02 0.  1.
    10030    2    1    2    0    0  0.00000000000E+00  0.00000000000E+00  0.10592477810E+04  0.36593830013E+04  0.35027243809E+04 0.  0.
        3    1    3    3  502    0 -0.10205683385E+04  0.51027347812E+03  0.19177053226E+04  0.22314866055E+04  0.10100000352E+00 0. -1.
       -3    1    3    3    0  502  0.10205683385E+04 -0.51027347812E+03 -0.85845754164E+03  0.14278963957E+04  0.10100000352E+00 0.  1.
</event>
<event>
 5   0  0.1493485E-06  0.3211035E+04  0.7818609E-02  0.8185909E-01
        2   -1    0    0  501    0  0.00000000000E+00  0.00000000000E+00  0.15798001030E+04  0.15798001030E+04  0.25500000920E-02 0.  1.
       -2   -1    0    0    0  501  0.00000000000E+00  0.00000000000E+00 -0.16316531148E+04  0.16316531148E+04  0.25500000920E-02 0. -1.
    10030    2    1    2    0    0  0.00000000000E+00  0.00000000000E+00 -0.51853011775E+02  0.32114532178E+04  0.32110345740E+04 0.  0.
        2    1    3    3  502    0 -0.14589758606E+04 -0.44726132717E+03  0.47317012062E+03  0.15976680568E+04  0.25500000920E-02 0.  1.
       -2    1    3    3    0  502  0.14589758606E+04  0.44726132717E+03 -0.52502313240E+03  0.16137851611E+04  0.25500000920E-02 0. -1.
</event>
<event>
 5   0  0.1493485E-06  0.3198408E+04  0.7818609E-02  0.8189238E-01
       -2   -1    0    0    0  501  0.00000000000E+00  0.00000000000E+00  0.22200523486E+04  0.22200523486E+04  0.25500000920E-02 0.  1.
        2   -1    0    0  501    0  0.00000000000E+00  0.00000000000E+00 -0.11519787821E+04  0.11519787821E+04  0.25500000920E-02 0. -1.
    10030    2    1    2    0    0  0.00000000000E+00  0.00000000000E+00  0.10680735665E+04  0.33720311307E+04  0.31984078544E+04 0.  0.
        2    1    3    3  502    0  0.12072357244E+04  0.16333400523E+03  0.16263063936E+04  0.20319863625E+04  0.25500000920E-02 0.  1.
       -2    1    3    3    0  502 -0.12072357244E+04 -0.16333400523E+03 -0.55823282713E+03  0.13400447682E+04  0.25500000920E-02 0. -1.
</event>
<event>
 5   0  0.1508771E-06  0.3529091E+04  0.7818609E-02  0.8106930E-01
       -2   -1    0    0    0  501  0.00000000000E+00  0.00000000000E+00  0.21289304084E+04  0.21289304084E+04  0.25500000920E-02 0.  1.
        2   -1    0    0  501    0  0.00000000000E+00  0.00000000000E+00 -0.14625280448E+04  0.14625280448E+04  0.25500000920E-02 0. -1.
    10030    2    1    2    0    0  0.00000000000E+00  0.00000000000E+00  0.66640236367E+03  0.35914584532E+04  0.35290907768E+04 0.  0.
        4    1    3    3  502    0  0.64536517428E+03  0.96979574097E+03 -0.10155964159E+04  0.15454571104E+04  0.12699999809E+01 0. -1.
       -4    1    3    3    0  502 -0.64536517428E+03 -0.96979574097E+03  0.16819987795E+04  0.20460013428E+04  0.12699999809E+01 0.  1.
</event>
<event>
 5   0  0.4995625E-07  0.3196754E+04  0.7818609E-02  0.8189675E-01
       -3   -1    0    0    0  501  0.00000000000E+00  0.00000000000E+00  0.12045279562E+04  0.12045279604E+04  0.10100000352E+00 0. -1.
        3   -1    0    0  501    0  0.00000000000E+00  0.00000000000E+00 -0.21210043109E+04  0.21210043134E+04  0.10100000352E+00 0.  1.
    10030    2    1    2    0    0  0.00000000000E+00  0.00000000000E+00 -0.91647635476E+03  0.33255322738E+04  0.31967539779E+04 0.  0.
        1    1    3    3  502    0  0.41966182811E+03  0.15417771859E+04 -0.50005782759E+03  0.16742911252E+04  0.50400001928E-02 0.  1.
       -1    1    3    3    0  502 -0.41966182811E+03 -0.15417771859E+04 -0.41641852717E+03  0.16512411486E+04  0.50400001928E-02 0. -1.
</event>
<event>
 5   0  0.5177039E-07  0.3238135E+04  0.7818609E-02  0.8178818E-01
        1   -1    0    0  501    0  0.00000000000E+00  0.00000000000E+00  0.15424874162E+04  0.15424874162E+04  0.50400001928E-02 0.  1.
       -1   -1    0    0    0  501  0.00000000000E+00  0.00000000000E+00 -0.16994499098E+04  0.16994499098E+04  0.50400001928E-02 0. -1.
    10030    2    1    2    0    0  0.00000000000E+00  0.00000000000E+00 -0.15696249360E+03  0.32419373261E+04  0.32381353279E+04 0.  0.
        3    1    3    3  502    0 -0.10144044059E+03 -0.27966828260E+03  0.15148884313E+04  0.15438236560E+04  0.10100000352E+00 0.  1.
       -3    1    3    3    0  502  0.10144044059E+03  0.27966828260E+03 -0.16718509249E+04  0.16981136701E+04  0.10100000352E+00 0. -1.
</event>
<event>
 5   0  0.5233813E-07  0.3222021E+04  0.7818609E-02  0.8183026E-01
        1   -1    0    0  501    0  0.00000000000E+00  0.00000000000E+00  0.30058914528E+04  0.30058914529E+04  0.50400001928E-02 0. -1.
       -1   -1    0    0    0  501  0.00000000000E+00  0.00000000000E+00 -0.86342283685E+03  0.86342283686E+03  0.50400001928E-02 0.  1.
    10030    2    1    2    0    0  0.00000000000E+00  0.00000000000E+00  0.21424686160E+04  0.38693142897E+04  0.32220213069E+04 0.  0.
        4    1    3    3  502    0 -0.14121553353E+04  0.77342934077E+03  0.11367693402E+04  0.19709443883E+04  0.12699999809E+01 0.  1.
       -4    1    3    3    0  502  0.14121553353E+04 -0.77342934077E+03  0.10056992758E+04  0.18983699014E+04  0.12699999809E+01 0. -1.
</event>
<event>
 5   0  0.1572769E-06  0.3202888E+04  0.7818609E-02  0.8188055E-01
       -2   -1    0    0    0  501  0.00000000000E+00  0.00000000000E+00  0.18236314646E+04  0.18236314646E+04  0.25500000920E-02 0.  1.
        2   -1    0    0  501    0  0.00000000000E+00  0.00000000000E+00 -0.14063277940E+04  0.14063277940E+04  0.25500000920E-02 0. -1.
    10030    2    1    2    0    0  0.00000000000E+00  0.00000000000E+00  0.41730367059E+03  0.32299592586E+04  0.32028884556E+04 0.  0.
        5    1    3    3  502    0 -0.15616409954E+04 -0.35479417370E+03  0.20879661532E+03  0.16149983346E+04  0.46999998093E+01 0. -1.
       -5    1    3    3    0  502  0.15616409954E+04  0.35479417370E+03  0.20850705527E+03  0.16149609241E+04  0.46999998093E+01 0.  1.
</event>
<event>
 5   0  0.5281187E-07  0.3206268E+04  0.7818609E-02  0.8187164E-01
       -1   -1    0    0    0  501  0.00000000000E+00  0.00000000000E+00  0.11919129676E+04  0.11919129676E+04  0.50400001928E-02 0. -1.
        1   -1    0    0  501    0  0.00000000000E+00  0.00000000000E+00 -0.21562300199E+04  0.21562300199E+04  0.50400001928E-02 0.  1.
    10030    2    1    2    0    0  0.00000000000E+00  0.00000000000E+00 -0.96431705234E+03  0.33481429875E+04  0.32062679376E+04 0.  0.
        5    1    3    3  502    0  0.13050350671E+04 -0.22363905172E+03  0.46165190534E+03  0.14022394673E+04  0.46999998093E+01 0. -1.
       -5    1    3    3    0  502 -0.13050350671E+04  0.22363905172E+03 -0.14259689577E+04  0.19459035203E+04  0.46999998093E+01 0.  1.
</event>
<event>
 5   0  0.5317728E-07  0.3182961E+04  0.7818609E-02  0.8193332E-01
        1   -1    0    0  501    0  0.00000000000E+00  0.00000000000E+00  0.13665736596E+04  0.13665736597E+04  0.50400001928E-02 0. -1.
       -1   -1    0    0    0  501  0.00000000000E+00  0.00000000000E+00 -0.18534024208E+04  0.18534024208E+04  0.50400001928E-02 0.  1.
    10030    2    1    2    0    0  0.00000000000E+00  0.00000000000E+00 -0.48682876111E+03  0.32199760804E+04  0.31829614694E+04 0.  0.
        2    1    3    3  502    0  0.30116587568E+03  0.64614427067E+03  0.11960194259E+04  0.13923597848E+04  0.25500000920E-02 0. -1.
       -2    1    3    3    0  502 -0.30116587568E+03 -0.64614427067E+03 -0.16828481870E+04  0.18276162956E+04  0.25500000920E-02 0.  1.
</event>
<event>
 5   0  0.1556396E-06  0.3192172E+04  0.7818609E-02  0.8190887E-01
        2   -1    0    0  501    0  0.00000000000E+00  0.00000000000E+00  0.16678022223E+04  0.16678022223E+04  0.25500000920E-02 0. -1.
       -2   -1    0    0    0  501  0.00000000000E+00  0.00000000000E+00 -0.15274539817E+04  0.15274539817E+04  0.25500000920E-02 0.  1.
    10030    2    1    2    0    0  0.00000000000E+00  0.00000000000E+00  0.14034824063E+03  0.31952562040E+04  0.31921723920E+04 0.  0.
        3    1    3    3  502    0  0.32588028030E+03 -0.95804959201E+03  0.13056412462E+04  0.16518946854E+04  0.10100000352E+00 0. -1.
       -3    1    3    3    0  502 -0.32588028030E+03  0.95804959201E+03 -0.11652930056E+04  0.15433615185E+04  0.10100000352E+00 0.  1.
</event>
<event>
 5   0  0.5177039E-07  0.3418840E+04  0.7818609E-02  0.8133298E-01
        1   -1    0    0  501    0  0.00000000000E+00  0.00000000000E+00  0.15350195637E+04  0.15350195637E+04  0.50400001928E-02 0.  1.
       -1   -1    0    0    0  501  0.00000000000E+00  0.00000000000E+00 -0.19036352463E+04  0.19036352463E+04  0.50400001928E-02 0. -1.
    10030    2    1    2    0    0  0.00000000000E+00  0.00000000000E+00 -0.36861568267E+03  0.34386548100E+04  0.34188403561E+04 0.  0.
        3    1    3    3  502    0 -0.48398827739E+03 -0.20771792960E+03 -0.18199944469E+04  0.18946691500E+04  0.10100000352E+00 0. -1.
       -3    1    3    3    0  502  0.48398827739E+03  0.20771792960E+03  0.14513787642E+04  0.15439856600E+04  0.10100000352E+00 0.  1.
</event>
<event>
 5   0  0.5177039E-07  0.3182028E+04  0.7818609E-02  0.8193580E-01
        1   -1    0    0  501    0  0.00000000000E+00  0.00000000000E+00  0.17226549757E+04  0.17226549757E+04  0.50400001928E-02 0.  1.
       -1   -1    0    0    0  501  0.00000000000E+00  0.00000000000E+00 -0.14694326485E+04  0.14694326485E+04  0.50400001928E-02 0. -1.
    10030    2    1    2    0    0  0.00000000000E+00  0.00000000000E+00  0.25322232722E+03  0.31920876242E+04  0.31820279467E+04 0.  0.
        3    1    3    3  502    0  0.74746928794E+03 -0.33902817544E+03 -0.12406632433E+04  0.14875804965E+04  0.10100000352E+00 0. -1.
       -3    1    3    3    0  502 -0.74746928794E+03  0.33902817544E+03  0.14938855705E+04  0.17045071276E+04  0.10100000352E+00 0.  1.
</event>
<event>
 5   0  0.5177039E-07  0.3200358E+04  0.7818609E-02  0.8188723E-01
       -1   -1    0    0    0  501  0.00000000000E+00  0.00000000000E+00  0.89595675486E+03  0.89595675487E+03  0.50400001928E-02 0.  1.
        1   -1    0    0  501    0  0.00000000000E+00  0.00000000000E+00 -0.28579202260E+04  0.28579202260E+04  0.50400001928E-02 0. -1.
    10030    2    1    2    0    0  0.00000000000E+00  0.00000000000E+00 -0.19619634712E+04  0.37538769809E+04  0.32003580621E+04 0.  0.
        3    1    3    3  502    0 -0.10740735336E+04 -0.76848771480E+03 -0.20407814861E+04  0.24308427361E+04  0.10100000352E+00 0. -1.
       -3    1    3    3    0  502  0.10740735336E+04  0.76848771480E+03  0.78818014921E+02  0.13230342448E+04  0.10100000352E+00 0.  1.
</event>
<event>
 5   0  0.5317728E-07  0.3197975E+04  0.7818609E-02  0.8189352E-01
       -1   -1    0    0    0  501  0.00000000000E+00  0.00000000000E+00  0.15028924021E+04  0.15028924021E+04  0.50400001928E-02 0.  1.
        1   -1    0    0  501    0  0.00000000000E+00  0.00000000000E+00 -0.17012268315E+04  0.17012268315E+04  0.50400001928E-02 0. -1.
    10030    2    1    2    0    0  0.00000000000E+00  0.00000000000E+00 -0.19833442943E+03  0.32041192336E+04  0.31979749088E+04 0.  0.
        2    1    3    3  502    0 -0.11397338448E+04  0.10847864152E+04 -0.38432971478E+03  0.16197111265E+04  0.25500000920E-02 0.  1.
       -2    1    3    3    0  502  0.11397338448E+04 -0.10847864152E+04  0.18599528535E+03  0.15844081071E+04  0.25500000920E-02 0. -1.
</event>
<event>
 5   0  0.5233813E-07  0.3204537E+04  0.7818609E-02  0.8187620E-01
        1   -1    0    0  501    0  0.00000000000E+00  0.00000000000E+00  0.19653200505E+04  0.19653200505E+04  0.50400001928E-02 0.  1.
       -1   -1    0    0    0  501  0.00000000000E+00  0.00000000000E+00 -0.13062830482E+04  0.13062830482E+04  0.50400001928E-02 0. -1.
    10030    2    1    2    0    0  0.00000000000E+00  0.00000000000E+00  0.65903700232E+03  0.32716030987E+04  0.32045369502E+04 0.  0.
        4    1    3    3  502    0  0.53532536696E+02 -0.15611633598E+04  0.69358493199E+03  0.17091396781E+04  0.12699999809E+01 0. -1.
       -4    1    3    3    0  502 -0.53532536696E+02  0.15611633598E+04 -0.34547929671E+02  0.15624634206E+04  0.12699999809E+01 0.  1.
</event>
<event>
 5   0  0.5233813E-07  0.3213560E+04  0.7818609E-02  0.8185245E-01
        1   -1    0    0  501    0  0.00000000000E+00  0.00000000000E+00  0.88407502240E+03  0.88407502241E+03  0.50400001928E-02 0. -1.
       -1   -1    0    0    0  501  0.00000000000E+00  0.00000000000E+00 -0.29202755891E+04  0.29202755891E+04  0.50400001928E-02 0.  1.
    10030    2    1    2    0    0  0.00000000000E+00  0.00000000000E+00 -0.20362005667E+04  0.38043506115E+04  0.32135604596E+04 0.  0.
        4    1    3    3  502    0 -0.94705335735E+02 -0.44882908229E+03  0.80491180863E+03  0.92644550747E+03  0.12699999809E+01 0. -1.
       -4    1    3    3    0  502  0.94705335735E+02  0.44882908229E+03 -0.28411123753E+04  0.28779051041E+04  0.12699999809E+01 0.  1.
</event>
<event>
 5   0  0.1556396E-06  0.3158740E+04  0.7818609E-02  0.8199800E-01
       -2   -1    0    0    0  501  0.00000000000E+00  0.00000000000E+00  0.11044182765E+04  0.11044182765E+04  0.25500000920E-02 0.  1.
        2   -1    0    0  501    0  0.00000000000E+00  0.00000000000E+00 -0.22585728171E+04  0.22585728171E+04  0.25500000920E-02 0. -1.
    10030    2    1    2    0    0  0.00000000000E+00  0.00000000000E+00 -0.11541545407E+04  0.33629910936E+04  0.31587396841E+04 0.  0.
        3    1    3    3  502    0 -0.90919294896E+02  0.12166718963E+04  0.49069584020E+03  0.13150434363E+04  0.10100000352E+00 0.  1.
       -3    1    3    3    0  502  0.90919294896E+02 -0.12166718963E+04 -0.16448503809E+04  0.20479476573E+04  0.10100000352E+00 0. -1.
</event>
<event>
 5   0  0.1508771E-06  0.3311646E+04  0.7818609E-02  0.8159938E-01
        2   -1    0    0  501    0  0.00000000000E+00  0.00000000000E+00  0.18596411396E+04  0.18596411396E+04  0.25500000920E-02 0. -1.
       -2   -1    0    0    0  501  0.00000000000E+00  0.00000000000E+00 -0.14743438212E+04  0.14743438212E+04  0.25500000920E-02 0.  1.
    10030    2    1    2    0    0  0.00000000000E+00  0.00000000000E+00  0.38529731840E+03  0.33339849608E+04  0.33116463723E+04 0.  0.
        4    1    3    3  502    0 -0.14997483717E+04 -0.13794135821E+03  0.88538597241E+03  0.17470497789E+04  0.12699999809E+01 0. -1.
       -4    1    3    3    0  502  0.14997483717E+04  0.13794135821E+03 -0.50008865400E+03  0.15869351819E+04  0.12699999809E+01 0.  1.
</event>
<event>
 5   0  0.1508771E-06  0.3269272E+04  0.7818609E-02  0.8170758E-01
        2   -1    0    0  501    0  0.00000000000E+00  0.00000000000E+00  0.12971241594E+04  0.12971241594E+04  0.25500000920E-02 0.  1.
       -2   -1    0    0    0  501  0.00000000000E+00  0.00000000000E+00 -0.20599689304E+04  0.20599689304E+04  0.25500000920E-02 0. -1.
    10030    2    1    2    0    0  0.00000000000E+00  0.00000000000E+00 -0.76284477095E+03  0.33570930898E+04  0.32692723761E+04 0.  0.
        4    1    3    3  502    0  0.16058623857E+04  0.30117011779E+03 -0.43313806619E+03  0.16902980917E+04  0.12699999809E+01 0.  1.
       -4    1    3    3    0  502 -0.16058623857E+04 -0.30117011779E+03 -0.32970670475E+03  0.16667949981E+04  0.12699999809E+01 0. -1.
</event>
<event>
 5   0  0.5281187E-07  0.3149773E+04  0.7818609E-02  0.8202209E-01
        1   -1    0    0  501    0  0.00000000000E+00  0.00000000000E+00  0.16391621237E+04  0.16391621237E+04  0.50400001928E-02 0.  1.
       -1   -1    0    0    0  501  0.00000000000E+00  0.00000000000E+00 -0.15131308638E+04  0.15131308638E+04  0.50400001928E-02 0. -1.
    10030    2    1    2    0    0  0.00000000000E+00  0.00000000000E+00  0.12603125989E+03  0.31522929875E+04  0.31497725633E+04 0.  0.
        5    1    3    3  502    0 -0.11773243844E+04  0.37297472622E+03 -0.91502879829E+03  0.15370434751E+04  0.46999998093E+01 0. -1.
       -5    1    3    3    0  502  0.11773243844E+04 -0.37297472622E+03  0.10410600582E+04  0.16152495124E+04  0.46999998093E+01 0.  1.
</event>
<event>
 5   0  0.5177039E-07  0.3190430E+04  0.7818609E-02  0.8191349E-01
        1   -1    0    0  501    0  0.00000000000E+00  0.00000000000E+00  0.22845495290E+04  0.22845495290E+04  0.50400001928E-02 0.  1.
       -1   -1    0    0    0  501  0.00000000000E+00  0.00000000000E+00 -0.11138786099E+04  0.11138786099E+04  0.50400001928E-02 0. -1.
    10030    2    1    2    0    0  0.00000000000E+00  0.00000000000E+00  0.11706709191E+04  0.33984281389E+04  0.31904299733E+04 0.  0.
        3    1    3    3  502    0 -0.43084840264E+03 -0.41690615288E+03 -0.98930498464E+03  0.11567910136E+04  0.10100000352E+00 0. -1.
       -3    1    3    3    0  502  0.43084840264E+03  0.41690615288E+03  0.21599759038E+04  0.22416371253E+04  0.10100000352E+00 0.  1.
</event>
<event>
 5   0  0.1508771E-06  0.3111849E+04  0.7818609E-02  0.8212494E-01
       -2   -1    0    0    0  501  0.00000000000E+00  0.00000000000E+00  0.14901866397E+04  0.14901866397E+04  0.25500000920E-02 0.  1.
        2   -1    0    0  501    0  0.00000000000E+00  0.00000000000E+00 -0.16245624337E+04  0.16245624337E+04  0.25500000920E-02 0. -1.
    10030    2    1    2    0    0  0.00000000000E+00  0.00000000000E+00 -0.13437579403E+03  0.31147490734E+04  0.31118491185E+04 0.  0.
        4    1    3    3  502    0  0.51364494560E+03  0.42896445306E+03  0.13387769378E+04  0.14967187225E+04  0.12699999809E+01 0.  1.
       -4    1    3    3    0  502 -0.51364494560E+03 -0.42896445306E+03 -0.14731527318E+04  0.16180303509E+04  0.12699999809E+01 0. -1.
</event>
<event>
 5   0  0.1572769E-06  0.3195136E+04  0.7818609E-02  0.8190103E-01
       -2   -1    0    0    0  501  0.00000000000E+00  0.00000000000E+00  0.13415092379E+04  0.13415092379E+04  0.25500000920E-02 0. -1.
        2   -1    0    0  501    0  0.00000000000E+00  0.00000000000E+00 -0.19025011162E+04  0.19025011162E+04  0.25500000920E-02 0.  1.
    10030    2    1    2    0    0  0.00000000000E+00  0.00000000000E+00 -0.56099187831E+03  0.32440103540E+04  0.31951355667E+04 0.  0.
        5    1    3    3  502    0 -0.12338494716E+04 -0.54083568973E+03  0.59130810448E+03  0.14712427149E+04  0.46999998093E+01 0.  1.
       -5    1    3    3    0  502  0.12338494716E+04  0.54083568973E+03 -0.11522999828E+04  0.17727676391E+04  0.46999998093E+01 0. -1.
</event>
<event>
 5   0  0.5281187E-07  0.3214476E+04  0.7818609E-02  0.8185005E-01
       -1   -1    0    0    0  501  0.00000000000E+00  0.00000000000E+00  0.24910816491E+04  0.24910816491E+04  0.50400001928E-02 0.  1.
        1   -1    0    0  501    0  0.00000000000E+00  0.00000000000E+00 -0.10369847404E+04  0.10369847404E+04  0.50400001928E-02 0. -1.
    10030    2    1    2    0    0  0.00000000000E+00  0.00000000000E+00  0.14540969087E+04  0.35280663895E+04  0.32144757937E+04 0.  0.
        5    1    3    3  502    0 -0.14989180509E+04 -0.47172989514E+03  0.35662192583E+03  0.16113614447E+04  0.46999998093E+01 0. -1.
       -5    1    3    3    0  502  0.14989180509E+04  0.47172989514E+03  0.10974749829E+04  0.19167049448E+04  0.46999998093E+01 0.  1.
</event>
<event>
 5   0  0.5177039E-07  0.3201588E+04  0.7818609E-02  0.8188398E-01
        1   -1    0    0  501    0  0.00000000000E+00  0.00000000000E+00  0.19344044219E+04  0.19344044219E+04  0.50400001928E-02 0.  1.
       -1   -1    0    0    0  501  0.00000000000E+00  0.00000000000E+00 -0.13247187548E+04  0.13247187548E+04  0.50400001928E-02 0. -1.
    10030    2    1    2    0    0  0.00000000000E+00  0.00000000000E+00  0.60968566711E+03  0.32591231767E+04  0.32015882415E+04 0.  0.
        3    1    3    3  502    0  0.14899228494E+04  0.55189546069E+03  0.10618691762E+03  0.15923989351E+04  0.10100000352E+00 0. -1.
       -3    1    3    3    0  502 -0.14899228494E+04 -0.55189546069E+03  0.50349874949E+03  0.16667242416E+04  0.10100000352E+00 0.  1.
</event>
<event>
 5   0  0.1493485E-06  0.3187229E+04  0.7818609E-02  0.8192198E-01
        2   -1    0    0  501    0  0.00000000000E+00  0.00000000000E+00  0.18248937129E+04  0.18248937129E+04  0.25500000920E-02 0.  1.
       -2   -1    0    0    0  501  0.00000000000E+00  0.00000000000E+00 -0.13916470151E+04  0.13916470151E+04  0.25500000920E-02 0. -1.
    10030    2    1    2    0    0  0.00000000000E+00  0.00000000000E+00  0.43324669780E+03  0.32165407280E+04  0.31872294480E+04 0.  0.
        2    1    3    3  502    0  0.35451304224E+03  0.65007829314E+02  0.17832208454E+04  0.18192806541E+04  0.25500000920E-02 0.  1.
       -2    1    3    3    0  502 -0.35451304224E+03 -0.65007829314E+02 -0.13499741476E+04  0.13972600739E+04  0.25500000920E-02 0. -1.
</event>
<event>
 5   0  0.1572769E-06  0.3191491E+04  0.7818609E-02  0.8191068E-01
        2   -1    0    0  501    0  0.00000000000E+00  0.00000000000E+00  0.16231001711E+04  0.16231001711E+04  0.25500000920E-02 0. -1.
       -2   -1    0    0    0  501  0.00000000000E+00  0.00000000000E+00 -0.15688520993E+04  0.15688520993E+04  0.25500000920E-02 0.  1.
    10030    2    1    2    0    0  0.00000000000E+00  0.00000000000E+00  0.54248071730E+02  0.31919522704E+04  0.31914912570E+04 0.  0.
        5    1    3    3  502    0  0.46365353353E+03  0.14981912978E+04  0.32183634298E+03  0.16009848487E+04  0.46999998093E+01 0. -1.
       -5    1    3    3    0  502 -0.46365353353E+03 -0.14981912978E+04 -0.26758827125E+03  0.15909674217E+04  0.46999998093E+01 0.  1.
</event>
<event>
 5   0  0.1538349E-06  0.3179913E+04  0.7818609E-02  0.8194142E-01
       -2   -1    0    0    0  501  0.00000000000E+00  0.00000000000E+00  0.14741974226E+04  0.14741974226E+04  0.25500000920E-02 0.  1.
        2   -1    0    0  501    0  0.00000000000E+00  0.00000000000E+00 -0.17148051996E+04  0.17148051996E+04  0.25500000920E-02 0. -1.
    10030    2    1    2    0    0  0.00000000000E+00  0.00000000000E+00 -0.24060777697E+03  0.31890026222E+04  0.31799128325E+04 0.  0.
        1    1    3    3  502    0 -0.58627193760E+03 -0.25293409427E+03  0.13399734449E+04  0.14843245177E+04  0.50400001928E-02 0.  1.
       -1    1    3    3    0  502  0.58627193760E+03  0.25293409427E+03 -0.15805812219E+04  0.17046781045E+04  0.50400001928E-02 0. -1.
</event>
<event>
 5   0  0.1508771E-06  0.3181491E+04  0.7818609E-02  0.8193723E-01
        2   -1    0    0  501    0  0.00000000000E+00  0.00000000000E+00  0.19308167700E+04  0.19308167700E+04  0.25500000920E-02 0.  1.
       -2   -1    0    0    0  501  0.00000000000E+00  0.00000000000E+00 -0.13105702019E+04  0.13105702019E+04  0.25500000920E-02 0. -1.
    10030    2    1    2    0    0  0.00000000000E+00  0.00000000000E+00  0.62024656812E+03  0.32413869719E+04  0.31814907978E+04 0.  0.
        4    1    3    3  502    0  0.83945293694E+03  0.73862702967E+02 -0.10644742418E+04  0.13576612083E+04  0.12699999809E+01 0. -1.
       -4    1    3    3    0  502 -0.83945293694E+03 -0.73862702967E+02  0.16847208099E+04  0.18837257636E+04  0.12699999809E+01 0.  1.
</event>
<event>
 5   0  0.1572769E-06  0.3173569E+04  0.7818609E-02  0.8195833E-01
        2   -1    0    0  501    0  0.00000000000E+00  0.00000000000E+00  0.19199917069E+04  0.19199917069E+04  0.25500000920E-02 0.  1.
       -2   -1    0    0    0  501  0.00000000000E+00  0.00000000000E+00 -0.13114039221E+04  0.13114039221E+04  0.25500000920E-02 0. -1.
    10030    2    1    2    0    0  0.00000000000E+00  0.00000000000E+00  0.60858778485E+03  0.32313956290E+04  0.31735687513E+04 0.  0.
        5    1    3    3  502    0  0.10973012942E+04 -0.43775282349E+03  0.13829190916E+04  0.18188416558E+04  0.46999998093E+01 0.  1.
       -5    1    3    3    0  502 -0.10973012942E+04  0.43775282349E+03 -0.77433130674E+03  0.14125539733E+04  0.46999998093E+01 0. -1.
</event>
<event>
 5   0  0.1556396E-06  0.3198737E+04  0.7818609E-02  0.8189151E-01
       -2   -1    0    0    0  501  0.00000000000E+00  0.00000000000E+00  0.10082884814E+04  0.10082884814E+04  0.25500000920E-02 0. -1.
        2   -1    0    0  501    0  0.00000000000E+00  0.00000000000E+00 -0.25369524704E+04  0.25369524704E+04  0.25500000920E-02 0.  1.
    10030    2    1    2    0    0  0.00000000000E+00  0.00000000000E+00 -0.15286639890E+04  0.35452409517E+04  0.31987372219E+04 0.  0.
        3    1    3    3  502    0  0.12781624896E+04  0.56502534824E+03 -0.16264258567E+04  0.21443446718E+04  0.10100000352E+00 0.  1.
       -3    1    3    3    0  502 -0.12781624896E+04 -0.56502534824E+03  0.97761867702E+02  0.14008962799E+04  0.10100000352E+00 0. -1.
</event>
<event>
 5   0  0.5233813E-07  0.3198194E+04  0.7818609E-02  0.8189294E-01
        1   -1    0    0  501    0  0.00000000000E+00  0.00000000000E+00  0.13661885831E+04  0.13661885831E+04  0.50400001928E-02 0. -1.
       -1   -1    0    0    0  501  0.00000000000E+00  0.00000000000E+00 -0.18717114039E+04  0.18717114039E+04  0.50400001928E-02 0.  1.
    10030    2    1    2    0    0  0.00000000000E+00  0.00000000000E+00 -0.50552282079E+03  0.32378999871E+04  0.31981937096E+04 0.  0.
        4    1    3    3  502    0  0.18367457605E+02  0.92422117616E+02 -0.18688976589E+04  0.18712721030E+04  0.12699999809E+01 0.  1.
       -4    1    3    3    0  502 -0.18367457605E+02 -0.92422117616E+02  0.13633748381E+04  0.13666278840E+04  0.12699999809E+01 0. -1.
</event>
<event>
 5   0  0.1572769E-06  0.3223539E+04  0.7818609E-02  0.8182628E-01
       -2   -1    0    0    0  501  0.00000000000E+00  0.00000000000E+00  0.15582801163E+04  0.15582801163E+04  0.25500000920E-02 0. -1.
        2   -1    0    0  501    0  0.00000000000E+00  0.00000000000E+00 -0.16670949128E+04  0.16670949128E+04  0.25500000920E-02 0.  1.
    10030    2    1    2    0    0  0.00000000000E+00  0.00000000000E+00 -0.10881479650E+03  0.32253750290E+04  0.32235389587E+04 0.  0.
        5    1    3    3  502    0 -0.22893235777E+03 -0.15212654852E+04  0.42661590930E+03  0.15964591836E+04  0.46999998093E+01 0. -1.
       -5    1    3    3    0  502  0.22893235777E+03  0.15212654852E+04 -0.53543070580E+03  0.16289158454E+04  0.46999998093E+01 0.  1.
</event>
<event>
 5   0  0.5281187E-07  0.3159845E+04  0.7818609E-02  0.8199503E-01
       -1   -1    0    0    0  501  0.00000000000E+00  0.00000000000E+00  0.10536912205E+04  0.10536912205E+04  0.50400001928E-02 0.  1.
        1   -1    0    0  501    0  0.00000000000E+00  0.00000000000E+00 -0.23689625854E+04  0.23689625854E+04  0.50400001928E-02 0. -1.
    10030    2    1    2    0    0  0.00000000000E+00  0.00000000000E+00 -0.13152713649E+04  0.34226538059E+04  0.31598449823E+04 0.  0.
        5    1    3    3  502    0  0.11628968095E+04  0.70282859507E+03 -0.15308062088E+04  0.20468724343E+04  0.46999998093E+01 0.  1.
       -5    1    3    3    0  502 -0.11628968095E+04 -0.70282859507E+03  0.21553484385E+03  0.13757813716E+04  0.46999998093E+01 0. -1.
</event>
<event>
 5   0  0.5281187E-07  0.3216532E+04  0.7818609E-02  0.8184465E-01
        1   -1    0    0  501    0  0.00000000000E+00  0.00000000000E+00  0.12789009353E+04  0.12789009353E+04  0.50400001928E-02 0. -1.
       -1   -1    0    0    0  501  0.00000000000E+00  0.00000000000E+00 -0.20224544973E+04  0.20224544973E+04  0.50400001928E-02 0.  1.
    10030    2    1    2    0    0  0.00000000000E+00  0.00000000000E+00 -0.74355356206E+03  0.33013554326E+04  0.32165316403E+04 0.  0.
        5    1    3    3  502    0 -0.35134026526E+03 -0.28093772480E+03 -0.19565586793E+04  0.20076129963E+04  0.46999998093E+01 0.  1.
       -5    1    3    3    0  502  0.35134026526E+03  0.28093772480E+03  0.12130051172E+04  0.12937424364E+04  0.46999998093E+01 0. -1.
</event>
<event>
 5   0  0.5281187E-07  0.3207659E+04  0.7818609E-02  0.8186797E-01
       -1   -1    0    0    0  501  0.00000000000E+00  0.00000000000E+00  0.12869596841E+04  0.12869596841E+04  0.50400001928E-02 0. -1.
        1   -1    0    0  501    0  0.00000000000E+00  0.00000000000E+00 -0.19987174511E+04  0.19987174511E+04  0.50400001928E-02 0.  1.
    10030    2    1    2    0    0  0.00000000000E+00  0.00000000000E+00 -0.71175776701E+03  0.32856771352E+04  0.32076588219E+04 0.  0.
        5    1    3    3  502    0  0.55835649620E+03 -0.52136954819E+01 -0.18959291368E+04  0.19764509964E+04  0.46999998093E+01 0.  1.
       -5    1    3    3    0  502 -0.55835649620E+03  0.52136954819E+01  0.11841713698E+04  0.13092261388E+04  0.46999998093E+01 0. -1.
</event>
<event>
 5   0  0.5370912E-07  0.2893393E+04  0.7818609E-02  0.8274846E-01
       -1   -1    0    0    0  501  0.00000000000E+00  0.00000000000E+00  0.14052166399E+04  0.14052166399E+04  0.50400001928E-02 0.  1.
        1   -1    0    0  501    0  0.00000000000E+00  0.00000000000E+00 -0.14894008559E+04  0.14894008559E+04  0.50400001928E-02 0. -1.
    10030    2    1    2    0    0  0.00000000000E+00  0.00000000000E+00 -0.84184216060E+02  0.28946174958E+04  0.28933930713E+04 0.  0.
        1    1    3    3  502    0  0.48294744508E+03  0.87346121982E+03 -0.10897974943E+04  0.14777791837E+04  0.50400001928E-02 0. -1.
       -1    1    3    3    0  502 -0.48294744508E+03 -0.87346121982E+03  0.10056132782E+04  0.14168383121E+04  0.50400001928E-02 0.  1.
</event>
<event>
 5   0  0.1556396E-06  0.3219614E+04  0.7818609E-02  0.8183656E-01
       -2   -1    0    0    0  501  0.00000000000E+00  0.00000000000E+00  0.12709691187E+04  0.12709691187E+04  0.25500000920E-02 0. -1.
        2   -1    0    0  501    0  0.00000000000E+00  0.00000000000E+00 -0.20389786264E+04  0.20389786264E+04  0.25500000920E-02 0.  1.
    10030    2    1    2    0    0  0.00000000000E+00  0.00000000000E+00 -0.76800950770E+03  0.33099477450E+04  0.32196141804E+04 0.  0.
        3    1    3    3  502    0 -0.77427773301E+03  0.49604795494E+03  0.97439671400E+03  0.13397830227E+04  0.10100000352E+00 0. -1.
       -3    1    3    3    0  502  0.77427773301E+03 -0.49604795494E+03 -0.17424062217E+04  0.19701647223E+04  0.10100000352E+00 0.  1.
</event>
<event>
 5   0  0.4995625E-07  0.3236922E+04  0.7818609E-02  0.8179134E-01
        4   -1    0    0  501    0  0.00000000000E+00  0.00000000000E+00  0.25113323365E+04  0.25113326576E+04  0.12699999809E+01 0. -1.
       -4   -1    0    0    0  501  0.00000000000E+00  0.00000000000E+00 -0.10430377518E+04  0.10430385250E+04  0.12699999809E+01 0.  1.
    10030    2    1    2    0    0  0.00000000000E+00  0.00000000000E+00  0.14682945846E+04  0.35543711826E+04  0.32369222290E+04 0.  0.
        2    1    3    3  502    0 -0.12841229045E+04 -0.89433244979E+03  0.28058376969E+03  0.15898205611E+04  0.25500000920E-02 0.  1.
       -2    1    3    3    0  502  0.12841229045E+04  0.89433244979E+03  0.11877108149E+04  0.19645506215E+04  0.25500000920E-02 0. -1.
</event>
<event>
 5   0  0.5233813E-07  0.3033613E+04  0.7818609E-02  0.8234197E-01
        1   -1    0    0  501    0  0.00000000000E+00  0.00000000000E+00  0.21346590579E+04  0.21346590579E+04  0.50400001928E-02 0. -1.
       -1   -1    0    0    0  501  0.00000000000E+00  0.00000000000E+00 -0.10777845731E+04  0.10777845731E+04  0.50400001928E-02 0.  1.
    10030    2    1    2    0    0  0.00000000000E+00  0.00000000000E+00  0.10568744848E+04  0.32124436309E+04  0.30336134238E+04 0.  0.
        4    1    3    3  502    0  0.13664620853E+04 -0.54281664206E+03  0.13387022970E+03  0.14764116597E+04  0.12699999809E+01 0. -1.
       -4    1    3    3    0  502 -0.13664620853E+04  0.54281664206E+03  0.92300425509E+03  0.17360319713E+04  0.12699999809E+01 0.  1.
</event>
<event>
 5   0  0.1493485E-06  0.3159744E+04  0.7818609E-02  0.8199530E-01
        2   -1    0    0  501    0  0.00000000000E+00  0.00000000000E+00  0.26158105337E+04  0.26158105337E+04  0.25500000920E-02 0.  1.
       -2   -1    0    0    0  501  0.00000000000E+00  0.00000000000E+00 -0.95419585491E+03  0.95419585492E+03  0.25500000920E-02 0. -1.
    10030    2    1    2    0    0  0.00000000000E+00  0.00000000000E+00  0.16616146788E+04  0.35700063886E+04  0.31597440203E+04 0.  0.
        2    1    3    3  502    0  0.33852597847E+03  0.15324971666E+04  0.10355803178E+04  0.18803122077E+04  0.25500000920E-02 0.  1.
       -2    1    3    3    0  502 -0.33852597847E+03 -0.15324971666E+04  0.62603436095E+03  0.16896941809E+04  0.25500000920E-02 0. -1.
</event>
<event>
 5   0  0.1493485E-06  0.3177230E+04  0.7818609E-02  0.8194857E-01
        2   -1    0    0  501    0  0.00000000000E+00  0.00000000000E+00  0.15027368436E+04  0.15027368436E+04  0.25500000920E-02 0.  1.
       -2   -1    0    0    0  501  0.00000000000E+00  0.00000000000E+00 -0.16794010486E+04  0.16794010486E+04  0.25500000920E-02 0. -1.
    10030    2    1    2    0    0  0.00000000000E+00  0.00000000000E+00 -0.17666420501E+03  0.31821378922E+04  0.31772301339E+04 0.  0.
        2    1    3    3  502    0  0.12893897776E+04 -0.27794491796E+03  0.79842722742E+03  0.15418383227E+04  0.25500000920E-02 0.  1.
       -2    1    3    3    0  502 -0.12893897776E+04  0.27794491796E+03 -0.97509143242E+03  0.16402995695E+04  0.25500000920E-02 0. -1.
</event>
<event>
 5   0  0.5370912E-07  0.3192732E+04  0.7818609E-02  0.8190739E-01
        1   -1    0    0  501    0  0.00000000000E+00  0.00000000000E+00  0.24308109047E+04  0.24308109047E+04  0.50400001928E-02 0. -1.
       -1   -1    0    0    0  501  0.00000000000E+00  0.00000000000E+00 -0.10483682686E+04  0.10483682687E+04  0.50400001928E-02 0.  1.
    10030    2    1    2    0    0  0.00000000000E+00  0.00000000000E+00  0.13824426361E+04  0.34791791734E+04  0.31927323844E+04 0.  0.
        1    1    3    3  502    0 -0.93843494509E+03  0.91466186913E+03  0.16846707422E+04  0.21343340860E+04  0.50400001928E-02 0. -1.
       -1    1    3    3    0  502  0.93843494509E+03 -0.91466186913E+03 -0.30222810609E+03  0.13448450874E+04  0.50400001928E-02 0.  1.
</event>
<event>
 5   0  0.1572769E-06  0.3176226E+04  0.7818609E-02  0.8195124E-01
       -2   -1    0    0    0  501  0.00000000000E+00  0.00000000000E+00  0.87025358527E+03  0.87025358527E+03  0.25500000920E-02 0. -1.
        2   -1    0    0  501    0  0.00000000000E+00  0.00000000000E+00 -0.28981246254E+04  0.28981246254E+04  0.25500000920E-02 0.  1.
    10030    2    1    2    0    0  0.00000000000E+00  0.00000000000E+00 -0.20278710401E+04  0.37683782107E+04  0.31762262802E+04 0.  0.
        5    1    3    3  502    0  0.12786289681E+04 -0.39234941835E+02 -0.21304749710E+04  0.24850306056E+04  0.46999998093E+01 0.  1.
       -5    1    3    3    0  502 -0.12786289681E+04  0.39234941835E+02  0.10260393083E+03  0.12833476051E+04  0.46999998093E+01 0. -1.
</event>
<event>
 5   0  0.5177039E-07  0.3205411E+04  0.7818609E-02  0.8187390E-01
       -1   -1    0    0    0  501  0.00000000000E+00  0.00000000000E+00  0.18631263122E+04  0.18631263122E+04  0.50400001928E-02 0.  1.
        1   -1    0    0  501    0  0.00000000000E+00  0.00000000000E+00 -0.13786855610E+04  0.13786855610E+04  0.50400001928E-02 0. -1.
    10030    2    1    2    0    0  0.00000000000E+00  0.00000000000E+00  0.48444075116E+03  0.32418118732E+04  0.32054112653E+04 0.  0.
        3    1    3    3  502    0  0.37504977195E+03  0.13116979089E+04 -0.60843258129E+03  0.14937884562E+04  0.10100000352E+00 0. -1.
       -3    1    3    3    0  502 -0.37504977195E+03 -0.13116979089E+04  0.10928733324E+04  0.17480234170E+04  0.10100000352E+00 0.  1.
</event>
<event>
 5   0  0.1508771E-06  0.3178774E+04  0.7818609E-02  0.8194445E-01
       -2   -1    0    0    0  501  0.00000000000E+00  0.00000000000E+00  0.16878454942E+04  0.16878454942E+04  0.25500000920E-02 0.  1.
        2   -1    0    0  501    0  0.00000000000E+00  0.00000000000E+00 -0.14966719933E+04  0.14966719933E+04  0.25500000920E-02 0. -1.
    10030    2    1    2    0    0  0.00000000000E+00  0.00000000000E+00  0.19117350085E+03  0.31845174875E+04  0.31787740280E+04 0.  0.
        4    1    3    3  502    0  0.15530337786E+04 -0.33775000294E+03  0.10827792594E+03  0.15930206226E+04  0.12699999809E+01 0.  1.
       -4    1    3    3    0  502 -0.15530337786E+04  0.33775000294E+03  0.82895574906E+02  0.15914968649E+04  0.12699999809E+01 0. -1.
</event>
<event>
 5   0  0.4995625E-07  0.2901143E+04  0.7818609E-02  0.8272538E-01
       -4   -1    0    0    0  501  0.00000000000E+00  0.00000000000E+00  0.16357848432E+04  0.16357853362E+04  0.12699999809E+01 0.  1.
        4   -1    0    0  501    0  0.00000000000E+00  0.00000000000E+00 -0.12863279752E+04  0.12863286022E+04  0.12699999809E+01 0. -1.
    10030    2    1    2    0    0  0.00000000000E+00  0.00000000000E+00  0.34945686794E+03  0.29221139384E+04  0.29011428379E+04 0.  0.
        2    1    3    3  502    0  0.25482929317E+03 -0.93417616996E+03  0.12625979343E+04  0.15911557526E+04  0.25500000920E-02 0.  1.
       -2    1    3    3    0  502 -0.25482929317E+03  0.93417616996E+03 -0.91314106638E+03  0.13309581858E+04  0.25500000920E-02 0. -1.
</event>
<event>
 5   0  0.5370912E-07  0.3200930E+04  0.7818609E-02  0.8188572E-01
        1   -1    0    0  501    0  0.00000000000E+00  0.00000000000E+00  0.17193129089E+04  0.17193129089E+04  0.50400001928E-02 0. -1.
       -1   -1    0    0    0  501  0.00000000000E+00  0.00000000000E+00 -0.14898323084E+04  0.14898323085E+04  0.50400001928E-02 0.  1.
    10030    2    1    2    0    0  0.00000000000E+00  0.00000000000E+00  0.22948060046E+03  0.32091452174E+04  0.32009298149E+04 0.  0.
        1    1    3    3  502    0  0.18154921618E+03  0.12265176112E+04  0.11293566634E+04  0.16771261257E+04  0.50400001928E-02 0. -1.
       -1    1    3    3    0  502 -0.18154921618E+03 -0.12265176112E+04 -0.89987606295E+03  0.15320190916E+04  0.50400001928E-02 0.  1.
</event>
<event>
 5   0  0.5370912E-07  0.3207208E+04  0.7818609E-02  0.8186916E-01
        1   -1    0    0  501    0  0.00000000000E+00  0.00000000000E+00  0.20765908759E+04  0.20765908759E+04  0.50400001928E-02 0.  1.
       -1   -1    0    0    0  501  0.00000000000E+00  0.00000000000E+00 -0.12383498862E+04  0.12383498862E+04  0.50400001928E-02 0. -1.
    10030    2    1    2    0    0  0.00000000000E+00  0.00000000000E+00  0.83824098972E+03  0.33149407621E+04  0.32072081784E+04 0.  0.
        1    1    3    3  502    0  0.13041336569E+04 -0.92864556202E+03  0.32439653920E+03  0.16335177653E+04  0.50400001928E-02 0. -1.
       -1    1    3    3    0  502 -0.13041336569E+04  0.92864556202E+03  0.51384445052E+03  0.16814229968E+04  0.50400001928E-02 0.  1.
</event>
<event>
 5   0  0.5177039E-07  0.3172310E+04  0.7818609E-02  0.8196169E-01
        1   -1    0    0  501    0  0.00000000000E+00  0.00000000000E+00  0.27986066051E+04  0.27986066051E+04  0.50400001928E-02 0. -1.
       -1   -1    0    0    0  501  0.00000000000E+00  0.00000000000E+00 -0.89897864232E+03  0.89897864234E+03  0.50400001928E-02 0.  1.
    10030    2    1    2    0    0  0.00000000000E+00  0.00000000000E+00  0.18996279628E+04  0.36975852474E+04  0.31723099258E+04 0.  0.
        3    1    3    3  502    0 -0.49402083544E+03  0.12844142121E+03  0.27002570764E+04  0.27480797065E+04  0.10100000352E+00 0. -1.
       -3    1    3    3    0  502  0.49402083544E+03 -0.12844142121E+03 -0.80062911360E+03  0.94950554094E+03  0.10100000352E+00 0.  1.
</event>
<event>
 5   0  0.1508771E-06  0.3209303E+04  0.7818609E-02  0.8186365E-01
        2   -1    0    0  501    0  0.00000000000E+00  0.00000000000E+00  0.21424037663E+04  0.21424037663E+04  0.25500000920E-02 0.  1.
       -2   -1    0    0    0  501  0.00000000000E+00  0.00000000000E+00 -0.12018772593E+04  0.12018772593E+04  0.25500000920E-02 0. -1.
    10030    2    1    2    0    0  0.00000000000E+00  0.00000000000E+00  0.94052650697E+03  0.33442810257E+04  0.32093029568E+04 0.  0.
        4    1    3    3  502    0 -0.31256754163E+03 -0.84369615743E+03 -0.91429594259E+03  0.12827549874E+04  0.12699999809E+01 0.  1.
       -4    1    3    3    0  502  0.31256754163E+03  0.84369615743E+03  0.18548224496E+04  0.20615260383E+04  0.12699999809E+01 0. -1.
</event>
<event>
 5   0  0.1538349E-06  0.3221923E+04  0.7818609E-02  0.8183051E-01
        2   -1    0    0  501    0  0.00000000000E+00  0.00000000000E+00  0.17381392290E+04  0.17381392290E+04  0.25500000920E-02 0. -1.
       -2   -1    0    0    0  501  0.00000000000E+00  0.00000000000E+00 -0.14930889607E+04  0.14930889607E+04  0.25500000920E-02 0.  1.
    10030    2    1    2    0    0  0.00000000000E+00  0.00000000000E+00  0.24505026827E+03  0.32312281897E+04  0.32219227148E+04 0.  0.
        1    1    3    3  502    0  0.17276576557E+02 -0.15956075856E+04 -0.99325081589E+02  0.15987893918E+04  0.50400001928E-02 0. -1.
       -1    1    3    3    0  502 -0.17276576557E+02  0.15956075856E+04  0.34437534985E+03  0.16324387979E+04  0.50400001928E-02 0.  1.
</event>
<event>
 5   0  0.4995625E-07  0.3242530E+04  0.7818609E-02  0.8177675E-01
       -4   -1    0    0    0  501  0.00000000000E+00  0.00000000000E+00  0.14345367587E+04  0.14345373209E+04  0.12699999809E+01 0.  1.
        4   -1    0    0  501    0  0.00000000000E+00  0.00000000000E+00 -0.18322976749E+04  0.18322981150E+04  0.12699999809E+01 0. -1.
    10030    2    1    2    0    0  0.00000000000E+00  0.00000000000E+00 -0.39776091618E+03  0.32668354359E+04  0.32425298794E+04 0.  0.
        4    1    3    3  502    0 -0.73878374773E+03  0.57283265391E+03 -0.15334074067E+04  0.17959060563E+04  0.12699999809E+01 0. -1.
       -4    1    3    3    0  502  0.73878374773E+03 -0.57283265391E+03  0.11356464905E+04  0.14709293796E+04  0.12699999809E+01 0.  1.
</event>
<event>
 5   0  0.5317728E-07  0.3190212E+04  0.7818609E-02  0.8191407E-01
       -1   -1    0    0    0  501  0.00000000000E+00  0.00000000000E+00  0.22052373094E+04  0.22052373094E+04  0.50400001928E-02 0.  1.
        1   -1    0    0  501    0  0.00000000000E+00  0.00000000000E+00 -0.11537822012E+04  0.11537822012E+04  0.50400001928E-02 0. -1.
    10030    2    1    2    0    0  0.00000000000E+00  0.00000000000E+00  0.10514551082E+04  0.33590195106E+04  0.31902122544E+04 0.  0.
        2    1    3    3  502    0 -0.12425856162E+04 -0.76055795178E+03  0.12096324713E+04  0.18935886901E+04  0.25500000920E-02 0.  1.
       -2    1    3    3    0  502  0.12425856162E+04  0.76055795178E+03 -0.15817736307E+03  0.14654308205E+04  0.25500000920E-02 0. -1.
</event>
<event>
 5   0  0.5281187E-07  0.3268176E+04  0.7818609E-02  0.8171041E-01
       -1   -1    0    0    0  501  0.00000000000E+00  0.00000000000E+00  0.11658464302E+04  0.11658464302E+04  0.50400001928E-02 0. -1.
        1   -1    0    0  501    0  0.00000000000E+00  0.00000000000E+00 -0.22903900879E+04  0.22903900879E+04  0.50400001928E-02 0.  1.
    10030    2    1    2    0    0  0.00000000000E+00  0.00000000000E+00 -0.11245436578E+04  0.34562365181E+04  0.32681757038E+04 0.  0.
        5    1    3    3  502    0 -0.51371415850E+02 -0.16140704316E+04 -0.82635842919E+03  0.18140431979E+04  0.46999998093E+01 0.  1.
       -5    1    3    3    0  502  0.51371415850E+02  0.16140704316E+04 -0.29818522860E+03  0.16421933202E+04  0.46999998093E+01 0. -1.
</event>
<event>
 5   0  0.1508771E-06  0.3178682E+04  0.7818609E-02  0.8194470E-01
       -2   -1    0    0    0  501  0.00000000000E+00  0.00000000000E+00  0.12925420819E+04  0.12925420819E+04  0.25500000920E-02 0.  1.
        2   -1    0    0  501    0  0.00000000000E+00  0.00000000000E+00 -0.19542923600E+04  0.19542923600E+04  0.25500000920E-02 0. -1.
    10030    2    1    2    0    0  0.00000000000E+00  0.00000000000E+00 -0.66175027805E+03  0.32468344419E+04  0.31786821896E+04 0.  0.
        4    1    3    3  502    0  0.59108647308E+03  0.18496829549E+03  0.11642034652E+04  0.13186992873E+04  0.12699999809E+01 0.  1.
       -4    1    3    3    0  502 -0.59108647308E+03 -0.18496829549E+03 -0.18259537433E+04  0.19281351546E+04  0.12699999809E+01 0. -1.
</event>
<event>
 5   0  0.5177039E-07  0.3191480E+04  0.7818609E-02  0.8191071E-01
       -1   -1    0    0    0  501  0.00000000000E+00  0.00000000000E+00  0.11398888216E+04  0.11398888217E+04  0.50400001928E-02 0.  1.
        1   -1    0    0  501    0  0.00000000000E+00  0.00000000000E+00 -0.22338893313E+04  0.22338893313E+04  0.50400001928E-02 0. -1.
    10030    2    1    2    0    0  0.00000000000E+00  0.00000000000E+00 -0.10940005096E+04  0.33737781529E+04  0.31914795801E+04 0.  0.
        3    1    3    3  502    0  0.22925949638E+03 -0.48979363673E+03 -0.21340642759E+04  0.22015194906E+04  0.10100000352E+00 0. -1.
       -3    1    3    3    0  502 -0.22925949638E+03  0.48979363673E+03  0.10400637663E+04  0.11722586624E+04  0.10100000352E+00 0.  1.
</event>
<event>
 5   0  0.1508771E-06  0.3174979E+04  0.7818609E-02  0.8195457E-01
       -2   -1    0    0    0  501  0.00000000000E+00  0.00000000000E+00  0.13943760141E+04  0.13943760141E+04  0.25500000920E-02 0.  1.
        2   -1    0    0  501    0  0.00000000000E+00  0.00000000000E+00 -0.18073480845E+04  0.18073480845E+04  0.25500000920E-02 0. -1.
    10030    2    1    2    0    0  0.00000000000E+00  0.00000000000E+00 -0.41297207039E+03  0.32017240986E+04  0.31749789405E+04 0.  0.
        4    1    3    3  502    0  0.35027517311E+03 -0.37672448876E+03  0.13079996113E+04  0.14055172121E+04  0.12699999809E+01 0.  1.
       -4    1    3    3    0  502 -0.35027517311E+03  0.37672448876E+03 -0.17209716817E+04  0.17962068866E+04  0.12699999809E+01 0. -1.
</event>
<event>
 5   0  0.5177039E-07  0.3205398E+04  0.7818609E-02  0.8187393E-01
       -1   -1    0    0    0  501  0.00000000000E+00  0.00000000000E+00  0.15476786886E+04  0.15476786886E+04  0.50400001928E-02 0.  1.
        1   -1    0    0  501    0  0.00000000000E+00  0.00000000000E+00 -0.16596755563E+04  0.16596755563E+04  0.50400001928E-02 0. -1.
    10030    2    1    2    0    0  0.00000000000E+00  0.00000000000E+00 -0.11199686769E+03  0.32073542449E+04  0.32053982520E+04 0.  0.
        3    1    3    3  502    0  0.70752222827E+03  0.11163801588E+04  0.85106017410E+03  0.15720037508E+04  0.10100000352E+00 0. -1.
       -3    1    3    3    0  502 -0.70752222827E+03 -0.11163801588E+04 -0.96305704179E+03  0.16353504941E+04  0.10100000352E+00 0.  1.
</event>
<event>
 5   0  0.5177039E-07  0.3205832E+04  0.7818609E-02  0.8187279E-01
        1   -1    0    0  501    0  0.00000000000E+00  0.00000000000E+00  0.17714015119E+04  0.17714015119E+04  0.50400001928E-02 0.  1.
       -1   -1    0    0    0  501  0.00000000000E+00  0.00000000000E+00 -0.14504558407E+04  0.14504558407E+04  0.50400001928E-02 0. -1.
    10030    2    1    2    0    0  0.00000000000E+00  0.00000000000E+00  0.32094567121E+03  0.32218573525E+04  0.32058319788E+04 0.  0.
        3    1    3    3  502    0 -0.15655245136E+04 -0.21714522899E+03 -0.10792132494E+03  0.15841925627E+04  0.10100000352E+00 0.  1.
       -3    1    3    3    0  502  0.15655245136E+04  0.21714522899E+03  0.42886699615E+03  0.16376647898E+04  0.10100000352E+00 0. -1.
</event>
<event>
 5   0  0.1508771E-06  0.3275258E+04  0.7818609E-02  0.8169220E-01
        2   -1    0    0  501    0  0.00000000000E+00  0.00000000000E+00  0.20174132397E+04  0.20174132397E+04  0.25500000920E-02 0. -1.
       -2   -1    0    0    0  501  0.00000000000E+00  0.00000000000E+00 -0.13293401103E+04  0.13293401103E+04  0.25500000920E-02 0.  1.
    10030    2    1    2    0    0  0.00000000000E+00  0.00000000000E+00  0.68807312941E+03  0.33467533500E+04  0.32752577539E+04 0.  0.
        4    1    3    3  502    0 -0.13443880568E+04 -0.39979305211E+02  0.12986945639E+04  0.18696488374E+04  0.12699999809E+01 0.  1.
       -4    1    3    3    0  502  0.13443880568E+04  0.39979305211E+02 -0.61062143448E+03  0.14771045126E+04  0.12699999809E+01 0. -1.
</event>
<event>
 5   0  0.1538349E-06  0.3207226E+04  0.7818609E-02  0.8186911E-01
        2   -1    0    0  501    0  0.00000000000E+00  0.00000000000E+00  0.16735857153E+04  0.16735857153E+04  0.25500000920E-02 0. -1.
       -2   -1    0    0    0  501  0.00000000000E+00  0.00000000000E+00 -0.15365656523E+04  0.15365656523E+04  0.25500000920E-02 0.  1.
    10030    2    1    2    0    0  0.00000000000E+00  0.00000000000E+00  0.13702006306E+03  0.32101513676E+04  0.32072257958E+04 0.  0.
        1    1    3    3  502    0  0.59698865080E+03  0.77807387300E+02 -0.14191582686E+04  0.15415769945E+04  0.50400001928E-02 0.  1.
       -1    1    3    3    0  502 -0.59698865080E+03 -0.77807387300E+02  0.15561783316E+04  0.16685743731E+04  0.50400001928E-02 0. -1.
</event>
<event>
 5   0  0.1493485E-06  0.3210402E+04  0.7818609E-02  0.8186075E-01
        2   -1    0    0  501    0  0.00000000000E+00  0.00000000000E+00  0.13016101504E+04  0.13016101504E+04  0.25500000920E-02 0.  1.
       -2   -1    0    0    0  501  0.00000000000E+00  0.00000000000E+00 -0.19796021346E+04  0.19796021346E+04  0.25500000920E-02 0. -1.
    10030    2    1    2    0    0  0.00000000000E+00  0.00000000000E+00 -0.67799198419E+03  0.32812122851E+04  0.32104019887E+04 0.  0.
        2    1    3    3  502    0  0.90923832999E+03  0.82073639664E+03  0.72135878769E+03  0.14215066212E+04  0.25500000920E-02 0.  1.
       -2    1    3    3    0  502 -0.90923832999E+03 -0.82073639664E+03 -0.13993507719E+04  0.18597056639E+04  0.25500000920E-02 0. -1.
</event>
<event>
 5   0  0.1508771E-06  0.3196738E+04  0.7818609E-02  0.8189679E-01
       -2   -1    0    0    0  501  0.00000000000E+00  0.00000000000E+00  0.12907539369E+04  0.12907539369E+04  0.25500000920E-02 0. -1.
        2   -1    0    0  501    0  0.00000000000E+00  0.00000000000E+00 -0.19792956671E+04  0.19792956671E+04  0.25500000920E-02 0.  1.
    10030    2    1    2    0    0  0.00000000000E+00  0.00000000000E+00 -0.68854173021E+03  0.32700496039E+04  0.31967381341E+04 0.  0.
        4    1    3    3  502    0 -0.26959822397E+03 -0.15222851298E+04  0.70927685710E+02  0.15476005842E+04  0.12699999809E+01 0. -1.
       -4    1    3    3    0  502  0.26959822397E+03  0.15222851298E+04 -0.75946941592E+03  0.17224490197E+04  0.12699999809E+01 0.  1.
</event>
<event>
 5   0  0.5370912E-07  0.3210110E+04  0.7818609E-02  0.8186152E-01
       -1   -1    0    0    0  501  0.00000000000E+00  0.00000000000E+00  0.10839591634E+04  0.10839591634E+04  0.50400001928E-02 0. -1.
        1   -1    0    0  501    0  0.00000000000E+00  0.00000000000E+00 -0.23766588460E+04  0.23766588460E+04  0.50400001928E-02 0.  1.
    10030    2    1    2    0    0  0.00000000000E+00  0.00000000000E+00 -0.12926996826E+04  0.34606180094E+04  0.32101097392E+04 0.  0.
        1    1    3    3  502    0 -0.10221795747E+04 -0.86304284389E+03  0.30971007063E+03  0.13731767407E+04  0.50400001928E-02 0. -1.
       -1    1    3    3    0  502  0.10221795747E+04  0.86304284389E+03 -0.16024097532E+04  0.20874412688E+04  0.50400001928E-02 0.  1.
</event>
<event>
 5   0  0.5177039E-07  0.3208966E+04  0.7818609E-02  0.8186453E-01
       -1   -1    0    0    0  501  0.00000000000E+00  0.00000000000E+00  0.16496197637E+04  0.16496197637E+04  0.50400001928E-02 0. -1.
        1   -1    0    0  501    0  0.00000000000E+00  0.00000000000E+00 -0.15605808715E+04  0.15605808715E+04  0.50400001928E-02 0.  1.
    10030    2    1    2    0    0  0.00000000000E+00  0.00000000000E+00  0.89038892132E+02  0.32102006352E+04  0.32089655956E+04 0.  0.
        3    1    3    3  502    0 -0.14112747391E+04  0.69696278881E+03 -0.26690651851E+03  0.15964625326E+04  0.10100000352E+00 0.  1.
       -3    1    3    3    0  502  0.14112747391E+04 -0.69696278881E+03  0.35594541064E+03  0.16137381026E+04  0.10100000352E+00 0. -1.
</event>
<event>
 5   0  0.1493485E-06  0.3217259E+04  0.7818609E-02  0.8184274E-01
       -2   -1    0    0    0  501  0.00000000000E+00  0.00000000000E+00  0.12650466370E+04  0.12650466370E+04  0.25500000920E-02 0.  1.
        2   -1    0    0  501    0  0.00000000000E+00  0.00000000000E+00 -0.20455283704E+04  0.20455283704E+04  0.25500000920E-02 0. -1.
    10030    2    1    2    0    0  0.00000000000E+00  0.00000000000E+00 -0.78048173335E+03  0.33105750074E+04  0.32172589488E+04 0.  0.
        2    1    3    3  502    0 -0.12593615733E+04  0.30718760967E+03  0.58992768566E+03  0.14242087186E+04  0.25500000920E-02 0.  1.
       -2    1    3    3    0  502  0.12593615733E+04 -0.30718760967E+03 -0.13704094190E+04  0.18863662888E+04  0.25500000920E-02 0. -1.
</event>
<event>
 5   0  0.5317728E-07  0.3178886E+04  0.7818609E-02  0.8194416E-01
        1   -1    0    0  501    0  0.00000000000E+00  0.00000000000E+00  0.16823951060E+04  0.16823951060E+04  0.50400001928E-02 0.  1.
       -1   -1    0    0    0  501  0.00000000000E+00  0.00000000000E+00 -0.15016260768E+04  0.15016260768E+04  0.50400001928E-02 0. -1.
    10030    2    1    2    0    0  0.00000000000E+00  0.00000000000E+00  0.18076902912E+03  0.31840211828E+04  0.31788855674E+04 0.  0.
        2    1    3    3  502    0  0.13898762816E+04 -0.76139467959E+03  0.21244371315E+03  0.15989403577E+04  0.25500000920E-02 0.  1.
       -2    1    3    3    0  502 -0.13898762816E+04  0.76139467959E+03 -0.31674684031E+02  0.15850808251E+04  0.25500000920E-02 0. -1.
</event>
<event>
 5   0  0.5233813E-07  0.3338560E+04  0.7818609E-02  0.8153152E-01
        1   -1    0    0  501    0  0.00000000000E+00  0.00000000000E+00  0.23552919998E+04  0.23552919998E+04  0.50400001928E-02 0.  1.
       -1   -1    0    0    0  501  0.00000000000E+00  0.00000000000E+00 -0.11830788564E+04  0.11830788564E+04  0.50400001928E-02 0. -1.
    10030    2    1    2    0    0  0.00000000000E+00  0.00000000000E+00  0.11722131435E+04  0.35383708562E+04  0.33385602679E+04 0.  0.
        4    1    3    3  502    0  0.15180521619E+04 -0.66353716179E+03  0.36959976469E+03  0.16974597286E+04  0.12699999809E+01 0.  1.
       -4    1    3    3    0  502 -0.15180521619E+04  0.66353716179E+03  0.80261337878E+03  0.18409111276E+04  0.12699999809E+01 0. -1.
</event>
<event>
 5   0  0.5233813E-07  0.3166859E+04  0.7818609E-02  0.8197625E-01
       -1   -1    0    0    0  501  0.00000000000E+00  0.00000000000E+00  0.16743166625E+04  0.16743166625E+04  0.50400001928E-02 0. -1.
        1   -1    0    0  501    0  0.00000000000E+00  0.00000000000E+00 -0.14974762773E+04  0.14974762773E+04  0.50400001928E-02 0.  1.
    10030    2    1    2    0    0  0.00000000000E+00  0.00000000000E+00  0.17684038522E+03  0.31717929399E+04  0.31668593167E+04 0.  0.
        4    1    3    3  502    0  0.41251655615E+03  0.12883194072E+04 -0.73585103945E+03  0.15399399889E+04  0.12699999809E+01 0.  1.
       -4    1    3    3    0  502 -0.41251655615E+03 -0.12883194072E+04  0.91269142467E+03  0.16318529510E+04  0.12699999809E+01 0. -1.
</event>
<event>
 5   0  0.1493485E-06  0.3180994E+04  0.7818609E-02  0.8193855E-01
       -2   -1    0    0    0  501  0.00000000000E+00  0.00000000000E+00  0.16725727675E+04  0.16725727675E+04  0.25500000920E-02 0.  1.
        2   -1    0    0  501    0  0.00000000000E+00  0.00000000000E+00 -0.15124487178E+04  0.15124487178E+04  0.25500000920E-02 0. -1.
    10030    2    1    2    0    0  0.00000000000E+00  0.00000000000E+00  0.16012404965E+03  0.31850214853E+04  0.31809938935E+04 0.  0.
        2    1    3    3  502    0  0.23318716307E+03 -0.96740296906E+03 -0.11622489420E+04  0.15300546921E+04  0.25500000920E-02 0. -1.
       -2    1    3    3    0  502 -0.23318716307E+03  0.96740296906E+03  0.13223729917E+04  0.16549667932E+04  0.25500000920E-02 0.  1.
</event>
<event>
 5   0  0.5370912E-07  0.3201157E+04  0.7818609E-02  0.8188512E-01
       -1   -1    0    0    0  501  0.00000000000E+00  0.00000000000E+00  0.12562486220E+04  0.12562486220E+04  0.50400001928E-02 0. -1.
        1   -1    0    0  501    0  0.00000000000E+00  0.00000000000E+00 -0.20392870931E+04  0.20392870931E+04  0.50400001928E-02 0.  1.
    10030    2    1    2    0    0  0.00000000000E+00  0.00000000000E+00 -0.78303847110E+03  0.32955357151E+04  0.32011570412E+04 0.  0.
        1    1    3    3  502    0  0.10502178643E+01 -0.12982971206E+04  0.57217502861E+03  0.14187884902E+04  0.50400001928E-02 0. -1.
       -1    1    3    3    0  502 -0.10502178643E+01  0.12982971206E+04 -0.13552134997E+04  0.18767472249E+04  0.50400001928E-02 0.  1.
</event>
<event>
 5   0  0.1493485E-06  0.3164006E+04  0.7818609E-02  0.8198388E-01
       -2   -1    0    0    0  501  0.00000000000E+00  0.00000000000E+00  0.11280070752E+04  0.11280070752E+04  0.25500000920E-02 0. -1.
        2   -1    0    0  501    0  0.00000000000E+00  0.00000000000E+00 -0.22187213690E+04  0.22187213690E+04  0.25500000920E-02 0.  1.
    10030    2    1    2    0    0  0.00000000000E+00  0.00000000000E+00 -0.10907142938E+04  0.33467284442E+04  0.31640059432E+04 0.  0.
        2    1    3    3  502    0 -0.44381424624E+02 -0.15715485650E+04 -0.73158970971E+03  0.17340582765E+04  0.25500000920E-02 0.  1.
       -2    1    3    3    0  502  0.44381424624E+02  0.15715485650E+04 -0.35912458407E+03  0.16126701677E+04  0.25500000920E-02 0. -1.
</event>
<event>
 5   0  0.1493485E-06  0.3109835E+04  0.7818609E-02  0.8213044E-01
       -2   -1    0    0    0  501  0.00000000000E+00  0.00000000000E+00  0.10128492090E+04  0.10128492090E+04  0.25500000920E-02 0.  1.
        2   -1    0    0  501    0  0.00000000000E+00  0.00000000000E+00 -0.23870959471E+04  0.23870959471E+04  0.25500000920E-02 0. -1.
    10030    2    1    2    0    0  0.00000000000E+00  0.00000000000E+00 -0.13742467380E+04  0.33999451561E+04  0.31098348779E+04 0.  0.
        2    1    3    3  502    0 -0.13796419070E+04 -0.64836377228E+03 -0.10222850117E+04  0.18354438204E+04  0.25500000920E-02 0. -1.
       -2    1    3    3    0  502  0.13796419070E+04  0.64836377228E+03 -0.35196172635E+03  0.15645013357E+04  0.25500000920E-02 0.  1.
</event>
<event>
 5   0  0.1493485E-06  0.3206389E+04  0.7818609E-02  0.8187132E-01
       -2   -1    0    0    0  501  0.00000000000E+00  0.00000000000E+00  0.12654981916E+04  0.12654981916E+04  0.25500000920E-02 0.  1.
        2   -1    0    0  501    0  0.00000000000E+00  0.00000000000E+00 -0.20310050809E+04  0.20310050809E+04  0.25500000920E-02 0. -1.
    10030    2    1    2    0    0  0.00000000000E+00  0.00000000000E+00 -0.76550688927E+03  0.32965032724E+04  0.32063894067E+04 0.  0.
        2    1    3    3  502    0 -0.35469286158E+03  0.64568328468E+03  0.10811746567E+04  0.13083014058E+04  0.25500000920E-02 0.  1.
       -2    1    3    3    0  502  0.35469286158E+03 -0.64568328468E+03 -0.18466815460E+04  0.19882018666E+04  0.25500000920E-02 0. -1.
</event>
<event>
 5   0  0.1538349E-06  0.3188490E+04  0.7818609E-02  0.8191864E-01
        2   -1    0    0  501    0  0.00000000000E+00  0.00000000000E+00  0.16729460359E+04  0.16729460359E+04  0.25500000920E-02 0. -1.
       -2   -1    0    0    0  501  0.00000000000E+00  0.00000000000E+00 -0.15192458523E+04  0.15192458523E+04  0.25500000920E-02 0.  1.
    10030    2    1    2    0    0  0.00000000000E+00  0.00000000000E+00  0.15370018362E+03  0.31921918882E+04  0.31884895020E+04 0.  0.
        1    1    3    3  502    0 -0.74438872912E+03 -0.42034624352E+03  0.14240763350E+04  0.16609632604E+04  0.50400001928E-02 0. -1.
       -1    1    3    3    0  502  0.74438872912E+03  0.42034624352E+03 -0.12703761514E+04  0.15312286278E+04  0.50400001928E-02 0.  1.
</event>
<event>
 5   0  0.5317728E-07  0.3197450E+04  0.7818609E-02  0.8189491E-01
        1   -1    0    0  501    0  0.00000000000E+00  0.00000000000E+00  0.25899281680E+04  0.25899281680E+04  0.50400001928E-02 0. -1.
       -1   -1    0    0    0  501  0.00000000000E+00  0.00000000000E+00 -0.98686992789E+03  0.98686992791E+03  0.50400001928E-02 0.  1.
    10030    2    1    2    0    0  0.00000000000E+00  0.00000000000E+00  0.16030582401E+04  0.35767980960E+04  0.31974503746E+04 0.  0.
        2    1    3    3  502    0 -0.15816011413E+04 -0.37460749431E+02  0.10591973774E+04  0.19038814465E+04  0.25500000920E-02 0. -1.
       -2    1    3    3    0  502  0.15816011413E+04  0.37460749431E+02  0.54386086277E+03  0.16729166495E+04  0.25500000920E-02 0.  1.
</event>
<event>
 5   0  0.1508771E-06  0.3216932E+04  0.7818609E-02  0.8184360E-01
       -2   -1    0    0    0  501  0.00000000000E+00  0.00000000000E+00  0.13371634389E+04  0.13371634389E+04  0.25500000920E-02 0. -1.
        2   -1    0    0  501    0  0.00000000000E+00  0.00000000000E+00 -0.19348148397E+04  0.19348148397E+04  0.25500000920E-02 0.  1.
    10030    2    1    2    0    0  0.00000000000E+00  0.00000000000E+00 -0.59765140085E+03  0.32719782786E+04  0.32169324921E+04 0.  0.
        4    1    3    3  502    0 -0.61933633672E+03  0.14323313000E+04  0.97732405027E+02  0.15635548237E+04  0.12699999809E+01 0. -1.
       -4    1    3    3    0  502  0.61933633672E+03 -0.14323313000E+04 -0.69538380588E+03  0.17084234549E+04  0.12699999809E+01 0.  1.
</event>
<event>
 5   0  0.1572769E-06  0.3163974E+04  0.7818609E-02  0.8198397E-01
        2   -1    0    0  501    0  0.00000000000E+00  0.00000000000E+00  0.20780652473E+04  0.20780652473E+04  0.25500000920E-02 0.  1.
       -2   -1    0    0    0  501  0.00000000000E+00  0.00000000000E+00 -0.12043333068E+04  0.12043333068E+04  0.25500000920E-02 0. -1.
    10030    2    1    2    0    0  0.00000000000E+00  0.00000000000E+00  0.87373194048E+03  0.32823985541E+04  0.31639742041E+04 0.  0.
        5    1    3    3  502    0 -0.14319549971E+04 -0.45989185072E+03  0.94580443224E+03  0.17766720975E+04  0.46999998093E+01 0.  1.
       -5    1    3    3    0  502  0.14319549971E+04  0.45989185072E+03 -0.72072491759E+02  0.15057264566E+04  0.46999998093E+01 0. -1.
</event>
<event>
 5   0  0.5177039E-07  0.3174844E+04  0.7818609E-02  0.8195492E-01
       -1   -1    0    0    0  501  0.00000000000E+00  0.00000000000E+00  0.24746620705E+04  0.24746620705E+04  0.50400001928E-02 0. -1.
        1   -1    0    0  501    0  0.00000000000E+00  0.00000000000E+00 -0.10182840843E+04  0.10182840843E+04  0.50400001928E-02 0.  1.
    10030    2    1    2    0    0  0.00000000000E+00  0.00000000000E+00  0.14563779861E+04  0.34929461548E+04  0.31748442484E+04 0.  0.
        3    1    3    3  502    0 -0.65179621369E+02  0.10184448302E+04  0.20659235854E+04  0.23042392510E+04  0.10100000352E+00 0. -1.
       -3    1    3    3    0  502  0.65179621369E+02 -0.10184448302E+04 -0.60954559922E+03  0.11887069037E+04  0.10100000352E+00 0.  1.
</event>
<event>
 5   0  0.1572769E-06  0.3214221E+04  0.7818609E-02  0.8185071E-01
        2   -1    0    0  501    0  0.00000000000E+00  0.00000000000E+00  0.16461614507E+04  0.16461614507E+04  0.25500000920E-02 0.  1.
       -2   -1    0    0    0  501  0.00000000000E+00  0.00000000000E+00 -0.15689864035E+04  0.15689864035E+04  0.25500000920E-02 0. -1.
    10030    2    1    2    0    0  0.00000000000E+00  0.00000000000E+00  0.77175047284E+02  0.32151478542E+04  0.32142214822E+04 0.  0.
        5    1    3    3  502    0  0.10408181136E+04  0.10612760262E+04 -0.57246798192E+03  0.15929064096E+04  0.46999998093E+01 0. -1.
       -5    1    3    3    0  502 -0.10408181136E+04 -0.10612760262E+04  0.64964302921E+03  0.16222414446E+04  0.46999998093E+01 0.  1.
</event>
<event>
 5   0  0.5281187E-07  0.3194810E+04  0.7818609E-02  0.8190189E-01
        1   -1    0    0  501    0  0.00000000000E+00  0.00000000000E+00  0.98700374392E+03  0.98700374393E+03  0.50400001928E-02 0. -1.
       -1   -1    0    0    0  501  0.00000000000E+00  0.00000000000E+00 -0.25853012821E+04  0.25853012821E+04  0.50400001928E-02 0.  1.
    10030    2    1    2    0    0  0.00000000000E+00  0.00000000000E+00 -0.15982975381E+04  0.35723050260E+04  0.31948095684E+04 0.  0.
        5    1    3    3  502    0  0.56725292244E+03  0.13923779476E+04 -0.19576990671E+03  0.15161926570E+04  0.46999998093E+01 0. -1.
       -5    1    3    3    0  502 -0.56725292244E+03 -0.13923779476E+04 -0.14025276314E+04  0.20561123690E+04  0.46999998093E+01 0.  1.
</event>
<event>
 5   0  0.1572769E-06  0.3207521E+04  0.7818609E-02  0.8186834E-01
        2   -1    0    0  501    0  0.00000000000E+00  0.00000000000E+00  0.16121530722E+04  0.16121530722E+04  0.25500000920E-02 0.  1.
       -2   -1    0    0    0  501  0.00000000000E+00  0.00000000000E+00 -0.15954119345E+04  0.15954119345E+04  0.25500000920E-02 0. -1.
    10030    2    1    2    0    0  0.00000000000E+00  0.00000000000E+00  0.16741137667E+02  0.32075650067E+04  0.32075213181E+04 0.  0.
        5    1    3    3  502    0  0.91479399329E+03 -0.30712733662E+03 -0.12726039078E+04  0.15970967557E+04  0.46999998093E+01 0. -1.
       -5    1    3    3    0  502 -0.91479399329E+03  0.30712733662E+03  0.12893450455E+04  0.16104682509E+04  0.46999998093E+01 0.  1.
</event>
<event>
 5   0  0.1493485E-06  0.3199992E+04  0.7818609E-02  0.8188819E-01
       -2   -1    0    0    0  501  0.00000000000E+00  0.00000000000E+00  0.11903579130E+04  0.11903579130E+04  0.25500000920E-02 0.  1.
        2   -1    0    0  501    0  0.00000000000E+00  0.00000000000E+00 -0.21506033828E+04  0.21506033828E+04  0.25500000920E-02 0. -1.
    10030    2    1    2    0    0  0.00000000000E+00  0.00000000000E+00 -0.96024546977E+03  0.33409612957E+04  0.31999923465E+04 0.  0.
        2    1    3    3  502    0  0.12424548662E+04 -0.12490065924E+03 -0.15245375917E+04  0.19706621064E+04  0.25500000920E-02 0. -1.
       -2    1    3    3    0  502 -0.12424548662E+04  0.12490065924E+03  0.56429212190E+03  0.13702991893E+04  0.25500000920E-02 0.  1.
</event>
<event>
 5   0  0.5370912E-07  0.3208462E+04  0.7818609E-02  0.8186586E-01
       -1   -1    0    0    0  501  0.00000000000E+00  0.00000000000E+00  0.10770059248E+04  0.10770059248E+04  0.50400001928E-02 0. -1.
        1   -1    0    0  501    0  0.00000000000E+00  0.00000000000E+00 -0.23895481837E+04  0.23895481837E+04  0.50400001928E-02 0.  1.
    10030    2    1    2    0    0  0.00000000000E+00  0.00000000000E+00 -0.13125422589E+04  0.34665541085E+04  0.32084622806E+04 0.  0.
        1    1    3    3  502    0 -0.73952077670E+03 -0.13928987542E+04 -0.33850458059E+03  0.16129610255E+04  0.50400001928E-02 0.  1.
       -1    1    3    3    0  502  0.73952077670E+03  0.13928987542E+04 -0.97403767826E+03  0.18535930830E+04  0.50400001928E-02 0. -1.
</event>
<event>
 5   0  0.5177039E-07  0.3192075E+04  0.7818609E-02  0.8190913E-01
        1   -1    0    0  501    0  0.00000000000E+00  0.00000000000E+00  0.17670317127E+04  0.17670317127E+04  0.50400001928E-02 0.  1.
       -1   -1    0    0    0  501  0.00000000000E+00  0.00000000000E+00 -0.14415903529E+04  0.14415903529E+04  0.50400001928E-02 0. -1.
    10030    2    1    2    0    0  0.00000000000E+00  0.00000000000E+00  0.32544135973E+03  0.32086220656E+04  0.31920751058E+04 0.  0.
        3    1    3    3  502    0 -0.20999125779E+03 -0.12962858496E+03 -0.14222969742E+04  0.14435472252E+04  0.10100000352E+00 0. -1.
       -3    1    3    3    0  502  0.20999125779E+03  0.12962858496E+03  0.17477383339E+04  0.17650748404E+04  0.10100000352E+00 0.  1.
</event>
<event>
 5   0  0.1508771E-06  0.3192228E+04  0.7818609E-02  0.8190873E-01
       -2   -1    0    0    0  501  0.00000000000E+00  0.00000000000E+00  0.16610463500E+04  0.16610463500E+04  0.25500000920E-02 0.  1.
        2   -1    0    0  501    0  0.00000000000E+00  0.00000000000E+00 -0.15337198893E+04  0.15337198893E+04  0.25500000920E-02 0. -1.
    10030    2    1    2    0    0  0.00000000000E+00  0.00000000000E+00  0.12732646068E+03  0.31947662394E+04  0.31922279518E+04 0.  0.
        4    1    3    3  502    0 -0.75441537477E+03  0.39270253342E+03 -0.12880477486E+04  0.15435110796E+04  0.12699999809E+01 0. -1.
       -4    1    3    3    0  502  0.75441537477E+03 -0.39270253342E+03  0.14153742092E+04  0.16512551597E+04  0.12699999809E+01 0.  1.
</event>
<event>
 5   0  0.1508771E-06  0.3208071E+04  0.7818609E-02  0.8186689E-01
        2   -1    0    0  501    0  0.00000000000E+00  0.00000000000E+00  0.19462485866E+04  0.19462485866E+04  0.25500000920E-02 0. -1.
       -2   -1    0    0    0  501  0.00000000000E+00  0.00000000000E+00 -0.13219944110E+04  0.13219944110E+04  0.25500000920E-02 0.  1.
    10030    2    1    2    0    0  0.00000000000E+00  0.00000000000E+00  0.62425417568E+03  0.32682429976E+04  0.32080709181E+04 0.  0.
        4    1    3    3  502    0 -0.81623819365E+03  0.13675722323E+04  0.11768188553E+03  0.15969812893E+04  0.12699999809E+01 0.  1.
       -4    1    3    3    0  502  0.81623819365E+03 -0.13675722323E+04  0.50657229016E+03  0.16712617083E+04  0.12699999809E+01 0. -1.
</event>
<event>
 5   0  0.1538349E-06  0.3200677E+04  0.7818609E-02  0.8188638E-01
        2   -1    0    0  501    0  0.00000000000E+00  0.00000000000E+00  0.18879665707E+04  0.18879665707E+04  0.25500000920E-02 0. -1.
       -2   -1    0    0    0  501  0.00000000000E+00  0.00000000000E+00 -0.13565298862E+04  0.13565298862E+04  0.25500000920E-02 0.  1.
    10030    2    1    2    0    0  0.00000000000E+00  0.00000000000E+00  0.53143668455E+03  0.32444964569E+04  0.32006768517E+04 0.  0.
        1    1    3    3  502    0  0.74650116890E+03 -0.83909080911E+03  0.14213905503E+04  0.18115431205E+04  0.50400001928E-02 0. -1.
       -1    1    3    3    0  502 -0.74650116890E+03  0.83909080911E+03 -0.88995386573E+03  0.14329533364E+04  0.50400001928E-02 0.  1.
</event>
<event>
 5   0  0.1572769E-06  0.3183478E+04  0.7818609E-02  0.8193194E-01
       -2   -1    0    0    0  501  0.00000000000E+00  0.00000000000E+00  0.15556773329E+04  0.15556773329E+04  0.25500000920E-02 0.  1.
        2   -1    0    0  501    0  0.00000000000E+00  0.00000000000E+00 -0.16286367424E+04  0.16286367424E+04  0.25500000920E-02 0. -1.
    10030    2    1    2    0    0  0.00000000000E+00  0.00000000000E+00 -0.72959409433E+02  0.31843140753E+04  0.31834781379E+04 0.  0.
        5    1    3    3  502    0 -0.18735586359E+03 -0.74035872282E+02 -0.16158267485E+04  0.16283432382E+04  0.46999998093E+01 0. -1.
       -5    1    3    3    0  502  0.18735586359E+03  0.74035872282E+02  0.15428673391E+04  0.15559708371E+04  0.46999998093E+01 0.  1.
</event>
<event>
 5   0  0.5177039E-07  0.3101574E+04  0.7818609E-02  0.8215306E-01
       -1   -1    0    0    0  501  0.00000000000E+00  0.00000000000E+00  0.27267105897E+04  0.27267105897E+04  0.50400001928E-02 0.  1.
        1   -1    0    0  501    0  0.00000000000E+00  0.00000000000E+00 -0.88199340183E+03  0.88199340184E+03  0.50400001928E-02 0. -1.
    10030    2    1    2    0    0  0.00000000000E+00  0.00000000000E+00  0.18447171879E+04  0.36087039916E+04  0.31015742770E+04 0.  0.
        3    1    3    3  502    0 -0.11819943773E+03 -0.13494474725E+04  0.18007573278E+04  0.22533766999E+04  0.10100000352E+00 0.  1.
       -3    1    3    3    0  502  0.11819943773E+03  0.13494474725E+04  0.43959860126E+02  0.13553272917E+04  0.10100000352E+00 0. -1.
</event>
<event>
 5   0  0.5370912E-07  0.3151096E+04  0.7818609E-02  0.8201853E-01
       -1   -1    0    0    0  501  0.00000000000E+00  0.00000000000E+00  0.19125314863E+04  0.19125314863E+04  0.50400001928E-02 0. -1.
        1   -1    0    0  501    0  0.00000000000E+00  0.00000000000E+00 -0.12979405535E+04  0.12979405536E+04  0.50400001928E-02 0.  1.
    10030    2    1    2    0    0  0.00000000000E+00  0.00000000000E+00  0.61459093275E+03  0.32104720399E+04  0.31510964289E+04 0.  0.
        1    1    3    3  502    0 -0.53055461695E+03 -0.30087937976E+03  0.17873678604E+04  0.18885710130E+04  0.50400001928E-02 0. -1.
       -1    1    3    3    0  502  0.53055461695E+03  0.30087937976E+03 -0.11727769277E+04  0.13219010269E+04  0.50400001928E-02 0.  1.
</event>
<event>
 5   0  0.1493485E-06  0.3192382E+04  0.7818609E-02  0.8190832E-01
        2   -1    0    0  501    0  0.00000000000E+00  0.00000000000E+00  0.14939160519E+04  0.14939160519E+04  0.25500000920E-02 0.  1.
       -2   -1    0    0    0  501  0.00000000000E+00  0.00000000000E+00 -0.17054683019E+04  0.17054683019E+04  0.25500000920E-02 0. -1.
    10030    2    1    2    0    0  0.00000000000E+00  0.00000000000E+00 -0.21155225005E+03  0.31993843538E+04  0.31923824784E+04 0.  0.
        2    1    3    3  502    0  0.73187221564E+03  0.98772308174E+03  0.91458889039E+03  0.15322227856E+04  0.25500000920E-02 0.  1.
       -2    1    3    3    0  502 -0.73187221564E+03 -0.98772308174E+03 -0.11261411404E+04  0.16671615682E+04  0.25500000920E-02 0. -1.
</event>
<event>
 5   0  0.5281187E-07  0.3205584E+04  0.7818609E-02  0.8187344E-01
       -1   -1    0    0    0  501  0.00000000000E+00  0.00000000000E+00  0.11815262958E+04  0.11815262958E+04  0.50400001928E-02 0.  1.
        1   -1    0    0  501    0  0.00000000000E+00  0.00000000000E+00 -0.21742568946E+04  0.21742568946E+04  0.50400001928E-02 0. -1.
    10030    2    1    2    0    0  0.00000000000E+00  0.00000000000E+00 -0.99273059882E+03  0.33557831905E+04  0.32055836878E+04 0.  0.
        5    1    3    3  502    0 -0.11083418513E+04  0.92704141370E+03 -0.12224727882E+04  0.18926936493E+04  0.46999998093E+01 0. -1.
       -5    1    3    3    0  502  0.11083418513E+04 -0.92704141370E+03  0.22974218938E+03  0.14630895412E+04  0.46999998093E+01 0.  1.
</event>
<event>
 5   0  0.5177039E-07  0.3204203E+04  0.7818609E-02  0.8187708E-01
       -1   -1    0    0    0  501  0.00000000000E+00  0.00000000000E+00  0.16553354053E+04  0.16553354053E+04  0.50400001928E-02 0.  1.
        1   -1    0    0  501    0  0.00000000000E+00  0.00000000000E+00 -0.15505793839E+04  0.15505793839E+04  0.50400001928E-02 0. -1.
    10030    2    1    2    0    0  0.00000000000E+00  0.00000000000E+00  0.10475602140E+03  0.32059147891E+04  0.32042028355E+04 0.  0.
        3    1    3    3  502    0  0.56748528654E+03  0.13935379260E+04  0.60289143192E+03  0.16209458938E+04  0.10100000352E+00 0. -1.
       -3    1    3    3    0  502 -0.56748528654E+03 -0.13935379260E+04 -0.49813541052E+03  0.15849688953E+04  0.10100000352E+00 0.  1.
</event>
<event>
 5   0  0.5317728E-07  0.3105404E+04  0.7818609E-02  0.8214256E-01
        1   -1    0    0  501    0  0.00000000000E+00  0.00000000000E+00  0.19357648236E+04  0.19357648236E+04  0.50400001928E-02 0.  1.
       -1   -1    0    0    0  501  0.00000000000E+00  0.00000000000E+00 -0.12454421169E+04  0.12454421169E+04  0.50400001928E-02 0. -1.
    10030    2    1    2    0    0  0.00000000000E+00  0.00000000000E+00  0.69032270672E+03  0.31812069405E+04  0.31054037031E+04 0.  0.
        2    1    3    3  502    0  0.86773887077E+03 -0.13818365429E+03  0.16565733747E+04  0.18751802090E+04  0.25500000920E-02 0.  1.
       -2    1    3    3    0  502 -0.86773887077E+03  0.13818365429E+03 -0.96625066802E+03  0.13060267316E+04  0.25500000920E-02 0. -1.
</event>
<event>
 5   0  0.1493485E-06  0.3215476E+04  0.7818609E-02  0.8184742E-01
        2   -1    0    0  501    0  0.00000000000E+00  0.00000000000E+00  0.22704797932E+04  0.22704797932E+04  0.25500000920E-02 0. -1.
       -2   -1    0    0    0  501  0.00000000000E+00  0.00000000000E+00 -0.11384473275E+04  0.11384473275E+04  0.25500000920E-02 0.  1.
    10030    2    1    2    0    0  0.00000000000E+00  0.00000000000E+00  0.11320324657E+04  0.34089271207E+04  0.32154761096E+04 0.  0.
        2    1    3    3  502    0 -0.14494660442E+04  0.62373500328E+03  0.89247826236E+03  0.18128746830E+04  0.25500000920E-02 0. -1.
       -2    1    3    3    0  502  0.14494660442E+04 -0.62373500328E+03  0.23955420331E+03  0.15960524377E+04  0.25500000920E-02 0.  1.
</event>
<event>
 5   0  0.1556396E-06  0.3207852E+04  0.7818609E-02  0.8186747E-01
       -2   -1    0    0    0  501  0.00000000000E+00  0.00000000000E+00  0.91867544770E+03  0.91867544770E+03  0.25500000920E-02 0. -1.
        2   -1    0    0  501    0  0.00000000000E+00  0.00000000000E+00 -0.28003125049E+04  0.28003125049E+04  0.25500000920E-02 0.  1.
    10030    2    1    2    0    0  0.00000000000E+00  0.00000000000E+00 -0.18816370572E+04  0.37189879526E+04  0.32078518321E+04 0.  0.
        3    1    3    3  502    0  0.94269366057E+03 -0.50525014382E+02 -0.24440992229E+04  0.26200849484E+04  0.10100000352E+00 0.  1.
       -3    1    3    3    0  502 -0.94269366057E+03  0.50525014382E+02  0.56246216571E+03  0.10989030043E+04  0.10100000352E+00 0. -1.
</event>
<event>
 5   0  0.5281187E-07  0.3208604E+04  0.7818609E-02  0.8186549E-01
        1   -1    0    0  501    0  0.00000000000E+00  0.00000000000E+00  0.19370024742E+04  0.19370024742E+04  0.50400001928E-02 0.  1.
       -1   -1    0    0    0  501  0.00000000000E+00  0.00000000000E+00 -0.13287459529E+04  0.13287459529E+04  0.50400001928E-02 0. -1.
    10030    2    1    2    0    0  0.00000000000E+00  0.00000000000E+00  0.60825652132E+03  0.32657484271E+04  0.32086035581E+04 0.  0.
        5    1    3    3  502    0  0.61377042802E+03  0.87038985479E+03 -0.91701859299E+03  0.14054315449E+04  0.46999998093E+01 0. -1.
       -5    1    3    3    0  502 -0.61377042802E+03 -0.87038985479E+03  0.15252751143E+04  0.18603168821E+04  0.46999998093E+01 0.  1.
</event>
<event>
 5   0  0.5370912E-07  0.3191239E+04  0.7818609E-02  0.8191135E-01
       -1   -1    0    0    0  501  0.00000000000E+00  0.00000000000E+00  0.13891887434E+04  0.13891887434E+04  0.50400001928E-02 0.  1.
        1   -1    0    0  501    0  0.00000000000E+00  0.00000000000E+00 -0.18327249234E+04  0.18327249234E+04  0.50400001928E-02 0. -1.
    10030    2    1    2    0    0  0.00000000000E+00  0.00000000000E+00 -0.44353617997E+03  0.32219136668E+04  0.31912385265E+04 0.  0.
        1    1    3    3  502    0 -0.14702911550E+03  0.31020920791E+03 -0.17949998433E+04  0.18275316005E+04  0.50400001928E-02 0. -1.
       -1    1    3    3    0  502  0.14702911550E+03 -0.31020920791E+03  0.13514636633E+04  0.13943820663E+04  0.50400001928E-02 0.  1.
</event>
<event>
 5   0  0.5177039E-07  0.3099252E+04  0.7818609E-02  0.8215943E-01
       -1   -1    0    0    0  501  0.00000000000E+00  0.00000000000E+00  0.24216912601E+04  0.24216912601E+04  0.50400001928E-02 0. -1.
        1   -1    0    0  501    0  0.00000000000E+00  0.00000000000E+00 -0.99159670532E+03  0.99159670533E+03  0.50400001928E-02 0.  1.
    10030    2    1    2    0    0  0.00000000000E+00  0.00000000000E+00  0.14300945548E+04  0.34132879655E+04  0.30992522162E+04 0.  0.
        3    1    3    3  502    0  0.77932405368E+03  0.97454465881E+03  0.17269844460E+04  0.21306239836E+04  0.10100000352E+00 0. -1.
       -3    1    3    3    0  502 -0.77932405368E+03 -0.97454465881E+03 -0.29688989119E+03  0.12826639819E+04  0.10100000352E+00 0.  1.
</event>
<event>
 5   0  0.1572769E-06  0.3175971E+04  0.7818609E-02  0.8195192E-01
        2   -1    0    0  501    0  0.00000000000E+00  0.00000000000E+00  0.14660292721E+04  0.14660292721E+04  0.25500000920E-02 0.  1.
       -2   -1    0    0    0  501  0.00000000000E+00  0.00000000000E+00 -0.17200865479E+04  0.17200865479E+04  0.25500000920E-02 0. -1.
    10030    2    1    2    0    0  0.00000000000E+00  0.00000000000E+00 -0.25405727588E+03  0.31861158200E+04  0.31759705476E+04 0.  0.
        5    1    3    3  502    0  0.60937778430E+03 -0.68093796553E+02  0.13424703755E+04  0.14758817189E+04  0.46999998093E+01 0.  1.
       -5    1    3    3    0  502 -0.60937778430E+03  0.68093796553E+02 -0.15965276513E+04  0.17102341011E+04  0.46999998093E+01 0. -1.
</event>
<event>
 5   0  0.4995625E-07  0.3169147E+04  0.7818609E-02  0.8197013E-01
       -3   -1    0    0    0  501  0.00000000000E+00  0.00000000000E+00  0.19930006493E+04  0.19930006519E+04  0.10100000352E+00 0. -1.
        3   -1    0    0  501    0  0.00000000000E+00  0.00000000000E+00 -0.12598453782E+04  0.12598453823E+04  0.10100000352E+00 0.  1.
    10030    2    1    2    0    0  0.00000000000E+00  0.00000000000E+00  0.73315527112E+03  0.32528460342E+04  0.31691466786E+04 0.  0.
        1    1    3    3  502    0 -0.87492002995E+03 -0.12816650786E+04  0.37609830409E+02  0.15522773373E+04  0.50400001928E-02 0.  1.
       -1    1    3    3    0  502  0.87492002995E+03  0.12816650786E+04  0.69554544071E+03  0.17005686969E+04  0.50400001928E-02 0. -1.
</event>
<event>
 5   0  0.1493485E-06  0.3204007E+04  0.7818609E-02  0.8187760E-01
       -2   -1    0    0    0  501  0.00000000000E+00  0.00000000000E+00  0.13182356886E+04  0.13182356886E+04  0.25500000920E-02 0. -1.
        2   -1    0    0  501    0  0.00000000000E+00  0.00000000000E+00 -0.19468558459E+04  0.19468558459E+04  0.25500000920E-02 0.  1.
    10030    2    1    2    0    0  0.00000000000E+00  0.00000000000E+00 -0.62862015733E+03  0.32650915345E+04  0.32040067769E+04 0.  0.
        2    1    3    3  502    0  0.11099385364E+04  0.62501173359E+03 -0.13043315153E+04  0.18231521943E+04  0.25500000920E-02 0.  1.
       -2    1    3    3    0  502 -0.11099385364E+04 -0.62501173359E+03  0.67571135802E+03  0.14419393403E+04  0.25500000920E-02 0. -1.
</event>
<event>
 5   0  0.1493485E-06  0.3199853E+04  0.7818609E-02  0.8188856E-01
        2   -1    0    0  501    0  0.00000000000E+00  0.00000000000E+00  0.16055852201E+04  0.16055852201E+04  0.25500000920E-02 0.  1.
       -2   -1    0    0    0  501  0.00000000000E+00  0.00000000000E+00 -0.15942877907E+04  0.15942877907E+04  0.25500000920E-02 0. -1.
    10030    2    1    2    0    0  0.00000000000E+00  0.00000000000E+00  0.11297429427E+02  0.31998730107E+04  0.31998530674E+04 0.  0.
        2    1    3    3  502    0  0.37455828966E+03  0.49338457690E+03 -0.14695020521E+04  0.15947283575E+04  0.25500000920E-02 0. -1.
       -2    1    3    3    0  502 -0.37455828966E+03 -0.49338457690E+03  0.14807994816E+04  0.16051446532E+04  0.25500000920E-02 0.  1.
</event>
<event>
 5   0  0.1572769E-06  0.3222288E+04  0.7818609E-02  0.8182956E-01
       -2   -1    0    0    0  501  0.00000000000E+00  0.00000000000E+00  0.13704713128E+04  0.13704713128E+04  0.25500000920E-02 0.  1.
        2   -1    0    0  501    0  0.00000000000E+00  0.00000000000E+00 -0.18940818538E+04  0.18940818538E+04  0.25500000920E-02 0. -1.
    10030    2    1    2    0    0  0.00000000000E+00  0.00000000000E+00 -0.52361054099E+03  0.32645531666E+04  0.32222879106E+04 0.  0.
        5    1    3    3  502    0 -0.25890837884E+03  0.71048685092E+03  0.11795066141E+04  0.14011006590E+04  0.46999998093E+01 0.  1.
       -5    1    3    3    0  502  0.25890837884E+03 -0.71048685092E+03 -0.17031171551E+04  0.18634525076E+04  0.46999998093E+01 0. -1.
</event>
<event>
 5   0  0.1538349E-06  0.3190226E+04  0.7818609E-02  0.8191403E-01
       -2   -1    0    0    0  501  0.00000000000E+00  0.00000000000E+00  0.10635685300E+04  0.10635685300E+04  0.25500000920E-02 0.  1.
        2   -1    0    0  501    0  0.00000000000E+00  0.00000000000E+00 -0.23923091446E+04  0.23923091446E+04  0.25500000920E-02 0. -1.
    10030    2    1    2    0    0  0.00000000000E+00  0.00000000000E+00 -0.13287406146E+04  0.34558776746E+04  0.31902255219E+04 0.  0.
        1    1    3    3  502    0  0.63237492955E+03  0.82893097588E+03 -0.19721073179E+04  0.22307469349E+04  0.50400001928E-02 0. -1.
       -1    1    3    3    0  502 -0.63237492955E+03 -0.82893097588E+03  0.64336670331E+03  0.12251307397E+04  0.50400001928E-02 0.  1.
</event>
<event>
 5   0  0.1493485E-06  0.3207229E+04  0.7818609E-02  0.8186911E-01
        2   -1    0    0  501    0  0.00000000000E+00  0.00000000000E+00  0.14237463723E+04  0.14237463723E+04  0.25500000920E-02 0. -1.
       -2   -1    0    0    0  501  0.00000000000E+00  0.00000000000E+00 -0.18062058619E+04  0.18062058619E+04  0.25500000920E-02 0.  1.
    10030    2    1    2    0    0  0.00000000000E+00  0.00000000000E+00 -0.38245948957E+03  0.32299522342E+04  0.32072287374E+04 0.  0.
        2    1    3    3  502    0  0.11020844769E+04 -0.26864099358E+03  0.95030058712E+03  0.14798072116E+04  0.25500000920E-02 0. -1.
       -2    1    3    3    0  502 -0.11020844769E+04  0.26864099358E+03 -0.13327600767E+04  0.17501450225E+04  0.25500000920E-02 0.  1.
</event>
<event>
 5   0  0.1538349E-06  0.3175287E+04  0.7818609E-02  0.8195374E-01
       -2   -1    0    0    0  501  0.00000000000E+00  0.00000000000E+00  0.10890558214E+04  0.10890558214E+04  0.25500000920E-02 0.  1.
        2   -1    0    0  501    0  0.00000000000E+00  0.00000000000E+00 -0.23144929208E+04  0.23144929208E+04  0.25500000920E-02 0. -1.
    10030    2    1    2    0    0  0.00000000000E+00  0.00000000000E+00 -0.12254370994E+04  0.34035487421E+04  0.31752870666E+04 0.  0.
        1    1    3    3  502    0  0.15514105506E+03  0.14157691441E+04  0.13923972291E+03  0.14310341425E+04  0.50400001928E-02 0.  1.
       -1    1    3    3    0  502 -0.15514105506E+03 -0.14157691441E+04 -0.13646768223E+04  0.19725145997E+04  0.50400001928E-02 0. -1.
</event>
<event>
 5   0  0.5233813E-07  0.3190306E+04  0.7818609E-02  0.8191382E-01
       -1   -1    0    0    0  501  0.00000000000E+00  0.00000000000E+00  0.12361292034E+04  0.12361292034E+04  0.50400001928E-02 0.  1.
        1   -1    0    0  501    0  0.00000000000E+00  0.00000000000E+00 -0.20584529564E+04  0.20584529564E+04  0.50400001928E-02 0. -1.
    10030    2    1    2    0    0  0.00000000000E+00  0.00000000000E+00 -0.82232375300E+03  0.32945821598E+04  0.31903064512E+04 0.  0.
        4    1    3    3  502    0  0.62388687769E+03 -0.36654836375E+03  0.10568935911E+04  0.12808661971E+04  0.12699999809E+01 0.  1.
       -4    1    3    3    0  502 -0.62388687769E+03  0.36654836375E+03 -0.18792173441E+04  0.20137159627E+04  0.12699999809E+01 0. -1.
</event>
<event>
 5   0  0.5233813E-07  0.3209494E+04  0.7818609E-02  0.8186314E-01
       -1   -1    0    0    0  501  0.00000000000E+00  0.00000000000E+00  0.10002126526E+04  0.10002126526E+04  0.50400001928E-02 0. -1.
        1   -1    0    0  501    0  0.00000000000E+00  0.00000000000E+00 -0.25746652755E+04  0.25746652755E+04  0.50400001928E-02 0.  1.
    10030    2    1    2    0    0  0.00000000000E+00  0.00000000000E+00 -0.15744526229E+04  0.35748779280E+04  0.32094939069E+04 0.  0.
        4    1    3    3  502    0  0.22603009546E+03 -0.13284101293E+04 -0.17579010105E+04  0.22149448416E+04  0.12699999809E+01 0.  1.
       -4    1    3    3    0  502 -0.22603009546E+03  0.13284101293E+04  0.18344838761E+03  0.13599330864E+04  0.12699999809E+01 0. -1.
</event>
<event>
 5   0  0.5233813E-07  0.3180523E+04  0.7818609E-02  0.8193980E-01
        1   -1    0    0  501    0  0.00000000000E+00  0.00000000000E+00  0.22398117903E+04  0.22398117903E+04  0.50400001928E-02 0.  1.
       -1   -1    0    0    0  501  0.00000000000E+00  0.00000000000E+00 -0.11290824864E+04  0.11290824864E+04  0.50400001928E-02 0. -1.
    10030    2    1    2    0    0  0.00000000000E+00  0.00000000000E+00  0.11107293039E+04  0.33688942767E+04  0.31805233942E+04 0.  0.
        4    1    3    3  502    0  0.15652452226E+04  0.24295735149E+03  0.70482359903E+03  0.17337239688E+04  0.12699999809E+01 0. -1.
       -4    1    3    3    0  502 -0.15652452226E+04 -0.24295735149E+03  0.40590570489E+03  0.16351703078E+04  0.12699999809E+01 0.  1.
</event>
<event>
 5   0  0.1508771E-06  0.3179775E+04  0.7818609E-02  0.8194179E-01
       -2   -1    0    0    0  501  0.00000000000E+00  0.00000000000E+00  0.14770934777E+04  0.14770934777E+04  0.25500000920E-02 0.  1.
        2   -1    0    0  501    0  0.00000000000E+00  0.00000000000E+00 -0.17112952378E+04  0.17112952378E+04  0.25500000920E-02 0. -1.
    10030    2    1    2    0    0  0.00000000000E+00  0.00000000000E+00 -0.23420176007E+03  0.31883887154E+04  0.31797754852E+04 0.  0.
        4    1    3    3  502    0 -0.14704484847E+04 -0.50808098960E+03 -0.44567185141E+03  0.16183294011E+04  0.12699999809E+01 0. -1.
       -4    1    3    3    0  502  0.14704484847E+04  0.50808098960E+03  0.21147009133E+03  0.15700593144E+04  0.12699999809E+01 0.  1.
</event>
<event>
 5   0  0.5281187E-07  0.3210383E+04  0.7818609E-02  0.8186081E-01
        1   -1    0    0  501    0  0.00000000000E+00  0.00000000000E+00  0.22263951021E+04  0.22263951021E+04  0.50400001928E-02 0.  1.
       -1   -1    0    0    0  501  0.00000000000E+00  0.00000000000E+00 -0.11573143726E+04  0.11573143726E+04  0.50400001928E-02 0. -1.
    10030    2    1    2    0    0  0.00000000000E+00  0.00000000000E+00  0.10690807295E+04  0.33837094747E+04  0.32103825634E+04 0.  0.
        5    1    3    3  502    0  0.67836053622E+03 -0.14501610644E+04  0.41218298485E+03  0.16531960056E+04  0.46999998093E+01 0.  1.
       -5    1    3    3    0  502 -0.67836053622E+03  0.14501610644E+04  0.65689774460E+03  0.17305134691E+04  0.46999998093E+01 0. -1.
</event>
<event>
 5   0  0.5317728E-07  0.3189649E+04  0.7818609E-02  0.8191556E-01
       -1   -1    0    0    0  501  0.00000000000E+00  0.00000000000E+00  0.21934232390E+04  0.21934232390E+04  0.50400001928E-02 0. -1.
        1   -1    0    0  501    0  0.00000000000E+00  0.00000000000E+00 -0.11595872098E+04  0.11595872098E+04  0.50400001928E-02 0.  1.
    10030    2    1    2    0    0  0.00000000000E+00  0.00000000000E+00  0.10338360292E+04  0.33530104489E+04  0.31896492182E+04 0.  0.
        2    1    3    3  502    0  0.61914238635E+03 -0.14696441290E+04  0.53433058475E+03  0.16818740542E+04  0.25500000920E-02 0.  1.
       -2    1    3    3    0  502 -0.61914238635E+03  0.14696441290E+04  0.49950544441E+03  0.16711363946E+04  0.25500000920E-02 0. -1.
</event>
<event>
 5   0  0.5233813E-07  0.3089206E+04  0.7818609E-02  0.8218707E-01
        1   -1    0    0  501    0  0.00000000000E+00  0.00000000000E+00  0.15152285074E+04  0.15152285074E+04  0.50400001928E-02 0. -1.
       -1   -1    0    0    0  501  0.00000000000E+00  0.00000000000E+00 -0.15745464628E+04  0.15745464628E+04  0.50400001928E-02 0.  1.
    10030    2    1    2    0    0  0.00000000000E+00  0.00000000000E+00 -0.59317955433E+02  0.30897749702E+04  0.30892055203E+04 0.  0.
        4    1    3    3  502    0  0.50756370048E+03  0.34021121098E+02 -0.14883577021E+04  0.15728917983E+04  0.12699999809E+01 0.  1.
       -4    1    3    3    0  502 -0.50756370048E+03 -0.34021121098E+02  0.14290397467E+04  0.15168831719E+04  0.12699999809E+01 0. -1.
</event>
<event>
 5   0  0.5233813E-07  0.3191020E+04  0.7818609E-02  0.8191193E-01
       -1   -1    0    0    0  501  0.00000000000E+00  0.00000000000E+00  0.16116130518E+04  0.16116130518E+04  0.50400001928E-02 0. -1.
        1   -1    0    0  501    0  0.00000000000E+00  0.00000000000E+00 -0.15795678317E+04  0.15795678317E+04  0.50400001928E-02 0.  1.
    10030    2    1    2    0    0  0.00000000000E+00  0.00000000000E+00  0.32045220147E+02  0.31911808835E+04  0.31910199835E+04 0.  0.
        4    1    3    3  502    0 -0.22846269494E+03  0.13698537787E+04  0.80152764614E+03  0.16034783311E+04  0.12699999809E+01 0. -1.
       -4    1    3    3    0  502  0.22846269494E+03 -0.13698537787E+04 -0.76948242599E+03  0.15877025524E+04  0.12699999809E+01 0.  1.
</event>
<event>
 5   0  0.1556396E-06  0.3191324E+04  0.7818609E-02  0.8191112E-01
        2   -1    0    0  501    0  0.00000000000E+00  0.00000000000E+00  0.13689842488E+04  0.13689842488E+04  0.25500000920E-02 0.  1.
       -2   -1    0    0    0  501  0.00000000000E+00  0.00000000000E+00 -0.18598729208E+04  0.18598729208E+04  0.25500000920E-02 0. -1.
    10030    2    1    2    0    0  0.00000000000E+00  0.00000000000E+00 -0.49088867195E+03  0.32288571696E+04  0.31913236961E+04 0.  0.
        3    1    3    3  502    0  0.12893133968E+04 -0.76940318724E+03  0.30111873322E+03  0.15313336676E+04  0.10100000352E+00 0.  1.
       -3    1    3    3    0  502 -0.12893133968E+04  0.76940318724E+03 -0.79200740518E+03  0.16975235020E+04  0.10100000352E+00 0. -1.
</event>
<event>
 5   0  0.5317728E-07  0.3143615E+04  0.7818609E-02  0.8203869E-01
        1   -1    0    0  501    0  0.00000000000E+00  0.00000000000E+00  0.13372722110E+04  0.13372722110E+04  0.50400001928E-02 0. -1.
       -1   -1    0    0    0  501  0.00000000000E+00  0.00000000000E+00 -0.18474762905E+04  0.18474762905E+04  0.50400001928E-02 0.  1.
    10030    2    1    2    0    0  0.00000000000E+00  0.00000000000E+00 -0.51020407950E+03  0.31847485016E+04  0.31436149280E+04 0.  0.
        2    1    3    3  502    0 -0.53189093666E+03 -0.14729236064E+03 -0.17460846875E+04  0.18312331211E+04  0.25500000920E-02 0.  1.
       -2    1    3    3    0  502  0.53189093666E+03  0.14729236064E+03  0.12358806080E+04  0.13535153805E+04  0.25500000920E-02 0. -1.
</event>
<event>
 5   0  0.1556396E-06  0.3189541E+04  0.7818609E-02  0.8191585E-01
        2   -1    0    0  501    0  0.00000000000E+00  0.00000000000E+00  0.20305868180E+04  0.20305868180E+04  0.25500000920E-02 0. -1.
       -2   -1    0    0    0  501  0.00000000000E+00  0.00000000000E+00 -0.12524912924E+04  0.12524912924E+04  0.25500000920E-02 0.  1.
    10030    2    1    2    0    0  0.00000000000E+00  0.00000000000E+00  0.77809552561E+03  0.32830781105E+04  0.31895405990E+04 0.  0.
        3    1    3    3  502    0 -0.68653988403E+03  0.14222447151E+04  0.61730596659E+03  0.16956366676E+04  0.10100000352E+00 0. -1.
       -3    1    3    3    0  502  0.68653988403E+03 -0.14222447151E+04  0.16078955902E+03  0.15874414428E+04  0.10100000352E+00 0.  1.
</event>
<event>
 5   0  0.5281187E-07  0.3202523E+04  0.7818609E-02  0.8188151E-01
       -1   -1    0    0    0  501  0.00000000000E+00  0.00000000000E+00  0.19590513774E+04  0.19590513774E+04  0.50400001928E-02 0. -1.
        1   -1    0    0  501    0  0.00000000000E+00  0.00000000000E+00 -0.13088161284E+04  0.13088161284E+04  0.50400001928E-02 0.  1.
    10030    2    1    2    0    0  0.00000000000E+00  0.00000000000E+00  0.65023524896E+03  0.32678675059E+04  0.32025227801E+04 0.  0.
        5    1    3    3  502    0 -0.61185361877E+03  0.14191728198E+04 -0.10247871720E+03  0.15488512907E+04  0.46999998093E+01 0.  1.
       -5    1    3    3    0  502  0.61185361877E+03 -0.14191728198E+04  0.75271396616E+03  0.17190162152E+04  0.46999998093E+01 0. -1.
</event>
<event>
 5   0  0.1556396E-06  0.3201037E+04  0.7818609E-02  0.8188543E-01
        2   -1    0    0  501    0  0.00000000000E+00  0.00000000000E+00  0.12841580453E+04  0.12841580453E+04  0.25500000920E-02 0.  1.
       -2   -1    0    0    0  501  0.00000000000E+00  0.00000000000E+00 -0.19948157665E+04  0.19948157665E+04  0.25500000920E-02 0. -1.
    10030    2    1    2    0    0  0.00000000000E+00  0.00000000000E+00 -0.71065772120E+03  0.32789738118E+04  0.32010365293E+04 0.  0.
        3    1    3    3  502    0  0.14519433784E+04 -0.65482205812E+03 -0.51640633779E+03  0.16743975089E+04  0.10100000352E+00 0. -1.
       -3    1    3    3    0  502 -0.14519433784E+04  0.65482205812E+03 -0.19425138342E+03  0.16045763030E+04  0.10100000352E+00 0.  1.
</event>
<event>
 5   0  0.5177039E-07  0.3226742E+04  0.7818609E-02  0.8181790E-01
       -1   -1    0    0    0  501  0.00000000000E+00  0.00000000000E+00  0.19739054737E+04  0.19739054737E+04  0.50400001928E-02 0. -1.
        1   -1    0    0  501    0  0.00000000000E+00  0.00000000000E+00 -0.13186882895E+04  0.13186882895E+04  0.50400001928E-02 0.  1.
    10030    2    1    2    0    0  0.00000000000E+00  0.00000000000E+00  0.65521718419E+03  0.32925937633E+04  0.32267420305E+04 0.  0.
        3    1    3    3  502    0  0.57974175341E+03 -0.47768550610E+03 -0.11293548605E+04  0.13563651258E+04  0.10100000352E+00 0.  1.
       -3    1    3    3    0  502 -0.57974175341E+03  0.47768550610E+03  0.17845720447E+04  0.19362286374E+04  0.10100000352E+00 0. -1.
</event>
<event>
 5   0  0.5281187E-07  0.3186940E+04  0.7818609E-02  0.8192275E-01
       -1   -1    0    0    0  501  0.00000000000E+00  0.00000000000E+00  0.17540862228E+04  0.17540862228E+04  0.50400001928E-02 0. -1.
        1   -1    0    0  501    0  0.00000000000E+00  0.00000000000E+00 -0.14475605418E+04  0.14475605418E+04  0.50400001928E-02 0.  1.
    10030    2    1    2    0    0  0.00000000000E+00  0.00000000000E+00  0.30652568106E+03  0.32016467646E+04  0.31869395997E+04 0.  0.
        5    1    3    3  502    0 -0.20319517437E+03 -0.74745254481E+02  0.17392339739E+04  0.17526642684E+04  0.46999998093E+01 0. -1.
       -5    1    3    3    0  502  0.20319517437E+03  0.74745254481E+02 -0.14327082928E+04  0.14489824962E+04  0.46999998093E+01 0.  1.
</event>
<event>
 5   0  0.1572769E-06  0.3188563E+04  0.7818609E-02  0.8191844E-01
        2   -1    0    0  501    0  0.00000000000E+00  0.00000000000E+00  0.22149859471E+04  0.22149859471E+04  0.25500000920E-02 0.  1.
       -2   -1    0    0    0  501  0.00000000000E+00  0.00000000000E+00 -0.11475165569E+04  0.11475165569E+04  0.25500000920E-02 0. -1.
    10030    2    1    2    0    0  0.00000000000E+00  0.00000000000E+00  0.10674693902E+04  0.33625025040E+04  0.31885627154E+04 0.  0.
        5    1    3    3  502    0  0.12867600782E+04 -0.73171078564E+03  0.11581133969E+04  0.18794682500E+04  0.46999998093E+01 0.  1.
       -5    1    3    3    0  502 -0.12867600782E+04  0.73171078564E+03 -0.90644006716E+02  0.14830342540E+04  0.46999998093E+01 0. -1.
</event>
<event>
 5   0  0.5177039E-07  0.3212020E+04  0.7818609E-02  0.8185650E-01
       -1   -1    0    0    0  501  0.00000000000E+00  0.00000000000E+00  0.16529786989E+04  0.16529786989E+04  0.50400001928E-02 0. -1.
        1   -1    0    0  501    0  0.00000000000E+00  0.00000000000E+00 -0.15603762426E+04  0.15603762426E+04  0.50400001928E-02 0.  1.
    10030    2    1    2    0    0  0.00000000000E+00  0.00000000000E+00  0.92602456299E+02  0.32133549414E+04  0.32120203556E+04 0.  0.
        3    1    3    3  502    0  0.10396037398E+04 -0.12162574520E+04  0.18496096584E+03  0.16106733668E+04  0.10100000352E+00 0.  1.
       -3    1    3    3    0  502 -0.10396037398E+04  0.12162574520E+04 -0.92358509537E+02  0.16026815747E+04  0.10100000352E+00 0. -1.
</event>
<event>
 5   0  0.5317728E-07  0.3313667E+04  0.7818609E-02  0.8159426E-01
       -1   -1    0    0    0  501  0.00000000000E+00  0.00000000000E+00  0.23530212931E+04  0.23530212931E+04  0.50400001928E-02 0. -1.
        1   -1    0    0  501    0  0.00000000000E+00  0.00000000000E+00 -0.11666267352E+04  0.11666267352E+04  0.50400001928E-02 0.  1.
    10030    2    1    2    0    0  0.00000000000E+00  0.00000000000E+00  0.11863945579E+04  0.35196480283E+04  0.33136671825E+04 0.  0.
        2    1    3    3  502    0 -0.45013951546E+03  0.15899808523E+04  0.72080192056E+03  0.18028366822E+04  0.25500000920E-02 0. -1.
       -2    1    3    3    0  502  0.45013951546E+03 -0.15899808523E+04  0.46559263733E+03  0.17168113461E+04  0.25500000920E-02 0.  1.
</event>
<event>
 5   0  0.1493485E-06  0.3204160E+04  0.7818609E-02  0.8187720E-01
        2   -1    0    0  501    0  0.00000000000E+00  0.00000000000E+00  0.12292068341E+04  0.12292068341E+04  0.25500000920E-02 0. -1.
       -2   -1    0    0    0  501  0.00000000000E+00  0.00000000000E+00 -0.20880616410E+04  0.20880616410E+04  0.25500000920E-02 0.  1.
    10030    2    1    2    0    0  0.00000000000E+00  0.00000000000E+00 -0.85885480687E+03  0.33172684751E+04  0.32041595710E+04 0.  0.
        2    1    3    3  502    0  0.12599635059E+03 -0.11447627121E+04 -0.15824302070E+04  0.19571515290E+04  0.25500000920E-02 0.  1.
       -2    1    3    3    0  502 -0.12599635059E+03  0.11447627121E+04  0.72357540010E+03  0.13601169461E+04  0.25500000920E-02 0. -1.
</event>
<event>
 5   0  0.1493485E-06  0.3213457E+04  0.7818609E-02  0.8185272E-01
       -2   -1    0    0    0  501  0.00000000000E+00  0.00000000000E+00  0.14758164079E+04  0.14758164079E+04  0.25500000920E-02 0. -1.
        2   -1    0    0  501    0  0.00000000000E+00  0.00000000000E+00 -0.17492527326E+04  0.17492527326E+04  0.25500000920E-02 0.  1.
    10030    2    1    2    0    0  0.00000000000E+00  0.00000000000E+00 -0.27343632471E+03  0.32250691404E+04  0.32134566337E+04 0.  0.
        2    1    3    3  502    0  0.14682506963E+04 -0.27804878146E+03 -0.72919431729E+03  0.16627674475E+04  0.25500000920E-02 0.  1.
       -2    1    3    3    0  502 -0.14682506963E+04  0.27804878146E+03  0.45575799257E+03  0.15623016930E+04  0.25500000920E-02 0. -1.
</event>
<event>
 5   0  0.1508771E-06  0.3201213E+04  0.7818609E-02  0.8188497E-01
        2   -1    0    0  501    0  0.00000000000E+00  0.00000000000E+00  0.28088961139E+04  0.28088961139E+04  0.25500000920E-02 0. -1.
       -2   -1    0    0    0  501  0.00000000000E+00  0.00000000000E+00 -0.91208098766E+03  0.91208098766E+03  0.25500000920E-02 0.  1.
    10030    2    1    2    0    0  0.00000000000E+00  0.00000000000E+00  0.18968151262E+04  0.37209771015E+04  0.32012127338E+04 0.  0.
        4    1    3    3  502    0 -0.37595232226E+03  0.14825164478E+04  0.14969944624E+04  0.21401376591E+04  0.12699999809E+01 0. -1.
       -4    1    3    3    0  502  0.37595232226E+03 -0.14825164478E+04  0.39982066386E+03  0.15808394424E+04  0.12699999809E+01 0.  1.
</event>
<event>
 5   0  0.1538349E-06  0.3195295E+04  0.7818609E-02  0.8190061E-01
        2   -1    0    0  501    0  0.00000000000E+00  0.00000000000E+00  0.27791647064E+04  0.27791647064E+04  0.25500000920E-02 0. -1.
       -2   -1    0    0    0  501  0.00000000000E+00  0.00000000000E+00 -0.91843320427E+03  0.91843320427E+03  0.25500000920E-02 0.  1.
    10030    2    1    2    0    0  0.00000000000E+00  0.00000000000E+00  0.18607315022E+04  0.36975979107E+04  0.31952947573E+04 0.  0.
        1    1    3    3  502    0 -0.43783282910E+03 -0.84399971776E+03  0.24161161646E+04  0.25964688388E+04  0.50400001928E-02 0. -1.
       -1    1    3    3    0  502  0.43783282910E+03  0.84399971776E+03 -0.55538466241E+03  0.11011290720E+04  0.50400001928E-02 0.  1.
</event>
<event>
 5   0  0.4995625E-07  0.3215309E+04  0.7818609E-02  0.8184786E-01
       -4   -1    0    0    0  501  0.00000000000E+00  0.00000000000E+00  0.20340820987E+04  0.20340824951E+04  0.12699999809E+01 0.  1.
        4   -1    0    0  501    0  0.00000000000E+00  0.00000000000E+00 -0.12706227523E+04  0.12706233870E+04  0.12699999809E+01 0. -1.
    10030    2    1    2    0    0  0.00000000000E+00  0.00000000000E+00  0.76345934636E+03  0.33047058821E+04  0.32153088178E+04 0.  0.
        1    1    3    3  502    0  0.16274349729E+03  0.22581937824E+02  0.20254306335E+04  0.20320838175E+04  0.50400001928E-02 0.  1.
       -1    1    3    3    0  502 -0.16274349729E+03 -0.22581937824E+02 -0.12619712872E+04  0.12726220647E+04  0.50400001928E-02 0. -1.
</event>
<event>
 5   0  0.1493485E-06  0.3203818E+04  0.7818609E-02  0.8187810E-01
        2   -1    0    0  501    0  0.00000000000E+00  0.00000000000E+00  0.20809772223E+04  0.20809772223E+04  0.25500000920E-02 0.  1.
       -2   -1    0    0    0  501  0.00000000000E+00  0.00000000000E+00 -0.12331285331E+04  0.12331285331E+04  0.25500000920E-02 0. -1.
    10030    2    1    2    0    0  0.00000000000E+00  0.00000000000E+00  0.84784868919E+03  0.33141057554E+04  0.32038179659E+04 0.  0.
        2    1    3    3  502    0  0.15812498163E+04  0.32004434445E+02  0.16073080065E+03  0.15897199929E+04  0.25500000920E-02 0. -1.
       -2    1    3    3    0  502 -0.15812498163E+04 -0.32004434445E+02  0.68711788855E+03  0.17243857626E+04  0.25500000920E-02 0.  1.
</event>
<event>
 5   0  0.1538349E-06  0.3200266E+04  0.7818609E-02  0.8188747E-01
        2   -1    0    0  501    0  0.00000000000E+00  0.00000000000E+00  0.17427842550E+04  0.17427842550E+04  0.25500000920E-02 0. -1.
       -2   -1    0    0    0  501  0.00000000000E+00  0.00000000000E+00 -0.14691582494E+04  0.14691582494E+04  0.25500000920E-02 0.  1.
    10030    2    1    2    0    0  0.00000000000E+00  0.00000000000E+00  0.27362600557E+03  0.32119425044E+04  0.32002661546E+04 0.  0.
        1    1    3    3  502    0 -0.13195628960E+04  0.82274025911E+03  0.51538691587E+03  0.16382220374E+04  0.50400001928E-02 0. -1.
       -1    1    3    3    0  502  0.13195628960E+04 -0.82274025911E+03 -0.24176091030E+03  0.15737204670E+04  0.50400001928E-02 0.  1.
</event>
<event>
 5   0  0.4995625E-07  0.3179830E+04  0.7818609E-02  0.8194165E-01
        3   -1    0    0  501    0  0.00000000000E+00  0.00000000000E+00  0.25449740957E+04  0.25449740977E+04  0.10100000352E+00 0. -1.
       -3   -1    0    0    0  501  0.00000000000E+00  0.00000000000E+00 -0.99326315679E+03  0.99326316193E+03  0.10100000352E+00 0.  1.
    10030    2    1    2    0    0  0.00000000000E+00  0.00000000000E+00  0.15517109389E+04  0.35382372596E+04  0.31798295658E+04 0.  0.
        5    1    3    3  502    0  0.52450116721E+03  0.12767352367E+04  0.16538787014E+04  0.21541799340E+04  0.46999998093E+01 0. -1.
       -5    1    3    3    0  502 -0.52450116721E+03 -0.12767352367E+04 -0.10216776245E+03  0.13840573257E+04  0.46999998093E+01 0.  1.
</event>
<event>
 5   0  0.4995625E-07  0.3202440E+04  0.7818609E-02  0.8188173E-01
        3   -1    0    0  501    0  0.00000000000E+00  0.00000000000E+00  0.97318250744E+03  0.97318251268E+03  0.10100000352E+00 0. -1.
       -3   -1    0    0    0  501  0.00000000000E+00  0.00000000000E+00 -0.26345569069E+04  0.26345569089E+04  0.10100000352E+00 0.  1.
    10030    2    1    2    0    0  0.00000000000E+00  0.00000000000E+00 -0.16613743995E+04  0.36077394215E+04  0.32024395136E+04 0.  0.
        3    1    3    3  502    0  0.15451726970E+04  0.54954341176E+02 -0.12997015752E+04  0.20198521821E+04  0.10100000352E+00 0.  1.
       -3    1    3    3    0  502 -0.15451726970E+04 -0.54954341176E+02 -0.36167282434E+03  0.15878872394E+04  0.10100000352E+00 0. -1.
</event>
<event>
 5   0  0.5177039E-07  0.3204492E+04  0.7818609E-02  0.8187632E-01
       -1   -1    0    0    0  501  0.00000000000E+00  0.00000000000E+00  0.28449973053E+04  0.28449973053E+04  0.50400001928E-02 0.  1.
        1   -1    0    0  501    0  0.00000000000E+00  0.00000000000E+00 -0.90235308901E+03  0.90235308902E+03  0.50400001928E-02 0. -1.
    10030    2    1    2    0    0  0.00000000000E+00  0.00000000000E+00  0.19426442163E+04  0.37473503944E+04  0.32044919140E+04 0.  0.
        3    1    3    3  502    0 -0.15423855744E+04  0.23020693594E+02  0.46467270265E+03  0.16110257426E+04  0.10100000352E+00 0.  1.
       -3    1    3    3    0  502  0.15423855744E+04 -0.23020693594E+02  0.14779715137E+04  0.21363246518E+04  0.10100000352E+00 0. -1.
</event>
<event>
 5   0  0.1572769E-06  0.3245062E+04  0.7818609E-02  0.8177017E-01
       -2   -1    0    0    0  501  0.00000000000E+00  0.00000000000E+00  0.22237071383E+04  0.22237071383E+04  0.25500000920E-02 0. -1.
        2   -1    0    0  501    0  0.00000000000E+00  0.00000000000E+00 -0.11838819891E+04  0.11838819891E+04  0.25500000920E-02 0.  1.
    10030    2    1    2    0    0  0.00000000000E+00  0.00000000000E+00  0.10398251492E+04  0.34075891273E+04  0.32450619901E+04 0.  0.
        5    1    3    3  502    0 -0.12180359213E+03 -0.15490063053E+04  0.29254404171E+02  0.15540703199E+04  0.46999998093E+01 0.  1.
       -5    1    3    3    0  502  0.12180359213E+03  0.15490063053E+04  0.10105707450E+04  0.18535188075E+04  0.46999998093E+01 0. -1.
</event>
<event>
 5   0  0.5233813E-07  0.3189678E+04  0.7818609E-02  0.8191549E-01
       -1   -1    0    0    0  501  0.00000000000E+00  0.00000000000E+00  0.18642292321E+04  0.18642292321E+04  0.50400001928E-02 0.  1.
        1   -1    0    0  501    0  0.00000000000E+00  0.00000000000E+00 -0.13643766827E+04  0.13643766827E+04  0.50400001928E-02 0. -1.
    10030    2    1    2    0    0  0.00000000000E+00  0.00000000000E+00  0.49985254945E+03  0.32286059148E+04  0.31896776611E+04 0.  0.
        4    1    3    3  502    0 -0.13033179082E+04 -0.36269828165E+03 -0.60496512844E+03  0.14819487281E+04  0.12699999809E+01 0. -1.
       -4    1    3    3    0  502  0.13033179082E+04  0.36269828165E+03  0.11048176779E+04  0.17466571866E+04  0.12699999809E+01 0.  1.
</event>
<event>
 5   0  0.1538349E-06  0.2832304E+04  0.7818609E-02  0.8293309E-01
       -2   -1    0    0    0  501  0.00000000000E+00  0.00000000000E+00  0.10079447446E+04  0.10079447447E+04  0.25500000920E-02 0.  1.
        2   -1    0    0  501    0  0.00000000000E+00  0.00000000000E+00 -0.19896791125E+04  0.19896791125E+04  0.25500000920E-02 0. -1.
    10030    2    1    2    0    0  0.00000000000E+00  0.00000000000E+00 -0.98173436784E+03  0.29976238571E+04  0.28323040832E+04 0.  0.
        1    1    3    3  502    0  0.12785222600E+04  0.12027843045E+03 -0.11227061875E+04  0.17057418485E+04  0.50400001928E-02 0. -1.
       -1    1    3    3    0  502 -0.12785222600E+04 -0.12027843045E+03  0.14097181970E+03  0.12918820086E+04  0.50400001928E-02 0.  1.
</event>
<event>
 5   0  0.1493485E-06  0.3121363E+04  0.7818609E-02  0.8209899E-01
        2   -1    0    0  501    0  0.00000000000E+00  0.00000000000E+00  0.25185412778E+04  0.25185412778E+04  0.25500000920E-02 0.  1.
       -2   -1    0    0    0  501  0.00000000000E+00  0.00000000000E+00 -0.96711780210E+03  0.96711780211E+03  0.25500000920E-02 0. -1.
    10030    2    1    2    0    0  0.00000000000E+00  0.00000000000E+00  0.15514234757E+04  0.34856590799E+04  0.31213625904E+04 0.  0.
        2    1    3    3  502    0 -0.10034762272E+04 -0.42698719592E+03 -0.47103139790E+03  0.11879196866E+04  0.25500000920E-02 0. -1.
       -2    1    3    3    0  502  0.10034762272E+04  0.42698719592E+03  0.20224548736E+04  0.22977393934E+04  0.25500000920E-02 0.  1.
</event>
<event>
 5   0  0.5281187E-07  0.3209531E+04  0.7818609E-02  0.8186305E-01
       -1   -1    0    0    0  501  0.00000000000E+00  0.00000000000E+00  0.15108972805E+04  0.15108972805E+04  0.50400001928E-02 0.  1.
        1   -1    0    0  501    0  0.00000000000E+00  0.00000000000E+00 -0.17044656468E+04  0.17044656468E+04  0.50400001928E-02 0. -1.
    10030    2    1    2    0    0  0.00000000000E+00  0.00000000000E+00 -0.19356836635E+03  0.32153629273E+04  0.32095311249E+04 0.  0.
        5    1    3    3  502    0  0.90382579295E+03  0.21345291580E+03  0.12143287879E+04  0.15287510282E+04  0.46999998093E+01 0.  1.
       -5    1    3    3    0  502 -0.90382579295E+03 -0.21345291580E+03 -0.14078971542E+04  0.16866118991E+04  0.46999998093E+01 0. -1.
</event>
<event>
 5   0  0.1508771E-06  0.3212362E+04  0.7818609E-02  0.8185560E-01
       -2   -1    0    0    0  501  0.00000000000E+00  0.00000000000E+00  0.17095084043E+04  0.17095084043E+04  0.25500000920E-02 0.  1.
        2   -1    0    0  501    0  0.00000000000E+00  0.00000000000E+00 -0.15090990709E+04  0.15090990709E+04  0.25500000920E-02 0. -1.
    10030    2    1    2    0    0  0.00000000000E+00  0.00000000000E+00  0.20040933336E+03  0.32186074752E+04  0.32123620870E+04 0.  0.
        4    1    3    3  502    0 -0.11448937501E+04  0.15008155673E+03  0.12188472960E+04  0.16789569728E+04  0.12699999809E+01 0.  1.
       -4    1    3    3    0  502  0.11448937501E+04 -0.15008155673E+03 -0.10184379627E+04  0.15396505023E+04  0.12699999809E+01 0. -1.
</event>
<event>
 5   0  0.1572769E-06  0.3209942E+04  0.7818609E-02  0.8186197E-01
       -2   -1    0    0    0  501  0.00000000000E+00  0.00000000000E+00  0.19237033383E+04  0.19237033383E+04  0.25500000920E-02 0. -1.
        2   -1    0    0  501    0  0.00000000000E+00  0.00000000000E+00 -0.13390482224E+04  0.13390482224E+04  0.25500000920E-02 0.  1.
    10030    2    1    2    0    0  0.00000000000E+00  0.00000000000E+00  0.58465511590E+03  0.32627515608E+04  0.32099417663E+04 0.  0.
        5    1    3    3  502    0 -0.10264057244E+04  0.36307067070E+03 -0.90630179244E+03  0.14165924085E+04  0.46999998093E+01 0.  1.
       -5    1    3    3    0  502  0.10264057244E+04 -0.36307067070E+03  0.14909569083E+04  0.18461591522E+04  0.46999998093E+01 0. -1.
</event>
<event>
 5   0  0.5233813E-07  0.3208270E+04  0.7818609E-02  0.8186636E-01
        1   -1    0    0  501    0  0.00000000000E+00  0.00000000000E+00  0.95989180373E+03  0.95989180374E+03  0.50400001928E-02 0. -1.
       -1   -1    0    0    0  501  0.00000000000E+00  0.00000000000E+00 -0.26807704878E+04  0.26807704878E+04  0.50400001928E-02 0.  1.
    10030    2    1    2    0    0  0.00000000000E+00  0.00000000000E+00 -0.17208786840E+04  0.36406622915E+04  0.32082703246E+04 0.  0.
        4    1    3    3  502    0 -0.57673913634E+01  0.14528458221E+04 -0.88748051038E+02  0.14555658951E+04  0.12699999809E+01 0. -1.
       -4    1    3    3    0  502  0.57673913634E+01 -0.14528458221E+04 -0.16321306330E+04  0.21850963964E+04  0.12699999809E+01 0.  1.
</event>
<event>
 5   0  0.1538349E-06  0.3241221E+04  0.7818609E-02  0.8178015E-01
       -2   -1    0    0    0  501  0.00000000000E+00  0.00000000000E+00  0.14031434022E+04  0.14031434022E+04  0.25500000920E-02 0. -1.
        2   -1    0    0  501    0  0.00000000000E+00  0.00000000000E+00 -0.18717823139E+04  0.18717823139E+04  0.25500000920E-02 0.  1.
    10030    2    1    2    0    0  0.00000000000E+00  0.00000000000E+00 -0.46863891172E+03  0.32749257161E+04  0.32412213772E+04 0.  0.
        1    1    3    3  502    0 -0.11867262501E+04 -0.10002354314E+04  0.23699539079E+03  0.15700181292E+04  0.50400001928E-02 0. -1.
       -1    1    3    3    0  502  0.11867262501E+04  0.10002354314E+04 -0.70563430250E+03  0.17049075869E+04  0.50400001928E-02 0.  1.
</event>
<event>
 5   0  0.5281187E-07  0.3122909E+04  0.7818609E-02  0.8209479E-01
       -1   -1    0    0    0  501  0.00000000000E+00  0.00000000000E+00  0.14964598039E+04  0.14964598039E+04  0.50400001928E-02 0.  1.
        1   -1    0    0  501    0  0.00000000000E+00  0.00000000000E+00 -0.16292719197E+04  0.16292719197E+04  0.50400001928E-02 0. -1.
    10030    2    1    2    0    0  0.00000000000E+00  0.00000000000E+00 -0.13281211576E+03  0.31257317236E+04  0.31229088603E+04 0.  0.
        5    1    3    3  502    0  0.67368868643E+03 -0.27755165544E+03  0.13158659858E+04  0.15041332223E+04  0.46999998093E+01 0.  1.
       -5    1    3    3    0  502 -0.67368868643E+03  0.27755165544E+03 -0.14486781016E+04  0.16215985014E+04  0.46999998093E+01 0. -1.
</event>
<event>
 5   0  0.5177039E-07  0.3198919E+04  0.7818609E-02  0.8189103E-01
        1   -1    0    0  501    0  0.00000000000E+00  0.00000000000E+00  0.24915579395E+04  0.24915579395E+04  0.50400001928E-02 0.  1.
       -1   -1    0    0    0  501  0.00000000000E+00  0.00000000000E+00 -0.10267756047E+04  0.10267756047E+04  0.50400001928E-02 0. -1.
    10030    2    1    2    0    0  0.00000000000E+00  0.00000000000E+00  0.14647823348E+04  0.35183335442E+04  0.31989191362E+04 0.  0.
        3    1    3    3  502    0 -0.13743398675E+04  0.81730551191E+03  0.69018600235E+03  0.17415955614E+04  0.10100000352E+00 0. -1.
       -3    1    3    3    0  502  0.13743398675E+04 -0.81730551191E+03  0.77459633245E+03  0.17767379829E+04  0.10100000352E+00 0.  1.
</event>
<event>
 5   0  0.5177039E-07  0.3180151E+04  0.7818609E-02  0.8194079E-01
       -1   -1    0    0    0  501  0.00000000000E+00  0.00000000000E+00  0.17306678411E+04  0.17306678411E+04  0.50400001928E-02 0. -1.
        1   -1    0    0  501    0  0.00000000000E+00  0.00000000000E+00 -0.14609047303E+04  0.14609047303E+04  0.50400001928E-02 0.  1.
    10030    2    1    2    0    0  0.00000000000E+00  0.00000000000E+00  0.26976311079E+03  0.31915725713E+04  0.31801514653E+04 0.  0.
        3    1    3    3  502    0 -0.13452816453E+04 -0.17634503208E+03 -0.69722857526E+03  0.15254533660E+04  0.10100000352E+00 0.  1.
       -3    1    3    3    0  502  0.13452816453E+04  0.17634503208E+03  0.96699168605E+03  0.16661192054E+04  0.10100000352E+00 0. -1.
</event>
<event>
 5   0  0.5370912E-07  0.3219169E+04  0.7818609E-02  0.8183773E-01
        1   -1    0    0  501    0  0.00000000000E+00  0.00000000000E+00  0.21611509479E+04  0.21611509479E+04  0.50400001928E-02 0.  1.
       -1   -1    0    0    0  501  0.00000000000E+00  0.00000000000E+00 -0.11987884928E+04  0.11987884928E+04  0.50400001928E-02 0. -1.
    10030    2    1    2    0    0  0.00000000000E+00  0.00000000000E+00  0.96236245509E+03  0.33599394407E+04  0.32191693882E+04 0.  0.
        1    1    3    3  502    0 -0.11832706720E+03 -0.24228671947E+03  0.21374108533E+04  0.21543512492E+04  0.50400001928E-02 0.  1.
       -1    1    3    3    0  502  0.11832706720E+03  0.24228671947E+03 -0.11750483982E+04  0.12055881915E+04  0.50400001928E-02 0. -1.
</event>
<event>
 5   0  0.1556396E-06  0.3196264E+04  0.7818609E-02  0.8189804E-01
        2   -1    0    0  501    0  0.00000000000E+00  0.00000000000E+00  0.16603948854E+04  0.16603948854E+04  0.25500000920E-02 0. -1.
       -2   -1    0    0    0  501  0.00000000000E+00  0.00000000000E+00 -0.15382043326E+04  0.15382043326E+04  0.25500000920E-02 0.  1.
    10030    2    1    2    0    0  0.00000000000E+00  0.00000000000E+00  0.12219055273E+03  0.31985992180E+04  0.31962644488E+04 0.  0.
        3    1    3    3  502    0  0.73267315073E+03  0.49049689433E+03 -0.12727810063E+04  0.15483438408E+04  0.10100000352E+00 0.  1.
       -3    1    3    3    0  502 -0.73267315073E+03 -0.49049689433E+03  0.13949715591E+04  0.16502553772E+04  0.10100000352E+00 0. -1.
</event>
<event>
 5   0  0.4995625E-07  0.3182556E+04  0.7818609E-02  0.8193439E-01
       -3   -1    0    0    0  501  0.00000000000E+00  0.00000000000E+00  0.19100227073E+04  0.19100227099E+04  0.10100000352E+00 0. -1.
        3   -1    0    0  501    0  0.00000000000E+00  0.00000000000E+00 -0.13257254539E+04  0.13257254578E+04  0.10100000352E+00 0.  1.
    10030    2    1    2    0    0  0.00000000000E+00  0.00000000000E+00  0.58429725333E+03  0.32357481677E+04  0.31825560364E+04 0.  0.
        4    1    3    3  502    0 -0.81368777808E+03 -0.13215064365E+04  0.64973283979E+03  0.16824450773E+04  0.12699999809E+01 0. -1.
       -4    1    3    3    0  502  0.81368777808E+03  0.13215064365E+04 -0.65435586463E+02  0.15533030905E+04  0.12699999809E+01 0.  1.
</event>
<event>
 5   0  0.1556396E-06  0.3198137E+04  0.7818609E-02  0.8189309E-01
        2   -1    0    0  501    0  0.00000000000E+00  0.00000000000E+00  0.17485233640E+04  0.17485233640E+04  0.25500000920E-02 0. -1.
       -2   -1    0    0    0  501  0.00000000000E+00  0.00000000000E+00 -0.14623879670E+04  0.14623879670E+04  0.25500000920E-02 0.  1.
    10030    2    1    2    0    0  0.00000000000E+00  0.00000000000E+00  0.28613539695E+03  0.32109113310E+04  0.31981366622E+04 0.  0.
        3    1    3    3  502    0  0.10623544480E+04 -0.11283080083E+04  0.53877854365E+03  0.16407188254E+04  0.10100000352E+00 0.  1.
       -3    1    3    3    0  502 -0.10623544480E+04  0.11283080083E+04 -0.25264314670E+03  0.15701925056E+04  0.10100000352E+00 0. -1.
</event>
<event>
 5   0  0.1572769E-06  0.3196566E+04  0.7818609E-02  0.8189725E-01
        2   -1    0    0  501    0  0.00000000000E+00  0.00000000000E+00  0.16919457641E+04  0.16919457641E+04  0.25500000920E-02 0. -1.
       -2   -1    0    0    0  501  0.00000000000E+00  0.00000000000E+00 -0.15098048084E+04  0.15098048084E+04  0.25500000920E-02 0.  1.
    10030    2    1    2    0    0  0.00000000000E+00  0.00000000000E+00  0.18214095569E+03  0.32017505726E+04  0.31965655634E+04 0.  0.
        5    1    3    3  502    0  0.82379117349E+03  0.11739739097E+04  0.79765014698E+03  0.16410711396E+04  0.46999998093E+01 0. -1.
       -5    1    3    3    0  502 -0.82379117349E+03 -0.11739739097E+04 -0.61550919129E+03  0.15606794330E+04  0.46999998093E+01 0.  1.
</event>
<event>
 5   0  0.5317728E-07  0.3212414E+04  0.7818609E-02  0.8185546E-01
       -1   -1    0    0    0  501  0.00000000000E+00  0.00000000000E+00  0.13178079996E+04  0.13178079996E+04  0.50400001928E-02 0. -1.
        1   -1    0    0  501    0  0.00000000000E+00  0.00000000000E+00 -0.19577211271E+04  0.19577211271E+04  0.50400001928E-02 0.  1.
    10030    2    1    2    0    0  0.00000000000E+00  0.00000000000E+00 -0.63991312758E+03  0.32755291267E+04  0.32124137730E+04 0.  0.
        2    1    3    3  502    0  0.48082443651E+03  0.68855683881E+03 -0.17160164545E+04  0.19105012775E+04  0.25500000920E-02 0.  1.
       -2    1    3    3    0  502 -0.48082443651E+03 -0.68855683881E+03  0.10761033269E+04  0.13650278493E+04  0.25500000920E-02 0. -1.
</event>
<event>
 5   0  0.5233813E-07  0.3173088E+04  0.7818609E-02  0.8195961E-01
       -1   -1    0    0    0  501  0.00000000000E+00  0.00000000000E+00  0.14325574465E+04  0.14325574465E+04  0.50400001928E-02 0.  1.
        1   -1    0    0  501    0  0.00000000000E+00  0.00000000000E+00 -0.17570822809E+04  0.17570822809E+04  0.50400001928E-02 0. -1.
    10030    2    1    2    0    0  0.00000000000E+00  0.00000000000E+00 -0.32452483440E+03  0.31896397274E+04  0.31730876481E+04 0.  0.
        4    1    3    3  502    0  0.74240264144E+03 -0.19137437186E+03  0.12339878093E+04  0.14527605992E+04  0.12699999809E+01 0.  1.
       -4    1    3    3    0  502 -0.74240264144E+03  0.19137437186E+03 -0.15585126437E+04  0.17368791282E+04  0.12699999809E+01 0. -1.
</event>
<event>
 5   0  0.1493485E-06  0.3137530E+04  0.7818609E-02  0.8205513E-01
        2   -1    0    0  501    0  0.00000000000E+00  0.00000000000E+00  0.15438561717E+04  0.15438561717E+04  0.25500000920E-02 0. -1.
       -2   -1    0    0    0  501  0.00000000000E+00  0.00000000000E+00 -0.15940754516E+04  0.15940754516E+04  0.25500000920E-02 0.  1.
    10030    2    1    2    0    0  0.00000000000E+00  0.00000000000E+00 -0.50219279886E+02  0.31379316234E+04  0.31375297444E+04 0.  0.
        2    1    3    3  502    0  0.20217943935E+03  0.52707190437E+03  0.14387519507E+04  0.15455382537E+04  0.25500000920E-02 0. -1.
       -2    1    3    3    0  502 -0.20217943935E+03 -0.52707190437E+03 -0.14889712306E+04  0.15923933696E+04  0.25500000920E-02 0.  1.
</event>
<event>
 5   0  0.1556396E-06  0.3200374E+04  0.7818609E-02  0.8188718E-01
        2   -1    0    0  501    0  0.00000000000E+00  0.00000000000E+00  0.12368795787E+04  0.12368795787E+04  0.25500000920E-02 0.  1.
       -2   -1    0    0    0  501  0.00000000000E+00  0.00000000000E+00 -0.20702088698E+04  0.20702088698E+04  0.25500000920E-02 0. -1.
    10030    2    1    2    0    0  0.00000000000E+00  0.00000000000E+00 -0.83332929111E+03  0.33070884485E+04  0.32003743998E+04 0.  0.
        3    1    3    3  502    0 -0.20124982405E+03  0.74297892125E+02 -0.20552819098E+04  0.20664475331E+04  0.10100000352E+00 0. -1.
       -3    1    3    3    0  502  0.20124982405E+03 -0.74297892125E+02  0.12219526186E+04  0.12406409154E+04  0.10100000352E+00 0.  1.
</event>
<event>
 5   0  0.5370912E-07  0.3166842E+04  0.7818609E-02  0.8197629E-01
        1   -1    0    0  501    0  0.00000000000E+00  0.00000000000E+00  0.15976904577E+04  0.15976904577E+04  0.50400001928E-02 0. -1.
       -1   -1    0    0    0  501  0.00000000000E+00  0.00000000000E+00 -0.15692790563E+04  0.15692790563E+04  0.50400001928E-02 0.  1.
    10030    2    1    2    0    0  0.00000000000E+00  0.00000000000E+00  0.28411401390E+02  0.31669695140E+04  0.31668420698E+04 0.  0.
        1    1    3    3  502    0 -0.14790666135E+04  0.32402157656E+03  0.47746741583E+03  0.15876407536E+04  0.50400001928E-02 0. -1.
       -1    1    3    3    0  502  0.14790666135E+04 -0.32402157656E+03 -0.44905601444E+03  0.15793287604E+04  0.50400001928E-02 0.  1.
</event>
<event>
 5   0  0.1572769E-06  0.3224814E+04  0.7818609E-02  0.8182294E-01
        2   -1    0    0  501    0  0.00000000000E+00  0.00000000000E+00  0.15987438110E+04  0.15987438110E+04  0.25500000920E-02 0. -1.
       -2   -1    0    0    0  501  0.00000000000E+00  0.00000000000E+00 -0.16261870927E+04  0.16261870927E+04  0.25500000920E-02 0.  1.
    10030    2    1    2    0    0  0.00000000000E+00  0.00000000000E+00 -0.27443281647E+02  0.32249309037E+04  0.32248141342E+04 0.  0.
        5    1    3    3  502    0  0.21543552617E+03  0.32323234354E+03  0.15512448765E+04  0.15991480140E+04  0.46999998093E+01 0. -1.
       -5    1    3    3    0  502 -0.21543552617E+03 -0.32323234354E+03 -0.15786881581E+04  0.16257828897E+04  0.46999998093E+01 0.  1.
</event>
<event>
 5   0  0.5233813E-07  0.3150784E+04  0.7818609E-02  0.8201937E-01
        1   -1    0    0  501    0  0.00000000000E+00  0.00000000000E+00  0.10002024371E+04  0.10002024371E+04  0.50400001928E-02 0.  1.
       -1   -1    0    0    0  501  0.00000000000E+00  0.00000000000E+00 -0.24813581327E+04  0.24813581327E+04  0.50400001928E-02 0. -1.
    10030    2    1    2    0    0  0.00000000000E+00  0.00000000000E+00 -0.14811556956E+04  0.34815605698E+04  0.31507843161E+04 0.  0.
        4    1    3    3  502    0  0.43940974784E+03 -0.11400313615E+04 -0.18395249488E+04  0.22083038925E+04  0.12699999809E+01 0. -1.
       -4    1    3    3    0  502 -0.43940974784E+03  0.11400313615E+04  0.35836925318E+03  0.12732566773E+04  0.12699999809E+01 0.  1.
</event>
<event>
 5   0  0.5281187E-07  0.3071529E+04  0.7818609E-02  0.8223595E-01
       -1   -1    0    0    0  501  0.00000000000E+00  0.00000000000E+00  0.16690962708E+04  0.16690962708E+04  0.50400001928E-02 0.  1.
        1   -1    0    0  501    0  0.00000000000E+00  0.00000000000E+00 -0.14130835230E+04  0.14130835230E+04  0.50400001928E-02 0. -1.
    10030    2    1    2    0    0  0.00000000000E+00  0.00000000000E+00  0.25601274778E+03  0.30821797938E+04  0.30715288952E+04 0.  0.
        5    1    3    3  502    0  0.58493546451E+03 -0.82427670402E+03 -0.10322768005E+04  0.14447141811E+04  0.46999998093E+01 0. -1.
       -5    1    3    3    0  502 -0.58493546451E+03  0.82427670402E+03  0.12882895482E+04  0.16374656126E+04  0.46999998093E+01 0.  1.
</event>
<event>
 5   0  0.1493485E-06  0.3199469E+04  0.7818609E-02  0.8188957E-01
       -2   -1    0    0    0  501  0.00000000000E+00  0.00000000000E+00  0.11832599087E+04  0.11832599087E+04  0.25500000920E-02 0.  1.
        2   -1    0    0  501    0  0.00000000000E+00  0.00000000000E+00 -0.21627966397E+04  0.21627966397E+04  0.25500000920E-02 0. -1.
    10030    2    1    2    0    0  0.00000000000E+00  0.00000000000E+00 -0.97953673098E+03  0.33460565485E+04  0.31994690526E+04 0.  0.
        2    1    3    3  502    0  0.20700000843E+03 -0.13002150908E+04 -0.14401053270E+04  0.19512333634E+04  0.25500000920E-02 0. -1.
       -2    1    3    3    0  502 -0.20700000843E+03  0.13002150908E+04  0.46056859597E+03  0.13948231850E+04  0.25500000920E-02 0.  1.
</event>
<event>
 5   0  0.5370912E-07  0.3188582E+04  0.7818609E-02  0.8191839E-01
       -1   -1    0    0    0  501  0.00000000000E+00  0.00000000000E+00  0.13221143591E+04  0.13221143592E+04  0.50400001928E-02 0. -1.
        1   -1    0    0  501    0  0.00000000000E+00  0.00000000000E+00 -0.19224993514E+04  0.19224993514E+04  0.50400001928E-02 0.  1.
    10030    2    1    2    0    0  0.00000000000E+00  0.00000000000E+00 -0.60038499230E+03  0.32446137106E+04  0.31885821288E+04 0.  0.
        1    1    3    3  502    0  0.12972122716E+04 -0.12499317883E+03  0.63430319747E+03  0.14493872908E+04  0.50400001928E-02 0. -1.
       -1    1    3    3    0  502 -0.12972122716E+04  0.12499317883E+03 -0.12346881898E+04  0.17952264198E+04  0.50400001928E-02 0.  1.
</event>
<event>
 5   0  0.5317728E-07  0.3204892E+04  0.7818609E-02  0.8187526E-01
        1   -1    0    0  501    0  0.00000000000E+00  0.00000000000E+00  0.17865483026E+04  0.17865483026E+04  0.50400001928E-02 0. -1.
       -1   -1    0    0    0  501  0.00000000000E+00  0.00000000000E+00 -0.14373153537E+04  0.14373153537E+04  0.50400001928E-02 0.  1.
    10030    2    1    2    0    0  0.00000000000E+00  0.00000000000E+00  0.34923294886E+03  0.32238636563E+04  0.32048920765E+04 0.  0.
        2    1    3    3  502    0  0.57004721378E+03  0.21345181654E+03  0.16657265130E+04  0.17734599855E+04  0.25500000920E-02 0. -1.
       -2    1    3    3    0  502 -0.57004721378E+03 -0.21345181654E+03 -0.13164935641E+04  0.14504036708E+04  0.25500000920E-02 0.  1.
</event>
<event>
 5   0  0.1572769E-06  0.3200716E+04  0.7818609E-02  0.8188628E-01
       -2   -1    0    0    0  501  0.00000000000E+00  0.00000000000E+00  0.93330045296E+03  0.93330045296E+03  0.25500000920E-02 0.  1.
        2   -1    0    0  501    0  0.00000000000E+00  0.00000000000E+00 -0.27441821971E+04  0.27441821971E+04  0.25500000920E-02 0. -1.
    10030    2    1    2    0    0  0.00000000000E+00  0.00000000000E+00 -0.18108817441E+04  0.36774826500E+04  0.32007164745E+04 0.  0.
        5    1    3    3  502    0  0.10042765003E+04  0.48395522425E+03 -0.22246608389E+04  0.24883572666E+04  0.46999998093E+01 0. -1.
       -5    1    3    3    0  502 -0.10042765003E+04 -0.48395522425E+03  0.41377909477E+03  0.11891253834E+04  0.46999998093E+01 0.  1.
</event>
<event>
 5   0  0.1508771E-06  0.3213487E+04  0.7818609E-02  0.8185264E-01
       -2   -1    0    0    0  501  0.00000000000E+00  0.00000000000E+00  0.12973330754E+04  0.12973330754E+04  0.25500000920E-02 0. -1.
        2   -1    0    0  501    0  0.00000000000E+00  0.00000000000E+00 -0.19899478513E+04  0.19899478513E+04  0.25500000920E-02 0.  1.
    10030    2    1    2    0    0  0.00000000000E+00  0.00000000000E+00 -0.69261477592E+03  0.32872809268E+04  0.32134873057E+04 0.  0.
        4    1    3    3  502    0 -0.41258821409E+03  0.15369702039E+04 -0.57302050001E+03  0.16914078598E+04  0.12699999809E+01 0. -1.
       -4    1    3    3    0  502  0.41258821409E+03 -0.15369702039E+04 -0.11959427591E+03  0.15958730669E+04  0.12699999809E+01 0.  1.
</event>
<event>
 5   0  0.5317728E-07  0.3195120E+04  0.7818609E-02  0.8190107E-01
        1   -1    0    0  501    0  0.00000000000E+00  0.00000000000E+00  0.20856301069E+04  0.20856301069E+04  0.50400001928E-02 0.  1.
       -1   -1    0    0    0  501  0.00000000000E+00  0.00000000000E+00 -0.12237059231E+04  0.12237059231E+04  0.50400001928E-02 0. -1.
    10030    2    1    2    0    0  0.00000000000E+00  0.00000000000E+00  0.86192418382E+03  0.33093360300E+04  0.31951199760E+04 0.  0.
        2    1    3    3  502    0  0.58841813028E+02  0.14456744316E+04 -0.27056902577E+03  0.14719526212E+04  0.25500000920E-02 0. -1.
       -2    1    3    3    0  502 -0.58841813028E+02 -0.14456744316E+04  0.11324932096E+04  0.18373834088E+04  0.25500000920E-02 0.  1.
</event>
<event>
 5   0  0.5177039E-07  0.3216665E+04  0.7818609E-02  0.8184430E-01
       -1   -1    0    0    0  501  0.00000000000E+00  0.00000000000E+00  0.11855536080E+04  0.11855536080E+04  0.50400001928E-02 0.  1.
        1   -1    0    0  501    0  0.00000000000E+00  0.00000000000E+00 -0.21818776067E+04  0.21818776067E+04  0.50400001928E-02 0. -1.
    10030    2    1    2    0    0  0.00000000000E+00  0.00000000000E+00 -0.99632399874E+03  0.33674312147E+04  0.32166646508E+04 0.  0.
        3    1    3    3  502    0 -0.11516618668E+04  0.79714610579E+03 -0.13257631845E+04  0.19285784923E+04  0.10100000352E+00 0. -1.
       -3    1    3    3    0  502  0.11516618668E+04 -0.79714610579E+03  0.32943918578E+03  0.14388527224E+04  0.10100000352E+00 0.  1.
</event>
<event>
 5   0  0.5317728E-07  0.3193062E+04  0.7818609E-02  0.8190652E-01
       -1   -1    0    0    0  501  0.00000000000E+00  0.00000000000E+00  0.15435695560E+04  0.15435695560E+04  0.50400001928E-02 0. -1.
        1   -1    0    0  501    0  0.00000000000E+00  0.00000000000E+00 -0.16513095295E+04  0.16513095295E+04  0.50400001928E-02 0.  1.
    10030    2    1    2    0    0  0.00000000000E+00  0.00000000000E+00 -0.10773997351E+03  0.31948790854E+04  0.31930619268E+04 0.  0.
        2    1    3    3  502    0  0.40825309615E+03 -0.97550676450E+03 -0.12506389162E+04  0.16377978315E+04  0.25500000920E-02 0.  1.
       -2    1    3    3    0  502 -0.40825309615E+03  0.97550676450E+03  0.11428989427E+04  0.15570812539E+04  0.25500000920E-02 0. -1.
</event>
<event>
 5   0  0.1556396E-06  0.3195736E+04  0.7818609E-02  0.8189944E-01
       -2   -1    0    0    0  501  0.00000000000E+00  0.00000000000E+00  0.13010014245E+04  0.13010014245E+04  0.25500000920E-02 0. -1.
        2   -1    0    0  501    0  0.00000000000E+00  0.00000000000E+00 -0.19624742283E+04  0.19624742283E+04  0.25500000920E-02 0.  1.
    10030    2    1    2    0    0  0.00000000000E+00  0.00000000000E+00 -0.66147280379E+03  0.32634756529E+04  0.31957357630E+04 0.  0.
        3    1    3    3  502    0 -0.22513808935E+03  0.93333665223E+03  0.97359130699E+03  0.13673640733E+04  0.10100000352E+00 0. -1.
       -3    1    3    3    0  502  0.22513808935E+03 -0.93333665223E+03 -0.16350641108E+04  0.18961115796E+04  0.10100000352E+00 0.  1.
</event>
<event>
 5   0  0.5281187E-07  0.3213306E+04  0.7818609E-02  0.8185312E-01
       -1   -1    0    0    0  501  0.00000000000E+00  0.00000000000E+00  0.97480617893E+03  0.97480617894E+03  0.50400001928E-02 0. -1.
        1   -1    0    0  501    0  0.00000000000E+00  0.00000000000E+00 -0.26480477830E+04  0.26480477830E+04  0.50400001928E-02 0.  1.
    10030    2    1    2    0    0  0.00000000000E+00  0.00000000000E+00 -0.16732416041E+04  0.36228539619E+04  0.32133056755E+04 0.  0.
        5    1    3    3  502    0  0.38612575198E+03 -0.15441750660E+04 -0.59027401169E+03  0.16976499138E+04  0.46999998093E+01 0. -1.
       -5    1    3    3    0  502 -0.38612575198E+03  0.15441750660E+04 -0.10829675924E+04  0.19252040481E+04  0.46999998093E+01 0.  1.
</event>
<event>
 5   0  0.5233813E-07  0.3197327E+04  0.7818609E-02  0.8189523E-01
       -1   -1    0    0    0  501  0.00000000000E+00  0.00000000000E+00  0.12996612284E+04  0.12996612284E+04  0.50400001928E-02 0. -1.
        1   -1    0    0  501    0  0.00000000000E+00  0.00000000000E+00 -0.19664548839E+04  0.19664548839E+04  0.50400001928E-02 0.  1.
    10030    2    1    2    0    0  0.00000000000E+00  0.00000000000E+00 -0.66679365555E+03  0.32661161123E+04  0.31973271149E+04 0.  0.
        4    1    3    3  502    0  0.55167726777E+01 -0.14097039183E+04 -0.11035591617E+04  0.17902904815E+04  0.12699999809E+01 0.  1.
       -4    1    3    3    0  502 -0.55167726777E+01  0.14097039183E+04  0.43676550615E+03  0.14758256307E+04  0.12699999809E+01 0. -1.
</event>
<event>
 5   0  0.5177039E-07  0.2966032E+04  0.7818609E-02  0.8253498E-01
       -1   -1    0    0    0  501  0.00000000000E+00  0.00000000000E+00  0.92535978628E+03  0.92535978629E+03  0.50400001928E-02 0. -1.
        1   -1    0    0  501    0  0.00000000000E+00  0.00000000000E+00 -0.23767358941E+04  0.23767358941E+04  0.50400001928E-02 0.  1.
    10030    2    1    2    0    0  0.00000000000E+00  0.00000000000E+00 -0.14513761078E+04  0.33020956804E+04  0.29660315703E+04 0.  0.
        3    1    3    3  502    0  0.73072637221E+03 -0.37818810211E+03 -0.20993217344E+04  0.22548035450E+04  0.10100000352E+00 0.  1.
       -3    1    3    3    0  502 -0.73072637221E+03  0.37818810211E+03  0.64794562662E+03  0.10472921354E+04  0.10100000352E+00 0. -1.
</event>
<event>
 5   0  0.1538349E-06  0.3210414E+04  0.7818609E-02  0.8186072E-01
       -2   -1    0    0    0  501  0.00000000000E+00  0.00000000000E+00  0.16866953228E+04  0.16866953228E+04  0.25500000920E-02 0.  1.
        2   -1    0    0  501    0  0.00000000000E+00  0.00000000000E+00 -0.15276555743E+04  0.15276555743E+04  0.25500000920E-02 0. -1.
    10030    2    1    2    0    0  0.00000000000E+00  0.00000000000E+00  0.15903974849E+03  0.32143508971E+04  0.32104139995E+04 0.  0.
        1    1    3    3  502    0  0.84819724770E+03  0.68632380134E+03  0.12583381201E+04  0.16655010525E+04  0.50400001928E-02 0.  1.
       -1    1    3    3    0  502 -0.84819724770E+03 -0.68632380134E+03 -0.10992983716E+04  0.15488498446E+04  0.50400001928E-02 0. -1.
</event>
<event>
 5   0  0.5370912E-07  0.3126819E+04  0.7818609E-02  0.8208416E-01
        1   -1    0    0  501    0  0.00000000000E+00  0.00000000000E+00  0.18482073524E+04  0.18482073524E+04  0.50400001928E-02 0.  1.
       -1   -1    0    0    0  501  0.00000000000E+00  0.00000000000E+00 -0.13224972276E+04  0.13224972276E+04  0.50400001928E-02 0. -1.
    10030    2    1    2    0    0  0.00000000000E+00  0.00000000000E+00  0.52571012483E+03  0.31707045800E+04  0.31268188944E+04 0.  0.
        1    1    3    3  502    0  0.11462645927E+04  0.10254395932E+03  0.13359187014E+04  0.17632687138E+04  0.50400001928E-02 0.  1.
       -1    1    3    3    0  502 -0.11462645927E+04 -0.10254395932E+03 -0.81020857661E+03  0.14074358663E+04  0.50400001928E-02 0. -1.
</event>
<event>
 5   0  0.1556396E-06  0.3179321E+04  0.7818609E-02  0.8194300E-01
        2   -1    0    0  501    0  0.00000000000E+00  0.00000000000E+00  0.28833718629E+04  0.28833718629E+04  0.25500000920E-02 0. -1.
       -2   -1    0    0    0  501  0.00000000000E+00  0.00000000000E+00 -0.87641133989E+03  0.87641133989E+03  0.25500000920E-02 0.  1.
    10030    2    1    2    0    0  0.00000000000E+00  0.00000000000E+00  0.20069605230E+04  0.37597832028E+04  0.31793205550E+04 0.  0.
        3    1    3    3  502    0 -0.36841462320E+03  0.15266582555E+04  0.71235305124E+03  0.17244888064E+04  0.10100000352E+00 0.  1.
       -3    1    3    3    0  502  0.36841462320E+03 -0.15266582555E+04  0.12946074718E+04  0.20352943964E+04  0.10100000352E+00 0. -1.
</event>
<event>
 5   0  0.1556396E-06  0.3195154E+04  0.7818609E-02  0.8190098E-01
       -2   -1    0    0    0  501  0.00000000000E+00  0.00000000000E+00  0.15556308797E+04  0.15556308797E+04  0.25500000920E-02 0. -1.
        2   -1    0    0  501    0  0.00000000000E+00  0.00000000000E+00 -0.16406539143E+04  0.16406539143E+04  0.25500000920E-02 0.  1.
    10030    2    1    2    0    0  0.00000000000E+00  0.00000000000E+00 -0.85023034570E+02  0.31962847940E+04  0.31951537628E+04 0.  0.
        3    1    3    3  502    0  0.12037846447E+04  0.25701941197E+03  0.97622779769E+03  0.15710433387E+04  0.10100000352E+00 0. -1.
       -3    1    3    3    0  502 -0.12037846447E+04 -0.25701941197E+03 -0.10612508323E+04  0.16252414553E+04  0.10100000352E+00 0.  1.
</event>
<event>
 5   0  0.1508771E-06  0.3213713E+04  0.7818609E-02  0.8185205E-01
       -2   -1    0    0    0  501  0.00000000000E+00  0.00000000000E+00  0.12990220440E+04  0.12990220440E+04  0.25500000920E-02 0. -1.
        2   -1    0    0  501    0  0.00000000000E+00  0.00000000000E+00 -0.19876400422E+04  0.19876400422E+04  0.25500000920E-02 0.  1.
    10030    2    1    2    0    0  0.00000000000E+00  0.00000000000E+00 -0.68861799826E+03  0.32866620862E+04  0.32137132606E+04 0.  0.
        4    1    3    3  502    0  0.93449786918E+03 -0.96108111978E+03 -0.12504363510E+04  0.18331818969E+04  0.12699999809E+01 0. -1.
       -4    1    3    3    0  502 -0.93449786918E+03  0.96108111978E+03  0.56181835278E+03  0.14534801893E+04  0.12699999809E+01 0.  1.
</event>
<event>
 5   0  0.5177039E-07  0.3167924E+04  0.7818609E-02  0.8197340E-01
       -1   -1    0    0    0  501  0.00000000000E+00  0.00000000000E+00  0.76705331482E+03  0.76705331483E+03  0.50400001928E-02 0. -1.
        1   -1    0    0  501    0  0.00000000000E+00  0.00000000000E+00 -0.32708756643E+04  0.32708756643E+04  0.50400001928E-02 0.  1.
    10030    2    1    2    0    0  0.00000000000E+00  0.00000000000E+00 -0.25038223495E+04  0.40379289792E+04  0.31679242546E+04 0.  0.
        3    1    3    3  502    0 -0.87859928981E+00 -0.49645363908E+03 -0.31691455536E+04  0.32077952768E+04  0.10100000352E+00 0.  1.
       -3    1    3    3    0  502  0.87859928981E+00  0.49645363908E+03  0.66532320410E+03  0.83013370237E+03  0.10100000352E+00 0. -1.
</event>
<event>
 5   0  0.1508771E-06  0.2954531E+04  0.7818609E-02  0.8256835E-01
       -2   -1    0    0    0  501  0.00000000000E+00  0.00000000000E+00  0.13212152913E+04  0.13212152913E+04  0.25500000920E-02 0.  1.
        2   -1    0    0  501    0  0.00000000000E+00  0.00000000000E+00 -0.16517473271E+04  0.16517473271E+04  0.25500000920E-02 0. -1.
    10030    2    1    2    0    0  0.00000000000E+00  0.00000000000E+00 -0.33053203583E+03  0.29729626184E+04  0.29545313171E+04 0.  0.
        4    1    3    3  502    0 -0.10864813267E+04 -0.48429194355E+02  0.84073336556E+03  0.13746349570E+04  0.12699999809E+01 0.  1.
       -4    1    3    3    0  502  0.10864813267E+04  0.48429194355E+02 -0.11712654014E+04  0.15983276615E+04  0.12699999809E+01 0. -1.
</event>
<event>
 5   0  0.5281187E-07  0.3186624E+04  0.7818609E-02  0.8192359E-01
       -1   -1    0    0    0  501  0.00000000000E+00  0.00000000000E+00  0.18298054544E+04  0.18298054544E+04  0.50400001928E-02 0.  1.
        1   -1    0    0  501    0  0.00000000000E+00  0.00000000000E+00 -0.13873844665E+04  0.13873844665E+04  0.50400001928E-02 0. -1.
    10030    2    1    2    0    0  0.00000000000E+00  0.00000000000E+00  0.44242098785E+03  0.32171899209E+04  0.31866243357E+04 0.  0.
        5    1    3    3  502    0  0.12161693937E+04  0.80159516144E+02  0.12572740976E+04  0.17510721826E+04  0.46999998093E+01 0.  1.
       -5    1    3    3    0  502 -0.12161693937E+04 -0.80159516144E+02 -0.81485310977E+03  0.14661177383E+04  0.46999998093E+01 0. -1.
</event>
<event>
 5   0  0.1538349E-06  0.3250942E+04  0.7818609E-02  0.8175492E-01
        2   -1    0    0  501    0  0.00000000000E+00  0.00000000000E+00  0.17411592499E+04  0.17411592499E+04  0.25500000920E-02 0.  1.
       -2   -1    0    0    0  501  0.00000000000E+00  0.00000000000E+00 -0.15174695502E+04  0.15174695502E+04  0.25500000920E-02 0. -1.
    10030    2    1    2    0    0  0.00000000000E+00  0.00000000000E+00  0.22368969970E+03  0.32586288001E+04  0.32509421058E+04 0.  0.
        1    1    3    3  502    0 -0.28559205492E+03  0.15839516703E+04  0.33973771041E+03  0.16449581842E+04  0.50400001928E-02 0.  1.
       -1    1    3    3    0  502  0.28559205492E+03 -0.15839516703E+04 -0.11604801071E+03  0.16136706159E+04  0.50400001928E-02 0. -1.
</event>
<event>
 5   0  0.5317728E-07  0.3148690E+04  0.7818609E-02  0.8202501E-01
       -1   -1    0    0    0  501  0.00000000000E+00  0.00000000000E+00  0.16087793213E+04  0.16087793213E+04  0.50400001928E-02 0.  1.
        1   -1    0    0  501    0  0.00000000000E+00  0.00000000000E+00 -0.15406478845E+04  0.15406478845E+04  0.50400001928E-02 0. -1.
    10030    2    1    2    0    0  0.00000000000E+00  0.00000000000E+00  0.68131436813E+02  0.31494272058E+04  0.31486901772E+04 0.  0.
        2    1    3    3  502    0 -0.41895365515E+03 -0.14054532920E+04  0.60668669821E+03  0.15871010904E+04  0.25500000920E-02 0.  1.
       -2    1    3    3    0  502  0.41895365515E+03  0.14054532920E+04 -0.53855526140E+03  0.15623261154E+04  0.25500000920E-02 0. -1.
</event>
<event>
 5   0  0.1572769E-06  0.3202859E+04  0.7818609E-02  0.8188062E-01
        2   -1    0    0  501    0  0.00000000000E+00  0.00000000000E+00  0.25658157827E+04  0.25658157827E+04  0.25500000920E-02 0. -1.
       -2   -1    0    0    0  501  0.00000000000E+00  0.00000000000E+00 -0.99951708182E+03  0.99951708183E+03  0.25500000920E-02 0.  1.
    10030    2    1    2    0    0  0.00000000000E+00  0.00000000000E+00  0.15662987009E+04  0.35653328646E+04  0.32028591625E+04 0.  0.
        5    1    3    3  502    0 -0.90515108106E+03 -0.12890037398E+04  0.46104907472E+03  0.16411634471E+04  0.46999998093E+01 0.  1.
       -5    1    3    3    0  502  0.90515108106E+03  0.12890037398E+04  0.11052496262E+04  0.19241694174E+04  0.46999998093E+01 0. -1.
</event>
<event>
 5   0  0.5177039E-07  0.3159344E+04  0.7818609E-02  0.8199638E-01
        1   -1    0    0  501    0  0.00000000000E+00  0.00000000000E+00  0.13909454673E+04  0.13909454674E+04  0.50400001928E-02 0.  1.
       -1   -1    0    0    0  501  0.00000000000E+00  0.00000000000E+00 -0.17940049601E+04  0.17940049602E+04  0.50400001928E-02 0. -1.
    10030    2    1    2    0    0  0.00000000000E+00  0.00000000000E+00 -0.40305949280E+03  0.31849504275E+04  0.31593436456E+04 0.  0.
        3    1    3    3  502    0 -0.44260391594E+03 -0.30136296111E+03 -0.16997262785E+04  0.17820738741E+04  0.10100000352E+00 0. -1.
       -3    1    3    3    0  502  0.44260391594E+03  0.30136296111E+03  0.12966667857E+04  0.14028765534E+04  0.10100000352E+00 0.  1.
</event>
<event>
 5   0  0.5177039E-07  0.3240367E+04  0.7818609E-02  0.8178237E-01
       -1   -1    0    0    0  501  0.00000000000E+00  0.00000000000E+00  0.15335543412E+04  0.15335543412E+04  0.50400001928E-02 0. -1.
        1   -1    0    0  501    0  0.00000000000E+00  0.00000000000E+00 -0.17117062827E+04  0.17117062827E+04  0.50400001928E-02 0.  1.
    10030    2    1    2    0    0  0.00000000000E+00  0.00000000000E+00 -0.17815194152E+03  0.32452606239E+04  0.32403670167E+04 0.  0.
        3    1    3    3  502    0 -0.41389817399E+03  0.10347447621E+04 -0.12668562980E+04  0.16872857823E+04  0.10100000352E+00 0.  1.
       -3    1    3    3    0  502  0.41389817399E+03 -0.10347447621E+04  0.10887043565E+04  0.15579748416E+04  0.10100000352E+00 0. -1.
</event>
<event>
 5   0  0.4995625E-07  0.3163351E+04  0.7818609E-02  0.8198564E-01
        3   -1    0    0  501    0  0.00000000000E+00  0.00000000000E+00  0.19706825588E+04  0.19706825614E+04  0.10100000352E+00 0.  1.
       -3   -1    0    0    0  501  0.00000000000E+00  0.00000000000E+00 -0.12694571615E+04  0.12694571655E+04  0.10100000352E+00 0. -1.
    10030    2    1    2    0    0  0.00000000000E+00  0.00000000000E+00  0.70122539731E+03  0.32401397270E+04  0.31633508172E+04 0.  0.
        3    1    3    3  502    0  0.11761361326E+04  0.17192416383E+03  0.14194190015E+04  0.18513790623E+04  0.10100000352E+00 0.  1.
       -3    1    3    3    0  502 -0.11761361326E+04 -0.17192416383E+03 -0.71819360414E+03  0.13887606647E+04  0.10100000352E+00 0. -1.
</event>
<event>
 5   0  0.5177039E-07  0.3206055E+04  0.7818609E-02  0.8187220E-01
        1   -1    0    0  501    0  0.00000000000E+00  0.00000000000E+00  0.17916048033E+04  0.17916048033E+04  0.50400001928E-02 0.  1.
       -1   -1    0    0    0  501  0.00000000000E+00  0.00000000000E+00 -0.14342988213E+04  0.14342988213E+04  0.50400001928E-02 0. -1.
    10030    2    1    2    0    0  0.00000000000E+00  0.00000000000E+00  0.35730598196E+03  0.32259036247E+04  0.32060546831E+04 0.  0.
        3    1    3    3  502    0 -0.64306589328E+03  0.25257817469E+03 -0.12768041177E+04  0.14517431738E+04  0.10100000352E+00 0. -1.
       -3    1    3    3    0  502  0.64306589328E+03 -0.25257817469E+03  0.16341100997E+04  0.17741604509E+04  0.10100000352E+00 0.  1.
</event>
<event>
 5   0  0.5317728E-07  0.3201676E+04  0.7818609E-02  0.8188375E-01
       -1   -1    0    0    0  501  0.00000000000E+00  0.00000000000E+00  0.97254469588E+03  0.97254469590E+03  0.50400001928E-02 0. -1.
        1   -1    0    0  501    0  0.00000000000E+00  0.00000000000E+00 -0.26350282746E+04  0.26350282746E+04  0.50400001928E-02 0.  1.
    10030    2    1    2    0    0  0.00000000000E+00  0.00000000000E+00 -0.16624835788E+04  0.36075729705E+04  0.32016762935E+04 0.  0.
        2    1    3    3  502    0 -0.14685133968E+03 -0.10106636229E+04 -0.22202770726E+04  0.24438978198E+04  0.25500000920E-02 0.  1.
       -2    1    3    3    0  502  0.14685133968E+03  0.10106636229E+04  0.55779349383E+03  0.11636751507E+04  0.25500000920E-02 0. -1.
</event>
<event>
 5   0  0.5281187E-07  0.3191889E+04  0.7818609E-02  0.8190963E-01
       -1   -1    0    0    0  501  0.00000000000E+00  0.00000000000E+00  0.12012601629E+04  0.12012601629E+04  0.50400001928E-02 0.  1.
        1   -1    0    0  501    0  0.00000000000E+00  0.00000000000E+00 -0.21203053606E+04  0.21203053606E+04  0.50400001928E-02 0. -1.
    10030    2    1    2    0    0  0.00000000000E+00  0.00000000000E+00 -0.91904519770E+03  0.33215655236E+04  0.31918886967E+04 0.  0.
        5    1    3    3  502    0  0.42224382861E+03  0.13299085653E+04 -0.12656355692E+04  0.18838264588E+04  0.46999998093E+01 0.  1.
       -5    1    3    3    0  502 -0.42224382861E+03 -0.13299085653E+04  0.34659037153E+03  0.14377390648E+04  0.46999998093E+01 0. -1.
</event>
<event>
 5   0  0.1572769E-06  0.3224641E+04  0.7818609E-02  0.8182340E-01
       -2   -1    0    0    0  501  0.00000000000E+00  0.00000000000E+00  0.14849108322E+04  0.14849108322E+04  0.25500000920E-02 0. -1.
        2   -1    0    0  501    0  0.00000000000E+00  0.00000000000E+00 -0.17506620560E+04  0.17506620560E+04  0.25500000920E-02 0.  1.
    10030    2    1    2    0    0  0.00000000000E+00  0.00000000000E+00 -0.26575122380E+03  0.32355728882E+04  0.32246407865E+04 0.  0.
        5    1    3    3  502    0  0.15015484939E+04  0.58680084658E+03 -0.10888120986E+03  0.16158156828E+04  0.46999998093E+01 0. -1.
       -5    1    3    3    0  502 -0.15015484939E+04 -0.58680084658E+03 -0.15687001394E+03  0.16197572054E+04  0.46999998093E+01 0.  1.
</event>
<event>
 5   0  0.5281187E-07  0.3190175E+04  0.7818609E-02  0.8191417E-01
       -1   -1    0    0    0  501  0.00000000000E+00  0.00000000000E+00  0.10747973522E+04  0.10747973523E+04  0.50400001928E-02 0.  1.
        1   -1    0    0  501    0  0.00000000000E+00  0.00000000000E+00 -0.23672405558E+04  0.23672405558E+04  0.50400001928E-02 0. -1.
    10030    2    1    2    0    0  0.00000000000E+00  0.00000000000E+00 -0.12924432035E+04  0.34420379081E+04  0.31901748426E+04 0.  0.
        5    1    3    3  502    0  0.43669091094E+03 -0.90140995866E+03  0.69317295996E+03  0.12180926515E+04  0.46999998093E+01 0.  1.
       -5    1    3    3    0  502 -0.43669091094E+03  0.90140995866E+03 -0.19856161635E+04  0.22239452565E+04  0.46999998093E+01 0. -1.
</event>
<event>
 5   0  0.1538349E-06  0.3185414E+04  0.7818609E-02  0.8192680E-01
       -2   -1    0    0    0  501  0.00000000000E+00  0.00000000000E+00  0.13964576659E+04  0.13964576659E+04  0.25500000920E-02 0. -1.
        2   -1    0    0  501    0  0.00000000000E+00  0.00000000000E+00 -0.18165354837E+04  0.18165354837E+04  0.25500000920E-02 0.  1.
    10030    2    1    2    0    0  0.00000000000E+00  0.00000000000E+00 -0.42007781775E+03  0.32129931496E+04  0.31854135691E+04 0.  0.
        1    1    3    3  502    0  0.34418772259E+03  0.81541668594E+03  0.11255650749E+04  0.14318750986E+04  0.50400001928E-02 0. -1.
       -1    1    3    3    0  502 -0.34418772259E+03 -0.81541668594E+03 -0.15456428926E+04  0.17811180510E+04  0.50400001928E-02 0.  1.
</event>
<event>
 5   0  0.5370912E-07  0.3249300E+04  0.7818609E-02  0.8175917E-01
       -1   -1    0    0    0  501  0.00000000000E+00  0.00000000000E+00  0.15117300149E+04  0.15117300149E+04  0.50400001928E-02 0.  1.
        1   -1    0    0  501    0  0.00000000000E+00  0.00000000000E+00 -0.17460045371E+04  0.17460045371E+04  0.50400001928E-02 0. -1.
    10030    2    1    2    0    0  0.00000000000E+00  0.00000000000E+00 -0.23427452223E+03  0.32577345520E+04  0.32492999030E+04 0.  0.
        1    1    3    3  502    0 -0.90617584174E+03 -0.53432509554E+03 -0.13584260177E+04  0.17181324772E+04  0.50400001928E-02 0. -1.
       -1    1    3    3    0  502  0.90617584174E+03  0.53432509554E+03  0.11241514954E+04  0.15396020747E+04  0.50400001928E-02 0.  1.
</event>
<event>
 5   0  0.1508771E-06  0.3191655E+04  0.7818609E-02  0.8191024E-01
       -2   -1    0    0    0  501  0.00000000000E+00  0.00000000000E+00  0.18260218762E+04  0.18260218762E+04  0.25500000920E-02 0. -1.
        2   -1    0    0  501    0  0.00000000000E+00  0.00000000000E+00 -0.13946523615E+04  0.13946523615E+04  0.25500000920E-02 0.  1.
    10030    2    1    2    0    0  0.00000000000E+00  0.00000000000E+00  0.43136951468E+03  0.32206742377E+04  0.31916551955E+04 0.  0.
        4    1    3    3  502    0  0.35053304841E+03 -0.36548490552E+01  0.17866884005E+04  0.18207536432E+04  0.12699999809E+01 0. -1.
       -4    1    3    3    0  502 -0.35053304841E+03  0.36548490552E+01 -0.13553188858E+04  0.13999205945E+04  0.12699999809E+01 0.  1.
</event>
<event>
 5   0  0.1556396E-06  0.3198627E+04  0.7818609E-02  0.8189180E-01
       -2   -1    0    0    0  501  0.00000000000E+00  0.00000000000E+00  0.17923533607E+04  0.17923533607E+04  0.25500000920E-02 0. -1.
        2   -1    0    0  501    0  0.00000000000E+00  0.00000000000E+00 -0.14270639579E+04  0.14270639579E+04  0.25500000920E-02 0.  1.
    10030    2    1    2    0    0  0.00000000000E+00  0.00000000000E+00  0.36528940278E+03  0.32194173185E+04  0.31986265057E+04 0.  0.
        3    1    3    3  502    0  0.12052016163E+04 -0.12624501568E+03 -0.86786069204E+03  0.14905136467E+04  0.10100000352E+00 0.  1.
       -3    1    3    3    0  502 -0.12052016163E+04  0.12624501568E+03  0.12331500948E+04  0.17289036719E+04  0.10100000352E+00 0. -1.
</event>
<event>
 5   0  0.5177039E-07  0.3225829E+04  0.7818609E-02  0.8182029E-01
       -1   -1    0    0    0  501  0.00000000000E+00  0.00000000000E+00  0.14177104009E+04  0.14177104010E+04  0.50400001928E-02 0.  1.
        1   -1    0    0  501    0  0.00000000000E+00  0.00000000000E+00 -0.18349963342E+04  0.18349963342E+04  0.50400001928E-02 0. -1.
    10030    2    1    2    0    0  0.00000000000E+00  0.00000000000E+00 -0.41728593328E+03  0.32527067352E+04  0.32258291268E+04 0.  0.
        3    1    3    3  502    0  0.86571187284E+03  0.11879166214E+04  0.46088525392E+03  0.15404603772E+04  0.10100000352E+00 0.  1.
       -3    1    3    3    0  502 -0.86571187284E+03 -0.11879166214E+04 -0.87817118721E+03  0.17122463580E+04  0.10100000352E+00 0. -1.
</event>
<event>
 5   0  0.5281187E-07  0.3214040E+04  0.7818609E-02  0.8185119E-01
       -1   -1    0    0    0  501  0.00000000000E+00  0.00000000000E+00  0.12711104089E+04  0.12711104089E+04  0.50400001928E-02 0.  1.
        1   -1    0    0  501    0  0.00000000000E+00  0.00000000000E+00 -0.20316980444E+04  0.20316980444E+04  0.50400001928E-02 0. -1.
    10030    2    1    2    0    0  0.00000000000E+00  0.00000000000E+00 -0.76058763552E+03  0.33028084534E+04  0.32140395343E+04 0.  0.
        5    1    3    3  502    0 -0.59505397806E+02  0.11873960127E+04  0.73079021558E+03  0.13955381086E+04  0.46999998093E+01 0.  1.
       -5    1    3    3    0  502  0.59505397806E+02 -0.11873960127E+04 -0.14913778511E+04  0.19072703448E+04  0.46999998093E+01 0. -1.
</event>
<event>
 5   0  0.5233813E-07  0.3217839E+04  0.7818609E-02  0.8184122E-01
       -1   -1    0    0    0  501  0.00000000000E+00  0.00000000000E+00  0.15906295407E+04  0.15906295407E+04  0.50400001928E-02 0.  1.
        1   -1    0    0  501    0  0.00000000000E+00  0.00000000000E+00 -0.16274194837E+04  0.16274194837E+04  0.50400001928E-02 0. -1.
    10030    2    1    2    0    0  0.00000000000E+00  0.00000000000E+00 -0.36789942964E+02  0.32180490244E+04  0.32178387193E+04 0.  0.
        4    1    3    3  502    0 -0.83604434403E+02 -0.99990394942E+03  0.12393923926E+04  0.15946450155E+04  0.12699999809E+01 0.  1.
       -4    1    3    3    0  502  0.83604434403E+02  0.99990394942E+03 -0.12761823356E+04  0.16234040089E+04  0.12699999809E+01 0. -1.
</event>
<event>
 5   0  0.1556396E-06  0.3189739E+04  0.7818609E-02  0.8191532E-01
       -2   -1    0    0    0  501  0.00000000000E+00  0.00000000000E+00  0.18633560771E+04  0.18633560771E+04  0.25500000920E-02 0. -1.
        2   -1    0    0  501    0  0.00000000000E+00  0.00000000000E+00 -0.13650681145E+04  0.13650681145E+04  0.25500000920E-02 0.  1.
    10030    2    1    2    0    0  0.00000000000E+00  0.00000000000E+00  0.49828796263E+03  0.32284241916E+04  0.31897385265E+04 0.  0.
        3    1    3    3  502    0 -0.67258713807E+03 -0.89350216329E+03  0.13999868358E+04  0.17918378064E+04  0.10100000352E+00 0. -1.
       -3    1    3    3    0  502  0.67258713807E+03  0.89350216329E+03 -0.90169887313E+03  0.14365863852E+04  0.10100000352E+00 0.  1.
</event>
<event>
 5   0  0.1493485E-06  0.2974588E+04  0.7818609E-02  0.8251025E-01
        2   -1    0    0  501    0  0.00000000000E+00  0.00000000000E+00  0.18162321779E+04  0.18162321779E+04  0.25500000920E-02 0. -1.
       -2   -1    0    0    0  501  0.00000000000E+00  0.00000000000E+00 -0.12179300405E+04  0.12179300405E+04  0.25500000920E-02 0.  1.
    10030    2    1    2    0    0  0.00000000000E+00  0.00000000000E+00  0.59830213734E+03  0.30341622184E+04  0.29745881934E+04 0.  0.
        2    1    3    3  502    0 -0.38889409454E+03  0.77595780922E+03  0.15311040496E+04  0.17600081673E+04  0.25500000920E-02 0. -1.
       -2    1    3    3    0  502  0.38889409454E+03 -0.77595780922E+03 -0.93280191222E+03  0.12741540511E+04  0.25500000920E-02 0.  1.
</event>
<event>
 5   0  0.1556396E-06  0.3188592E+04  0.7818609E-02  0.8191836E-01
        2   -1    0    0  501    0  0.00000000000E+00  0.00000000000E+00  0.13739608933E+04  0.13739608933E+04  0.25500000920E-02 0. -1.
       -2   -1    0    0    0  501  0.00000000000E+00  0.00000000000E+00 -0.18499656559E+04  0.18499656559E+04  0.25500000920E-02 0.  1.
    10030    2    1    2    0    0  0.00000000000E+00  0.00000000000E+00 -0.47600476253E+03  0.32239265492E+04  0.31885924576E+04 0.  0.
        3    1    3    3  502    0 -0.79168143360E+03  0.25415517014E+02 -0.16369441360E+04  0.18185135566E+04  0.10100000352E+00 0.  1.
       -3    1    3    3    0  502  0.79168143360E+03 -0.25415517014E+02  0.11609393735E+04  0.14054129926E+04  0.10100000352E+00 0. -1.
</event>
<event>
 5   0  0.1493485E-06  0.3152135E+04  0.7818609E-02  0.8201574E-01
       -2   -1    0    0    0  501  0.00000000000E+00  0.00000000000E+00  0.12189578465E+04  0.12189578465E+04  0.25500000920E-02 0. -1.
        2   -1    0    0  501    0  0.00000000000E+00  0.00000000000E+00 -0.20377971278E+04  0.20377971278E+04  0.25500000920E-02 0.  1.
    10030    2    1    2    0    0  0.00000000000E+00  0.00000000000E+00 -0.81883928132E+03  0.32567549744E+04  0.31521350216E+04 0.  0.
        2    1    3    3  502    0 -0.29323261179E+03 -0.15392288758E+04 -0.58469054901E+03  0.16724454953E+04  0.25500000920E-02 0.  1.
       -2    1    3    3    0  502  0.29323261179E+03  0.15392288758E+04 -0.23414873231E+03  0.15843094791E+04  0.25500000920E-02 0. -1.
</event>
<event>
 5   0  0.1556396E-06  0.3187225E+04  0.7818609E-02  0.8192199E-01
       -2   -1    0    0    0  501  0.00000000000E+00  0.00000000000E+00  0.15039196182E+04  0.15039196182E+04  0.25500000920E-02 0.  1.
        2   -1    0    0  501    0  0.00000000000E+00  0.00000000000E+00 -0.16886548470E+04  0.16886548470E+04  0.25500000920E-02 0. -1.
    10030    2    1    2    0    0  0.00000000000E+00  0.00000000000E+00 -0.18473522874E+03  0.31925744652E+04  0.31872252213E+04 0.  0.
        3    1    3    3  502    0  0.15762478577E+04  0.20558403392E+03 -0.20560175170E+03  0.16028394163E+04  0.10100000352E+00 0. -1.
       -3    1    3    3    0  502 -0.15762478577E+04 -0.20558403392E+03  0.20866522955E+02  0.15897350489E+04  0.10100000352E+00 0.  1.
</event>
<event>
 5   0  0.1572769E-06  0.3205608E+04  0.7818609E-02  0.8187338E-01
        2   -1    0    0  501    0  0.00000000000E+00  0.00000000000E+00  0.13309160850E+04  0.13309160850E+04  0.25500000920E-02 0.  1.
       -2   -1    0    0    0  501  0.00000000000E+00  0.00000000000E+00 -0.19302354311E+04  0.19302354311E+04  0.25500000920E-02 0. -1.
    10030    2    1    2    0    0  0.00000000000E+00  0.00000000000E+00 -0.59931934617E+03  0.32611515161E+04  0.32056084496E+04 0.  0.
        5    1    3    3  502    0  0.11102441675E+04 -0.98600761214E+03  0.31420765886E+03  0.15177620583E+04  0.46999998093E+01 0.  1.
       -5    1    3    3    0  502 -0.11102441675E+04  0.98600761214E+03 -0.91352700503E+03  0.17433894578E+04  0.46999998093E+01 0. -1.
</event>
<event>
 5   0  0.1508771E-06  0.3192356E+04  0.7818609E-02  0.8190839E-01
        2   -1    0    0  501    0  0.00000000000E+00  0.00000000000E+00  0.14500391230E+04  0.14500391230E+04  0.25500000920E-02 0.  1.
       -2   -1    0    0    0  501  0.00000000000E+00  0.00000000000E+00 -0.17570446992E+04  0.17570446992E+04  0.25500000920E-02 0. -1.
    10030    2    1    2    0    0  0.00000000000E+00  0.00000000000E+00 -0.30700557619E+03  0.32070838222E+04  0.31923555909E+04 0.  0.
        4    1    3    3  502    0 -0.42944724363E+03  0.15416296773E+03 -0.16901317046E+04  0.17506392968E+04  0.12699999809E+01 0. -1.
       -4    1    3    3    0  502  0.42944724363E+03 -0.15416296773E+03  0.13831261284E+04  0.14564445254E+04  0.12699999809E+01 0.  1.
</event>
<event>
 5   0  0.1508771E-06  0.3238964E+04  0.7818609E-02  0.8178602E-01
        2   -1    0    0  501    0  0.00000000000E+00  0.00000000000E+00  0.24577385488E+04  0.24577385488E+04  0.25500000920E-02 0.  1.
       -2   -1    0    0    0  501  0.00000000000E+00  0.00000000000E+00 -0.10671281671E+04  0.10671281671E+04  0.25500000920E-02 0. -1.
    10030    2    1    2    0    0  0.00000000000E+00  0.00000000000E+00  0.13906103818E+04  0.35248667159E+04  0.32389640522E+04 0.  0.
        4    1    3    3  502    0  0.10414166008E+03  0.82666533908E+03  0.22065900121E+04  0.23586568556E+04  0.12699999809E+01 0.  1.
       -4    1    3    3    0  502 -0.10414166008E+03 -0.82666533908E+03 -0.81597963034E+03  0.11662098603E+04  0.12699999809E+01 0. -1.
</event>
<event>
 5   0  0.5370912E-07  0.3203657E+04  0.7818609E-02  0.8187852E-01
       -1   -1    0    0    0  501  0.00000000000E+00  0.00000000000E+00  0.21402539041E+04  0.21402539042E+04  0.50400001928E-02 0. -1.
        1   -1    0    0  501    0  0.00000000000E+00  0.00000000000E+00 -0.11988549576E+04  0.11988549576E+04  0.50400001928E-02 0.  1.
    10030    2    1    2    0    0  0.00000000000E+00  0.00000000000E+00  0.94139894659E+03  0.33391088617E+04  0.32036566629E+04 0.  0.
        1    1    3    3  502    0  0.13984608181E+04 -0.52282318857E+03 -0.13419801227E+03  0.14990149608E+04  0.50400001928E-02 0. -1.
       -1    1    3    3    0  502 -0.13984608181E+04  0.52282318857E+03  0.10755969589E+04  0.18400939009E+04  0.50400001928E-02 0.  1.
</event>
<event>
 5   0  0.1493485E-06  0.3242698E+04  0.7818609E-02  0.8177631E-01
       -2   -1    0    0    0  501  0.00000000000E+00  0.00000000000E+00  0.11507949926E+04  0.11507949926E+04  0.25500000920E-02 0.  1.
        2   -1    0    0  501    0  0.00000000000E+00  0.00000000000E+00 -0.22843096811E+04  0.22843096811E+04  0.25500000920E-02 0. -1.
    10030    2    1    2    0    0  0.00000000000E+00  0.00000000000E+00 -0.11335146885E+04  0.34351046737E+04  0.32426977303E+04 0.  0.
        2    1    3    3  502    0 -0.93669913435E+02 -0.15904181214E+04 -0.24795493890E+03  0.16123540260E+04  0.25500000920E-02 0.  1.
       -2    1    3    3    0  502  0.93669913435E+02  0.15904181214E+04 -0.88555974959E+03  0.18227506477E+04  0.25500000920E-02 0. -1.
</event>
<event>
 5   0  0.5281187E-07  0.3202113E+04  0.7818609E-02  0.8188259E-01
        1   -1    0    0  501    0  0.00000000000E+00  0.00000000000E+00  0.20766114984E+04  0.20766114984E+04  0.50400001928E-02 0. -1.
       -1   -1    0    0    0  501  0.00000000000E+00  0.00000000000E+00 -0.12344060403E+04  0.12344060403E+04  0.50400001928E-02 0.  1.
    10030    2    1    2    0    0  0.00000000000E+00  0.00000000000E+00  0.84220545810E+03  0.33110175388E+04  0.32021129131E+04 0.  0.
        5    1    3    3  502    0 -0.15795265402E+04  0.19789049295E+03  0.24412394363E+03  0.16104916418E+04  0.46999998093E+01 0. -1.
       -5    1    3    3    0  502  0.15795265402E+04 -0.19789049295E+03  0.59808151447E+03  0.17005258970E+04  0.46999998093E+01 0.  1.
</event>
<event>
 5   0  0.5233813E-07  0.3138589E+04  0.7818609E-02  0.8205227E-01
       -1   -1    0    0    0  501  0.00000000000E+00  0.00000000000E+00  0.17661404925E+04  0.17661404925E+04  0.50400001928E-02 0.  1.
        1   -1    0    0  501    0  0.00000000000E+00  0.00000000000E+00 -0.13943879179E+04  0.13943879179E+04  0.50400001928E-02 0. -1.
    10030    2    1    2    0    0  0.00000000000E+00  0.00000000000E+00  0.37175257460E+03  0.31605284103E+04  0.31385888319E+04 0.  0.
        4    1    3    3  502    0  0.40467733813E+03  0.14270459762E+04 -0.33001278289E+03  0.15195835008E+04  0.12699999809E+01 0. -1.
       -4    1    3    3    0  502 -0.40467733813E+03 -0.14270459762E+04  0.70176535748E+03  0.16409449095E+04  0.12699999809E+01 0.  1.
</event>
<event>
 5   0  0.5281187E-07  0.3233390E+04  0.7818609E-02  0.8180054E-01
       -1   -1    0    0    0  501  0.00000000000E+00  0.00000000000E+00  0.17267107308E+04  0.17267107308E+04  0.50400001928E-02 0.  1.
        1   -1    0    0  501    0  0.00000000000E+00  0.00000000000E+00 -0.15136884778E+04  0.15136884778E+04  0.50400001928E-02 0. -1.
    10030    2    1    2    0    0  0.00000000000E+00  0.00000000000E+00  0.21302225302E+03  0.32403992086E+04  0.32333896379E+04 0.  0.
        5    1    3    3  502    0 -0.10034738134E+04 -0.67943301969E+03 -0.96589799590E+03  0.15496999551E+04  0.46999998093E+01 0. -1.
       -5    1    3    3    0  502  0.10034738134E+04  0.67943301969E+03  0.11789202489E+04  0.16906992535E+04  0.46999998093E+01 0.  1.
</event>
<event>
 5   0  0.1538349E-06  0.3062922E+04  0.7818609E-02  0.8225988E-01
       -2   -1    0    0    0  501  0.00000000000E+00  0.00000000000E+00  0.15988068196E+04  0.15988068196E+04  0.25500000920E-02 0.  1.
        2   -1    0    0  501    0  0.00000000000E+00  0.00000000000E+00 -0.14669517960E+04  0.14669517960E+04  0.25500000920E-02 0. -1.
    10030    2    1    2    0    0  0.00000000000E+00  0.00000000000E+00  0.13185502353E+03  0.30657586156E+04  0.30629218309E+04 0.  0.
        1    1    3    3  502    0 -0.70061499707E+03 -0.15929576841E+03 -0.12877806431E+04  0.14746577571E+04  0.50400001928E-02 0. -1.
       -1    1    3    3    0  502  0.70061499707E+03  0.15929576841E+03  0.14196356666E+04  0.15911008585E+04  0.50400001928E-02 0.  1.
</event>
<event>
 5   0  0.1556396E-06  0.3191661E+04  0.7818609E-02  0.8191023E-01
        2   -1    0    0  501    0  0.00000000000E+00  0.00000000000E+00  0.23344707262E+04  0.23344707262E+04  0.25500000920E-02 0. -1.
       -2   -1    0    0    0  501  0.00000000000E+00  0.00000000000E+00 -0.10909000364E+04  0.10909000364E+04  0.25500000920E-02 0.  1.
    10030    2    1    2    0    0  0.00000000000E+00  0.00000000000E+00  0.12435706897E+04  0.34253707626E+04  0.31916605084E+04 0.  0.
        3    1    3    3  502    0  0.11634723784E+03 -0.12590063095E+04  0.16667566623E+04  0.20920591169E+04  0.10100000352E+00 0. -1.
       -3    1    3    3    0  502 -0.11634723784E+03  0.12590063095E+04 -0.42318597257E+03  0.13333116457E+04  0.10100000352E+00 0.  1.
</event>
<event>
 5   0  0.1572769E-06  0.3190799E+04  0.7818609E-02  0.8191251E-01
       -2   -1    0    0    0  501  0.00000000000E+00  0.00000000000E+00  0.30697224747E+04  0.30697224747E+04  0.25500000920E-02 0.  1.
        2   -1    0    0  501    0  0.00000000000E+00  0.00000000000E+00 -0.82916274796E+03  0.82916274796E+03  0.25500000920E-02 0. -1.
    10030    2    1    2    0    0  0.00000000000E+00  0.00000000000E+00  0.22405597268E+04  0.38988852227E+04  0.31907989737E+04 0.  0.
        5    1    3    3  502    0  0.19556509403E+02 -0.14040776479E+04  0.20456019439E+04  0.24811944505E+04  0.46999998093E+01 0.  1.
       -5    1    3    3    0  502 -0.19556509403E+02  0.14040776479E+04  0.19495778293E+03  0.14176907722E+04  0.46999998093E+01 0. -1.
</event>
<event>
 5   0  0.5281187E-07  0.3193672E+04  0.7818609E-02  0.8190490E-01
        1   -1    0    0  501    0  0.00000000000E+00  0.00000000000E+00  0.22411571000E+04  0.22411571001E+04  0.50400001928E-02 0. -1.
       -1   -1    0    0    0  501  0.00000000000E+00  0.00000000000E+00 -0.11377536733E+04  0.11377536733E+04  0.50400001928E-02 0.  1.
    10030    2    1    2    0    0  0.00000000000E+00  0.00000000000E+00  0.11034034267E+04  0.33789107734E+04  0.31936716945E+04 0.  0.
        5    1    3    3  502    0  0.35346721406E+03 -0.83336726379E+03  0.19434559092E+04  0.21439410041E+04  0.46999998093E+01 0. -1.
       -5    1    3    3    0  502 -0.35346721406E+03  0.83336726379E+03 -0.84005248251E+03  0.12349697693E+04  0.46999998093E+01 0.  1.
</event>
<event>
 5   0  0.1556396E-06  0.3176689E+04  0.7818609E-02  0.8195001E-01
        2   -1    0    0  501    0  0.00000000000E+00  0.00000000000E+00  0.21667038127E+04  0.21667038127E+04  0.25500000920E-02 0. -1.
       -2   -1    0    0    0  501  0.00000000000E+00  0.00000000000E+00 -0.11643666009E+04  0.11643666009E+04  0.25500000920E-02 0.  1.
    10030    2    1    2    0    0  0.00000000000E+00  0.00000000000E+00  0.10023372119E+04  0.33310704136E+04  0.31766885611E+04 0.  0.
        3    1    3    3  502    0 -0.33390452790E+03 -0.15928521091E+03  0.21208962137E+04  0.21529200569E+04  0.10100000352E+00 0. -1.
       -3    1    3    3    0  502  0.33390452790E+03  0.15928521091E+03 -0.11185590018E+04  0.11781503567E+04  0.10100000352E+00 0.  1.
</event>
<event>
 5   0  0.1508771E-06  0.3221300E+04  0.7818609E-02  0.8183215E-01
       -2   -1    0    0    0  501  0.00000000000E+00  0.00000000000E+00  0.10410595228E+04  0.10410595228E+04  0.25500000920E-02 0. -1.
        2   -1    0    0  501    0  0.00000000000E+00  0.00000000000E+00 -0.24918777157E+04  0.24918777157E+04  0.25500000920E-02 0.  1.
    10030    2    1    2    0    0  0.00000000000E+00  0.00000000000E+00 -0.14508181929E+04  0.35329372385E+04  0.32212997536E+04 0.  0.
        4    1    3    3  502    0 -0.75251513487E+03  0.10776171052E+04 -0.17464134539E+04  0.21857491207E+04  0.12699999809E+01 0.  1.
       -4    1    3    3    0  502  0.75251513487E+03 -0.10776171052E+04  0.29559526092E+03  0.13471881179E+04  0.12699999809E+01 0. -1.
</event>
<event>
 5   0  0.1572769E-06  0.3202456E+04  0.7818609E-02  0.8188169E-01
        2   -1    0    0  501    0  0.00000000000E+00  0.00000000000E+00  0.25345418979E+04  0.25345418979E+04  0.25500000920E-02 0.  1.
       -2   -1    0    0    0  501  0.00000000000E+00  0.00000000000E+00 -0.10115956093E+04  0.10115956093E+04  0.25500000920E-02 0. -1.
    10030    2    1    2    0    0  0.00000000000E+00  0.00000000000E+00  0.15229462886E+04  0.35461375072E+04  0.32024562171E+04 0.  0.
        5    1    3    3  502    0 -0.34306632146E+03 -0.10464247062E+04  0.20486369775E+04  0.23258621460E+04  0.46999998093E+01 0.  1.
       -5    1    3    3    0  502  0.34306632146E+03  0.10464247062E+04 -0.52569068891E+03  0.12202753612E+04  0.46999998093E+01 0. -1.
</event>
<event>
 5   0  0.5281187E-07  0.3186495E+04  0.7818609E-02  0.8192393E-01
        1   -1    0    0  501    0  0.00000000000E+00  0.00000000000E+00  0.18474299705E+04  0.18474299705E+04  0.50400001928E-02 0.  1.
       -1   -1    0    0    0  501  0.00000000000E+00  0.00000000000E+00 -0.13740374796E+04  0.13740374796E+04  0.50400001928E-02 0. -1.
    10030    2    1    2    0    0  0.00000000000E+00  0.00000000000E+00  0.47339249085E+03  0.32214674501E+04  0.31864952662E+04 0.  0.
        5    1    3    3  502    0  0.69894788294E+03  0.13419759402E+04 -0.26776754067E+03  0.15366031085E+04  0.46999998093E+01 0. -1.
       -5    1    3    3    0  502 -0.69894788294E+03 -0.13419759402E+04  0.74116003152E+03  0.16848643416E+04  0.46999998093E+01 0.  1.
</event>
<event>
 5   0  0.1556396E-06  0.3202235E+04  0.7818609E-02  0.8188227E-01
        2   -1    0    0  501    0  0.00000000000E+00  0.00000000000E+00  0.18399802149E+04  0.18399802149E+04  0.25500000920E-02 0. -1.
       -2   -1    0    0    0  501  0.00000000000E+00  0.00000000000E+00 -0.13932637852E+04  0.13932637852E+04  0.25500000920E-02 0.  1.
    10030    2    1    2    0    0  0.00000000000E+00  0.00000000000E+00  0.44671642965E+03  0.32332440001E+04  0.32022353436E+04 0.  0.
        3    1    3    3  502    0 -0.15720348423E+03  0.14122045487E+02 -0.13853895908E+04  0.13943517118E+04  0.10100000352E+00 0.  1.
       -3    1    3    3    0  502  0.15720348423E+03 -0.14122045487E+02  0.18321060205E+04  0.18388922883E+04  0.10100000352E+00 0. -1.
</event>
<event>
 5   0  0.1538349E-06  0.3164138E+04  0.7818609E-02  0.8198353E-01
        2   -1    0    0  501    0  0.00000000000E+00  0.00000000000E+00  0.20113344586E+04  0.20113344586E+04  0.25500000920E-02 0. -1.
       -2   -1    0    0    0  501  0.00000000000E+00  0.00000000000E+00 -0.12444190767E+04  0.12444190767E+04  0.25500000920E-02 0.  1.
    10030    2    1    2    0    0  0.00000000000E+00  0.00000000000E+00  0.76691538191E+03  0.32557535354E+04  0.31641384104E+04 0.  0.
        1    1    3    3  502    0  0.10947477649E+04  0.41046310433E+03  0.14801463879E+04  0.18862094153E+04  0.50400001928E-02 0. -1.
       -1    1    3    3    0  502 -0.10947477649E+04 -0.41046310433E+03 -0.71323100602E+03  0.13695441200E+04  0.50400001928E-02 0.  1.
</event>
<event>
 5   0  0.1508771E-06  0.3184861E+04  0.7818609E-02  0.8192827E-01
       -2   -1    0    0    0  501  0.00000000000E+00  0.00000000000E+00  0.13741161985E+04  0.13741161985E+04  0.25500000920E-02 0. -1.
        2   -1    0    0  501    0  0.00000000000E+00  0.00000000000E+00 -0.18454300020E+04  0.18454300020E+04  0.25500000920E-02 0.  1.
    10030    2    1    2    0    0  0.00000000000E+00  0.00000000000E+00 -0.47131380351E+03  0.32195462005E+04  0.31848612271E+04 0.  0.
        4    1    3    3  502    0  0.11402971995E+04  0.88442170973E+03  0.44499170695E+03  0.15101320128E+04  0.12699999809E+01 0. -1.
       -4    1    3    3    0  502 -0.11402971995E+04 -0.88442170973E+03 -0.91630551046E+03  0.17094141877E+04  0.12699999809E+01 0.  1.
</event>
<event>
 5   0  0.1538349E-06  0.3158423E+04  0.7818609E-02  0.8199885E-01
        2   -1    0    0  501    0  0.00000000000E+00  0.00000000000E+00  0.18089863774E+04  0.18089863774E+04  0.25500000920E-02 0. -1.
       -2   -1    0    0    0  501  0.00000000000E+00  0.00000000000E+00 -0.13786225009E+04  0.13786225009E+04  0.25500000920E-02 0.  1.
    10030    2    1    2    0    0  0.00000000000E+00  0.00000000000E+00  0.43036387653E+03  0.31876088783E+04  0.31584232292E+04 0.  0.
        1    1    3    3  502    0 -0.76837686934E+03 -0.73964978894E+03 -0.96023654442E+03  0.14351094191E+04  0.50400001928E-02 0.  1.
       -1    1    3    3    0  502  0.76837686934E+03  0.73964978894E+03  0.13906004210E+04  0.17524994592E+04  0.50400001928E-02 0. -1.
</event>
<event>
 5   0  0.1556396E-06  0.3180353E+04  0.7818609E-02  0.8194025E-01
       -2   -1    0    0    0  501  0.00000000000E+00  0.00000000000E+00  0.19293311542E+04  0.19293311542E+04  0.25500000920E-02 0. -1.
        2   -1    0    0  501    0  0.00000000000E+00  0.00000000000E+00 -0.13106415750E+04  0.13106415750E+04  0.25500000920E-02 0.  1.
    10030    2    1    2    0    0  0.00000000000E+00  0.00000000000E+00  0.61868957919E+03  0.32399727292E+04  0.31803532022E+04 0.  0.
        3    1    3    3  502    0 -0.24225630849E+02 -0.75551227390E+02 -0.13086239122E+04  0.13110268582E+04  0.10100000352E+00 0.  1.
       -3    1    3    3    0  502  0.24225630849E+02  0.75551227390E+02  0.19273134914E+04  0.19289458710E+04  0.10100000352E+00 0. -1.
</event>
<event>
 5   0  0.1493485E-06  0.3194207E+04  0.7818609E-02  0.8190349E-01
       -2   -1    0    0    0  501  0.00000000000E+00  0.00000000000E+00  0.98848769498E+03  0.98848769498E+03  0.25500000920E-02 0.  1.
        2   -1    0    0  501    0  0.00000000000E+00  0.00000000000E+00 -0.25804456866E+04  0.25804456866E+04  0.25500000920E-02 0. -1.
    10030    2    1    2    0    0  0.00000000000E+00  0.00000000000E+00 -0.15919579916E+04  0.35689333816E+04  0.31942065110E+04 0.  0.
        2    1    3    3  502    0 -0.19989477926E+03 -0.11856635425E+04  0.37852154086E+03  0.12605691238E+04  0.25500000920E-02 0.  1.
       -2    1    3    3    0  502  0.19989477926E+03  0.11856635425E+04 -0.19704795325E+04  0.23083642578E+04  0.25500000920E-02 0. -1.
</event>
<event>
 5   0  0.1538349E-06  0.3197908E+04  0.7818609E-02  0.8189370E-01
        2   -1    0    0  501    0  0.00000000000E+00  0.00000000000E+00  0.25428414108E+04  0.25428414108E+04  0.25500000920E-02 0. -1.
       -2   -1    0    0    0  501  0.00000000000E+00  0.00000000000E+00 -0.10054319371E+04  0.10054319371E+04  0.25500000920E-02 0.  1.
    10030    2    1    2    0    0  0.00000000000E+00  0.00000000000E+00  0.15374094737E+04  0.35482733480E+04  0.31979080446E+04 0.  0.
        1    1    3    3  502    0 -0.14550992119E+04 -0.47148523327E+03  0.12856242333E+04  0.19981095343E+04  0.50400001928E-02 0. -1.
       -1    1    3    3    0  502  0.14550992119E+04  0.47148523327E+03  0.25178524039E+03  0.15501638136E+04  0.50400001928E-02 0.  1.
</event>
<event>
 5   0  0.1493485E-06  0.3213191E+04  0.7818609E-02  0.8185342E-01
        2   -1    0    0  501    0  0.00000000000E+00  0.00000000000E+00  0.21167446138E+04  0.21167446138E+04  0.25500000920E-02 0.  1.
       -2   -1    0    0    0  501  0.00000000000E+00  0.00000000000E+00 -0.12193956841E+04  0.12193956841E+04  0.25500000920E-02 0. -1.
    10030    2    1    2    0    0  0.00000000000E+00  0.00000000000E+00  0.89734892966E+03  0.33361402979E+04  0.32131910908E+04 0.  0.
        2    1    3    3  502    0  0.15108063395E+04 -0.16501247633E+03 -0.92204558466E+02  0.15225854963E+04  0.25500000920E-02 0. -1.
       -2    1    3    3    0  502 -0.15108063395E+04  0.16501247633E+03  0.98955348813E+03  0.18135548017E+04  0.25500000920E-02 0.  1.
</event>
<event>
 5   0  0.5370912E-07  0.2941802E+04  0.7818609E-02  0.8260548E-01
       -1   -1    0    0    0  501  0.00000000000E+00  0.00000000000E+00  0.92760882537E+03  0.92760882539E+03  0.50400001928E-02 0.  1.
        1   -1    0    0  501    0  0.00000000000E+00  0.00000000000E+00 -0.23323942540E+04  0.23323942540E+04  0.50400001928E-02 0. -1.
    10030    2    1    2    0    0  0.00000000000E+00  0.00000000000E+00 -0.14047854286E+04  0.32600030794E+04  0.29418018249E+04 0.  0.
        1    1    3    3  502    0 -0.10007655566E+04 -0.34064164329E+03 -0.18357491336E+04  0.21183822388E+04  0.50400001928E-02 0. -1.
       -1    1    3    3    0  502  0.10007655566E+04  0.34064164329E+03  0.43096370497E+03  0.11416208405E+04  0.50400001928E-02 0.  1.
</event>
<event>
 5   0  0.5317728E-07  0.3125603E+04  0.7818609E-02  0.8208746E-01
        1   -1    0    0  501    0  0.00000000000E+00  0.00000000000E+00  0.21066792095E+04  0.21066792095E+04  0.50400001928E-02 0. -1.
       -1   -1    0    0    0  501  0.00000000000E+00  0.00000000000E+00 -0.11593359491E+04  0.11593359491E+04  0.50400001928E-02 0.  1.
    10030    2    1    2    0    0  0.00000000000E+00  0.00000000000E+00  0.94734326033E+03  0.32660151586E+04  0.31256032639E+04 0.  0.
        2    1    3    3  502    0 -0.76503613094E+03  0.13039367792E+04  0.59880043894E+02  0.15129828239E+04  0.25500000920E-02 0.  1.
       -2    1    3    3    0  502  0.76503613094E+03 -0.13039367792E+04  0.88746321643E+03  0.17530323347E+04  0.25500000920E-02 0. -1.
</event>
<event>
 5   0  0.5233813E-07  0.3213306E+04  0.7818609E-02  0.8185312E-01
       -1   -1    0    0    0  501  0.00000000000E+00  0.00000000000E+00  0.16736957317E+04  0.16736957317E+04  0.50400001928E-02 0.  1.
        1   -1    0    0  501    0  0.00000000000E+00  0.00000000000E+00 -0.15422957732E+04  0.15422957732E+04  0.50400001928E-02 0. -1.
    10030    2    1    2    0    0  0.00000000000E+00  0.00000000000E+00  0.13139995843E+03  0.32159915049E+04  0.32133059939E+04 0.  0.
        4    1    3    3  502    0 -0.37944167644E+03 -0.49927519464E+03 -0.14147524604E+04  0.15475069767E+04  0.12699999809E+01 0. -1.
       -4    1    3    3    0  502  0.37944167644E+03  0.49927519464E+03  0.15461524188E+04  0.16684845282E+04  0.12699999809E+01 0.  1.
</event>
<event>
 5   0  0.5281187E-07  0.3233026E+04  0.7818609E-02  0.8180149E-01
       -1   -1    0    0    0  501  0.00000000000E+00  0.00000000000E+00  0.27786128468E+04  0.27786128468E+04  0.50400001928E-02 0.  1.
        1   -1    0    0  501    0  0.00000000000E+00  0.00000000000E+00 -0.94043858685E+03  0.94043858686E+03  0.50400001928E-02 0. -1.
    10030    2    1    2    0    0  0.00000000000E+00  0.00000000000E+00  0.18381742599E+04  0.37190514337E+04  0.32330262845E+04 0.  0.
        5    1    3    3  502    0 -0.34747167036E+03 -0.63867301605E+03  0.25798934497E+04  0.26803940168E+04  0.46999998093E+01 0.  1.
       -5    1    3    3    0  502  0.34747167036E+03  0.63867301605E+03 -0.74171918980E+03  0.10386574169E+04  0.46999998093E+01 0. -1.
</event>
<event>
 5   0  0.1556396E-06  0.3193480E+04  0.7818609E-02  0.8190541E-01
       -2   -1    0    0    0  501  0.00000000000E+00  0.00000000000E+00  0.79403025408E+03  0.79403025409E+03  0.25500000920E-02 0. -1.
        2   -1    0    0  501    0  0.00000000000E+00  0.00000000000E+00 -0.32109334079E+04  0.32109334079E+04  0.25500000920E-02 0.  1.
    10030    2    1    2    0    0  0.00000000000E+00  0.00000000000E+00 -0.24169031538E+04  0.40049636620E+04  0.31934797759E+04 0.  0.
        3    1    3    3  502    0  0.11283603974E+04  0.21066276778E+03 -0.26004545540E+04  0.28425235066E+04  0.10100000352E+00 0.  1.
       -3    1    3    3    0  502 -0.11283603974E+04 -0.21066276778E+03  0.18355140017E+03  0.11624401554E+04  0.10100000352E+00 0. -1.
</event>
<event>
 5   0  0.1556396E-06  0.3239499E+04  0.7818609E-02  0.8178463E-01
       -2   -1    0    0    0  501  0.00000000000E+00  0.00000000000E+00  0.12696935636E+04  0.12696935636E+04  0.25500000920E-02 0. -1.
        2   -1    0    0  501    0  0.00000000000E+00  0.00000000000E+00 -0.20663161192E+04  0.20663161192E+04  0.25500000920E-02 0.  1.
    10030    2    1    2    0    0  0.00000000000E+00  0.00000000000E+00 -0.79662255559E+03  0.33360096828E+04  0.32394988976E+04 0.  0.
        3    1    3    3  502    0 -0.99167411062E+03  0.12771340557E+04 -0.30007901555E+03  0.16445474647E+04  0.10100000352E+00 0. -1.
       -3    1    3    3    0  502  0.99167411062E+03 -0.12771340557E+04 -0.49654354005E+03  0.16914622181E+04  0.10100000352E+00 0.  1.
</event>
<event>
 5   0  0.5177039E-07  0.3048743E+04  0.7818609E-02  0.8229947E-01
        1   -1    0    0  501    0  0.00000000000E+00  0.00000000000E+00  0.20575184466E+04  0.20575184466E+04  0.50400001928E-02 0. -1.
       -1   -1    0    0    0  501  0.00000000000E+00  0.00000000000E+00 -0.11293744697E+04  0.11293744697E+04  0.50400001928E-02 0.  1.
    10030    2    1    2    0    0  0.00000000000E+00  0.00000000000E+00  0.92814397687E+03  0.31868929163E+04  0.30487432194E+04 0.  0.
        3    1    3    3  502    0  0.85685122990E+03  0.34266562905E+03  0.17323502445E+04  0.19628171447E+04  0.10100000352E+00 0. -1.
       -3    1    3    3    0  502 -0.85685122990E+03 -0.34266562905E+03 -0.80420626765E+03  0.12240757716E+04  0.10100000352E+00 0.  1.
</event>
<event>
 5   0  0.5233813E-07  0.3196554E+04  0.7818609E-02  0.8189728E-01
        1   -1    0    0  501    0  0.00000000000E+00  0.00000000000E+00  0.18176951571E+04  0.18176951571E+04  0.50400001928E-02 0.  1.
       -1   -1    0    0    0  501  0.00000000000E+00  0.00000000000E+00 -0.14053456318E+04  0.14053456318E+04  0.50400001928E-02 0. -1.
    10030    2    1    2    0    0  0.00000000000E+00  0.00000000000E+00  0.41234952530E+03  0.32230407889E+04  0.31965543631E+04 0.  0.
        4    1    3    3  502    0  0.75297873764E+03  0.54793719221E+03  0.15158897461E+04  0.17790827640E+04  0.12699999809E+01 0. -1.
       -4    1    3    3    0  502 -0.75297873764E+03 -0.54793719221E+03 -0.11035402208E+04  0.14439580249E+04  0.12699999809E+01 0.  1.
</event>
<event>
 5   0  0.5281187E-07  0.3198386E+04  0.7818609E-02  0.8189244E-01
        1   -1    0    0  501    0  0.00000000000E+00  0.00000000000E+00  0.11629630995E+04  0.11629630995E+04  0.50400001928E-02 0. -1.
       -1   -1    0    0    0  501  0.00000000000E+00  0.00000000000E+00 -0.21990533820E+04  0.21990533820E+04  0.50400001928E-02 0.  1.
    10030    2    1    2    0    0  0.00000000000E+00  0.00000000000E+00 -0.10360902825E+04  0.33620164814E+04  0.31983858035E+04 0.  0.
        5    1    3    3  502    0  0.12597669809E+04 -0.59156183876E+03  0.30993141611E+03  0.14258463550E+04  0.46999998093E+01 0. -1.
       -5    1    3    3    0  502 -0.12597669809E+04  0.59156183876E+03 -0.13460216986E+04  0.19361701264E+04  0.46999998093E+01 0.  1.
</event>
<event>
 5   0  0.1508771E-06  0.3200838E+04  0.7818609E-02  0.8188596E-01
        2   -1    0    0  501    0  0.00000000000E+00  0.00000000000E+00  0.21631788493E+04  0.21631788493E+04  0.25500000920E-02 0.  1.
       -2   -1    0    0    0  501  0.00000000000E+00  0.00000000000E+00 -0.11840632618E+04  0.11840632618E+04  0.25500000920E-02 0. -1.
    10030    2    1    2    0    0  0.00000000000E+00  0.00000000000E+00  0.97911558756E+03  0.33472421111E+04  0.32008377679E+04 0.  0.
        4    1    3    3  502    0 -0.85569392046E+03 -0.92206194126E+03 -0.54510537713E+03  0.13709674665E+04  0.12699999809E+01 0. -1.
       -4    1    3    3    0  502  0.85569392046E+03  0.92206194126E+03  0.15242209647E+04  0.19762746447E+04  0.12699999809E+01 0.  1.
</event>
<event>
 5   0  0.1508771E-06  0.3202880E+04  0.7818609E-02  0.8188057E-01
        2   -1    0    0  501    0  0.00000000000E+00  0.00000000000E+00  0.12617848075E+04  0.12617848075E+04  0.25500000920E-02 0. -1.
       -2   -1    0    0    0  501  0.00000000000E+00  0.00000000000E+00 -0.20325254699E+04  0.20325254699E+04  0.25500000920E-02 0.  1.
    10030    2    1    2    0    0  0.00000000000E+00  0.00000000000E+00 -0.77074066250E+03  0.32943102774E+04  0.32028798034E+04 0.  0.
        4    1    3    3  502    0  0.99071517235E+03  0.11564255044E+04 -0.89527589326E+03  0.17664532368E+04  0.12699999809E+01 0. -1.
       -4    1    3    3    0  502 -0.99071517235E+03 -0.11564255044E+04  0.12453523076E+03  0.15278570406E+04  0.12699999809E+01 0.  1.
</event>
<event>
 5   0  0.1556396E-06  0.3106478E+04  0.7818609E-02  0.8213962E-01
        2   -1    0    0  501    0  0.00000000000E+00  0.00000000000E+00  0.16977821777E+04  0.16977821777E+04  0.25500000920E-02 0. -1.
       -2   -1    0    0    0  501  0.00000000000E+00  0.00000000000E+00 -0.14210018796E+04  0.14210018796E+04  0.25500000920E-02 0.  1.
    10030    2    1    2    0    0  0.00000000000E+00  0.00000000000E+00  0.27678029807E+03  0.31187840573E+04  0.31064781768E+04 0.  0.
        3    1    3    3  502    0  0.11198248477E+04  0.10552740663E+04 -0.74441634536E+02  0.15405040122E+04  0.10100000352E+00 0. -1.
       -3    1    3    3    0  502 -0.11198248477E+04 -0.10552740663E+04  0.35122193261E+03  0.15782800451E+04  0.10100000352E+00 0.  1.
</event>
<event>
 5   0  0.5370912E-07  0.3173944E+04  0.7818609E-02  0.8195733E-01
        1   -1    0    0  501    0  0.00000000000E+00  0.00000000000E+00  0.16399275367E+04  0.16399275367E+04  0.50400001928E-02 0. -1.
       -1   -1    0    0    0  501  0.00000000000E+00  0.00000000000E+00 -0.15357260065E+04  0.15357260065E+04  0.50400001928E-02 0.  1.
    10030    2    1    2    0    0  0.00000000000E+00  0.00000000000E+00  0.10420153022E+03  0.31756535432E+04  0.31739435199E+04 0.  0.
        1    1    3    3  502    0  0.92328856150E+03  0.73031684064E+03  0.11169367710E+04  0.16227668366E+04  0.50400001928E-02 0. -1.
       -1    1    3    3    0  502 -0.92328856150E+03 -0.73031684064E+03 -0.10127352408E+04  0.15528867066E+04  0.50400001928E-02 0.  1.
</event>
<event>
 5   0  0.1508771E-06  0.3206273E+04  0.7818609E-02  0.8187163E-01
       -2   -1    0    0    0  501  0.00000000000E+00  0.00000000000E+00  0.14435061547E+04  0.14435061547E+04  0.25500000920E-02 0. -1.
        2   -1    0    0  501    0  0.00000000000E+00  0.00000000000E+00 -0.17804193164E+04  0.17804193164E+04  0.25500000920E-02 0.  1.
    10030    2    1    2    0    0  0.00000000000E+00  0.00000000000E+00 -0.33691316172E+03  0.32239254712E+04  0.32062727527E+04 0.  0.
        4    1    3    3  502    0  0.44402037960E+03  0.70790919095E+03  0.12071968722E+04  0.14682014240E+04  0.12699999809E+01 0. -1.
       -4    1    3    3    0  502 -0.44402037960E+03 -0.70790919095E+03 -0.15441100339E+04  0.17557240472E+04  0.12699999809E+01 0.  1.
</event>
<event>
 5   0  0.5233813E-07  0.3311944E+04  0.7818609E-02  0.8159863E-01
        1   -1    0    0  501    0  0.00000000000E+00  0.00000000000E+00  0.21448303909E+04  0.21448303909E+04  0.50400001928E-02 0. -1.
       -1   -1    0    0    0  501  0.00000000000E+00  0.00000000000E+00 -0.12785363409E+04  0.12785363409E+04  0.50400001928E-02 0.  1.
    10030    2    1    2    0    0  0.00000000000E+00  0.00000000000E+00  0.86629405008E+03  0.34233667318E+04  0.33119442023E+04 0.  0.
        4    1    3    3  502    0  0.35842831968E+03 -0.86083563404E+03 -0.98137059653E+03  0.13537350959E+04  0.12699999809E+01 0.  1.
       -4    1    3    3    0  502 -0.35842831968E+03  0.86083563404E+03  0.18476646466E+04  0.20696316359E+04  0.12699999809E+01 0. -1.
</event>
<event>
 5   0  0.1538349E-06  0.3269883E+04  0.7818609E-02  0.8170601E-01
        2   -1    0    0  501    0  0.00000000000E+00  0.00000000000E+00  0.20348348754E+04  0.20348348754E+04  0.25500000920E-02 0.  1.
       -2   -1    0    0    0  501  0.00000000000E+00  0.00000000000E+00 -0.13136367873E+04  0.13136367873E+04  0.25500000920E-02 0. -1.
    10030    2    1    2    0    0  0.00000000000E+00  0.00000000000E+00  0.72119808805E+03  0.33484716627E+04  0.32698831468E+04 0.  0.
        1    1    3    3  502    0 -0.18698318925E+03 -0.64800948370E+03  0.18857412330E+04  0.20027228969E+04  0.50400001928E-02 0.  1.
       -1    1    3    3    0  502  0.18698318925E+03  0.64800948370E+03 -0.11645431450E+04  0.13457487657E+04  0.50400001928E-02 0. -1.
</event>
<event>
 5   0  0.1572769E-06  0.3284387E+04  0.7818609E-02  0.8166880E-01
       -2   -1    0    0    0  501  0.00000000000E+00  0.00000000000E+00  0.15233784552E+04  0.15233784552E+04  0.25500000920E-02 0. -1.
        2   -1    0    0  501    0  0.00000000000E+00  0.00000000000E+00 -0.17702749599E+04  0.17702749599E+04  0.25500000920E-02 0.  1.
    10030    2    1    2    0    0  0.00000000000E+00  0.00000000000E+00 -0.24689650474E+03  0.32936534151E+04  0.32843865386E+04 0.  0.
        5    1    3    3  502    0 -0.98782668631E+03  0.48591595855E+03  0.10985385047E+04  0.15552250054E+04  0.46999998093E+01 0. -1.
       -5    1    3    3    0  502  0.98782668631E+03 -0.48591595855E+03 -0.13454350095E+04  0.17384284097E+04  0.46999998093E+01 0.  1.
</event>
<event>
 5   0  0.5370912E-07  0.3194975E+04  0.7818609E-02  0.8190146E-01
       -1   -1    0    0    0  501  0.00000000000E+00  0.00000000000E+00  0.15292776846E+04  0.15292776846E+04  0.50400001928E-02 0.  1.
        1   -1    0    0  501    0  0.00000000000E+00  0.00000000000E+00 -0.16687396311E+04  0.16687396312E+04  0.50400001928E-02 0. -1.
    10030    2    1    2    0    0  0.00000000000E+00  0.00000000000E+00 -0.13946194659E+03  0.31980173157E+04  0.31949749791E+04 0.  0.
        1    1    3    3  502    0 -0.15843176672E+04 -0.93309607215E+02  0.11264330780E+03  0.15910555201E+04  0.50400001928E-02 0. -1.
       -1    1    3    3    0  502  0.15843176672E+04  0.93309607215E+02 -0.25210525439E+03  0.16069617956E+04  0.50400001928E-02 0.  1.
</event>
<event>
 5   0  0.5370912E-07  0.3204803E+04  0.7818609E-02  0.8187550E-01
       -1   -1    0    0    0  501  0.00000000000E+00  0.00000000000E+00  0.13054306506E+04  0.13054306506E+04  0.50400001928E-02 0. -1.
        1   -1    0    0  501    0  0.00000000000E+00  0.00000000000E+00 -0.19669294509E+04  0.19669294509E+04  0.50400001928E-02 0.  1.
    10030    2    1    2    0    0  0.00000000000E+00  0.00000000000E+00 -0.66149880032E+03  0.32723601016E+04  0.32048026416E+04 0.  0.
        1    1    3    3  502    0  0.69927307844E+03  0.78893544905E+03  0.90145693171E+03  0.13870928522E+04  0.50400001928E-02 0. -1.
       -1    1    3    3    0  502 -0.69927307844E+03 -0.78893544905E+03 -0.15629557320E+04  0.18852672493E+04  0.50400001928E-02 0.  1.
</event>
<event>
 5   0  0.5233813E-07  0.3173494E+04  0.7818609E-02  0.8195853E-01
        1   -1    0    0  501    0  0.00000000000E+00  0.00000000000E+00  0.25541527874E+04  0.25541527874E+04  0.50400001928E-02 0.  1.
       -1   -1    0    0    0  501  0.00000000000E+00  0.00000000000E+00 -0.98575363610E+03  0.98575363611E+03  0.50400001928E-02 0. -1.
    10030    2    1    2    0    0  0.00000000000E+00  0.00000000000E+00  0.15683991513E+04  0.35399064235E+04  0.31734935937E+04 0.  0.
        4    1    3    3  502    0 -0.14985500624E+03  0.54354468763E+03 -0.87024534146E+03  0.10369310091E+04  0.12699999809E+01 0. -1.
       -4    1    3    3    0  502  0.14985500624E+03 -0.54354468763E+03  0.24386444928E+04  0.25029754145E+04  0.12699999809E+01 0.  1.
</event>
<event>
 5   0  0.1508771E-06  0.3196034E+04  0.7818609E-02  0.8189865E-01
        2   -1    0    0  501    0  0.00000000000E+00  0.00000000000E+00  0.20827003958E+04  0.20827003958E+04  0.25500000920E-02 0.  1.
       -2   -1    0    0    0  501  0.00000000000E+00  0.00000000000E+00 -0.12261285131E+04  0.12261285131E+04  0.25500000920E-02 0. -1.
    10030    2    1    2    0    0  0.00000000000E+00  0.00000000000E+00  0.85657188272E+03  0.33088289089E+04  0.31960340046E+04 0.  0.
        4    1    3    3  502    0 -0.83658047081E+02  0.10752745634E+04  0.16490717267E+04  0.19704449315E+04  0.12699999809E+01 0.  1.
       -4    1    3    3    0  502  0.83658047081E+02 -0.10752745634E+04 -0.79249984396E+03  0.13383839774E+04  0.12699999809E+01 0. -1.
</event>
<event>
 5   0  0.5370912E-07  0.3209307E+04  0.7818609E-02  0.8186364E-01
       -1   -1    0    0    0  501  0.00000000000E+00  0.00000000000E+00  0.15468628319E+04  0.15468628319E+04  0.50400001928E-02 0. -1.
        1   -1    0    0  501    0  0.00000000000E+00  0.00000000000E+00 -0.16646033224E+04  0.16646033224E+04  0.50400001928E-02 0.  1.
    10030    2    1    2    0    0  0.00000000000E+00  0.00000000000E+00 -0.11774049052E+03  0.32114661544E+04  0.32093070962E+04 0.  0.
        1    1    3    3  502    0  0.12349350313E+04 -0.89954944238E+03 -0.54977063646E+03  0.16237307300E+04  0.50400001928E-02 0.  1.
       -1    1    3    3    0  502 -0.12349350313E+04  0.89954944238E+03  0.43203014594E+03  0.15877354244E+04  0.50400001928E-02 0. -1.
</event>
<event>
 5   0  0.1538349E-06  0.3186218E+04  0.7818609E-02  0.8192467E-01
        2   -1    0    0  501    0  0.00000000000E+00  0.00000000000E+00  0.20191580328E+04  0.20191580328E+04  0.25500000920E-02 0. -1.
       -2   -1    0    0    0  501  0.00000000000E+00  0.00000000000E+00 -0.12569575372E+04  0.12569575372E+04  0.25500000920E-02 0.  1.
    10030    2    1    2    0    0  0.00000000000E+00  0.00000000000E+00  0.76220049552E+03  0.32761155700E+04  0.31862177629E+04 0.  0.
        1    1    3    3  502    0 -0.39723211802E+03  0.53977462468E+03  0.18671623575E+04  0.19837956725E+04  0.50400001928E-02 0. -1.
       -1    1    3    3    0  502  0.39723211802E+03 -0.53977462468E+03 -0.11049618620E+04  0.12923198975E+04  0.50400001928E-02 0.  1.
</event>
<event>
 5   0  0.4995625E-07  0.3146460E+04  0.7818609E-02  0.8203102E-01
        3   -1    0    0  501    0  0.00000000000E+00  0.00000000000E+00  0.19150103073E+04  0.19150103099E+04  0.10100000352E+00 0. -1.
       -3   -1    0    0    0  501  0.00000000000E+00  0.00000000000E+00 -0.12924485590E+04  0.12924485629E+04  0.10100000352E+00 0.  1.
    10030    2    1    2    0    0  0.00000000000E+00  0.00000000000E+00  0.62256174832E+03  0.32074588729E+04  0.31464598028E+04 0.  0.
        5    1    3    3  502    0 -0.99306781648E+03  0.96372956278E+03 -0.45160713789E+03  0.14556543049E+04  0.46999998093E+01 0.  1.
       -5    1    3    3    0  502  0.99306781648E+03 -0.96372956278E+03  0.10741688862E+04  0.17518045680E+04  0.46999998093E+01 0. -1.
</event>
<event>
 5   0  0.5281187E-07  0.2942467E+04  0.7818609E-02  0.8260353E-01
        1   -1    0    0  501    0  0.00000000000E+00  0.00000000000E+00  0.18852514017E+04  0.18852514017E+04  0.50400001928E-02 0. -1.
       -1   -1    0    0    0  501  0.00000000000E+00  0.00000000000E+00 -0.11481373269E+04  0.11481373269E+04  0.50400001928E-02 0.  1.
    10030    2    1    2    0    0  0.00000000000E+00  0.00000000000E+00  0.73711407485E+03  0.30333887286E+04  0.29424666557E+04 0.  0.
        5    1    3    3  502    0  0.19068656536E+03  0.72472335249E+02  0.18705934096E+04  0.18816895067E+04  0.46999998093E+01 0. -1.
       -5    1    3    3    0  502 -0.19068656536E+03 -0.72472335249E+02 -0.11334793347E+04  0.11516992220E+04  0.46999998093E+01 0.  1.
</event>
<event>
 5   0  0.1556396E-06  0.3201572E+04  0.7818609E-02  0.8188402E-01
       -2   -1    0    0    0  501  0.00000000000E+00  0.00000000000E+00  0.18117465072E+04  0.18117465072E+04  0.25500000920E-02 0. -1.
        2   -1    0    0  501    0  0.00000000000E+00  0.00000000000E+00 -0.14143894414E+04  0.14143894414E+04  0.25500000920E-02 0.  1.
    10030    2    1    2    0    0  0.00000000000E+00  0.00000000000E+00  0.39735706585E+03  0.32261359486E+04  0.32015715705E+04 0.  0.
        3    1    3    3  502    0 -0.49479157969E+03 -0.50576336412E+03 -0.12482704915E+04  0.14348499984E+04  0.10100000352E+00 0.  1.
       -3    1    3    3    0  502  0.49479157969E+03  0.50576336412E+03  0.16456275573E+04  0.17912859502E+04  0.10100000352E+00 0. -1.
</event>
<event>
 5   0  0.5370912E-07  0.2932047E+04  0.7818609E-02  0.8263406E-01
       -1   -1    0    0    0  501  0.00000000000E+00  0.00000000000E+00  0.82919060908E+03  0.82919060910E+03  0.50400001928E-02 0. -1.
        1   -1    0    0  501    0  0.00000000000E+00  0.00000000000E+00 -0.25919553366E+04  0.25919553366E+04  0.50400001928E-02 0.  1.
    10030    2    1    2    0    0  0.00000000000E+00  0.00000000000E+00 -0.17627647275E+04  0.34211459457E+04  0.29320470831E+04 0.  0.
        1    1    3    3  502    0 -0.55155341579E+01  0.13981095549E+04 -0.36681420548E+03  0.14454388296E+04  0.50400001928E-02 0. -1.
       -1    1    3    3    0  502  0.55155341579E+01 -0.13981095549E+04 -0.13959505221E+04  0.19757071161E+04  0.50400001928E-02 0.  1.
</event>
<event>
 5   0  0.5281187E-07  0.3198933E+04  0.7818609E-02  0.8189099E-01
        1   -1    0    0  501    0  0.00000000000E+00  0.00000000000E+00  0.14087153328E+04  0.14087153328E+04  0.50400001928E-02 0. -1.
       -1   -1    0    0    0  501  0.00000000000E+00  0.00000000000E+00 -0.18160468335E+04  0.18160468335E+04  0.50400001928E-02 0.  1.
    10030    2    1    2    0    0  0.00000000000E+00  0.00000000000E+00 -0.40733150063E+03  0.32247621663E+04  0.31989329593E+04 0.  0.
        5    1    3    3  502    0 -0.27936044027E+03  0.11811750580E+04  0.84640426826E+03  0.14797428995E+04  0.46999998093E+01 0. -1.
       -5    1    3    3    0  502  0.27936044027E+03 -0.11811750580E+04 -0.12537357689E+04  0.17450192668E+04  0.46999998093E+01 0.  1.
</event>
<event>
 5   0  0.1572769E-06  0.3173555E+04  0.7818609E-02  0.8195836E-01
        2   -1    0    0  501    0  0.00000000000E+00  0.00000000000E+00  0.25885008135E+04  0.25885008135E+04  0.25500000920E-02 0. -1.
       -2   -1    0    0    0  501  0.00000000000E+00  0.00000000000E+00 -0.97271096613E+03  0.97271096613E+03  0.25500000920E-02 0.  1.
    10030    2    1    2    0    0  0.00000000000E+00  0.00000000000E+00  0.16157898474E+04  0.35612117796E+04  0.31735551844E+04 0.  0.
        5    1    3    3  502    0  0.15638929884E+04  0.14514124487E+03  0.55444306175E+03  0.16656099360E+04  0.46999998093E+01 0. -1.
       -5    1    3    3    0  502 -0.15638929884E+04 -0.14514124487E+03  0.10613467856E+04  0.18956018436E+04  0.46999998093E+01 0.  1.
</event>
<event>
 5   0  0.5370912E-07  0.3169475E+04  0.7818609E-02  0.8196926E-01
        1   -1    0    0  501    0  0.00000000000E+00  0.00000000000E+00  0.22613133254E+04  0.22613133254E+04  0.50400001928E-02 0.  1.
       -1   -1    0    0    0  501  0.00000000000E+00  0.00000000000E+00 -0.11105901430E+04  0.11105901430E+04  0.50400001928E-02 0. -1.
    10030    2    1    2    0    0  0.00000000000E+00  0.00000000000E+00  0.11507231824E+04  0.33719034684E+04  0.31694745870E+04 0.  0.
        1    1    3    3  502    0 -0.77402801206E+03 -0.70196130233E+03  0.18428941247E+04  0.21185201883E+04  0.50400001928E-02 0.  1.
       -1    1    3    3    0  502  0.77402801206E+03  0.70196130233E+03 -0.69217094230E+03  0.12533832801E+04  0.50400001928E-02 0. -1.
</event>
<event>
 5   0  0.5281187E-07  0.3146828E+04  0.7818609E-02  0.8203002E-01
       -1   -1    0    0    0  501  0.00000000000E+00  0.00000000000E+00  0.16992573894E+04  0.16992573894E+04  0.50400001928E-02 0. -1.
        1   -1    0    0  501    0  0.00000000000E+00  0.00000000000E+00 -0.14568907596E+04  0.14568907597E+04  0.50400001928E-02 0.  1.
    10030    2    1    2    0    0  0.00000000000E+00  0.00000000000E+00  0.24236662975E+03  0.31561481491E+04  0.31468284916E+04 0.  0.
        5    1    3    3  502    0  0.80366032387E+03 -0.12202617881E+04 -0.46424181715E+03  0.15331181632E+04  0.46999998093E+01 0.  1.
       -5    1    3    3    0  502 -0.80366032387E+03  0.12202617881E+04  0.70660844690E+03  0.16230299858E+04  0.46999998093E+01 0. -1.
</event>
<event>
 5   0  0.5177039E-07  0.3191734E+04  0.7818609E-02  0.8191004E-01
        1   -1    0    0  501    0  0.00000000000E+00  0.00000000000E+00  0.17759667312E+04  0.17759667313E+04  0.50400001928E-02 0.  1.
       -1   -1    0    0    0  501  0.00000000000E+00  0.00000000000E+00 -0.14340307590E+04  0.14340307590E+04  0.50400001928E-02 0. -1.
    10030    2    1    2    0    0  0.00000000000E+00  0.00000000000E+00  0.34193597226E+03  0.32099974902E+04  0.31917336478E+04 0.  0.
        3    1    3    3  502    0  0.91391620632E+03  0.52864086912E+02 -0.11437050480E+04  0.14649568904E+04  0.10100000352E+00 0. -1.
       -3    1    3    3    0  502 -0.91391620632E+03 -0.52864086912E+02  0.14856410202E+04  0.17450405998E+04  0.10100000352E+00 0.  1.
</event>
<event>
 5   0  0.1508771E-06  0.3195599E+04  0.7818609E-02  0.8189980E-01
       -2   -1    0    0    0  501  0.00000000000E+00  0.00000000000E+00  0.18783279400E+04  0.18783279400E+04  0.25500000920E-02 0.  1.
        2   -1    0    0  501    0  0.00000000000E+00  0.00000000000E+00 -0.13591681637E+04  0.13591681637E+04  0.25500000920E-02 0. -1.
    10030    2    1    2    0    0  0.00000000000E+00  0.00000000000E+00  0.51915977626E+03  0.32374961038E+04  0.31955991846E+04 0.  0.
        4    1    3    3  502    0  0.98169626646E+03 -0.86421403235E+03  0.11894194162E+04  0.17678556541E+04  0.12699999809E+01 0.  1.
       -4    1    3    3    0  502 -0.98169626646E+03  0.86421403235E+03 -0.67025963996E+03  0.14696404496E+04  0.12699999809E+01 0. -1.
</event>
<event>
 5   0  0.5317728E-07  0.3191621E+04  0.7818609E-02  0.8191034E-01
       -1   -1    0    0    0  501  0.00000000000E+00  0.00000000000E+00  0.12625416076E+04  0.12625416076E+04  0.50400001928E-02 0. -1.
        1   -1    0    0  501    0  0.00000000000E+00  0.00000000000E+00 -0.20170510468E+04  0.20170510468E+04  0.50400001928E-02 0.  1.
    10030    2    1    2    0    0  0.00000000000E+00  0.00000000000E+00 -0.75450943915E+03  0.32795926544E+04  0.31916208242E+04 0.  0.
        2    1    3    3  502    0  0.23734307259E+03  0.77359466682E+03  0.10360952641E+04  0.13146382921E+04  0.25500000920E-02 0. -1.
       -2    1    3    3    0  502 -0.23734307259E+03 -0.77359466682E+03 -0.17906047033E+04  0.19649543623E+04  0.25500000920E-02 0.  1.
</event>
<event>
 5   0  0.4995625E-07  0.3185795E+04  0.7818609E-02  0.8192579E-01
       -3   -1    0    0    0  501  0.00000000000E+00  0.00000000000E+00  0.19706754779E+04  0.19706754805E+04  0.10100000352E+00 0.  1.
        3   -1    0    0  501    0  0.00000000000E+00  0.00000000000E+00 -0.12875393040E+04  0.12875393080E+04  0.10100000352E+00 0. -1.
    10030    2    1    2    0    0  0.00000000000E+00  0.00000000000E+00  0.68313617389E+03  0.32582147885E+04  0.31857948107E+04 0.  0.
        1    1    3    3  502    0  0.32912711212E+02 -0.13583337654E+04 -0.50869594758E+03  0.14508361147E+04  0.50400001928E-02 0. -1.
       -1    1    3    3    0  502 -0.32912711212E+02  0.13583337654E+04  0.11918321215E+04  0.18073786738E+04  0.50400001928E-02 0.  1.
</event>
<event>
 5   0  0.1538349E-06  0.3172157E+04  0.7818609E-02  0.8196209E-01
        2   -1    0    0  501    0  0.00000000000E+00  0.00000000000E+00  0.20464090727E+04  0.20464090727E+04  0.25500000920E-02 0. -1.
       -2   -1    0    0    0  501  0.00000000000E+00  0.00000000000E+00 -0.12292974185E+04  0.12292974185E+04  0.25500000920E-02 0.  1.
    10030    2    1    2    0    0  0.00000000000E+00  0.00000000000E+00  0.81711165416E+03  0.32757064912E+04  0.31721572409E+04 0.  0.
        1    1    3    3  502    0 -0.35110422685E+02  0.54632417713E+03 -0.11286411515E+04  0.12544057147E+04  0.50400001928E-02 0.  1.
       -1    1    3    3    0  502  0.35110422685E+02 -0.54632417713E+03  0.19457528056E+04  0.20213007765E+04  0.50400001928E-02 0. -1.
</event>
<event>
 5   0  0.1508771E-06  0.3201493E+04  0.7818609E-02  0.8188423E-01
        2   -1    0    0  501    0  0.00000000000E+00  0.00000000000E+00  0.14620117136E+04  0.14620117136E+04  0.25500000920E-02 0. -1.
       -2   -1    0    0    0  501  0.00000000000E+00  0.00000000000E+00 -0.17526457714E+04  0.17526457714E+04  0.25500000920E-02 0.  1.
    10030    2    1    2    0    0  0.00000000000E+00  0.00000000000E+00 -0.29063405781E+03  0.32146574850E+04  0.32014925567E+04 0.  0.
        4    1    3    3  502    0  0.80865035368E+03  0.11556433352E+04  0.61473689971E+03  0.15386130058E+04  0.12699999809E+01 0. -1.
       -4    1    3    3    0  502 -0.80865035368E+03 -0.11556433352E+04 -0.90537095752E+03  0.16760444792E+04  0.12699999809E+01 0.  1.
</event>
<event>
 5   0  0.1508771E-06  0.3206400E+04  0.7818609E-02  0.8187129E-01
       -2   -1    0    0    0  501  0.00000000000E+00  0.00000000000E+00  0.12711783873E+04  0.12711783873E+04  0.25500000920E-02 0.  1.
        2   -1    0    0  501    0  0.00000000000E+00  0.00000000000E+00 -0.20219425019E+04  0.20219425019E+04  0.25500000920E-02 0. -1.
    10030    2    1    2    0    0  0.00000000000E+00  0.00000000000E+00 -0.75076411459E+03  0.32931208892E+04  0.32063996063E+04 0.  0.
        4    1    3    3  502    0 -0.12497151823E+03  0.15216634671E+04  0.12689547273E+03  0.15320514552E+04  0.12699999809E+01 0.  1.
       -4    1    3    3    0  502  0.12497151823E+03 -0.15216634671E+04 -0.87765958732E+03  0.17610694340E+04  0.12699999809E+01 0. -1.
</event>
<event>
 5   0  0.1493485E-06  0.3196530E+04  0.7818609E-02  0.8189734E-01
       -2   -1    0    0    0  501  0.00000000000E+00  0.00000000000E+00  0.11992430252E+04  0.11992430252E+04  0.25500000920E-02 0.  1.
        2   -1    0    0  501    0  0.00000000000E+00  0.00000000000E+00 -0.21300529960E+04  0.21300529960E+04  0.25500000920E-02 0. -1.
    10030    2    1    2    0    0  0.00000000000E+00  0.00000000000E+00 -0.93080997083E+03  0.33292960212E+04  0.31965301180E+04 0.  0.
        2    1    3    3  502    0  0.78758201580E+03  0.13041599791E+04 -0.96851300843E+03  0.18053077661E+04  0.25500000920E-02 0.  1.
       -2    1    3    3    0  502 -0.78758201580E+03 -0.13041599791E+04  0.37703037603E+02  0.15239882551E+04  0.25500000920E-02 0. -1.
</event>
<event>
 5   0  0.1556396E-06  0.3169002E+04  0.7818609E-02  0.8197052E-01
        2   -1    0    0  501    0  0.00000000000E+00  0.00000000000E+00  0.22528977360E+04  0.22528977360E+04  0.25500000920E-02 0.  1.
       -2   -1    0    0    0  501  0.00000000000E+00  0.00000000000E+00 -0.11144061836E+04  0.11144061836E+04  0.25500000920E-02 0. -1.
    10030    2    1    2    0    0  0.00000000000E+00  0.00000000000E+00  0.11384915525E+04  0.33673039196E+04  0.31690018416E+04 0.  0.
        3    1    3    3  502    0  0.11860177450E+04 -0.87465350371E+03 -0.49412613896E+02  0.14744824379E+04  0.10100000352E+00 0. -1.
       -3    1    3    3    0  502 -0.11860177450E+04  0.87465350371E+03  0.11879041664E+04  0.18928214817E+04  0.10100000352E+00 0.  1.
</event>
<event>
 5   0  0.5177039E-07  0.3205851E+04  0.7818609E-02  0.8187274E-01
        1   -1    0    0  501    0  0.00000000000E+00  0.00000000000E+00  0.23372026400E+04  0.23372026400E+04  0.50400001928E-02 0. -1.
       -1   -1    0    0    0  501  0.00000000000E+00  0.00000000000E+00 -0.10993353278E+04  0.10993353278E+04  0.50400001928E-02 0.  1.
    10030    2    1    2    0    0  0.00000000000E+00  0.00000000000E+00  0.12378673123E+04  0.34365379678E+04  0.32058505457E+04 0.  0.
        3    1    3    3  502    0 -0.11667273556E+04 -0.84538003644E+03 -0.13407356248E+03  0.14470300130E+04  0.10100000352E+00 0.  1.
       -3    1    3    3    0  502  0.11667273556E+04  0.84538003644E+03  0.13719408748E+04  0.19895079548E+04  0.10100000352E+00 0. -1.
</event>
<event>
 5   0  0.5233813E-07  0.3200833E+04  0.7818609E-02  0.8188597E-01
        1   -1    0    0  501    0  0.00000000000E+00  0.00000000000E+00  0.20342257701E+04  0.20342257702E+04  0.50400001928E-02 0.  1.
       -1   -1    0    0    0  501  0.00000000000E+00  0.00000000000E+00 -0.12591190647E+04  0.12591190647E+04  0.50400001928E-02 0. -1.
    10030    2    1    2    0    0  0.00000000000E+00  0.00000000000E+00  0.77510670546E+03  0.32933448349E+04  0.32008326724E+04 0.  0.
        4    1    3    3  502    0 -0.49690965731E+03 -0.11437979924E+04 -0.64450193634E+03  0.14037725648E+04  0.12699999809E+01 0. -1.
       -4    1    3    3    0  502  0.49690965731E+03  0.11437979924E+04  0.14196086418E+04  0.18895722700E+04  0.12699999809E+01 0.  1.
</event>
<event>
 5   0  0.1556396E-06  0.3227534E+04  0.7818609E-02  0.8181583E-01
       -2   -1    0    0    0  501  0.00000000000E+00  0.00000000000E+00  0.15271747533E+04  0.15271747533E+04  0.25500000920E-02 0.  1.
        2   -1    0    0  501    0  0.00000000000E+00  0.00000000000E+00 -0.17052687543E+04  0.17052687543E+04  0.25500000920E-02 0. -1.
    10030    2    1    2    0    0  0.00000000000E+00  0.00000000000E+00 -0.17809400101E+03  0.32324435077E+04  0.32275336648E+04 0.  0.
        3    1    3    3  502    0 -0.11397960701E+04  0.25998317544E+03  0.10250827149E+04  0.15548379066E+04  0.10100000352E+00 0.  1.
       -3    1    3    3    0  502  0.11397960701E+04 -0.25998317544E+03 -0.12031767159E+04  0.16776056011E+04  0.10100000352E+00 0. -1.
</event>
<event>
 5   0  0.1493485E-06  0.3327061E+04  0.7818609E-02  0.8156044E-01
       -2   -1    0    0    0  501  0.00000000000E+00  0.00000000000E+00  0.16532613077E+04  0.16532613077E+04  0.25500000920E-02 0.  1.
        2   -1    0    0  501    0  0.00000000000E+00  0.00000000000E+00 -0.16738636476E+04  0.16738636476E+04  0.25500000920E-02 0. -1.
    10030    2    1    2    0    0  0.00000000000E+00  0.00000000000E+00 -0.20602339908E+02  0.33271249553E+04  0.33270611674E+04 0.  0.
        2    1    3    3  502    0 -0.10723424581E+04  0.12500936568E+04  0.22354408145E+03  0.16621144529E+04  0.25500000920E-02 0. -1.
       -2    1    3    3    0  502  0.10723424581E+04 -0.12500936568E+04 -0.24414642136E+03  0.16650105024E+04  0.25500000920E-02 0.  1.
</event>
<event>
 5   0  0.5370912E-07  0.3187022E+04  0.7818609E-02  0.8192253E-01
        1   -1    0    0  501    0  0.00000000000E+00  0.00000000000E+00  0.23285745092E+04  0.23285745093E+04  0.50400001928E-02 0. -1.
       -1   -1    0    0    0  501  0.00000000000E+00  0.00000000000E+00 -0.10904859372E+04  0.10904859372E+04  0.50400001928E-02 0.  1.
    10030    2    1    2    0    0  0.00000000000E+00  0.00000000000E+00  0.12380885720E+04  0.34190604465E+04  0.31870222818E+04 0.  0.
        1    1    3    3  502    0 -0.26728238171E+03  0.15709234643E+04  0.61248752803E+03  0.17071559315E+04  0.50400001928E-02 0.  1.
       -1    1    3    3    0  502  0.26728238171E+03 -0.15709234643E+04  0.62560104399E+03  0.17119045150E+04  0.50400001928E-02 0. -1.
</event>
<event>
 5   0  0.1538349E-06  0.3201080E+04  0.7818609E-02  0.8188532E-01
       -2   -1    0    0    0  501  0.00000000000E+00  0.00000000000E+00  0.11561337899E+04  0.11561337899E+04  0.25500000920E-02 0. -1.
        2   -1    0    0  501    0  0.00000000000E+00  0.00000000000E+00 -0.22157720725E+04  0.22157720725E+04  0.25500000920E-02 0.  1.
    10030    2    1    2    0    0  0.00000000000E+00  0.00000000000E+00 -0.10596382826E+04  0.33719058624E+04  0.32010804200E+04 0.  0.
        1    1    3    3  502    0  0.54736131680E+02  0.55118738581E+03 -0.21115950049E+04  0.21830339080E+04  0.50400001928E-02 0.  1.
       -1    1    3    3    0  502 -0.54736131680E+02 -0.55118738581E+03  0.10519567223E+04  0.11888719545E+04  0.50400001928E-02 0. -1.
</event>
<event>
 5   0  0.5317728E-07  0.3229706E+04  0.7818609E-02  0.8181016E-01
        1   -1    0    0  501    0  0.00000000000E+00  0.00000000000E+00  0.21026421166E+04  0.21026421166E+04  0.50400001928E-02 0. -1.
       -1   -1    0    0    0  501  0.00000000000E+00  0.00000000000E+00 -0.12402257669E+04  0.12402257669E+04  0.50400001928E-02 0.  1.
    10030    2    1    2    0    0  0.00000000000E+00  0.00000000000E+00  0.86241634970E+03  0.33428678835E+04  0.32297064458E+04 0.  0.
        2    1    3    3  502    0  0.41219884612E+03  0.78906781415E+03  0.18257135790E+04  0.20311981628E+04  0.25500000920E-02 0. -1.
       -2    1    3    3    0  502 -0.41219884612E+03 -0.78906781415E+03 -0.96329722931E+03  0.13116697207E+04  0.25500000920E-02 0.  1.
</event>
<event>
 5   0  0.1572769E-06  0.3086290E+04  0.7818609E-02  0.8219511E-01
       -2   -1    0    0    0  501  0.00000000000E+00  0.00000000000E+00  0.91627920909E+03  0.91627920909E+03  0.25500000920E-02 0. -1.
        2   -1    0    0  501    0  0.00000000000E+00  0.00000000000E+00 -0.25988760134E+04  0.25988760134E+04  0.25500000920E-02 0.  1.
    10030    2    1    2    0    0  0.00000000000E+00  0.00000000000E+00 -0.16825968043E+04  0.35151552224E+04  0.30862897194E+04 0.  0.
        5    1    3    3  502    0 -0.12818325007E+04  0.26146284768E+02 -0.18194081453E+04  0.22257686935E+04  0.46999998093E+01 0.  1.
       -5    1    3    3    0  502  0.12818325007E+04 -0.26146284768E+02  0.13681134102E+03  0.12893865289E+04  0.46999998093E+01 0. -1.
</event>
<event>
 5   0  0.5317728E-07  0.3337633E+04  0.7818609E-02  0.8153385E-01
        1   -1    0    0  501    0  0.00000000000E+00  0.00000000000E+00  0.21704466700E+04  0.21704466700E+04  0.50400001928E-02 0.  1.
       -1   -1    0    0    0  501  0.00000000000E+00  0.00000000000E+00 -0.12831225014E+04  0.12831225014E+04  0.50400001928E-02 0. -1.
    10030    2    1    2    0    0  0.00000000000E+00  0.00000000000E+00  0.88732416860E+03  0.34535691715E+04  0.33376332696E+04 0.  0.
        2    1    3    3  502    0 -0.48543967558E+03 -0.13623203211E+04  0.13052813357E+04  0.19481600810E+04  0.25500000920E-02 0.  1.
       -2    1    3    3    0  502  0.48543967558E+03  0.13623203211E+04 -0.41795716711E+03  0.15054090904E+04  0.25500000920E-02 0. -1.
</event>
<event>
 5   0  0.5177039E-07  0.3190099E+04  0.7818609E-02  0.8191437E-01
        1   -1    0    0  501    0  0.00000000000E+00  0.00000000000E+00  0.10915554687E+04  0.10915554687E+04  0.50400001928E-02 0. -1.
       -1   -1    0    0    0  501  0.00000000000E+00  0.00000000000E+00 -0.23307868555E+04  0.23307868555E+04  0.50400001928E-02 0.  1.
    10030    2    1    2    0    0  0.00000000000E+00  0.00000000000E+00 -0.12392313868E+04  0.34223423242E+04  0.31900991448E+04 0.  0.
        3    1    3    3  502    0  0.14040509636E+04 -0.27821007686E+03 -0.13747208321E+04  0.19845950045E+04  0.10100000352E+00 0.  1.
       -3    1    3    3    0  502 -0.14040509636E+04  0.27821007686E+03  0.13548944529E+03  0.14377473197E+04  0.10100000352E+00 0. -1.
</event>
<event>
 5   0  0.5281187E-07  0.3143265E+04  0.7818609E-02  0.8203964E-01
        1   -1    0    0  501    0  0.00000000000E+00  0.00000000000E+00  0.13776994463E+04  0.13776994463E+04  0.50400001928E-02 0. -1.
       -1   -1    0    0    0  501  0.00000000000E+00  0.00000000000E+00 -0.17928647372E+04  0.17928647372E+04  0.50400001928E-02 0.  1.
    10030    2    1    2    0    0  0.00000000000E+00  0.00000000000E+00 -0.41516529082E+03  0.31705641835E+04  0.31432650259E+04 0.  0.
        5    1    3    3  502    0 -0.57188877437E+03  0.11378508539E+04 -0.11365838724E+04  0.17069289162E+04  0.46999998093E+01 0.  1.
       -5    1    3    3    0  502  0.57188877437E+03 -0.11378508539E+04  0.72141858160E+03  0.14636352673E+04  0.46999998093E+01 0. -1.
</event>
<event>
 5   0  0.1538349E-06  0.3200814E+04  0.7818609E-02  0.8188602E-01
       -2   -1    0    0    0  501  0.00000000000E+00  0.00000000000E+00  0.14958718811E+04  0.14958718811E+04  0.25500000920E-02 0. -1.
        2   -1    0    0  501    0  0.00000000000E+00  0.00000000000E+00 -0.17122475093E+04  0.17122475093E+04  0.25500000920E-02 0.  1.
    10030    2    1    2    0    0  0.00000000000E+00  0.00000000000E+00 -0.21637562819E+03  0.32081193904E+04  0.32008142106E+04 0.  0.
        1    1    3    3  502    0  0.73879834706E+03  0.38969016804E+03 -0.14764486909E+04  0.16963437628E+04  0.50400001928E-02 0.  1.
       -1    1    3    3    0  502 -0.73879834706E+03 -0.38969016804E+03  0.12600730627E+04  0.15117756276E+04  0.50400001928E-02 0. -1.
</event>
<event>
 5   0  0.5177039E-07  0.3174732E+04  0.7818609E-02  0.8195522E-01
       -1   -1    0    0    0  501  0.00000000000E+00  0.00000000000E+00  0.11816271988E+04  0.11816271988E+04  0.50400001928E-02 0.  1.
        1   -1    0    0  501    0  0.00000000000E+00  0.00000000000E+00 -0.21324249450E+04  0.21324249450E+04  0.50400001928E-02 0. -1.
    10030    2    1    2    0    0  0.00000000000E+00  0.00000000000E+00 -0.95079774616E+03  0.33140521438E+04  0.31747323128E+04 0.  0.
        3    1    3    3  502    0  0.33077058130E+03  0.14995491523E+04 -0.89513170695E+03  0.17774469389E+04  0.10100000352E+00 0.  1.
       -3    1    3    3    0  502 -0.33077058130E+03 -0.14995491523E+04 -0.55666039214E+02  0.15366052049E+04  0.10100000352E+00 0. -1.
</event>
<event>
 5   0  0.1493485E-06  0.3184349E+04  0.7818609E-02  0.8192963E-01
        2   -1    0    0  501    0  0.00000000000E+00  0.00000000000E+00  0.24027845573E+04  0.24027845573E+04  0.25500000920E-02 0. -1.
       -2   -1    0    0    0  501  0.00000000000E+00  0.00000000000E+00 -0.10550338804E+04  0.10550338804E+04  0.25500000920E-02 0.  1.
    10030    2    1    2    0    0  0.00000000000E+00  0.00000000000E+00  0.13477506769E+04  0.34578184377E+04  0.31843486714E+04 0.  0.
        2    1    3    3  502    0 -0.28291174395E+03  0.87993937780E+03  0.20816234686E+04  0.22776058984E+04  0.25500000920E-02 0. -1.
       -2    1    3    3    0  502  0.28291174395E+03 -0.87993937780E+03 -0.73387279170E+03  0.11802125393E+04  0.25500000920E-02 0.  1.
</event>
<event>
 5   0  0.5233813E-07  0.3185102E+04  0.7818609E-02  0.8192763E-01
        1   -1    0    0  501    0  0.00000000000E+00  0.00000000000E+00  0.16676613016E+04  0.16676613016E+04  0.50400001928E-02 0.  1.
       -1   -1    0    0    0  501  0.00000000000E+00  0.00000000000E+00 -0.15208236102E+04  0.15208236102E+04  0.50400001928E-02 0. -1.
    10030    2    1    2    0    0  0.00000000000E+00  0.00000000000E+00  0.14683769142E+03  0.31884849118E+04  0.31851019960E+04 0.  0.
        4    1    3    3  502    0 -0.19541817703E+03  0.42911217430E+03 -0.14493448761E+04  0.15241153844E+04  0.12699999809E+01 0. -1.
       -4    1    3    3    0  502  0.19541817703E+03 -0.42911217430E+03  0.15961825675E+04  0.16643695274E+04  0.12699999809E+01 0.  1.
</event>
<event>
 5   0  0.5281187E-07  0.3197797E+04  0.7818609E-02  0.8189399E-01
       -1   -1    0    0    0  501  0.00000000000E+00  0.00000000000E+00  0.17819168073E+04  0.17819168073E+04  0.50400001928E-02 0. -1.
        1   -1    0    0  501    0  0.00000000000E+00  0.00000000000E+00 -0.14346777675E+04  0.14346777675E+04  0.50400001928E-02 0.  1.
    10030    2    1    2    0    0  0.00000000000E+00  0.00000000000E+00  0.34723903981E+03  0.32165945749E+04  0.31977970086E+04 0.  0.
        5    1    3    3  502    0  0.11771994267E+04 -0.32385121163E+03  0.12120524461E+04  0.17203985933E+04  0.46999998093E+01 0. -1.
       -5    1    3    3    0  502 -0.11771994267E+04  0.32385121163E+03 -0.86481340631E+03  0.14961959816E+04  0.46999998093E+01 0.  1.
</event>
<event>
 5   0  0.1572769E-06  0.3231552E+04  0.7818609E-02  0.8180534E-01
       -2   -1    0    0    0  501  0.00000000000E+00  0.00000000000E+00  0.16965949858E+04  0.16965949858E+04  0.25500000920E-02 0.  1.
        2   -1    0    0  501    0  0.00000000000E+00  0.00000000000E+00 -0.15388065211E+04  0.15388065211E+04  0.25500000920E-02 0. -1.
    10030    2    1    2    0    0  0.00000000000E+00  0.00000000000E+00  0.15778846468E+03  0.32354015068E+04  0.32315515950E+04 0.  0.
        5    1    3    3  502    0  0.69095658777E+03  0.95718420914E+03 -0.10256366199E+04  0.15638334893E+04  0.46999998093E+01 0. -1.
       -5    1    3    3    0  502 -0.69095658777E+03 -0.95718420914E+03  0.11834250845E+04  0.16715680175E+04  0.46999998093E+01 0.  1.
</event>
<event>
 5   0  0.5281187E-07  0.3199312E+04  0.7818609E-02  0.8188999E-01
        1   -1    0    0  501    0  0.00000000000E+00  0.00000000000E+00  0.24327687589E+04  0.24327687589E+04  0.50400001928E-02 0.  1.
       -1   -1    0    0    0  501  0.00000000000E+00  0.00000000000E+00 -0.10518465620E+04  0.10518465621E+04  0.50400001928E-02 0. -1.
    10030    2    1    2    0    0  0.00000000000E+00  0.00000000000E+00  0.13809221969E+04  0.34846153210E+04  0.31993120856E+04 0.  0.
        5    1    3    3  502    0  0.46299681681E+03 -0.19775563566E+02  0.23580468571E+04  0.24031571309E+04  0.46999998093E+01 0.  1.
       -5    1    3    3    0  502 -0.46299681681E+03  0.19775563566E+02 -0.97712466025E+03  0.10814581901E+04  0.46999998093E+01 0. -1.
</event>
<event>
 5   0  0.5317728E-07  0.3186063E+04  0.7818609E-02  0.8192508E-01
        1   -1    0    0  501    0  0.00000000000E+00  0.00000000000E+00  0.32712204797E+04  0.32712204797E+04  0.50400001928E-02 0. -1.
       -1   -1    0    0    0  501  0.00000000000E+00  0.00000000000E+00 -0.77578047180E+03  0.77578047182E+03  0.50400001928E-02 0.  1.
    10030    2    1    2    0    0  0.00000000000E+00  0.00000000000E+00  0.24954400079E+04  0.40470009515E+04  0.31860627534E+04 0.  0.
        2    1    3    3  502    0  0.30712242126E+02 -0.69281679491E+03  0.30694169631E+04  0.31467854783E+04  0.25500000920E-02 0. -1.
       -2    1    3    3    0  502 -0.30712242126E+02  0.69281679491E+03 -0.57397695519E+03  0.90021547322E+03  0.25500000920E-02 0.  1.
</event>
<event>
 5   0  0.1538349E-06  0.3200264E+04  0.7818609E-02  0.8188747E-01
       -2   -1    0    0    0  501  0.00000000000E+00  0.00000000000E+00  0.11943089884E+04  0.11943089884E+04  0.25500000920E-02 0.  1.
        2   -1    0    0  501    0  0.00000000000E+00  0.00000000000E+00 -0.21438528841E+04  0.21438528841E+04  0.25500000920E-02 0. -1.
    10030    2    1    2    0    0  0.00000000000E+00  0.00000000000E+00 -0.94954389567E+03  0.33381618725E+04  0.32002642199E+04 0.  0.
        1    1    3    3  502    0 -0.12130503182E+04 -0.52899719993E+03 -0.14130270932E+04  0.19359686667E+04  0.50400001928E-02 0. -1.
       -1    1    3    3    0  502  0.12130503182E+04  0.52899719993E+03  0.46348319753E+03  0.14021932059E+04  0.50400001928E-02 0.  1.
</event>
<event>
 5   0  0.5233813E-07  0.3175586E+04  0.7818609E-02  0.8195295E-01
        1   -1    0    0  501    0  0.00000000000E+00  0.00000000000E+00  0.15674238544E+04  0.15674238544E+04  0.50400001928E-02 0.  1.
       -1   -1    0    0    0  501  0.00000000000E+00  0.00000000000E+00 -0.16084271035E+04  0.16084271035E+04  0.50400001928E-02 0. -1.
    10030    2    1    2    0    0  0.00000000000E+00  0.00000000000E+00 -0.41003249134E+02  0.31758509579E+04  0.31755862514E+04 0.  0.
        4    1    3    3  502    0 -0.70177814360E+03 -0.49975255489E+03  0.13133412399E+04  0.15707043020E+04  0.12699999809E+01 0.  1.
       -4    1    3    3    0  502  0.70177814360E+03  0.49975255489E+03 -0.13543444891E+04  0.16051466559E+04  0.12699999809E+01 0. -1.
</event>
<event>
 5   0  0.1538349E-06  0.3188705E+04  0.7818609E-02  0.8191807E-01
        2   -1    0    0  501    0  0.00000000000E+00  0.00000000000E+00  0.18154109498E+04  0.18154109498E+04  0.25500000920E-02 0.  1.
       -2   -1    0    0    0  501  0.00000000000E+00  0.00000000000E+00 -0.14002114207E+04  0.14002114207E+04  0.25500000920E-02 0. -1.
    10030    2    1    2    0    0  0.00000000000E+00  0.00000000000E+00  0.41519952906E+03  0.32156223705E+04  0.31887045301E+04 0.  0.
        1    1    3    3  502    0  0.28681758882E+03  0.74627861616E+03  0.15986509681E+04  0.17874230109E+04  0.50400001928E-02 0.  1.
       -1    1    3    3    0  502 -0.28681758882E+03 -0.74627861616E+03 -0.11834514390E+04  0.14281993596E+04  0.50400001928E-02 0. -1.
</event>
<event>
 5   0  0.1538349E-06  0.3224527E+04  0.7818609E-02  0.8182370E-01
        2   -1    0    0  501    0  0.00000000000E+00  0.00000000000E+00  0.23902758807E+04  0.23902758807E+04  0.25500000920E-02 0. -1.
       -2   -1    0    0    0  501  0.00000000000E+00  0.00000000000E+00 -0.10874867278E+04  0.10874867278E+04  0.25500000920E-02 0.  1.
    10030    2    1    2    0    0  0.00000000000E+00  0.00000000000E+00  0.13027891529E+04  0.34777626085E+04  0.32245268155E+04 0.  0.
        1    1    3    3  502    0  0.12571145979E+04  0.98561830544E+03  0.41605469668E+03  0.16507216806E+04  0.50400001928E-02 0.  1.
       -1    1    3    3    0  502 -0.12571145979E+04 -0.98561830544E+03  0.88673445623E+03  0.18270409279E+04  0.50400001928E-02 0. -1.
</event>
<event>
 5   0  0.5233813E-07  0.3188129E+04  0.7818609E-02  0.8191959E-01
       -1   -1    0    0    0  501  0.00000000000E+00  0.00000000000E+00  0.22521047344E+04  0.22521047344E+04  0.50400001928E-02 0. -1.
        1   -1    0    0  501    0  0.00000000000E+00  0.00000000000E+00 -0.11282966606E+04  0.11282966606E+04  0.50400001928E-02 0.  1.
    10030    2    1    2    0    0  0.00000000000E+00  0.00000000000E+00  0.11238080738E+04  0.33804013949E+04  0.31881293895E+04 0.  0.
        4    1    3    3  502    0  0.38593364041E+03 -0.10114271686E+04 -0.67875274738E+03  0.12777466874E+04  0.12699999809E+01 0.  1.
       -4    1    3    3    0  502 -0.38593364041E+03  0.10114271686E+04  0.18025608212E+04  0.21026547075E+04  0.12699999809E+01 0. -1.
</event>
<event>
 5   0  0.5177039E-07  0.3188296E+04  0.7818609E-02  0.8191915E-01
       -1   -1    0    0    0  501  0.00000000000E+00  0.00000000000E+00  0.26002250588E+04  0.26002250588E+04  0.50400001928E-02 0.  1.
        1   -1    0    0  501    0  0.00000000000E+00  0.00000000000E+00 -0.97734151919E+03  0.97734151920E+03  0.50400001928E-02 0. -1.
    10030    2    1    2    0    0  0.00000000000E+00  0.00000000000E+00  0.16228835396E+04  0.35775665780E+04  0.31882960397E+04 0.  0.
        3    1    3    3  502    0 -0.15636108638E+04 -0.24586727315E+03  0.59860380344E+03  0.16922340775E+04  0.10100000352E+00 0.  1.
       -3    1    3    3    0  502  0.15636108638E+04  0.24586727315E+03  0.10242797361E+04  0.18853325005E+04  0.10100000352E+00 0. -1.
</event>
<event>
 5   0  0.1508771E-06  0.3205944E+04  0.7818609E-02  0.8187249E-01
        2   -1    0    0  501    0  0.00000000000E+00  0.00000000000E+00  0.20847929088E+04  0.20847929088E+04  0.25500000920E-02 0. -1.
       -2   -1    0    0    0  501  0.00000000000E+00  0.00000000000E+00 -0.12325056647E+04  0.12325056647E+04  0.25500000920E-02 0.  1.
    10030    2    1    2    0    0  0.00000000000E+00  0.00000000000E+00  0.85228724409E+03  0.33172985736E+04  0.32059438984E+04 0.  0.
        4    1    3    3  502    0 -0.85296777813E+03  0.13042829734E+04  0.81442306108E+03  0.17584068473E+04  0.12699999809E+01 0. -1.
       -4    1    3    3    0  502  0.85296777813E+03 -0.13042829734E+04  0.37864183004E+02  0.15588917263E+04  0.12699999809E+01 0.  1.
</event>
<event>
 5   0  0.5233813E-07  0.3089314E+04  0.7818609E-02  0.8218677E-01
        1   -1    0    0  501    0  0.00000000000E+00  0.00000000000E+00  0.22199095099E+04  0.22199095099E+04  0.50400001928E-02 0.  1.
       -1   -1    0    0    0  501  0.00000000000E+00  0.00000000000E+00 -0.10748029033E+04  0.10748029033E+04  0.50400001928E-02 0. -1.
    10030    2    1    2    0    0  0.00000000000E+00  0.00000000000E+00  0.11451066066E+04  0.32947124132E+04  0.30893139603E+04 0.  0.
        4    1    3    3  502    0 -0.13381775053E+04 -0.26555526031E+03 -0.19998730839E+03  0.13788528451E+04  0.12699999809E+01 0. -1.
       -4    1    3    3    0  502  0.13381775053E+04  0.26555526031E+03  0.13450939150E+04  0.19158595682E+04  0.12699999809E+01 0.  1.
</event>
<event>
 5   0  0.5370912E-07  0.3173196E+04  0.7818609E-02  0.8195932E-01
        1   -1    0    0  501    0  0.00000000000E+00  0.00000000000E+00  0.25450307806E+04  0.25450307806E+04  0.50400001928E-02 0. -1.
       -1   -1    0    0    0  501  0.00000000000E+00  0.00000000000E+00 -0.98910157478E+03  0.98910157479E+03  0.50400001928E-02 0.  1.
    10030    2    1    2    0    0  0.00000000000E+00  0.00000000000E+00  0.15559292058E+04  0.35341323554E+04  0.31731964660E+04 0.  0.
        1    1    3    3  502    0 -0.21739406027E+02  0.42580588498E+03 -0.92410289533E+03  0.10177177480E+04  0.50400001928E-02 0.  1.
       -1    1    3    3    0  502  0.21739406027E+02 -0.42580588498E+03  0.24800321012E+04  0.25164146074E+04  0.50400001928E-02 0. -1.
</event>
<event>
 5   0  0.5281187E-07  0.3193276E+04  0.7818609E-02  0.8190595E-01
        1   -1    0    0  501    0  0.00000000000E+00  0.00000000000E+00  0.16233292600E+04  0.16233292600E+04  0.50400001928E-02 0. -1.
       -1   -1    0    0    0  501  0.00000000000E+00  0.00000000000E+00 -0.15703860719E+04  0.15703860719E+04  0.50400001928E-02 0.  1.
    10030    2    1    2    0    0  0.00000000000E+00  0.00000000000E+00  0.52943188095E+02  0.31937153319E+04  0.31932764741E+04 0.  0.
        5    1    3    3  502    0  0.46313500733E+03 -0.14239328359E+04 -0.52781826238E+03  0.15876690348E+04  0.46999998093E+01 0.  1.
       -5    1    3    3    0  502 -0.46313500733E+03  0.14239328359E+04  0.58076145048E+03  0.16060462971E+04  0.46999998093E+01 0. -1.
</event>
<event>
 5   0  0.1508771E-06  0.3207414E+04  0.7818609E-02  0.8186862E-01
        2   -1    0    0  501    0  0.00000000000E+00  0.00000000000E+00  0.12285903952E+04  0.12285903953E+04  0.25500000920E-02 0. -1.
       -2   -1    0    0    0  501  0.00000000000E+00  0.00000000000E+00 -0.20933556457E+04  0.20933556457E+04  0.25500000920E-02 0.  1.
    10030    2    1    2    0    0  0.00000000000E+00  0.00000000000E+00 -0.86476525045E+03  0.33219460410E+04  0.32074143107E+04 0.  0.
        4    1    3    3  502    0  0.75304179202E+03 -0.33274405023E+03  0.99301878600E+03  0.12899141311E+04  0.12699999809E+01 0. -1.
       -4    1    3    3    0  502 -0.75304179202E+03  0.33274405023E+03 -0.18577840365E+04  0.20320319098E+04  0.12699999809E+01 0.  1.
</event>
<event>
 5   0  0.1493485E-06  0.3213839E+04  0.7818609E-02  0.8185172E-01
       -2   -1    0    0    0  501  0.00000000000E+00  0.00000000000E+00  0.96593348853E+03  0.96593348853E+03  0.25500000920E-02 0. -1.
        2   -1    0    0  501    0  0.00000000000E+00  0.00000000000E+00 -0.26732584539E+04  0.26732584539E+04  0.25500000920E-02 0.  1.
    10030    2    1    2    0    0  0.00000000000E+00  0.00000000000E+00 -0.17073249654E+04  0.36391919425E+04  0.32138387415E+04 0.  0.
        2    1    3    3  502    0 -0.53657893527E+03  0.80200957489E+03 -0.23086573474E+04  0.25022060386E+04  0.25500000920E-02 0.  1.
       -2    1    3    3    0  502  0.53657893527E+03 -0.80200957489E+03  0.60133238197E+03  0.11369859039E+04  0.25500000920E-02 0. -1.
</event>
<event>
 5   0  0.5281187E-07  0.3229649E+04  0.7818609E-02  0.8181031E-01
        1   -1    0    0  501    0  0.00000000000E+00  0.00000000000E+00  0.21856447237E+04  0.21856447237E+04  0.50400001928E-02 0.  1.
       -1   -1    0    0    0  501  0.00000000000E+00  0.00000000000E+00 -0.11930841833E+04  0.11930841833E+04  0.50400001928E-02 0. -1.
    10030    2    1    2    0    0  0.00000000000E+00  0.00000000000E+00  0.99256054033E+03  0.33787289070E+04  0.32296489903E+04 0.  0.
        5    1    3    3  502    0  0.19511312739E+03  0.64028196648E+03  0.20336746142E+04  0.21410008537E+04  0.46999998093E+01 0.  1.
       -5    1    3    3    0  502 -0.19511312739E+03 -0.64028196648E+03 -0.10411140739E+04  0.12377280533E+04  0.46999998093E+01 0. -1.
</event>
<event>
 5   0  0.5370912E-07  0.3218500E+04  0.7818609E-02  0.8183948E-01
       -1   -1    0    0    0  501  0.00000000000E+00  0.00000000000E+00  0.12033603484E+04  0.12033603485E+04  0.50400001928E-02 0.  1.
        1   -1    0    0  501    0  0.00000000000E+00  0.00000000000E+00 -0.21520445044E+04  0.21520445044E+04  0.50400001928E-02 0. -1.
    10030    2    1    2    0    0  0.00000000000E+00  0.00000000000E+00 -0.94868415593E+03  0.33554048528E+04  0.32184996658E+04 0.  0.
        1    1    3    3  502    0 -0.18186592203E+03 -0.13173175819E+04  0.47045424357E+03  0.14105771941E+04  0.50400001928E-02 0.  1.
       -1    1    3    3    0  502  0.18186592203E+03  0.13173175819E+04 -0.14191383995E+04  0.19448276587E+04  0.50400001928E-02 0. -1.
</event>
<event>
 5   0  0.1556396E-06  0.3230526E+04  0.7818609E-02  0.8180802E-01
        2   -1    0    0  501    0  0.00000000000E+00  0.00000000000E+00  0.22428398670E+04  0.22428398670E+04  0.25500000920E-02 0. -1.
       -2   -1    0    0    0  501  0.00000000000E+00  0.00000000000E+00 -0.11632906199E+04  0.11632906199E+04  0.25500000920E-02 0.  1.
    10030    2    1    2    0    0  0.00000000000E+00  0.00000000000E+00  0.10795492471E+04  0.34061304869E+04  0.32305260124E+04 0.  0.
        3    1    3    3  502    0  0.10984204804E+04  0.99345344262E+03  0.12194857586E+04  0.19184949362E+04  0.10100000352E+00 0. -1.
       -3    1    3    3    0  502 -0.10984204804E+04 -0.99345344262E+03 -0.13993651148E+03  0.14876355508E+04  0.10100000352E+00 0.  1.
</event>
<event>
 5   0  0.1508771E-06  0.3216231E+04  0.7818609E-02  0.8184544E-01
       -2   -1    0    0    0  501  0.00000000000E+00  0.00000000000E+00  0.14691454594E+04  0.14691454594E+04  0.25500000920E-02 0.  1.
        2   -1    0    0  501    0  0.00000000000E+00  0.00000000000E+00 -0.17602308867E+04  0.17602308867E+04  0.25500000920E-02 0. -1.
    10030    2    1    2    0    0  0.00000000000E+00  0.00000000000E+00 -0.29108542731E+03  0.32293763461E+04  0.32162308466E+04 0.  0.
        4    1    3    3  502    0 -0.86879434253E+03 -0.12749750815E+04 -0.60090323198E+03  0.16557328816E+04  0.12699999809E+01 0. -1.
       -4    1    3    3    0  502  0.86879434253E+03  0.12749750815E+04  0.30981780468E+03  0.15736434644E+04  0.12699999809E+01 0.  1.
</event>
<event>
 5   0  0.1508771E-06  0.3191115E+04  0.7818609E-02  0.8191168E-01
       -2   -1    0    0    0  501  0.00000000000E+00  0.00000000000E+00  0.11314474264E+04  0.11314474264E+04  0.25500000920E-02 0.  1.
        2   -1    0    0  501    0  0.00000000000E+00  0.00000000000E+00 -0.22500410140E+04  0.22500410140E+04  0.25500000920E-02 0. -1.
    10030    2    1    2    0    0  0.00000000000E+00  0.00000000000E+00 -0.11185935877E+04  0.33814884404E+04  0.31911146106E+04 0.  0.
        4    1    3    3  502    0 -0.52128108289E+03  0.60408582867E+03  0.90485224130E+03  0.12064049267E+04  0.12699999809E+01 0.  1.
       -4    1    3    3    0  502  0.52128108289E+03 -0.60408582867E+03 -0.20234458290E+04  0.21750835137E+04  0.12699999809E+01 0. -1.
</event>
<event>
 5   0  0.5177039E-07  0.3224165E+04  0.7818609E-02  0.8182464E-01
       -1   -1    0    0    0  501  0.00000000000E+00  0.00000000000E+00  0.16367514270E+04  0.16367514271E+04  0.50400001928E-02 0.  1.
        1   -1    0    0  501    0  0.00000000000E+00  0.00000000000E+00 -0.15877850876E+04  0.15877850876E+04  0.50400001928E-02 0. -1.
    10030    2    1    2    0    0  0.00000000000E+00  0.00000000000E+00  0.48966339457E+02  0.32245365147E+04  0.32241647030E+04 0.  0.
        3    1    3    3  502    0  0.12577559570E+03 -0.13859603968E+04  0.83827460043E+03  0.16246261225E+04  0.10100000352E+00 0.  1.
       -3    1    3    3    0  502 -0.12577559570E+03  0.13859603968E+04 -0.78930826097E+03  0.15999103922E+04  0.10100000352E+00 0. -1.
</event>
<event>
 5   0  0.5177039E-07  0.3222655E+04  0.7818609E-02  0.8182859E-01
        1   -1    0    0  501    0  0.00000000000E+00  0.00000000000E+00  0.26653891242E+04  0.26653891242E+04  0.50400001928E-02 0.  1.
       -1   -1    0    0    0  501  0.00000000000E+00  0.00000000000E+00 -0.97410804377E+03  0.97410804378E+03  0.50400001928E-02 0. -1.
    10030    2    1    2    0    0  0.00000000000E+00  0.00000000000E+00  0.16912810805E+04  0.36394971680E+04  0.32226554180E+04 0.  0.
        3    1    3    3  502    0 -0.19099160338E+03 -0.46185349153E+03  0.25756408146E+04  0.26236829184E+04  0.10100000352E+00 0.  1.
       -3    1    3    3    0  502  0.19099160338E+03  0.46185349153E+03 -0.88435973413E+03  0.10158142496E+04  0.10100000352E+00 0. -1.
</event>
<event>
 5   0  0.5370912E-07  0.3184945E+04  0.7818609E-02  0.8192805E-01
       -1   -1    0    0    0  501  0.00000000000E+00  0.00000000000E+00  0.17566070354E+04  0.17566070354E+04  0.50400001928E-02 0. -1.
        1   -1    0    0  501    0  0.00000000000E+00  0.00000000000E+00 -0.14436743800E+04  0.14436743801E+04  0.50400001928E-02 0.  1.
    10030    2    1    2    0    0  0.00000000000E+00  0.00000000000E+00  0.31293265535E+03  0.32002814155E+04  0.31849449432E+04 0.  0.
        1    1    3    3  502    0  0.12181633107E+04  0.70996490346E+03 -0.58736618147E+03  0.15274066409E+04  0.50400001928E-02 0.  1.
       -1    1    3    3    0  502 -0.12181633107E+04 -0.70996490346E+03  0.90029883682E+03  0.16728747745E+04  0.50400001928E-02 0. -1.
</event>
<event>
 5   0  0.5317728E-07  0.3213490E+04  0.7818609E-02  0.8185264E-01
       -1   -1    0    0    0  501  0.00000000000E+00  0.00000000000E+00  0.15370609527E+04  0.15370609528E+04  0.50400001928E-02 0. -1.
        1   -1    0    0  501    0  0.00000000000E+00  0.00000000000E+00 -0.16795884292E+04  0.16795884292E+04  0.50400001928E-02 0.  1.
    10030    2    1    2    0    0  0.00000000000E+00  0.00000000000E+00 -0.14252747643E+03  0.32166493819E+04  0.32134901843E+04 0.  0.
        2    1    3    3  502    0  0.12872666082E+03  0.16013125141E+04 -0.41952361515E+02  0.16070259244E+04  0.25500000920E-02 0. -1.
       -2    1    3    3    0  502 -0.12872666082E+03 -0.16013125141E+04 -0.10057511491E+03  0.16096234575E+04  0.25500000920E-02 0.  1.
</event>
<event>
 5   0  0.1556396E-06  0.2965275E+04  0.7818609E-02  0.8253717E-01
        2   -1    0    0  501    0  0.00000000000E+00  0.00000000000E+00  0.22671833694E+04  0.22671833694E+04  0.25500000920E-02 0.  1.
       -2   -1    0    0    0  501  0.00000000000E+00  0.00000000000E+00 -0.96957926867E+03  0.96957926868E+03  0.25500000920E-02 0. -1.
    10030    2    1    2    0    0  0.00000000000E+00  0.00000000000E+00  0.12976041007E+04  0.32367626380E+04  0.29652750248E+04 0.  0.
        3    1    3    3  502    0  0.55307829027E+03  0.99902111167E+03 -0.38343981182E+03  0.12045600343E+04  0.10100000352E+00 0. -1.
       -3    1    3    3    0  502 -0.55307829027E+03 -0.99902111167E+03  0.16810439125E+04  0.20322026038E+04  0.10100000352E+00 0.  1.
</event>
<event>
 5   0  0.1556396E-06  0.3247771E+04  0.7818609E-02  0.8176314E-01
        2   -1    0    0  501    0  0.00000000000E+00  0.00000000000E+00  0.19413710985E+04  0.19413710985E+04  0.25500000920E-02 0. -1.
       -2   -1    0    0    0  501  0.00000000000E+00  0.00000000000E+00 -0.13583201933E+04  0.13583201933E+04  0.25500000920E-02 0.  1.
    10030    2    1    2    0    0  0.00000000000E+00  0.00000000000E+00  0.58305090514E+03  0.32996912918E+04  0.32477706605E+04 0.  0.
        3    1    3    3  502    0  0.71334028996E+03  0.19658018868E+02  0.17735300711E+04  0.19117138202E+04  0.10100000352E+00 0. -1.
       -3    1    3    3    0  502 -0.71334028996E+03 -0.19658018868E+02 -0.11904791660E+04  0.13879774716E+04  0.10100000352E+00 0.  1.
</event>
<event>
 5   0  0.5177039E-07  0.3198961E+04  0.7818609E-02  0.8189092E-01
       -1   -1    0    0    0  501  0.00000000000E+00  0.00000000000E+00  0.19337362573E+04  0.19337362573E+04  0.50400001928E-02 0. -1.
        1   -1    0    0  501    0  0.00000000000E+00  0.00000000000E+00 -0.13230025885E+04  0.13230025885E+04  0.50400001928E-02 0.  1.
    10030    2    1    2    0    0  0.00000000000E+00  0.00000000000E+00  0.61073366879E+03  0.32567388458E+04  0.31989611275E+04 0.  0.
        3    1    3    3  502    0 -0.10560193889E+04 -0.18893635641E+03  0.15131602149E+04  0.18548659636E+04  0.10100000352E+00 0. -1.
       -3    1    3    3    0  502  0.10560193889E+04  0.18893635641E+03 -0.90242654611E+03  0.14018728822E+04  0.10100000352E+00 0.  1.
</event>
<event>
 5   0  0.1493485E-06  0.3154092E+04  0.7818609E-02  0.8201048E-01
        2   -1    0    0  501    0  0.00000000000E+00  0.00000000000E+00  0.15030672909E+04  0.15030672910E+04  0.25500000920E-02 0. -1.
       -2   -1    0    0    0  501  0.00000000000E+00  0.00000000000E+00 -0.16546662866E+04  0.16546662866E+04  0.25500000920E-02 0.  1.
    10030    2    1    2    0    0  0.00000000000E+00  0.00000000000E+00 -0.15159899564E+03  0.31577335775E+04  0.31540924354E+04 0.  0.
        2    1    3    3  502    0 -0.36913553054E+03 -0.38887068536E+02 -0.16103120631E+04  0.16525368936E+04  0.25500000920E-02 0.  1.
       -2    1    3    3    0  502  0.36913553054E+03  0.38887068536E+02  0.14587130675E+04  0.15051966839E+04  0.25500000920E-02 0. -1.
</event>
<event>
 5   0  0.1538349E-06  0.3197366E+04  0.7818609E-02  0.8189513E-01
        2   -1    0    0  501    0  0.00000000000E+00  0.00000000000E+00  0.18423346428E+04  0.18423346428E+04  0.25500000920E-02 0. -1.
       -2   -1    0    0    0  501  0.00000000000E+00  0.00000000000E+00 -0.13872544041E+04  0.13872544041E+04  0.25500000920E-02 0.  1.
    10030    2    1    2    0    0  0.00000000000E+00  0.00000000000E+00  0.45508023872E+03  0.32295890469E+04  0.31973656951E+04 0.  0.
        1    1    3    3  502    0  0.26739080645E+03  0.45467086723E+03 -0.12968291697E+04  0.13999961916E+04  0.50400001928E-02 0.  1.
       -1    1    3    3    0  502 -0.26739080645E+03 -0.45467086723E+03  0.17519094085E+04  0.18295928554E+04  0.50400001928E-02 0. -1.
</event>
<event>
 5   0  0.1508771E-06  0.3218064E+04  0.7818609E-02  0.8184063E-01
        2   -1    0    0  501    0  0.00000000000E+00  0.00000000000E+00  0.17641755057E+04  0.17641755057E+04  0.25500000920E-02 0.  1.
       -2   -1    0    0    0  501  0.00000000000E+00  0.00000000000E+00 -0.14675319741E+04  0.14675319741E+04  0.25500000920E-02 0. -1.
    10030    2    1    2    0    0  0.00000000000E+00  0.00000000000E+00  0.29664353157E+03  0.32317074799E+04  0.32180639911E+04 0.  0.
        4    1    3    3  502    0 -0.71280074032E+03 -0.12203668254E+04 -0.62409604955E+03  0.15449522892E+04  0.12699999809E+01 0. -1.
       -4    1    3    3    0  502  0.71280074032E+03  0.12203668254E+04  0.92073958113E+03  0.16867551906E+04  0.12699999809E+01 0.  1.
</event>
<event>
 5   0  0.5281187E-07  0.3198680E+04  0.7818609E-02  0.8189166E-01
        1   -1    0    0  501    0  0.00000000000E+00  0.00000000000E+00  0.22219280740E+04  0.22219280740E+04  0.50400001928E-02 0. -1.
       -1   -1    0    0    0  501  0.00000000000E+00  0.00000000000E+00 -0.11512022444E+04  0.11512022444E+04  0.50400001928E-02 0.  1.
    10030    2    1    2    0    0  0.00000000000E+00  0.00000000000E+00  0.10707258296E+04  0.33731303184E+04  0.31986800939E+04 0.  0.
        5    1    3    3  502    0 -0.35081856852E+03  0.12696371782E+04 -0.42119929232E+03  0.13829255823E+04  0.46999998093E+01 0.  1.
       -5    1    3    3    0  502  0.35081856852E+03 -0.12696371782E+04  0.14919251219E+04  0.19902047361E+04  0.46999998093E+01 0. -1.
</event>
<event>
 5   0  0.1538349E-06  0.3235482E+04  0.7818609E-02  0.8179509E-01
       -2   -1    0    0    0  501  0.00000000000E+00  0.00000000000E+00  0.17513929698E+04  0.17513929698E+04  0.25500000920E-02 0. -1.
        2   -1    0    0  501    0  0.00000000000E+00  0.00000000000E+00 -0.14942882918E+04  0.14942882918E+04  0.25500000920E-02 0.  1.
    10030    2    1    2    0    0  0.00000000000E+00  0.00000000000E+00  0.25710467798E+03  0.32456812616E+04  0.32354820408E+04 0.  0.
        1    1    3    3  502    0  0.56651561681E+03 -0.12278870116E+04  0.10192925860E+04  0.16934000807E+04  0.50400001928E-02 0. -1.
       -1    1    3    3    0  502 -0.56651561681E+03  0.12278870116E+04 -0.76218790802E+03  0.15522811809E+04  0.50400001928E-02 0.  1.
</event>
<event>
 5   0  0.1556396E-06  0.3198524E+04  0.7818609E-02  0.8189207E-01
        2   -1    0    0  501    0  0.00000000000E+00  0.00000000000E+00  0.24517921833E+04  0.24517921833E+04  0.25500000920E-02 0. -1.
       -2   -1    0    0    0  501  0.00000000000E+00  0.00000000000E+00 -0.10431711208E+04  0.10431711208E+04  0.25500000920E-02 0.  1.
    10030    2    1    2    0    0  0.00000000000E+00  0.00000000000E+00  0.14086210625E+04  0.34949633040E+04  0.31985239094E+04 0.  0.
        3    1    3    3  502    0  0.12812044036E+04  0.95413509785E+03  0.62123607886E+03  0.17139990620E+04  0.10100000352E+00 0. -1.
       -3    1    3    3    0  502 -0.12812044036E+04 -0.95413509785E+03  0.78738498363E+03  0.17809642420E+04  0.10100000352E+00 0.  1.
</event>
<event>
 5   0  0.5233813E-07  0.3110980E+04  0.7818609E-02  0.8212731E-01
        1   -1    0    0  501    0  0.00000000000E+00  0.00000000000E+00  0.19399287695E+04  0.19399287695E+04  0.50400001928E-02 0.  1.
       -1   -1    0    0    0  501  0.00000000000E+00  0.00000000000E+00 -0.12472359626E+04  0.12472359626E+04  0.50400001928E-02 0. -1.
    10030    2    1    2    0    0  0.00000000000E+00  0.00000000000E+00  0.69269280693E+03  0.31871647322E+04  0.31109798626E+04 0.  0.
        4    1    3    3  502    0  0.29197693373E+03  0.13224056615E+04  0.11302914383E+04  0.17639636085E+04  0.12699999809E+01 0.  1.
       -4    1    3    3    0  502 -0.29197693373E+03 -0.13224056615E+04 -0.43759863142E+03  0.14232011237E+04  0.12699999809E+01 0. -1.
</event>
<event>
 5   0  0.1572769E-06  0.3224715E+04  0.7818609E-02  0.8182320E-01
       -2   -1    0    0    0  501  0.00000000000E+00  0.00000000000E+00  0.88014011404E+03  0.88014011404E+03  0.25500000920E-02 0.  1.
        2   -1    0    0  501    0  0.00000000000E+00  0.00000000000E+00 -0.29537306688E+04  0.29537306688E+04  0.25500000920E-02 0. -1.
    10030    2    1    2    0    0  0.00000000000E+00  0.00000000000E+00 -0.20735905548E+04  0.38338707828E+04  0.32247150868E+04 0.  0.
        5    1    3    3  502    0  0.14961333046E+04 -0.56642660201E+03 -0.12758231567E+04  0.20462162099E+04  0.46999998093E+01 0. -1.
       -5    1    3    3    0  502 -0.14961333046E+04  0.56642660201E+03 -0.79776739810E+03  0.17876545729E+04  0.46999998093E+01 0.  1.
</event>
<event>
 5   0  0.1493485E-06  0.3189319E+04  0.7818609E-02  0.8191644E-01
        2   -1    0    0  501    0  0.00000000000E+00  0.00000000000E+00  0.15119709196E+04  0.15119709196E+04  0.25500000920E-02 0.  1.
       -2   -1    0    0    0  501  0.00000000000E+00  0.00000000000E+00 -0.16818697633E+04  0.16818697633E+04  0.25500000920E-02 0. -1.
    10030    2    1    2    0    0  0.00000000000E+00  0.00000000000E+00 -0.16989884364E+03  0.31938406829E+04  0.31893185308E+04 0.  0.
        2    1    3    3  502    0  0.63005164203E+03  0.85355015628E+03  0.11072953649E+04  0.15334979511E+04  0.25500000920E-02 0.  1.
       -2    1    3    3    0  502 -0.63005164203E+03 -0.85355015628E+03 -0.12771942085E+04  0.16603427318E+04  0.25500000920E-02 0. -1.
</event>
<event>
 5   0  0.1493485E-06  0.3194876E+04  0.7818609E-02  0.8190172E-01
        2   -1    0    0  501    0  0.00000000000E+00  0.00000000000E+00  0.17067818710E+04  0.17067818710E+04  0.25500000920E-02 0.  1.
       -2   -1    0    0    0  501  0.00000000000E+00  0.00000000000E+00 -0.14950987728E+04  0.14950987728E+04  0.25500000920E-02 0. -1.
    10030    2    1    2    0    0  0.00000000000E+00  0.00000000000E+00  0.21168309823E+03  0.32018806438E+04  0.31948755724E+04 0.  0.
        2    1    3    3  502    0 -0.44696882942E+03  0.16015384045E+03  0.16344323668E+04  0.17019986923E+04  0.25500000920E-02 0.  1.
       -2    1    3    3    0  502  0.44696882942E+03 -0.16015384045E+03 -0.14227492686E+04  0.14998819514E+04  0.25500000920E-02 0. -1.
</event>
<event>
 5   0  0.5177039E-07  0.3192308E+04  0.7818609E-02  0.8190852E-01
       -1   -1    0    0    0  501  0.00000000000E+00  0.00000000000E+00  0.20080167338E+04  0.20080167338E+04  0.50400001928E-02 0.  1.
        1   -1    0    0  501    0  0.00000000000E+00  0.00000000000E+00 -0.12687682095E+04  0.12687682095E+04  0.50400001928E-02 0. -1.
    10030    2    1    2    0    0  0.00000000000E+00  0.00000000000E+00  0.73924852428E+03  0.32767849433E+04  0.31923081280E+04 0.  0.
        3    1    3    3  502    0 -0.15369595098E+04 -0.34015964195E+03  0.64072442423E+03  0.16995531515E+04  0.10100000352E+00 0.  1.
       -3    1    3    3    0  502  0.15369595098E+04  0.34015964195E+03  0.98524100056E+02  0.15772317918E+04  0.10100000352E+00 0. -1.
</event>
<event>
 5   0  0.5317728E-07  0.3195178E+04  0.7818609E-02  0.8190092E-01
       -1   -1    0    0    0  501  0.00000000000E+00  0.00000000000E+00  0.11532389854E+04  0.11532389854E+04  0.50400001928E-02 0.  1.
        1   -1    0    0  501    0  0.00000000000E+00  0.00000000000E+00 -0.22131504539E+04  0.22131504539E+04  0.50400001928E-02 0. -1.
    10030    2    1    2    0    0  0.00000000000E+00  0.00000000000E+00 -0.10599114685E+04  0.33663894393E+04  0.31951784827E+04 0.  0.
        2    1    3    3  502    0  0.54865684825E+03 -0.12976008570E+04 -0.13236473766E+04  0.19330894182E+04  0.25500000920E-02 0. -1.
       -2    1    3    3    0  502 -0.54865684825E+03  0.12976008570E+04  0.26373590812E+03  0.14333000211E+04  0.25500000920E-02 0.  1.
</event>
<event>
 5   0  0.1538349E-06  0.3186828E+04  0.7818609E-02  0.8192305E-01
       -2   -1    0    0    0  501  0.00000000000E+00  0.00000000000E+00  0.13936893919E+04  0.13936893919E+04  0.25500000920E-02 0.  1.
        2   -1    0    0  501    0  0.00000000000E+00  0.00000000000E+00 -0.18217605788E+04  0.18217605788E+04  0.25500000920E-02 0. -1.
    10030    2    1    2    0    0  0.00000000000E+00  0.00000000000E+00 -0.42807118683E+03  0.32154499707E+04  0.31868281367E+04 0.  0.
        1    1    3    3  502    0 -0.84370522398E+03 -0.13495107560E+04 -0.29186859348E+03  0.16180868523E+04  0.50400001928E-02 0.  1.
       -1    1    3    3    0  502  0.84370522398E+03  0.13495107560E+04 -0.13620259336E+03  0.15973631184E+04  0.50400001928E-02 0. -1.
</event>
<event>
 5   0  0.5317728E-07  0.3233326E+04  0.7818609E-02  0.8180071E-01
       -1   -1    0    0    0  501  0.00000000000E+00  0.00000000000E+00  0.14962546103E+04  0.14962546103E+04  0.50400001928E-02 0. -1.
        1   -1    0    0  501    0  0.00000000000E+00  0.00000000000E+00 -0.17467605478E+04  0.17467605478E+04  0.50400001928E-02 0.  1.
    10030    2    1    2    0    0  0.00000000000E+00  0.00000000000E+00 -0.25050593746E+03  0.32430151581E+04  0.32333255467E+04 0.  0.
        2    1    3    3  502    0 -0.44795058717E+03 -0.18797021517E+03  0.14213166990E+04  0.15020431715E+04  0.25500000920E-02 0. -1.
       -2    1    3    3    0  502  0.44795058717E+03  0.18797021517E+03 -0.16718226364E+04  0.17409719866E+04  0.25500000920E-02 0.  1.
</event>
<event>
 5   0  0.5281187E-07  0.3182587E+04  0.7818609E-02  0.8193431E-01
        1   -1    0    0  501    0  0.00000000000E+00  0.00000000000E+00  0.32229542210E+04  0.32229542210E+04  0.50400001928E-02 0.  1.
       -1   -1    0    0    0  501  0.00000000000E+00  0.00000000000E+00 -0.78568123949E+03  0.78568123951E+03  0.50400001928E-02 0. -1.
    10030    2    1    2    0    0  0.00000000000E+00  0.00000000000E+00  0.24372729815E+04  0.40086354605E+04  0.31825867889E+04 0.  0.
        5    1    3    3  502    0  0.55268329126E+03  0.11787038031E+04  0.66031544420E+02  0.13035274185E+04  0.46999998093E+01 0. -1.
       -5    1    3    3    0  502 -0.55268329126E+03 -0.11787038031E+04  0.23712414371E+04  0.27051080420E+04  0.46999998093E+01 0.  1.
</event>
<event>
 5   0  0.1572769E-06  0.3192582E+04  0.7818609E-02  0.8190779E-01
        2   -1    0    0  501    0  0.00000000000E+00  0.00000000000E+00  0.15123222369E+04  0.15123222369E+04  0.25500000920E-02 0.  1.
       -2   -1    0    0    0  501  0.00000000000E+00  0.00000000000E+00 -0.16849214454E+04  0.16849214454E+04  0.25500000920E-02 0. -1.
    10030    2    1    2    0    0  0.00000000000E+00  0.00000000000E+00 -0.17259920850E+03  0.31972436822E+04  0.31925815067E+04 0.  0.
        5    1    3    3  502    0  0.10953337260E+04 -0.60233667262E+03 -0.10805013892E+04  0.16522925832E+04  0.46999998093E+01 0. -1.
       -5    1    3    3    0  502 -0.10953337260E+04  0.60233667262E+03  0.90790218071E+03  0.15449510990E+04  0.46999998093E+01 0.  1.
</event>
<event>
 5   0  0.5317728E-07  0.3212898E+04  0.7818609E-02  0.8185419E-01
        1   -1    0    0  501    0  0.00000000000E+00  0.00000000000E+00  0.23237166285E+04  0.23237166285E+04  0.50400001928E-02 0. -1.
       -1   -1    0    0    0  501  0.00000000000E+00  0.00000000000E+00 -0.11105823944E+04  0.11105823944E+04  0.50400001928E-02 0.  1.
    10030    2    1    2    0    0  0.00000000000E+00  0.00000000000E+00  0.12131342342E+04  0.34342990229E+04  0.32128982412E+04 0.  0.
        2    1    3    3  502    0  0.92040654047E+03  0.23136054389E+03  0.19920339964E+04  0.22065528192E+04  0.25500000920E-02 0. -1.
       -2    1    3    3    0  502 -0.92040654047E+03 -0.23136054389E+03 -0.77889976226E+03  0.12277462037E+04  0.25500000920E-02 0.  1.
</event>
<event>
 5   0  0.5177039E-07  0.3188902E+04  0.7818609E-02  0.8191754E-01
       -1   -1    0    0    0  501  0.00000000000E+00  0.00000000000E+00  0.97915939236E+03  0.97915939238E+03  0.50400001928E-02 0.  1.
        1   -1    0    0  501    0  0.00000000000E+00  0.00000000000E+00 -0.25963838421E+04  0.25963838421E+04  0.50400001928E-02 0. -1.
    10030    2    1    2    0    0  0.00000000000E+00  0.00000000000E+00 -0.16172244497E+04  0.35755432345E+04  0.31889017703E+04 0.  0.
        3    1    3    3  502    0  0.15249344809E+04 -0.34091842221E+03 -0.11642842280E+04  0.19486426854E+04  0.10100000352E+00 0. -1.
       -3    1    3    3    0  502 -0.15249344809E+04  0.34091842221E+03 -0.45294022176E+03  0.16269005490E+04  0.10100000352E+00 0.  1.
</event>
<event>
 5   0  0.5281187E-07  0.3189648E+04  0.7818609E-02  0.8191557E-01
        1   -1    0    0  501    0  0.00000000000E+00  0.00000000000E+00  0.12958059154E+04  0.12958059154E+04  0.50400001928E-02 0. -1.
       -1   -1    0    0    0  501  0.00000000000E+00  0.00000000000E+00 -0.19628424562E+04  0.19628424562E+04  0.50400001928E-02 0.  1.
    10030    2    1    2    0    0  0.00000000000E+00  0.00000000000E+00 -0.66703654072E+03  0.32586483716E+04  0.31896475453E+04 0.  0.
        5    1    3    3  502    0 -0.12305277614E+03 -0.11903747396E+04 -0.14105085497E+04  0.18497811939E+04  0.46999998093E+01 0.  1.
       -5    1    3    3    0  502  0.12305277614E+03  0.11903747396E+04  0.74347200900E+03  0.14088671777E+04  0.46999998093E+01 0. -1.
</event>
<event>
 5   0  0.1493485E-06  0.3179187E+04  0.7818609E-02  0.8194336E-01
        2   -1    0    0  501    0  0.00000000000E+00  0.00000000000E+00  0.15043428163E+04  0.15043428163E+04  0.25500000920E-02 0.  1.
       -2   -1    0    0    0  501  0.00000000000E+00  0.00000000000E+00 -0.16796750478E+04  0.16796750478E+04  0.25500000920E-02 0. -1.
    10030    2    1    2    0    0  0.00000000000E+00  0.00000000000E+00 -0.17533223145E+03  0.31840178641E+04  0.31791867463E+04 0.  0.
        2    1    3    3  502    0 -0.44773809902E+03 -0.15186571726E+04 -0.22936637720E+03  0.15998118478E+04  0.25500000920E-02 0. -1.
       -2    1    3    3    0  502  0.44773809902E+03  0.15186571726E+04  0.54034145745E+02  0.15842060164E+04  0.25500000920E-02 0.  1.
</event>
<event>
 5   0  0.1538349E-06  0.3094848E+04  0.7818609E-02  0.8217153E-01
       -2   -1    0    0    0  501  0.00000000000E+00  0.00000000000E+00  0.12108350581E+04  0.12108350581E+04  0.25500000920E-02 0.  1.
        2   -1    0    0  501    0  0.00000000000E+00  0.00000000000E+00 -0.19775787440E+04  0.19775787440E+04  0.25500000920E-02 0. -1.
    10030    2    1    2    0    0  0.00000000000E+00  0.00000000000E+00 -0.76674368591E+03  0.31884138021E+04  0.30948484120E+04 0.  0.
        1    1    3    3  502    0  0.62166341179E+03  0.11364378136E+04 -0.12554656592E+04  0.18039263630E+04  0.50400001928E-02 0. -1.
       -1    1    3    3    0  502 -0.62166341179E+03 -0.11364378136E+04  0.48872197330E+03  0.13844874391E+04  0.50400001928E-02 0.  1.
</event>
<event>
 5   0  0.5177039E-07  0.3212131E+04  0.7818609E-02  0.8185621E-01
       -1   -1    0    0    0  501  0.00000000000E+00  0.00000000000E+00  0.12767141842E+04  0.12767141842E+04  0.50400001928E-02 0. -1.
        1   -1    0    0  501    0  0.00000000000E+00  0.00000000000E+00 -0.20203786315E+04  0.20203786315E+04  0.50400001928E-02 0.  1.
    10030    2    1    2    0    0  0.00000000000E+00  0.00000000000E+00 -0.74366444730E+03  0.32970928157E+04  0.32121307921E+04 0.  0.
        3    1    3    3  502    0  0.15503994299E+04  0.27277615152E+03 -0.69852869483E+03  0.17222333085E+04  0.10100000352E+00 0.  1.
       -3    1    3    3    0  502 -0.15503994299E+04 -0.27277615152E+03 -0.45135752468E+02  0.15748595072E+04  0.10100000352E+00 0. -1.
</event>
<event>
 5   0  0.1538349E-06  0.3282961E+04  0.7818609E-02  0.8167245E-01
       -2   -1    0    0    0  501  0.00000000000E+00  0.00000000000E+00  0.19837187790E+04  0.19837187790E+04  0.25500000920E-02 0. -1.
        2   -1    0    0  501    0  0.00000000000E+00  0.00000000000E+00 -0.13582864353E+04  0.13582864353E+04  0.25500000920E-02 0.  1.
    10030    2    1    2    0    0  0.00000000000E+00  0.00000000000E+00  0.62543234370E+03  0.33420052144E+04  0.32829610470E+04 0.  0.
        1    1    3    3  502    0 -0.29917004422E+03 -0.21559153646E+03 -0.13155749584E+04  0.13662795824E+04  0.50400001928E-02 0.  1.
       -1    1    3    3    0  502  0.29917004422E+03  0.21559153646E+03  0.19410073021E+04  0.19757256320E+04  0.50400001928E-02 0. -1.
</event>
<event>
 5   0  0.1538349E-06  0.3191074E+04  0.7818609E-02  0.8191179E-01
        2   -1    0    0  501    0  0.00000000000E+00  0.00000000000E+00  0.14506608356E+04  0.14506608356E+04  0.25500000920E-02 0. -1.
       -2   -1    0    0    0  501  0.00000000000E+00  0.00000000000E+00 -0.17548815059E+04  0.17548815059E+04  0.25500000920E-02 0.  1.
    10030    2    1    2    0    0  0.00000000000E+00  0.00000000000E+00 -0.30422067023E+03  0.32055423415E+04  0.31910737201E+04 0.  0.
        1    1    3    3  502    0  0.69935910537E+03  0.37867520281E+03  0.12373603363E+04  0.14709040313E+04  0.50400001928E-02 0. -1.
       -1    1    3    3    0  502 -0.69935910537E+03 -0.37867520281E+03 -0.15415810065E+04  0.17346383102E+04  0.50400001928E-02 0.  1.
</event>
<event>
 5   0  0.1572769E-06  0.3218477E+04  0.7818609E-02  0.8183954E-01
       -2   -1    0    0    0  501  0.00000000000E+00  0.00000000000E+00  0.22269730087E+04  0.22269730087E+04  0.25500000920E-02 0.  1.
        2   -1    0    0  501    0  0.00000000000E+00  0.00000000000E+00 -0.11628559103E+04  0.11628559103E+04  0.25500000920E-02 0. -1.
    10030    2    1    2    0    0  0.00000000000E+00  0.00000000000E+00  0.10641170984E+04  0.33898289190E+04  0.32184771089E+04 0.  0.
        5    1    3    3  502    0  0.82523814887E+03 -0.96936066541E+03 -0.50470020362E+03  0.13694606557E+04  0.46999998093E+01 0. -1.
       -5    1    3    3    0  502 -0.82523814887E+03  0.96936066541E+03  0.15688173021E+04  0.20203682633E+04  0.46999998093E+01 0.  1.
</event>
<event>
 5   0  0.1538349E-06  0.3154323E+04  0.7818609E-02  0.8200985E-01
        2   -1    0    0  501    0  0.00000000000E+00  0.00000000000E+00  0.16929686127E+04  0.16929686127E+04  0.25500000920E-02 0.  1.
       -2   -1    0    0    0  501  0.00000000000E+00  0.00000000000E+00 -0.14692764824E+04  0.14692764824E+04  0.25500000920E-02 0. -1.
    10030    2    1    2    0    0  0.00000000000E+00  0.00000000000E+00  0.22369213026E+03  0.31622450952E+04  0.31543233621E+04 0.  0.
        1    1    3    3  502    0 -0.22143266111E+03  0.15547466789E+04 -0.34016101093E+02  0.15708044926E+04  0.50400001928E-02 0.  1.
       -1    1    3    3    0  502  0.22143266111E+03 -0.15547466789E+04  0.25770823136E+03  0.15914406025E+04  0.50400001928E-02 0. -1.
</event>
<event>
 5   0  0.5370912E-07  0.3273021E+04  0.7818609E-02  0.8169794E-01
       -1   -1    0    0    0  501  0.00000000000E+00  0.00000000000E+00  0.14336590612E+04  0.14336590612E+04  0.50400001928E-02 0. -1.
        1   -1    0    0  501    0  0.00000000000E+00  0.00000000000E+00 -0.18680638931E+04  0.18680638931E+04  0.50400001928E-02 0.  1.
    10030    2    1    2    0    0  0.00000000000E+00  0.00000000000E+00 -0.43440483195E+03  0.33017229543E+04  0.32730210676E+04 0.  0.
        1    1    3    3  502    0  0.55822816411E+03  0.31656913203E+03  0.13014332542E+04  0.14510558962E+04  0.50400001928E-02 0. -1.
       -1    1    3    3    0  502 -0.55822816411E+03 -0.31656913203E+03 -0.17358380862E+04  0.18506670581E+04  0.50400001928E-02 0.  1.
</event>
<event>
 5   0  0.5370912E-07  0.3217972E+04  0.7818609E-02  0.8184087E-01
        1   -1    0    0  501    0  0.00000000000E+00  0.00000000000E+00  0.15078632903E+04  0.15078632903E+04  0.50400001928E-02 0.  1.
       -1   -1    0    0    0  501  0.00000000000E+00  0.00000000000E+00 -0.17168904203E+04  0.17168904203E+04  0.50400001928E-02 0. -1.
    10030    2    1    2    0    0  0.00000000000E+00  0.00000000000E+00 -0.20902712998E+03  0.32247537106E+04  0.32179720560E+04 0.  0.
        1    1    3    3  502    0  0.11247485443E+04 -0.99061300073E+02 -0.12532117937E+04  0.16868349738E+04  0.50400001928E-02 0. -1.
       -1    1    3    3    0  502 -0.11247485443E+04  0.99061300073E+02  0.10441846637E+04  0.15379187368E+04  0.50400001928E-02 0.  1.
</event>
<event>
 5   0  0.5370912E-07  0.3179564E+04  0.7818609E-02  0.8194235E-01
       -1   -1    0    0    0  501  0.00000000000E+00  0.00000000000E+00  0.14757060446E+04  0.14757060447E+04  0.50400001928E-02 0. -1.
        1   -1    0    0  501    0  0.00000000000E+00  0.00000000000E+00 -0.17126765075E+04  0.17126765075E+04  0.50400001928E-02 0.  1.
    10030    2    1    2    0    0  0.00000000000E+00  0.00000000000E+00 -0.23697046282E+03  0.31883825521E+04  0.31795641680E+04 0.  0.
        1    1    3    3  502    0 -0.11745305792E+04 -0.79565531296E+03 -0.83798312931E+03  0.16476665875E+04  0.50400001928E-02 0.  1.
       -1    1    3    3    0  502  0.11745305792E+04  0.79565531296E+03  0.60101266649E+03  0.15407159647E+04  0.50400001928E-02 0. -1.
</event>
<event>
 5   0  0.1572769E-06  0.3183726E+04  0.7818609E-02  0.8193128E-01
        2   -1    0    0  501    0  0.00000000000E+00  0.00000000000E+00  0.20088091012E+04  0.20088091013E+04  0.25500000920E-02 0. -1.
       -2   -1    0    0    0  501  0.00000000000E+00  0.00000000000E+00 -0.12614579321E+04  0.12614579321E+04  0.25500000920E-02 0.  1.
    10030    2    1    2    0    0  0.00000000000E+00  0.00000000000E+00  0.74735116918E+03  0.32702670333E+04  0.31837262287E+04 0.  0.
        5    1    3    3  502    0  0.88443220715E+02 -0.11991655861E+04 -0.69784131258E+03  0.13902607287E+04  0.46999998093E+01 0.  1.
       -5    1    3    3    0  502 -0.88443220715E+02  0.11991655861E+04  0.14451924818E+04  0.18800063046E+04  0.46999998093E+01 0. -1.
</event>
<event>
 5   0  0.1538349E-06  0.3204313E+04  0.7818609E-02  0.8187679E-01
       -2   -1    0    0    0  501  0.00000000000E+00  0.00000000000E+00  0.85917483877E+03  0.85917483877E+03  0.25500000920E-02 0.  1.
        2   -1    0    0  501    0  0.00000000000E+00  0.00000000000E+00 -0.29876410771E+04  0.29876410771E+04  0.25500000920E-02 0. -1.
    10030    2    1    2    0    0  0.00000000000E+00  0.00000000000E+00 -0.21284662383E+04  0.38468159159E+04  0.32043133684E+04 0.  0.
        1    1    3    3  502    0  0.73756179324E+02 -0.13779921906E+04 -0.20414552970E+04  0.24641108297E+04  0.50400001928E-02 0. -1.
       -1    1    3    3    0  502 -0.73756179324E+02  0.13779921906E+04 -0.87010941335E+02  0.13827050862E+04  0.50400001928E-02 0.  1.
</event>
<event>
 5   0  0.5281187E-07  0.3206085E+04  0.7818609E-02  0.8187212E-01
        1   -1    0    0  501    0  0.00000000000E+00  0.00000000000E+00  0.18376615753E+04  0.18376615753E+04  0.50400001928E-02 0. -1.
       -1   -1    0    0    0  501  0.00000000000E+00  0.00000000000E+00 -0.13983776907E+04  0.13983776907E+04  0.50400001928E-02 0.  1.
    10030    2    1    2    0    0  0.00000000000E+00  0.00000000000E+00  0.43928388459E+03  0.32360392660E+04  0.32060848086E+04 0.  0.
        5    1    3    3  502    0  0.68832649296E+03 -0.12874767036E+04  0.88789503530E+03  0.17087332463E+04  0.46999998093E+01 0. -1.
       -5    1    3    3    0  502 -0.68832649296E+03  0.12874767036E+04 -0.44861115071E+03  0.15273060197E+04  0.46999998093E+01 0.  1.
</event>
<event>
 5   0  0.5177039E-07  0.3204752E+04  0.7818609E-02  0.8187563E-01
        1   -1    0    0  501    0  0.00000000000E+00  0.00000000000E+00  0.17157138159E+04  0.17157138159E+04  0.50400001928E-02 0. -1.
       -1   -1    0    0    0  501  0.00000000000E+00  0.00000000000E+00 -0.14965247737E+04  0.14965247737E+04  0.50400001928E-02 0.  1.
    10030    2    1    2    0    0  0.00000000000E+00  0.00000000000E+00  0.21918904224E+03  0.32122385896E+04  0.32047516160E+04 0.  0.
        3    1    3    3  502    0  0.33694958354E+02  0.97857445496E+03 -0.11617791376E+04  0.15193663446E+04  0.10100000352E+00 0.  1.
       -3    1    3    3    0  502 -0.33694958354E+02 -0.97857445496E+03  0.13809681799E+04  0.16928722451E+04  0.10100000352E+00 0. -1.
</event>
<event>
 5   0  0.1538349E-06  0.3236754E+04  0.7818609E-02  0.8179177E-01
        2   -1    0    0  501    0  0.00000000000E+00  0.00000000000E+00  0.21057659001E+04  0.21057659001E+04  0.25500000920E-02 0. -1.
       -2   -1    0    0    0  501  0.00000000000E+00  0.00000000000E+00 -0.12437966233E+04  0.12437966233E+04  0.25500000920E-02 0.  1.
    10030    2    1    2    0    0  0.00000000000E+00  0.00000000000E+00  0.86196927688E+03  0.33495625234E+04  0.32367542483E+04 0.  0.
        1    1    3    3  502    0  0.93789632612E+03  0.12785027120E+04  0.76619661979E+03  0.17610439982E+04  0.50400001928E-02 0.  1.
       -1    1    3    3    0  502 -0.93789632612E+03 -0.12785027120E+04  0.95772657090E+02  0.15885185253E+04  0.50400001928E-02 0. -1.
</event>
<event>
 5   0  0.5177039E-07  0.3197646E+04  0.7818609E-02  0.8189439E-01
       -1   -1    0    0    0  501  0.00000000000E+00  0.00000000000E+00  0.13661070204E+04  0.13661070204E+04  0.50400001928E-02 0.  1.
        1   -1    0    0  501    0  0.00000000000E+00  0.00000000000E+00 -0.18711818741E+04  0.18711818741E+04  0.50400001928E-02 0. -1.
    10030    2    1    2    0    0  0.00000000000E+00  0.00000000000E+00 -0.50507485373E+03  0.32372888945E+04  0.31976458182E+04 0.  0.
        3    1    3    3  502    0  0.74605295008E+03 -0.14022892364E+04 -0.43707331257E+03  0.16474353394E+04  0.10100000352E+00 0. -1.
       -3    1    3    3    0  502 -0.74605295008E+03  0.14022892364E+04 -0.68001541154E+02  0.15898535551E+04  0.10100000352E+00 0.  1.
</event>
<event>
 5   0  0.5317728E-07  0.3145137E+04  0.7818609E-02  0.8203458E-01
        1   -1    0    0  501    0  0.00000000000E+00  0.00000000000E+00  0.19164946780E+04  0.19164946780E+04  0.50400001928E-02 0. -1.
       -1   -1    0    0    0  501  0.00000000000E+00  0.00000000000E+00 -0.12903618956E+04  0.12903618956E+04  0.50400001928E-02 0.  1.
    10030    2    1    2    0    0  0.00000000000E+00  0.00000000000E+00  0.62613278247E+03  0.32068565736E+04  0.31451370117E+04 0.  0.
        2    1    3    3  502    0  0.31086261042E+03 -0.12692705690E+04  0.12050410635E+04  0.17775846828E+04  0.25500000920E-02 0. -1.
       -2    1    3    3    0  502 -0.31086261042E+03  0.12692705690E+04 -0.57890828107E+03  0.14292718908E+04  0.25500000920E-02 0.  1.
</event>
<event>
 5   0  0.5233813E-07  0.3113612E+04  0.7818609E-02  0.8212012E-01
       -1   -1    0    0    0  501  0.00000000000E+00  0.00000000000E+00  0.87709532215E+03  0.87709532216E+03  0.50400001928E-02 0. -1.
        1   -1    0    0  501    0  0.00000000000E+00  0.00000000000E+00 -0.27632636470E+04  0.27632636470E+04  0.50400001928E-02 0.  1.
    10030    2    1    2    0    0  0.00000000000E+00  0.00000000000E+00 -0.18861683248E+04  0.36403589691E+04  0.31136124477E+04 0.  0.
        4    1    3    3  502    0 -0.30566573586E+03  0.14531529298E+04 -0.39649120764E+03  0.15369749087E+04  0.12699999809E+01 0. -1.
       -4    1    3    3    0  502  0.30566573586E+03 -0.14531529298E+04 -0.14896771172E+04  0.21033840604E+04  0.12699999809E+01 0.  1.
</event>
<event>
 5   0  0.5233813E-07  0.3197077E+04  0.7818609E-02  0.8189589E-01
       -1   -1    0    0    0  501  0.00000000000E+00  0.00000000000E+00  0.16547767651E+04  0.16547767651E+04  0.50400001928E-02 0. -1.
        1   -1    0    0  501    0  0.00000000000E+00  0.00000000000E+00 -0.15442118559E+04  0.15442118559E+04  0.50400001928E-02 0.  1.
    10030    2    1    2    0    0  0.00000000000E+00  0.00000000000E+00  0.11056490915E+03  0.31989886210E+04  0.31970773526E+04 0.  0.
        4    1    3    3  502    0  0.84472298662E+03 -0.12823003546E+04  0.49992763853E+03  0.16148623409E+04  0.12699999809E+01 0. -1.
       -4    1    3    3    0  502 -0.84472298662E+03  0.12823003546E+04 -0.38936272938E+03  0.15841262801E+04  0.12699999809E+01 0.  1.
</event>
<event>
 5   0  0.5370912E-07  0.3201264E+04  0.7818609E-02  0.8188483E-01
       -1   -1    0    0    0  501  0.00000000000E+00  0.00000000000E+00  0.12759880567E+04  0.12759880567E+04  0.50400001928E-02 0. -1.
        1   -1    0    0  501    0  0.00000000000E+00  0.00000000000E+00 -0.20078735647E+04  0.20078735647E+04  0.50400001928E-02 0.  1.
    10030    2    1    2    0    0  0.00000000000E+00  0.00000000000E+00 -0.73188550796E+03  0.32838616215E+04  0.32012639304E+04 0.  0.
        1    1    3    3  502    0  0.14898330092E+04 -0.39634439104E+03  0.75666219105E+02  0.15435079035E+04  0.50400001928E-02 0. -1.
       -1    1    3    3    0  502 -0.14898330092E+04  0.39634439104E+03 -0.80755172706E+03  0.17403537179E+04  0.50400001928E-02 0.  1.
</event>
<event>
 5   0  0.5177039E-07  0.2986830E+04  0.7818609E-02  0.8247502E-01
        1   -1    0    0  501    0  0.00000000000E+00  0.00000000000E+00  0.12718243406E+04  0.12718243406E+04  0.50400001928E-02 0.  1.
       -1   -1    0    0    0  501  0.00000000000E+00  0.00000000000E+00 -0.17536132186E+04  0.17536132186E+04  0.50400001928E-02 0. -1.
    10030    2    1    2    0    0  0.00000000000E+00  0.00000000000E+00 -0.48178887796E+03  0.30254375592E+04  0.29868297410E+04 0.  0.
        3    1    3    3  502    0  0.46917567425E+03  0.96618192196E+03  0.81013755489E+03  0.13453461219E+04  0.10100000352E+00 0.  1.
       -3    1    3    3    0  502 -0.46917567425E+03 -0.96618192196E+03 -0.12919264329E+04  0.16800914373E+04  0.10100000352E+00 0. -1.
</event>
<event>
 5   0  0.5233813E-07  0.3052280E+04  0.7818609E-02  0.8228958E-01
        1   -1    0    0  501    0  0.00000000000E+00  0.00000000000E+00  0.13585636588E+04  0.13585636589E+04  0.50400001928E-02 0. -1.
       -1   -1    0    0    0  501  0.00000000000E+00  0.00000000000E+00 -0.17143866283E+04  0.17143866283E+04  0.50400001928E-02 0.  1.
    10030    2    1    2    0    0  0.00000000000E+00  0.00000000000E+00 -0.35582296943E+03  0.30729502871E+04  0.30522800464E+04 0.  0.
        4    1    3    3  502    0 -0.18154561915E+03  0.77952846972E+03  0.11303028393E+04  0.13849944290E+04  0.12699999809E+01 0. -1.
       -4    1    3    3    0  502  0.18154561915E+03 -0.77952846972E+03 -0.14861258087E+04  0.16879558582E+04  0.12699999809E+01 0.  1.
</event>
<event>
 5   0  0.1556396E-06  0.3176351E+04  0.7818609E-02  0.8195091E-01
        2   -1    0    0  501    0  0.00000000000E+00  0.00000000000E+00  0.23239832958E+04  0.23239832958E+04  0.25500000920E-02 0. -1.
       -2   -1    0    0    0  501  0.00000000000E+00  0.00000000000E+00 -0.10853352857E+04  0.10853352857E+04  0.25500000920E-02 0.  1.
    10030    2    1    2    0    0  0.00000000000E+00  0.00000000000E+00  0.12386480101E+04  0.34093185814E+04  0.31763507830E+04 0.  0.
        3    1    3    3  502    0 -0.46319217340E+03 -0.12433680234E+04 -0.31749732508E+03  0.13643004041E+04  0.10100000352E+00 0.  1.
       -3    1    3    3    0  502  0.46319217340E+03  0.12433680234E+04  0.15561453352E+04  0.20450181773E+04  0.10100000352E+00 0. -1.
</event>
<event>
 5   0  0.5317728E-07  0.3223422E+04  0.7818609E-02  0.8182659E-01
       -1   -1    0    0    0  501  0.00000000000E+00  0.00000000000E+00  0.14433232249E+04  0.14433232249E+04  0.50400001928E-02 0. -1.
        1   -1    0    0  501    0  0.00000000000E+00  0.00000000000E+00 -0.17997440631E+04  0.17997440631E+04  0.50400001928E-02 0.  1.
    10030    2    1    2    0    0  0.00000000000E+00  0.00000000000E+00 -0.35642083820E+03  0.32430672881E+04  0.32234220358E+04 0.  0.
        2    1    3    3  502    0 -0.13834271594E+04 -0.48074601302E+03 -0.85508474910E+03  0.16959237490E+04  0.25500000920E-02 0. -1.
       -2    1    3    3    0  502  0.13834271594E+04  0.48074601302E+03  0.49866391090E+03  0.15471435390E+04  0.25500000920E-02 0.  1.
</event>
<event>
 5   0  0.5177039E-07  0.3197281E+04  0.7818609E-02  0.8189536E-01
        1   -1    0    0  501    0  0.00000000000E+00  0.00000000000E+00  0.89514699383E+03  0.89514699385E+03  0.50400001928E-02 0.  1.
       -1   -1    0    0    0  501  0.00000000000E+00  0.00000000000E+00 -0.28550071732E+04  0.28550071732E+04  0.50400001928E-02 0. -1.
    10030    2    1    2    0    0  0.00000000000E+00  0.00000000000E+00 -0.19598601794E+04  0.37501541671E+04  0.31972807750E+04 0.  0.
        3    1    3    3  502    0 -0.77193943105E+03 -0.90529767164E+03  0.27251368632E+03  0.12205400767E+04  0.10100000352E+00 0.  1.
       -3    1    3    3    0  502  0.77193943105E+03  0.90529767164E+03 -0.22323738657E+04  0.25296140903E+04  0.10100000352E+00 0. -1.
</event>
<event>
 5   0  0.5317728E-07  0.3172360E+04  0.7818609E-02  0.8196155E-01
        1   -1    0    0  501    0  0.00000000000E+00  0.00000000000E+00  0.24580946519E+04  0.24580946519E+04  0.50400001928E-02 0. -1.
       -1   -1    0    0    0  501  0.00000000000E+00  0.00000000000E+00 -0.10235436554E+04  0.10235436555E+04  0.50400001928E-02 0.  1.
    10030    2    1    2    0    0  0.00000000000E+00  0.00000000000E+00  0.14345509964E+04  0.34816383073E+04  0.31723601217E+04 0.  0.
        2    1    3    3  502    0 -0.15583626574E+04  0.52839014964E+02  0.10366456260E+04  0.18724102882E+04  0.25500000920E-02 0. -1.
       -2    1    3    3    0  502  0.15583626574E+04 -0.52839014964E+02  0.39790537040E+03  0.16092280191E+04  0.25500000920E-02 0.  1.
</event>
<event>
 5   0  0.1538349E-06  0.3202016E+04  0.7818609E-02  0.8188285E-01
        2   -1    0    0  501    0  0.00000000000E+00  0.00000000000E+00  0.18409901592E+04  0.18409901592E+04  0.25500000920E-02 0. -1.
       -2   -1    0    0    0  501  0.00000000000E+00  0.00000000000E+00 -0.13923089940E+04  0.13923089940E+04  0.25500000920E-02 0.  1.
    10030    2    1    2    0    0  0.00000000000E+00  0.00000000000E+00  0.44868116519E+03  0.32332991532E+04  0.32020163375E+04 0.  0.
        1    1    3    3  502    0  0.57648019726E+03 -0.90860568890E+03 -0.97270871286E+03  0.14505364373E+04  0.50400001928E-02 0.  1.
       -1    1    3    3    0  502 -0.57648019726E+03  0.90860568890E+03  0.14213898780E+04  0.17827627159E+04  0.50400001928E-02 0. -1.
</event>
<event>
 5   0  0.5370912E-07  0.3197026E+04  0.7818609E-02  0.8189603E-01
       -1   -1    0    0    0  501  0.00000000000E+00  0.00000000000E+00  0.10685082095E+04  0.10685082095E+04  0.50400001928E-02 0.  1.
        1   -1    0    0  501    0  0.00000000000E+00  0.00000000000E+00 -0.23914118845E+04  0.23914118845E+04  0.50400001928E-02 0. -1.
    10030    2    1    2    0    0  0.00000000000E+00  0.00000000000E+00 -0.13229036750E+04  0.34599200940E+04  0.31970256370E+04 0.  0.
        1    1    3    3  502    0 -0.41128868470E+03  0.50191701782E+03  0.91955541018E+03  0.11254604513E+04  0.50400001928E-02 0.  1.
       -1    1    3    3    0  502  0.41128868470E+03 -0.50191701782E+03 -0.22424590852E+04  0.23344596427E+04  0.50400001928E-02 0. -1.
</event>
<event>
 5   0  0.1493485E-06  0.3191203E+04  0.7818609E-02  0.8191144E-01
       -2   -1    0    0    0  501  0.00000000000E+00  0.00000000000E+00  0.24201712685E+04  0.24201712685E+04  0.25500000920E-02 0.  1.
        2   -1    0    0  501    0  0.00000000000E+00  0.00000000000E+00 -0.10519687940E+04  0.10519687940E+04  0.25500000920E-02 0. -1.
    10030    2    1    2    0    0  0.00000000000E+00  0.00000000000E+00  0.13682024745E+04  0.34721400626E+04  0.31912033158E+04 0.  0.
        2    1    3    3  502    0 -0.10438267780E+04 -0.11098598286E+04  0.16848127763E+03  0.15328891423E+04  0.25500000920E-02 0. -1.
       -2    1    3    3    0  502  0.10438267780E+04  0.11098598286E+04  0.11997211968E+04  0.19392509203E+04  0.25500000920E-02 0.  1.
</event>
<event>
 5   0  0.5281187E-07  0.3190914E+04  0.7818609E-02  0.8191221E-01
        1   -1    0    0  501    0  0.00000000000E+00  0.00000000000E+00  0.19012760220E+04  0.19012760220E+04  0.50400001928E-02 0.  1.
       -1   -1    0    0    0  501  0.00000000000E+00  0.00000000000E+00 -0.13388287744E+04  0.13388287744E+04  0.50400001928E-02 0. -1.
    10030    2    1    2    0    0  0.00000000000E+00  0.00000000000E+00  0.56244724764E+03  0.32401047964E+04  0.31909140047E+04 0.  0.
        5    1    3    3  502    0 -0.10486657033E+04  0.71901542713E+03  0.12598117012E+04  0.17899247342E+04  0.46999998093E+01 0.  1.
       -5    1    3    3    0  502  0.10486657033E+04 -0.71901542713E+03 -0.69736445357E+03  0.14501800622E+04  0.46999998093E+01 0. -1.
</event>
<event>
 5   0  0.5370912E-07  0.3199026E+04  0.7818609E-02  0.8189074E-01
        1   -1    0    0  501    0  0.00000000000E+00  0.00000000000E+00  0.19062154444E+04  0.19062154444E+04  0.50400001928E-02 0.  1.
       -1   -1    0    0    0  501  0.00000000000E+00  0.00000000000E+00 -0.13421576142E+04  0.13421576142E+04  0.50400001928E-02 0. -1.
    10030    2    1    2    0    0  0.00000000000E+00  0.00000000000E+00  0.56405783023E+03  0.32483730586E+04  0.31990258349E+04 0.  0.
        1    1    3    3  502    0 -0.15926383970E+03 -0.10377540969E+04 -0.94329291634E+03  0.14114177490E+04  0.50400001928E-02 0. -1.
       -1    1    3    3    0  502  0.15926383970E+03  0.10377540969E+04  0.15073507466E+04  0.18369553096E+04  0.50400001928E-02 0.  1.
</event>
<event>
 5   0  0.5177039E-07  0.3206440E+04  0.7818609E-02  0.8187118E-01
        1   -1    0    0  501    0  0.00000000000E+00  0.00000000000E+00  0.23505393608E+04  0.23505393609E+04  0.50400001928E-02 0. -1.
       -1   -1    0    0    0  501  0.00000000000E+00  0.00000000000E+00 -0.10934997803E+04  0.10934997803E+04  0.50400001928E-02 0.  1.
    10030    2    1    2    0    0  0.00000000000E+00  0.00000000000E+00  0.12570395805E+04  0.34440391412E+04  0.32064399416E+04 0.  0.
        3    1    3    3  502    0  0.15505762892E+04  0.35976465429E+03  0.42304114235E+03  0.16470219347E+04  0.10100000352E+00 0.  1.
       -3    1    3    3    0  502 -0.15505762892E+04 -0.35976465429E+03  0.83399843820E+03  0.17970172064E+04  0.10100000352E+00 0. -1.
</event>
<event>
 5   0  0.1556396E-06  0.3180450E+04  0.7818609E-02  0.8193999E-01
       -2   -1    0    0    0  501  0.00000000000E+00  0.00000000000E+00  0.14316820064E+04  0.14316820064E+04  0.25500000920E-02 0. -1.
        2   -1    0    0  501    0  0.00000000000E+00  0.00000000000E+00 -0.17663249754E+04  0.17663249754E+04  0.25500000920E-02 0.  1.
    10030    2    1    2    0    0  0.00000000000E+00  0.00000000000E+00 -0.33464296898E+03  0.31980069817E+04  0.31804500843E+04 0.  0.
        3    1    3    3  502    0  0.96712310296E+03 -0.97812915337E+03  0.63505087812E+03  0.15150423641E+04  0.10100000352E+00 0. -1.
       -3    1    3    3    0  502 -0.96712310296E+03  0.97812915337E+03 -0.96969384710E+03  0.16829646177E+04  0.10100000352E+00 0.  1.
</event>
<event>
 5   0  0.1508771E-06  0.3192334E+04  0.7818609E-02  0.8190845E-01
        2   -1    0    0  501    0  0.00000000000E+00  0.00000000000E+00  0.15970982845E+04  0.15970982845E+04  0.25500000920E-02 0. -1.
       -2   -1    0    0    0  501  0.00000000000E+00  0.00000000000E+00 -0.15952364698E+04  0.15952364698E+04  0.25500000920E-02 0.  1.
    10030    2    1    2    0    0  0.00000000000E+00  0.00000000000E+00  0.18618146454E+01  0.31923347543E+04  0.31923342114E+04 0.  0.
        4    1    3    3  502    0  0.93526468389E+03 -0.64753079647E+03  0.11206326897E+04  0.15968204030E+04  0.12699999809E+01 0. -1.
       -4    1    3    3    0  502 -0.93526468389E+03  0.64753079647E+03 -0.11187708751E+04  0.15955143513E+04  0.12699999809E+01 0.  1.
</event>
<event>
 5   0  0.5370912E-07  0.3222157E+04  0.7818609E-02  0.8182990E-01
       -1   -1    0    0    0  501  0.00000000000E+00  0.00000000000E+00  0.28383977231E+04  0.28383977231E+04  0.50400001928E-02 0. -1.
        1   -1    0    0  501    0  0.00000000000E+00  0.00000000000E+00 -0.91445066526E+03  0.91445066527E+03  0.50400001928E-02 0.  1.
    10030    2    1    2    0    0  0.00000000000E+00  0.00000000000E+00  0.19239470578E+04  0.37528483884E+04  0.32221574674E+04 0.  0.
        1    1    3    3  502    0 -0.11930784438E+03  0.60508778731E+03  0.26954646512E+04  0.27651212049E+04  0.50400001928E-02 0. -1.
       -1    1    3    3    0  502  0.11930784438E+03 -0.60508778731E+03 -0.77151759334E+03  0.98772718346E+03  0.50400001928E-02 0.  1.
</event>
<event>
 5   0  0.5281187E-07  0.3197527E+04  0.7818609E-02  0.8189471E-01
       -1   -1    0    0    0  501  0.00000000000E+00  0.00000000000E+00  0.22403168318E+04  0.22403168318E+04  0.50400001928E-02 0. -1.
        1   -1    0    0  501    0  0.00000000000E+00  0.00000000000E+00 -0.11409299821E+04  0.11409299821E+04  0.50400001928E-02 0.  1.
    10030    2    1    2    0    0  0.00000000000E+00  0.00000000000E+00  0.10993868497E+04  0.33812468139E+04  0.31975269462E+04 0.  0.
        5    1    3    3  502    0  0.85285969667E+03 -0.11754571703E+03  0.19742553756E+04  0.21538089599E+04  0.46999998093E+01 0. -1.
       -5    1    3    3    0  502 -0.85285969667E+03  0.11754571703E+03 -0.87486852592E+03  0.12274378540E+04  0.46999998093E+01 0.  1.
</event>
<event>
 5   0  0.1556396E-06  0.3204536E+04  0.7818609E-02  0.8187620E-01
       -2   -1    0    0    0  501  0.00000000000E+00  0.00000000000E+00  0.20604992326E+04  0.20604992326E+04  0.25500000920E-02 0.  1.
        2   -1    0    0  501    0  0.00000000000E+00  0.00000000000E+00 -0.12459418427E+04  0.12459418427E+04  0.25500000920E-02 0. -1.
    10030    2    1    2    0    0  0.00000000000E+00  0.00000000000E+00  0.81455738982E+03  0.33064410753E+04  0.32045356673E+04 0.  0.
        3    1    3    3  502    0 -0.13268595812E+04  0.84525813413E+03  0.93902494699E+02  0.15760188293E+04  0.10100000352E+00 0.  1.
       -3    1    3    3    0  502  0.13268595812E+04 -0.84525813413E+03  0.72065489512E+03  0.17304222460E+04  0.10100000352E+00 0. -1.
</event>
<event>
 5   0  0.5233813E-07  0.3205272E+04  0.7818609E-02  0.8187426E-01
       -1   -1    0    0    0  501  0.00000000000E+00  0.00000000000E+00  0.20907557951E+04  0.20907557951E+04  0.50400001928E-02 0. -1.
        1   -1    0    0  501    0  0.00000000000E+00  0.00000000000E+00 -0.12284755984E+04  0.12284755984E+04  0.50400001928E-02 0.  1.
    10030    2    1    2    0    0  0.00000000000E+00  0.00000000000E+00  0.86228019670E+03  0.33192313936E+04  0.32052722047E+04 0.  0.
        4    1    3    3  502    0  0.97076600329E+03 -0.71256439714E+03  0.15262380846E+04  0.19441036384E+04  0.12699999809E+01 0. -1.
       -4    1    3    3    0  502 -0.97076600329E+03  0.71256439714E+03 -0.66395788786E+03  0.13751277551E+04  0.12699999809E+01 0.  1.
</event>
<event>
 5   0  0.1556396E-06  0.3212402E+04  0.7818609E-02  0.8185550E-01
       -2   -1    0    0    0  501  0.00000000000E+00  0.00000000000E+00  0.84319056934E+03  0.84319056934E+03  0.25500000920E-02 0. -1.
        2   -1    0    0  501    0  0.00000000000E+00  0.00000000000E+00 -0.30596655682E+04  0.30596655682E+04  0.25500000920E-02 0.  1.
    10030    2    1    2    0    0  0.00000000000E+00  0.00000000000E+00 -0.22164749989E+04  0.39028561375E+04  0.32124016887E+04 0.  0.
        3    1    3    3  502    0 -0.16049260349E+03  0.17767594381E+03  0.82138777428E+03  0.85557261686E+03  0.10100000352E+00 0. -1.
       -3    1    3    3    0  502  0.16049260349E+03 -0.17767594381E+03 -0.30378627731E+04  0.30472835207E+04  0.10100000352E+00 0.  1.
</event>
<event>
 5   0  0.5281187E-07  0.3204500E+04  0.7818609E-02  0.8187630E-01
       -1   -1    0    0    0  501  0.00000000000E+00  0.00000000000E+00  0.14603602215E+04  0.14603602215E+04  0.50400001928E-02 0. -1.
        1   -1    0    0  501    0  0.00000000000E+00  0.00000000000E+00 -0.17579254450E+04  0.17579254450E+04  0.50400001928E-02 0.  1.
    10030    2    1    2    0    0  0.00000000000E+00  0.00000000000E+00 -0.29756522349E+03  0.32182856666E+04  0.32044995817E+04 0.  0.
        5    1    3    3  502    0 -0.12075099484E+04  0.53977894069E+03 -0.10569631363E+04  0.16931139188E+04  0.46999998093E+01 0.  1.
       -5    1    3    3    0  502  0.12075099484E+04 -0.53977894069E+03  0.75939791284E+03  0.15251717478E+04  0.46999998093E+01 0. -1.
</event>
<event>
 5   0  0.5317728E-07  0.3173784E+04  0.7818609E-02  0.8195775E-01
        1   -1    0    0  501    0  0.00000000000E+00  0.00000000000E+00  0.19313502761E+04  0.19313502761E+04  0.50400001928E-02 0.  1.
       -1   -1    0    0    0  501  0.00000000000E+00  0.00000000000E+00 -0.13038678142E+04  0.13038678142E+04  0.50400001928E-02 0. -1.
    10030    2    1    2    0    0  0.00000000000E+00  0.00000000000E+00  0.62748246195E+03  0.32352180903E+04  0.31737835232E+04 0.  0.
        2    1    3    3  502    0 -0.87058404353E+03  0.98393409593E+03 -0.59353368855E+03  0.14416397336E+04  0.25500000920E-02 0. -1.
       -2    1    3    3    0  502  0.87058404353E+03 -0.98393409593E+03  0.12210161505E+04  0.17935783567E+04  0.25500000920E-02 0.  1.
</event>
<event>
 5   0  0.1572769E-06  0.3109555E+04  0.7818609E-02  0.8213120E-01
       -2   -1    0    0    0  501  0.00000000000E+00  0.00000000000E+00  0.10755603484E+04  0.10755603484E+04  0.25500000920E-02 0.  1.
        2   -1    0    0  501    0  0.00000000000E+00  0.00000000000E+00 -0.22475110210E+04  0.22475110210E+04  0.25500000920E-02 0. -1.
    10030    2    1    2    0    0  0.00000000000E+00  0.00000000000E+00 -0.11719506726E+04  0.33230713694E+04  0.31095554259E+04 0.  0.
        5    1    3    3  502    0 -0.10246148248E+04 -0.50757590282E+03  0.53985281236E+03  0.12644888237E+04  0.46999998093E+01 0.  1.
       -5    1    3    3    0  502  0.10246148248E+04  0.50757590282E+03 -0.17118034850E+04  0.20585825457E+04  0.46999998093E+01 0. -1.
</event>
<event>
 5   0  0.5370912E-07  0.3258232E+04  0.7818609E-02  0.8173605E-01
        1   -1    0    0  501    0  0.00000000000E+00  0.00000000000E+00  0.23565255429E+04  0.23565255429E+04  0.50400001928E-02 0.  1.
       -1   -1    0    0    0  501  0.00000000000E+00  0.00000000000E+00 -0.11262421723E+04  0.11262421723E+04  0.50400001928E-02 0. -1.
    10030    2    1    2    0    0  0.00000000000E+00  0.00000000000E+00  0.12302833706E+04  0.34827677152E+04  0.32582316962E+04 0.  0.
        1    1    3    3  502    0  0.53158956023E+03 -0.13942002461E+04  0.13141462472E+04  0.19883063511E+04  0.50400001928E-02 0.  1.
       -1    1    3    3    0  502 -0.53158956023E+03  0.13942002461E+04 -0.83862876556E+02  0.14944613641E+04  0.50400001928E-02 0. -1.
</event>
<event>
 5   0  0.5370912E-07  0.3180104E+04  0.7818609E-02  0.8194091E-01
        1   -1    0    0  501    0  0.00000000000E+00  0.00000000000E+00  0.13863803771E+04  0.13863803771E+04  0.50400001928E-02 0.  1.
       -1   -1    0    0    0  501  0.00000000000E+00  0.00000000000E+00 -0.18236449005E+04  0.18236449005E+04  0.50400001928E-02 0. -1.
    10030    2    1    2    0    0  0.00000000000E+00  0.00000000000E+00 -0.43726452345E+03  0.32100252776E+04  0.31801040894E+04 0.  0.
        1    1    3    3  502    0  0.30792964638E+03 -0.12408097613E+04  0.73569214680E+03  0.14750160900E+04  0.50400001928E-02 0.  1.
       -1    1    3    3    0  502 -0.30792964638E+03  0.12408097613E+04 -0.11729566702E+04  0.17350091876E+04  0.50400001928E-02 0. -1.
</event>
<event>
 5   0  0.1556396E-06  0.3207822E+04  0.7818609E-02  0.8186754E-01
       -2   -1    0    0    0  501  0.00000000000E+00  0.00000000000E+00  0.15349283078E+04  0.15349283078E+04  0.25500000920E-02 0. -1.
        2   -1    0    0  501    0  0.00000000000E+00  0.00000000000E+00 -0.16759942049E+04  0.16759942049E+04  0.25500000920E-02 0.  1.
    10030    2    1    2    0    0  0.00000000000E+00  0.00000000000E+00 -0.14106589711E+03  0.32109225128E+04  0.32078222824E+04 0.  0.
        3    1    3    3  502    0 -0.32172305466E+03 -0.12880469459E+04 -0.97138067381E+03  0.16450383225E+04  0.10100000352E+00 0.  1.
       -3    1    3    3    0  502  0.32172305466E+03  0.12880469459E+04  0.83031477669E+03  0.15658841903E+04  0.10100000352E+00 0. -1.
</event>
<event>
 5   0  0.5233813E-07  0.3213590E+04  0.7818609E-02  0.8185237E-01
        1   -1    0    0  501    0  0.00000000000E+00  0.00000000000E+00  0.14597955972E+04  0.14597955972E+04  0.50400001928E-02 0. -1.
       -1   -1    0    0    0  501  0.00000000000E+00  0.00000000000E+00 -0.17685968254E+04  0.17685968254E+04  0.50400001928E-02 0.  1.
    10030    2    1    2    0    0  0.00000000000E+00  0.00000000000E+00 -0.30880122812E+03  0.32283924226E+04  0.32135898052E+04 0.  0.
        4    1    3    3  502    0  0.76747827845E+03  0.89145869371E+03 -0.12540047974E+04  0.17193752223E+04  0.12699999809E+01 0.  1.
       -4    1    3    3    0  502 -0.76747827845E+03 -0.89145869371E+03  0.94520356924E+03  0.15090172003E+04  0.12699999809E+01 0. -1.
</event>
<event>
 5   0  0.5370912E-07  0.3197414E+04  0.7818609E-02  0.8189501E-01
        1   -1    0    0  501    0  0.00000000000E+00  0.00000000000E+00  0.83982605366E+03  0.83982605367E+03  0.50400001928E-02 0.  1.
       -1   -1    0    0    0  501  0.00000000000E+00  0.00000000000E+00 -0.30433248971E+04  0.30433248971E+04  0.50400001928E-02 0. -1.
    10030    2    1    2    0    0  0.00000000000E+00  0.00000000000E+00 -0.22034988434E+04  0.38831509508E+04  0.31974136663E+04 0.  0.
        1    1    3    3  502    0  0.36927141971E+03 -0.13003289479E+04 -0.65071205624E+02  0.13533111305E+04  0.50400001928E-02 0.  1.
       -1    1    3    3    0  502 -0.36927141971E+03  0.13003289479E+04 -0.21384276378E+04  0.25298398203E+04  0.50400001928E-02 0. -1.
</event>
<event>
 5   0  0.1572769E-06  0.3203839E+04  0.7818609E-02  0.8187804E-01
       -2   -1    0    0    0  501  0.00000000000E+00  0.00000000000E+00  0.14150040839E+04  0.14150040839E+04  0.25500000920E-02 0.  1.
        2   -1    0    0  501    0  0.00000000000E+00  0.00000000000E+00 -0.18135260370E+04  0.18135260370E+04  0.25500000920E-02 0. -1.
    10030    2    1    2    0    0  0.00000000000E+00  0.00000000000E+00 -0.39852195308E+03  0.32285301210E+04  0.32038394147E+04 0.  0.
        5    1    3    3  502    0 -0.15786488974E+04  0.21781378298E+03 -0.36345678183E+03  0.16345329937E+04  0.46999998093E+01 0. -1.
       -5    1    3    3    0  502  0.15786488974E+04 -0.21781378298E+03 -0.35065171244E+02  0.15939971272E+04  0.46999998093E+01 0.  1.
</event>
<event>
 5   0  0.5281187E-07  0.3175695E+04  0.7818609E-02  0.8195266E-01
       -1   -1    0    0    0  501  0.00000000000E+00  0.00000000000E+00  0.25502283609E+04  0.25502283609E+04  0.50400001928E-02 0. -1.
        1   -1    0    0  501    0  0.00000000000E+00  0.00000000000E+00 -0.98864085675E+03  0.98864085676E+03  0.50400001928E-02 0.  1.
    10030    2    1    2    0    0  0.00000000000E+00  0.00000000000E+00  0.15615875041E+04  0.35388692176E+04  0.31756951690E+04 0.  0.
        5    1    3    3  502    0  0.54522525046E+03  0.55046909825E+03 -0.76369181767E+03  0.10879035271E+04  0.46999998093E+01 0.  1.
       -5    1    3    3    0  502 -0.54522525046E+03 -0.55046909825E+03  0.23252793218E+04  0.24509656905E+04  0.46999998093E+01 0. -1.
</event>
<event>
 5   0  0.1556396E-06  0.3202239E+04  0.7818609E-02  0.8188226E-01
       -2   -1    0    0    0  501  0.00000000000E+00  0.00000000000E+00  0.15063206984E+04  0.15063206984E+04  0.25500000920E-02 0.  1.
        2   -1    0    0  501    0  0.00000000000E+00  0.00000000000E+00 -0.17018848067E+04  0.17018848067E+04  0.25500000920E-02 0. -1.
    10030    2    1    2    0    0  0.00000000000E+00  0.00000000000E+00 -0.19556410834E+03  0.32082055050E+04  0.32022394105E+04 0.  0.
        3    1    3    3  502    0  0.88681555922E+03 -0.66191937846E+03  0.10615277628E+04  0.15334341528E+04  0.10100000352E+00 0.  1.
       -3    1    3    3    0  502 -0.88681555922E+03  0.66191937846E+03 -0.12570918711E+04  0.16747713522E+04  0.10100000352E+00 0. -1.
</event>
<event>
 5   0  0.5317728E-07  0.3020566E+04  0.7818609E-02  0.8237882E-01
        1   -1    0    0  501    0  0.00000000000E+00  0.00000000000E+00  0.10248750159E+04  0.10248750159E+04  0.50400001928E-02 0.  1.
       -1   -1    0    0    0  501  0.00000000000E+00  0.00000000000E+00 -0.22255933454E+04  0.22255933454E+04  0.50400001928E-02 0. -1.
    10030    2    1    2    0    0  0.00000000000E+00  0.00000000000E+00 -0.12007183295E+04  0.32504683614E+04  0.30205661823E+04 0.  0.
        2    1    3    3  502    0  0.86581158365E+03 -0.77682155658E+02 -0.19293864974E+04  0.21161749625E+04  0.25500000920E-02 0. -1.
       -2    1    3    3    0  502 -0.86581158365E+03  0.77682155658E+02  0.72866816790E+03  0.11342933988E+04  0.25500000920E-02 0.  1.
</event>
<event>
 5   0  0.5233813E-07  0.3192403E+04  0.7818609E-02  0.8190827E-01
       -1   -1    0    0    0  501  0.00000000000E+00  0.00000000000E+00  0.12083381084E+04  0.12083381084E+04  0.50400001928E-02 0.  1.
        1   -1    0    0  501    0  0.00000000000E+00  0.00000000000E+00 -0.21085641811E+04  0.21085641811E+04  0.50400001928E-02 0. -1.
    10030    2    1    2    0    0  0.00000000000E+00  0.00000000000E+00 -0.90022607270E+03  0.33169022895E+04  0.31924025147E+04 0.  0.
        4    1    3    3  502    0  0.11814185993E+04 -0.15393221959E+02  0.66499453439E+03  0.13558046326E+04  0.12699999809E+01 0. -1.
       -4    1    3    3    0  502 -0.11814185993E+04  0.15393221959E+02 -0.15652206071E+04  0.19610976569E+04  0.12699999809E+01 0.  1.
</event>
<event>
 5   0  0.5370912E-07  0.3197461E+04  0.7818609E-02  0.8189488E-01
        1   -1    0    0  501    0  0.00000000000E+00  0.00000000000E+00  0.11343469197E+04  0.11343469197E+04  0.50400001928E-02 0. -1.
       -1   -1    0    0    0  501  0.00000000000E+00  0.00000000000E+00 -0.22532246718E+04  0.22532246718E+04  0.50400001928E-02 0.  1.
    10030    2    1    2    0    0  0.00000000000E+00  0.00000000000E+00 -0.11188777521E+04  0.33875715915E+04  0.31974605335E+04 0.  0.
        1    1    3    3  502    0  0.31764483803E+03 -0.90087283381E+03 -0.19176396177E+04  0.21423846081E+04  0.50400001928E-02 0.  1.
       -1    1    3    3    0  502 -0.31764483803E+03  0.90087283381E+03  0.79876186551E+03  0.12451869834E+04  0.50400001928E-02 0. -1.
</event>
<event>
 5   0  0.5233813E-07  0.3203907E+04  0.7818609E-02  0.8187786E-01
        1   -1    0    0  501    0  0.00000000000E+00  0.00000000000E+00  0.14297751079E+04  0.14297751079E+04  0.50400001928E-02 0. -1.
       -1   -1    0    0    0  501  0.00000000000E+00  0.00000000000E+00 -0.17948665140E+04  0.17948665140E+04  0.50400001928E-02 0.  1.
    10030    2    1    2    0    0  0.00000000000E+00  0.00000000000E+00 -0.36509140614E+03  0.32246416219E+04  0.32039072794E+04 0.  0.
        4    1    3    3  502    0  0.11133126064E+04 -0.97388180030E+03  0.43653097365E+03  0.15422294331E+04  0.12699999809E+01 0. -1.
       -4    1    3    3    0  502 -0.11133126064E+04  0.97388180030E+03 -0.80162237979E+03  0.16824121888E+04  0.12699999809E+01 0.  1.
</event>
<event>
 5   0  0.1493485E-06  0.3206068E+04  0.7818609E-02  0.8187216E-01
       -2   -1    0    0    0  501  0.00000000000E+00  0.00000000000E+00  0.10444353668E+04  0.10444353668E+04  0.25500000920E-02 0.  1.
        2   -1    0    0  501    0  0.00000000000E+00  0.00000000000E+00 -0.24603895906E+04  0.24603895906E+04  0.25500000920E-02 0. -1.
    10030    2    1    2    0    0  0.00000000000E+00  0.00000000000E+00 -0.14159542238E+04  0.35048249573E+04  0.32060679371E+04 0.  0.
        2    1    3    3  502    0  0.87314006666E+02 -0.11295871592E+04  0.53177695814E+03  0.12515500866E+04  0.25500000920E-02 0.  1.
       -2    1    3    3    0  502 -0.87314006666E+02  0.11295871592E+04 -0.19477311819E+04  0.22532748707E+04  0.25500000920E-02 0. -1.
</event>
<event>
 5   0  0.1538349E-06  0.3196677E+04  0.7818609E-02  0.8189695E-01
       -2   -1    0    0    0  501  0.00000000000E+00  0.00000000000E+00  0.11195242885E+04  0.11195242885E+04  0.25500000920E-02 0. -1.
        2   -1    0    0  501    0  0.00000000000E+00  0.00000000000E+00 -0.22819382989E+04  0.22819382989E+04  0.25500000920E-02 0.  1.
    10030    2    1    2    0    0  0.00000000000E+00  0.00000000000E+00 -0.11624140104E+04  0.34014625875E+04  0.31966766184E+04 0.  0.
        1    1    3    3  502    0 -0.61610636904E+03 -0.34164014088E+03 -0.21078229819E+04  0.22224362234E+04  0.50400001928E-02 0.  1.
       -1    1    3    3    0  502  0.61610636904E+03  0.34164014088E+03  0.94540897152E+03  0.11790263641E+04  0.50400001928E-02 0. -1.
</event>
<event>
 5   0  0.1556396E-06  0.3156010E+04  0.7818609E-02  0.8200532E-01
       -2   -1    0    0    0  501  0.00000000000E+00  0.00000000000E+00  0.11343001157E+04  0.11343001157E+04  0.25500000920E-02 0. -1.
        2   -1    0    0  501    0  0.00000000000E+00  0.00000000000E+00 -0.21952747465E+04  0.21952747465E+04  0.25500000920E-02 0.  1.
    10030    2    1    2    0    0  0.00000000000E+00  0.00000000000E+00 -0.10609746308E+04  0.33295748622E+04  0.31560103922E+04 0.  0.
        3    1    3    3  502    0  0.15657094339E+04 -0.16802220081E+03 -0.42278015197E+03  0.16304663623E+04  0.10100000352E+00 0.  1.
       -3    1    3    3    0  502 -0.15657094339E+04  0.16802220081E+03 -0.63819447880E+03  0.16991084999E+04  0.10100000352E+00 0. -1.
</event>
<event>
 5   0  0.1538349E-06  0.3022188E+04  0.7818609E-02  0.8237423E-01
        2   -1    0    0  501    0  0.00000000000E+00  0.00000000000E+00  0.15908175925E+04  0.15908175925E+04  0.25500000920E-02 0.  1.
       -2   -1    0    0    0  501  0.00000000000E+00  0.00000000000E+00 -0.14353656508E+04  0.14353656508E+04  0.25500000920E-02 0. -1.
    10030    2    1    2    0    0  0.00000000000E+00  0.00000000000E+00  0.15545194170E+03  0.30261832432E+04  0.30221879021E+04 0.  0.
        1    1    3    3  502    0  0.82946145851E+03  0.49632076254E+03 -0.10853018061E+04  0.14533480729E+04  0.50400001928E-02 0. -1.
       -1    1    3    3    0  502 -0.82946145851E+03 -0.49632076254E+03  0.12407537478E+04  0.15728351704E+04  0.50400001928E-02 0.  1.
</event>
<event>
 5   0  0.1508771E-06  0.3193403E+04  0.7818609E-02  0.8190562E-01
        2   -1    0    0  501    0  0.00000000000E+00  0.00000000000E+00  0.20269542743E+04  0.20269542743E+04  0.25500000920E-02 0. -1.
       -2   -1    0    0    0  501  0.00000000000E+00  0.00000000000E+00 -0.12577766141E+04  0.12577766141E+04  0.25500000920E-02 0.  1.
    10030    2    1    2    0    0  0.00000000000E+00  0.00000000000E+00  0.76917766021E+03  0.32847308884E+04  0.31934030025E+04 0.  0.
        4    1    3    3  502    0 -0.10877873020E+04  0.74731651030E+03 -0.53982973204E+03  0.14258965367E+04  0.12699999809E+01 0.  1.
       -4    1    3    3    0  502  0.10877873020E+04 -0.74731651030E+03  0.13090073923E+04  0.18588343517E+04  0.12699999809E+01 0. -1.
</event>
<event>
 5   0  0.5177039E-07  0.3267142E+04  0.7818609E-02  0.8171307E-01
       -1   -1    0    0    0  501  0.00000000000E+00  0.00000000000E+00  0.11318209638E+04  0.11318209638E+04  0.50400001928E-02 0.  1.
        1   -1    0    0  501    0  0.00000000000E+00  0.00000000000E+00 -0.23577523803E+04  0.23577523803E+04  0.50400001928E-02 0. -1.
    10030    2    1    2    0    0  0.00000000000E+00  0.00000000000E+00 -0.12259314166E+04  0.34895733441E+04  0.32671416079E+04 0.  0.
        3    1    3    3  502    0  0.11253599362E+04 -0.10810974802E+04 -0.11289129673E+04  0.19260454942E+04  0.10100000352E+00 0.  1.
       -3    1    3    3    0  502 -0.11253599362E+04  0.10810974802E+04 -0.97018449290E+02  0.15635278499E+04  0.10100000352E+00 0. -1.
</event>
<event>
 5   0  0.5370912E-07  0.3267028E+04  0.7818609E-02  0.8171336E-01
        1   -1    0    0  501    0  0.00000000000E+00  0.00000000000E+00  0.23757857280E+04  0.23757857280E+04  0.50400001928E-02 0.  1.
       -1   -1    0    0    0  501  0.00000000000E+00  0.00000000000E+00 -0.11231517577E+04  0.11231517577E+04  0.50400001928E-02 0. -1.
    10030    2    1    2    0    0  0.00000000000E+00  0.00000000000E+00  0.12526339703E+04  0.34989374857E+04  0.32670279560E+04 0.  0.
        1    1    3    3  502    0 -0.22504521632E+03  0.16178296795E+04  0.64634454354E+03  0.17566386909E+04  0.50400001928E-02 0.  1.
       -1    1    3    3    0  502  0.22504521632E+03 -0.16178296795E+04  0.60628942675E+03  0.17422987948E+04  0.50400001928E-02 0. -1.
</event>
<event>
 5   0  0.5281187E-07  0.3289953E+04  0.7818609E-02  0.8165457E-01
       -1   -1    0    0    0  501  0.00000000000E+00  0.00000000000E+00  0.11449042632E+04  0.11449042632E+04  0.50400001928E-02 0. -1.
        1   -1    0    0  501    0  0.00000000000E+00  0.00000000000E+00 -0.23634707421E+04  0.23634707421E+04  0.50400001928E-02 0.  1.
    10030    2    1    2    0    0  0.00000000000E+00  0.00000000000E+00 -0.12185664789E+04  0.35083750053E+04  0.32899530262E+04 0.  0.
        5    1    3    3  502    0  0.42832040988E+03 -0.12715312095E+04  0.40556863105E+03  0.14016982538E+04  0.46999998093E+01 0. -1.
       -5    1    3    3    0  502 -0.42832040988E+03  0.12715312095E+04 -0.16241351099E+04  0.21066767515E+04  0.46999998093E+01 0.  1.
</event>
<event>
 5   0  0.5370912E-07  0.3162138E+04  0.7818609E-02  0.8198889E-01
        1   -1    0    0  501    0  0.00000000000E+00  0.00000000000E+00  0.16474032358E+04  0.16474032358E+04  0.50400001928E-02 0. -1.
       -1   -1    0    0    0  501  0.00000000000E+00  0.00000000000E+00 -0.15174055831E+04  0.15174055831E+04  0.50400001928E-02 0.  1.
    10030    2    1    2    0    0  0.00000000000E+00  0.00000000000E+00  0.12999765275E+03  0.31648088189E+04  0.31621378007E+04 0.  0.
        1    1    3    3  502    0  0.12688674058E+04  0.84003234493E+03  0.49443005376E+03  0.16000437219E+04  0.50400001928E-02 0. -1.
       -1    1    3    3    0  502 -0.12688674058E+04 -0.84003234493E+03 -0.36443240100E+03  0.15647650970E+04  0.50400001928E-02 0.  1.
</event>
<event>
 5   0  0.5233813E-07  0.3212779E+04  0.7818609E-02  0.8185450E-01
       -1   -1    0    0    0  501  0.00000000000E+00  0.00000000000E+00  0.16075864887E+04  0.16075864887E+04  0.50400001928E-02 0. -1.
        1   -1    0    0  501    0  0.00000000000E+00  0.00000000000E+00 -0.16051937383E+04  0.16051937383E+04  0.50400001928E-02 0.  1.
    10030    2    1    2    0    0  0.00000000000E+00  0.00000000000E+00  0.23927504075E+01  0.32127802270E+04  0.32127793360E+04 0.  0.
        4    1    3    3  502    0  0.22599527084E+03 -0.96994508449E+03  0.12616009548E+04  0.16073288125E+04  0.12699999809E+01 0. -1.
       -4    1    3    3    0  502 -0.22599527084E+03  0.96994508449E+03 -0.12592082044E+04  0.16054514145E+04  0.12699999809E+01 0.  1.
</event>
<event>
 5   0  0.5177039E-07  0.3195787E+04  0.7818609E-02  0.8189931E-01
        1   -1    0    0  501    0  0.00000000000E+00  0.00000000000E+00  0.11598054607E+04  0.11598054607E+04  0.50400001928E-02 0. -1.
       -1   -1    0    0    0  501  0.00000000000E+00  0.00000000000E+00 -0.22014585362E+04  0.22014585362E+04  0.50400001928E-02 0.  1.
    10030    2    1    2    0    0  0.00000000000E+00  0.00000000000E+00 -0.10416530755E+04  0.33612639969E+04  0.31957869965E+04 0.  0.
        3    1    3    3  502    0  0.71606091434E+03  0.75057245394E+03  0.75749106914E+03  0.12844823750E+04  0.10100000352E+00 0. -1.
       -3    1    3    3    0  502 -0.71606091434E+03 -0.75057245394E+03 -0.17991441446E+04  0.20767816219E+04  0.10100000352E+00 0.  1.
</event>
<event>
 5   0  0.1508771E-06  0.3159650E+04  0.7818609E-02  0.8199556E-01
        2   -1    0    0  501    0  0.00000000000E+00  0.00000000000E+00  0.26400744572E+04  0.26400744572E+04  0.25500000920E-02 0. -1.
       -2   -1    0    0    0  501  0.00000000000E+00  0.00000000000E+00 -0.94536978068E+03  0.94536978069E+03  0.25500000920E-02 0.  1.
    10030    2    1    2    0    0  0.00000000000E+00  0.00000000000E+00  0.16947046765E+04  0.35854442379E+04  0.31596497341E+04 0.  0.
        4    1    3    3  502    0 -0.13896566343E+04  0.37901885820E+03  0.11103022079E+03  0.14446903401E+04  0.12699999809E+01 0.  1.
       -4    1    3    3    0  502  0.13896566343E+04 -0.37901885820E+03  0.15836744557E+04  0.21407538977E+04  0.12699999809E+01 0. -1.
</event>
<event>
 5   0  0.5317728E-07  0.3186615E+04  0.7818609E-02  0.8192361E-01
       -1   -1    0    0    0  501  0.00000000000E+00  0.00000000000E+00  0.17215370255E+04  0.17215370255E+04  0.50400001928E-02 0. -1.
        1   -1    0    0  501    0  0.00000000000E+00  0.00000000000E+00 -0.14746289446E+04  0.14746289446E+04  0.50400001928E-02 0.  1.
    10030    2    1    2    0    0  0.00000000000E+00  0.00000000000E+00  0.24690808090E+03  0.31961659700E+04  0.31866147096E+04 0.  0.
        2    1    3    3  502    0  0.13660800889E+04  0.77657304527E+02 -0.69534006947E+03  0.15348300488E+04  0.25500000920E-02 0.  1.
       -2    1    3    3    0  502 -0.13660800889E+04 -0.77657304527E+02  0.94224815037E+03  0.16613359213E+04  0.25500000920E-02 0. -1.
</event>
<event>
 5   0  0.5177039E-07  0.3216211E+04  0.7818609E-02  0.8184549E-01
        1   -1    0    0  501    0  0.00000000000E+00  0.00000000000E+00  0.14046285429E+04  0.14046285429E+04  0.50400001928E-02 0. -1.
       -1   -1    0    0    0  501  0.00000000000E+00  0.00000000000E+00 -0.18410582479E+04  0.18410582479E+04  0.50400001928E-02 0.  1.
    10030    2    1    2    0    0  0.00000000000E+00  0.00000000000E+00 -0.43642970502E+03  0.32456867908E+04  0.32162107916E+04 0.  0.
        3    1    3    3  502    0 -0.12471525109E+04  0.74728831702E+03  0.47523173950E+03  0.15295994347E+04  0.10100000352E+00 0. -1.
       -3    1    3    3    0  502  0.12471525109E+04 -0.74728831702E+03 -0.91166144452E+03  0.17160873561E+04  0.10100000352E+00 0.  1.
</event>
<event>
 5   0  0.1572769E-06  0.3173010E+04  0.7818609E-02  0.8195982E-01
       -2   -1    0    0    0  501  0.00000000000E+00  0.00000000000E+00  0.13276766679E+04  0.13276766679E+04  0.25500000920E-02 0. -1.
        2   -1    0    0  501    0  0.00000000000E+00  0.00000000000E+00 -0.18957912512E+04  0.18957912512E+04  0.25500000920E-02 0.  1.
    10030    2    1    2    0    0  0.00000000000E+00  0.00000000000E+00 -0.56811458328E+03  0.32234679192E+04  0.31730098087E+04 0.  0.
        5    1    3    3  502    0  0.11586671690E+04 -0.10776021495E+04 -0.16716352711E+03  0.15911322182E+04  0.46999998093E+01 0. -1.
       -5    1    3    3    0  502 -0.11586671690E+04  0.10776021495E+04 -0.40095105617E+03  0.16323357009E+04  0.46999998093E+01 0.  1.
</event>
<event>
 5   0  0.5317728E-07  0.3201476E+04  0.7818609E-02  0.8188427E-01
        1   -1    0    0  501    0  0.00000000000E+00  0.00000000000E+00  0.23776156156E+04  0.23776156156E+04  0.50400001928E-02 0. -1.
       -1   -1    0    0    0  501  0.00000000000E+00  0.00000000000E+00 -0.10777025001E+04  0.10777025001E+04  0.50400001928E-02 0.  1.
    10030    2    1    2    0    0  0.00000000000E+00  0.00000000000E+00  0.12999131156E+04  0.34553181157E+04  0.32014760928E+04 0.  0.
        2    1    3    3  502    0  0.20885152687E+03 -0.15046253271E+03 -0.10552191752E+04  0.10861608729E+04  0.25500000920E-02 0.  1.
       -2    1    3    3    0  502 -0.20885152687E+03  0.15046253271E+03  0.23551322908E+04  0.23691572428E+04  0.25500000920E-02 0. -1.
</event>
<event>
 5   0  0.5281187E-07  0.3182867E+04  0.7818609E-02  0.8193357E-01
        1   -1    0    0  501    0  0.00000000000E+00  0.00000000000E+00  0.14098697126E+04  0.14098697126E+04  0.50400001928E-02 0. -1.
       -1   -1    0    0    0  501  0.00000000000E+00  0.00000000000E+00 -0.17963795754E+04  0.17963795754E+04  0.50400001928E-02 0.  1.
    10030    2    1    2    0    0  0.00000000000E+00  0.00000000000E+00 -0.38650986277E+03  0.32062492880E+04  0.31828673586E+04 0.  0.
        5    1    3    3  502    0 -0.70260945601E+03  0.48077078427E+03  0.11611812841E+04  0.14398488320E+04  0.46999998093E+01 0. -1.
       -5    1    3    3    0  502  0.70260945601E+03 -0.48077078427E+03 -0.15476911468E+04  0.17664004559E+04  0.46999998093E+01 0.  1.
</event>
<event>
 5   0  0.5281187E-07  0.3057154E+04  0.7818609E-02  0.8227596E-01
       -1   -1    0    0    0  501  0.00000000000E+00  0.00000000000E+00  0.12468437364E+04  0.12468437364E+04  0.50400001928E-02 0.  1.
        1   -1    0    0  501    0  0.00000000000E+00  0.00000000000E+00 -0.18739701302E+04  0.18739701302E+04  0.50400001928E-02 0. -1.
    10030    2    1    2    0    0  0.00000000000E+00  0.00000000000E+00 -0.62712639383E+03  0.31208138666E+04  0.30571541793E+04 0.  0.
        5    1    3    3  502    0  0.16684537489E+03  0.99388089799E+03  0.85966832147E+03  0.13246464930E+04  0.46999998093E+01 0.  1.
       -5    1    3    3    0  502 -0.16684537489E+03 -0.99388089799E+03 -0.14867947153E+04  0.17961673736E+04  0.46999998093E+01 0. -1.
</event>
<event>
 5   0  0.1493485E-06  0.3232920E+04  0.7818609E-02  0.8180177E-01
        2   -1    0    0  501    0  0.00000000000E+00  0.00000000000E+00  0.14037864660E+04  0.14037864660E+04  0.25500000920E-02 0.  1.
       -2   -1    0    0    0  501  0.00000000000E+00  0.00000000000E+00 -0.18613540246E+04  0.18613540246E+04  0.25500000920E-02 0. -1.
    10030    2    1    2    0    0  0.00000000000E+00  0.00000000000E+00 -0.45756755857E+03  0.32651404906E+04  0.32329204062E+04 0.  0.
        2    1    3    3  502    0  0.73130210668E+03  0.12296380679E+04  0.53113179132E+03  0.15260778254E+04  0.25500000920E-02 0.  1.
       -2    1    3    3    0  502 -0.73130210668E+03 -0.12296380679E+04 -0.98869934989E+03  0.17390626653E+04  0.25500000920E-02 0. -1.
</event>
<event>
 5   0  0.1493485E-06  0.3186990E+04  0.7818609E-02  0.8192261E-01
        2   -1    0    0  501    0  0.00000000000E+00  0.00000000000E+00  0.19077770832E+04  0.19077770832E+04  0.25500000920E-02 0.  1.
       -2   -1    0    0    0  501  0.00000000000E+00  0.00000000000E+00 -0.13309871361E+04  0.13309871361E+04  0.25500000920E-02 0. -1.
    10030    2    1    2    0    0  0.00000000000E+00  0.00000000000E+00  0.57678994707E+03  0.32387642193E+04  0.31869902769E+04 0.  0.
        2    1    3    3  502    0  0.76676175562E+03 -0.94204700011E+03  0.13365823350E+04  0.18060532879E+04  0.25500000920E-02 0.  1.
       -2    1    3    3    0  502 -0.76676175562E+03  0.94204700011E+03 -0.75979238794E+03  0.14327109315E+04  0.25500000920E-02 0. -1.
</event>
<event>
 5   0  0.1556396E-06  0.3200879E+04  0.7818609E-02  0.8188585E-01
       -2   -1    0    0    0  501  0.00000000000E+00  0.00000000000E+00  0.19149965369E+04  0.19149965369E+04  0.25500000920E-02 0. -1.
        2   -1    0    0  501    0  0.00000000000E+00  0.00000000000E+00 -0.13375513750E+04  0.13375513750E+04  0.25500000920E-02 0.  1.
    10030    2    1    2    0    0  0.00000000000E+00  0.00000000000E+00  0.57744516194E+03  0.32525479119E+04  0.32008787863E+04 0.  0.
        3    1    3    3  502    0  0.24832160331E+03 -0.15300759492E+04 -0.11596515837E+03  0.15544272120E+04  0.10100000352E+00 0.  1.
       -3    1    3    3    0  502 -0.24832160331E+03  0.15300759492E+04  0.69341032031E+03  0.16981207000E+04  0.10100000352E+00 0. -1.
</event>
<event>
 5   0  0.1508771E-06  0.3185162E+04  0.7818609E-02  0.8192747E-01
       -2   -1    0    0    0  501  0.00000000000E+00  0.00000000000E+00  0.89673970600E+03  0.89673970600E+03  0.25500000920E-02 0. -1.
        2   -1    0    0  501    0  0.00000000000E+00  0.00000000000E+00 -0.28283728064E+04  0.28283728064E+04  0.25500000920E-02 0.  1.
    10030    2    1    2    0    0  0.00000000000E+00  0.00000000000E+00 -0.19316331004E+04  0.37251125124E+04  0.31851619732E+04 0.  0.
        4    1    3    3  502    0  0.15458613398E+04  0.37612409770E+03 -0.10497940512E+04  0.19061022485E+04  0.12699999809E+01 0.  1.
       -4    1    3    3    0  502 -0.15458613398E+04 -0.37612409770E+03 -0.88183904918E+03  0.18190102639E+04  0.12699999809E+01 0. -1.
</event>
<event>
 5   0  0.5370912E-07  0.3225197E+04  0.7818609E-02  0.8182194E-01
        1   -1    0    0  501    0  0.00000000000E+00  0.00000000000E+00  0.19121164521E+04  0.19121164521E+04  0.50400001928E-02 0. -1.
       -1   -1    0    0    0  501  0.00000000000E+00  0.00000000000E+00 -0.13599973980E+04  0.13599973981E+04  0.50400001928E-02 0.  1.
    10030    2    1    2    0    0  0.00000000000E+00  0.00000000000E+00  0.55211905410E+03  0.32721138502E+04  0.32251966760E+04 0.  0.
        1    1    3    3  502    0 -0.47747314295E+03  0.84407784820E+03  0.15832219873E+04  0.18566205528E+04  0.50400001928E-02 0. -1.
       -1    1    3    3    0  502  0.47747314295E+03 -0.84407784820E+03 -0.10311029332E+04  0.14154932974E+04  0.50400001928E-02 0.  1.
</event>
<event>
 5   0  0.1508771E-06  0.3206300E+04  0.7818609E-02  0.8187155E-01
        2   -1    0    0  501    0  0.00000000000E+00  0.00000000000E+00  0.12615195558E+04  0.12615195558E+04  0.25500000920E-02 0.  1.
       -2   -1    0    0    0  501  0.00000000000E+00  0.00000000000E+00 -0.20372968915E+04  0.20372968915E+04  0.25500000920E-02 0. -1.
    10030    2    1    2    0    0  0.00000000000E+00  0.00000000000E+00 -0.77577733573E+03  0.32988164473E+04  0.32062999670E+04 0.  0.
        4    1    3    3  502    0 -0.88278077201E+03  0.64963431203E+03  0.81581036380E+03  0.13663362666E+04  0.12699999809E+01 0.  1.
       -4    1    3    3    0  502  0.88278077201E+03 -0.64963431203E+03 -0.15915876995E+04  0.19324801807E+04  0.12699999809E+01 0. -1.
</event>
<event>
 5   0  0.5233813E-07  0.3172724E+04  0.7818609E-02  0.8196058E-01
        1   -1    0    0  501    0  0.00000000000E+00  0.00000000000E+00  0.20699865157E+04  0.20699865157E+04  0.50400001928E-02 0. -1.
       -1   -1    0    0    0  501  0.00000000000E+00  0.00000000000E+00 -0.12157299647E+04  0.12157299647E+04  0.50400001928E-02 0.  1.
    10030    2    1    2    0    0  0.00000000000E+00  0.00000000000E+00  0.85425655098E+03  0.32857164804E+04  0.31727241504E+04 0.  0.
        4    1    3    3  502    0  0.17695529516E+03 -0.75833731271E+03  0.18584326685E+04  0.20149844299E+04  0.12699999809E+01 0. -1.
       -4    1    3    3    0  502 -0.17695529516E+03  0.75833731271E+03 -0.10041761175E+04  0.12707320505E+04  0.12699999809E+01 0.  1.
</event>
<event>
 5   0  0.1538349E-06  0.3205421E+04  0.7818609E-02  0.8187387E-01
       -2   -1    0    0    0  501  0.00000000000E+00  0.00000000000E+00  0.12251678254E+04  0.12251678255E+04  0.25500000920E-02 0.  1.
        2   -1    0    0  501    0  0.00000000000E+00  0.00000000000E+00 -0.20965956156E+04  0.20965956156E+04  0.25500000920E-02 0. -1.
    10030    2    1    2    0    0  0.00000000000E+00  0.00000000000E+00 -0.87142779016E+03  0.33217634411E+04  0.32054213397E+04 0.  0.
        1    1    3    3  502    0 -0.89394452093E+03 -0.60519302382E+02  0.94138277818E+03  0.12996156846E+04  0.50400001928E-02 0.  1.
       -1    1    3    3    0  502  0.89394452093E+03  0.60519302382E+02 -0.18128105683E+04  0.20221477565E+04  0.50400001928E-02 0. -1.
</event>
<event>
 5   0  0.5177039E-07  0.3196996E+04  0.7818609E-02  0.8189611E-01
       -1   -1    0    0    0  501  0.00000000000E+00  0.00000000000E+00  0.10878616856E+04  0.10878616856E+04  0.50400001928E-02 0.  1.
        1   -1    0    0  501    0  0.00000000000E+00  0.00000000000E+00 -0.23488247384E+04  0.23488247384E+04  0.50400001928E-02 0. -1.
    10030    2    1    2    0    0  0.00000000000E+00  0.00000000000E+00 -0.12609630528E+04  0.34366864240E+04  0.31969963648E+04 0.  0.
        3    1    3    3  502    0  0.15885906876E+04  0.57980175398E+02 -0.44991683367E+03  0.16520917773E+04  0.10100000352E+00 0.  1.
       -3    1    3    3    0  502 -0.15885906876E+04 -0.57980175398E+02 -0.81104621912E+03  0.17845946467E+04  0.10100000352E+00 0. -1.
</event>
<event>
 5   0  0.1556396E-06  0.3208901E+04  0.7818609E-02  0.8186470E-01
        2   -1    0    0  501    0  0.00000000000E+00  0.00000000000E+00  0.14140724398E+04  0.14140724398E+04  0.25500000920E-02 0.  1.
       -2   -1    0    0    0  501  0.00000000000E+00  0.00000000000E+00 -0.18204597691E+04  0.18204597691E+04  0.25500000920E-02 0. -1.
    10030    2    1    2    0    0  0.00000000000E+00  0.00000000000E+00 -0.40638732932E+03  0.32345322089E+04  0.32089013617E+04 0.  0.
        3    1    3    3  502    0 -0.65202159249E+03 -0.11886500796E+03  0.12696415076E+04  0.14322187735E+04  0.10100000352E+00 0.  1.
       -3    1    3    3    0  502  0.65202159249E+03  0.11886500796E+03 -0.16760288369E+04  0.18023134354E+04  0.10100000352E+00 0. -1.
</event>
<event>
 5   0  0.5281187E-07  0.3216444E+04  0.7818609E-02  0.8184488E-01
        1   -1    0    0  501    0  0.00000000000E+00  0.00000000000E+00  0.21372374110E+04  0.21372374110E+04  0.50400001928E-02 0. -1.
       -1   -1    0    0    0  501  0.00000000000E+00  0.00000000000E+00 -0.12101499861E+04  0.12101499861E+04  0.50400001928E-02 0.  1.
    10030    2    1    2    0    0  0.00000000000E+00  0.00000000000E+00  0.92708742490E+03  0.33473873970E+04  0.32164438892E+04 0.  0.
        5    1    3    3  502    0 -0.29594645393E+02  0.58947324576E+02  0.21358219778E+04  0.21368453947E+04  0.46999998093E+01 0. -1.
       -5    1    3    3    0  502  0.29594645393E+02 -0.58947324576E+02 -0.12087345529E+04  0.12105420023E+04  0.46999998093E+01 0.  1.
</event>
<event>
 5   0  0.1538349E-06  0.3220487E+04  0.7818609E-02  0.8183427E-01
       -2   -1    0    0    0  501  0.00000000000E+00  0.00000000000E+00  0.91560836115E+03  0.91560836115E+03  0.25500000920E-02 0. -1.
        2   -1    0    0  501    0  0.00000000000E+00  0.00000000000E+00 -0.28318708938E+04  0.28318708938E+04  0.25500000920E-02 0.  1.
    10030    2    1    2    0    0  0.00000000000E+00  0.00000000000E+00 -0.19162625327E+04  0.37474792550E+04  0.32204873346E+04 0.  0.
        1    1    3    3  502    0  0.13308059173E+04  0.49653772190E+03 -0.18407258730E+04  0.23250517926E+04  0.50400001928E-02 0.  1.
       -1    1    3    3    0  502 -0.13308059173E+04 -0.49653772190E+03 -0.75536659711E+02  0.14224274624E+04  0.50400001928E-02 0. -1.
</event>
<event>
 5   0  0.1556396E-06  0.3202791E+04  0.7818609E-02  0.8188080E-01
       -2   -1    0    0    0  501  0.00000000000E+00  0.00000000000E+00  0.12768630983E+04  0.12768630983E+04  0.25500000920E-02 0.  1.
        2   -1    0    0  501    0  0.00000000000E+00  0.00000000000E+00 -0.20084126121E+04  0.20084126121E+04  0.25500000920E-02 0. -1.
    10030    2    1    2    0    0  0.00000000000E+00  0.00000000000E+00 -0.73154951382E+03  0.32852757104E+04  0.32027912517E+04 0.  0.
        3    1    3    3  502    0 -0.89311877630E+03 -0.15790416758E+03 -0.17195651910E+04  0.19440934471E+04  0.10100000352E+00 0. -1.
       -3    1    3    3    0  502  0.89311877630E+03  0.15790416758E+03  0.98801567719E+03  0.13411822633E+04  0.10100000352E+00 0.  1.
</event>
<event>
 5   0  0.4995625E-07  0.3209338E+04  0.7818609E-02  0.8186355E-01
       -3   -1    0    0    0  501  0.00000000000E+00  0.00000000000E+00  0.14567338463E+04  0.14567338498E+04  0.10100000352E+00 0. -1.
        3   -1    0    0  501    0  0.00000000000E+00  0.00000000000E+00 -0.17676276999E+04  0.17676277028E+04  0.10100000352E+00 0.  1.
    10030    2    1    2    0    0  0.00000000000E+00  0.00000000000E+00 -0.31089385358E+03  0.32243615526E+04  0.32093383171E+04 0.  0.
        2    1    3    3  502    0  0.30796435209E+03 -0.33776951803E+03  0.13899449136E+04  0.14631736576E+04  0.25500000920E-02 0. -1.
       -2    1    3    3    0  502 -0.30796435209E+03  0.33776951803E+03 -0.17008387672E+04  0.17611878950E+04  0.25500000920E-02 0.  1.
</event>
<event>
 5   0  0.5233813E-07  0.3190980E+04  0.7818609E-02  0.8191203E-01
        1   -1    0    0  501    0  0.00000000000E+00  0.00000000000E+00  0.95932343442E+03  0.95932343443E+03  0.50400001928E-02 0.  1.
       -1   -1    0    0    0  501  0.00000000000E+00  0.00000000000E+00 -0.26535253777E+04  0.26535253777E+04  0.50400001928E-02 0. -1.
    10030    2    1    2    0    0  0.00000000000E+00  0.00000000000E+00 -0.16942019433E+04  0.36128488122E+04  0.31909804629E+04 0.  0.
        4    1    3    3  502    0  0.32429933593E+03  0.15297927522E+03 -0.26073142503E+04  0.26318552260E+04  0.12699999809E+01 0. -1.
       -4    1    3    3    0  502 -0.32429933593E+03 -0.15297927522E+03  0.91311230701E+03  0.98099358614E+03  0.12699999809E+01 0.  1.
</event>
<event>
 5   0  0.5317728E-07  0.3209041E+04  0.7818609E-02  0.8186434E-01
       -1   -1    0    0    0  501  0.00000000000E+00  0.00000000000E+00  0.14932496957E+04  0.14932496957E+04  0.50400001928E-02 0. -1.
        1   -1    0    0  501    0  0.00000000000E+00  0.00000000000E+00 -0.17240823936E+04  0.17240823936E+04  0.50400001928E-02 0.  1.
    10030    2    1    2    0    0  0.00000000000E+00  0.00000000000E+00 -0.23083269796E+03  0.32173320893E+04  0.32090406726E+04 0.  0.
        2    1    3    3  502    0  0.91054615037E+02 -0.95150542633E+03 -0.14074788424E+04  0.17013671594E+04  0.25500000920E-02 0.  1.
       -2    1    3    3    0  502 -0.91054615037E+02  0.95150542633E+03  0.11766461445E+04  0.15159649299E+04  0.25500000920E-02 0. -1.
</event>
<event>
 5   0  0.1508771E-06  0.3199644E+04  0.7818609E-02  0.8188911E-01
        2   -1    0    0  501    0  0.00000000000E+00  0.00000000000E+00  0.22452040439E+04  0.22452040439E+04  0.25500000920E-02 0.  1.
       -2   -1    0    0    0  501  0.00000000000E+00  0.00000000000E+00 -0.11399544316E+04  0.11399544316E+04  0.25500000920E-02 0. -1.
    10030    2    1    2    0    0  0.00000000000E+00  0.00000000000E+00  0.11052496123E+04  0.33851584755E+04  0.31996439175E+04 0.  0.
        4    1    3    3  502    0 -0.46962552572E+03  0.11322694523E+04 -0.53501050790E+03  0.13374677953E+04  0.12699999809E+01 0. -1.
       -4    1    3    3    0  502  0.46962552572E+03 -0.11322694523E+04  0.16402601202E+04  0.20476906802E+04  0.12699999809E+01 0.  1.
</event>
<event>
 5   0  0.1538349E-06  0.3197740E+04  0.7818609E-02  0.8189414E-01
       -2   -1    0    0    0  501  0.00000000000E+00  0.00000000000E+00  0.10913775265E+04  0.10913775265E+04  0.25500000920E-02 0. -1.
        2   -1    0    0  501    0  0.00000000000E+00  0.00000000000E+00 -0.23423467859E+04  0.23423467859E+04  0.25500000920E-02 0.  1.
    10030    2    1    2    0    0  0.00000000000E+00  0.00000000000E+00 -0.12509692595E+04  0.34337243124E+04  0.31977396025E+04 0.  0.
        1    1    3    3  502    0  0.10772171821E+04  0.75800106900E+03  0.34772307010E+03  0.13623045957E+04  0.50400001928E-02 0. -1.
       -1    1    3    3    0  502 -0.10772171821E+04 -0.75800106900E+03 -0.15986923296E+04  0.20714197167E+04  0.50400001928E-02 0.  1.
</event>
<event>
 5   0  0.5370912E-07  0.3193626E+04  0.7818609E-02  0.8190503E-01
        1   -1    0    0  501    0  0.00000000000E+00  0.00000000000E+00  0.32592387973E+04  0.32592387973E+04  0.50400001928E-02 0. -1.
       -1   -1    0    0    0  501  0.00000000000E+00  0.00000000000E+00 -0.78233342298E+03  0.78233342300E+03  0.50400001928E-02 0.  1.
    10030    2    1    2    0    0  0.00000000000E+00  0.00000000000E+00  0.24769053743E+04  0.40415722203E+04  0.31936258044E+04 0.  0.
        1    1    3    3  502    0 -0.87010906678E+03  0.52119770458E+03  0.27992322637E+04  0.29773206245E+04  0.50400001928E-02 0. -1.
       -1    1    3    3    0  502  0.87010906678E+03 -0.52119770458E+03 -0.32232688938E+03  0.10642515957E+04  0.50400001928E-02 0.  1.
</event>
<event>
 5   0  0.1572769E-06  0.3204781E+04  0.7818609E-02  0.8187556E-01
       -2   -1    0    0    0  501  0.00000000000E+00  0.00000000000E+00  0.20824807803E+04  0.20824807803E+04  0.25500000920E-02 0.  1.
        2   -1    0    0  501    0  0.00000000000E+00  0.00000000000E+00 -0.12329787421E+04  0.12329787422E+04  0.25500000920E-02 0. -1.
    10030    2    1    2    0    0  0.00000000000E+00  0.00000000000E+00  0.84950203813E+03  0.33154595224E+04  0.32047805123E+04 0.  0.
        5    1    3    3  502    0 -0.99743032329E+03  0.10078016988E+04  0.11969200514E+04  0.18555784040E+04  0.46999998093E+01 0.  1.
       -5    1    3    3    0  502  0.99743032329E+03 -0.10078016988E+04 -0.34741801327E+03  0.14598811184E+04  0.46999998093E+01 0. -1.
</event>
<event>
 5   0  0.5233813E-07  0.3205740E+04  0.7818609E-02  0.8187303E-01
       -1   -1    0    0    0  501  0.00000000000E+00  0.00000000000E+00  0.15010456056E+04  0.15010456056E+04  0.50400001928E-02 0.  1.
        1   -1    0    0  501    0  0.00000000000E+00  0.00000000000E+00 -0.17116016497E+04  0.17116016497E+04  0.50400001928E-02 0. -1.
    10030    2    1    2    0    0  0.00000000000E+00  0.00000000000E+00 -0.21055604409E+03  0.32126472553E+04  0.32057399363E+04 0.  0.
        4    1    3    3  502    0 -0.10266551578E+04 -0.87170157589E+03  0.76567803438E+03  0.15492414000E+04  0.12699999809E+01 0.  1.
       -4    1    3    3    0  502  0.10266551578E+04  0.87170157589E+03 -0.97623407847E+03  0.16634058552E+04  0.12699999809E+01 0. -1.
</event>
<event>
 5   0  0.5177039E-07  0.3194853E+04  0.7818609E-02  0.8190178E-01
       -1   -1    0    0    0  501  0.00000000000E+00  0.00000000000E+00  0.88299476422E+03  0.88299476424E+03  0.50400001928E-02 0.  1.
        1   -1    0    0  501    0  0.00000000000E+00  0.00000000000E+00 -0.28899060238E+04  0.28899060238E+04  0.50400001928E-02 0. -1.
    10030    2    1    2    0    0  0.00000000000E+00  0.00000000000E+00 -0.20069112596E+04  0.37729007880E+04  0.31948532912E+04 0.  0.
        3    1    3    3  502    0  0.14506012353E+04 -0.42235075479E+03 -0.39079515768E+03  0.15605591849E+04  0.10100000352E+00 0. -1.
       -3    1    3    3    0  502 -0.14506012353E+04  0.42235075479E+03 -0.16161161019E+04  0.22123416032E+04  0.10100000352E+00 0.  1.
</event>
<event>
 5   0  0.5317728E-07  0.3186745E+04  0.7818609E-02  0.8192327E-01
        1   -1    0    0  501    0  0.00000000000E+00  0.00000000000E+00  0.74452696501E+03  0.74452696503E+03  0.50400001928E-02 0.  1.
       -1   -1    0    0    0  501  0.00000000000E+00  0.00000000000E+00 -0.34099978155E+04  0.34099978155E+04  0.50400001928E-02 0. -1.
    10030    2    1    2    0    0  0.00000000000E+00  0.00000000000E+00 -0.26654708505E+04  0.41545247805E+04  0.31867446238E+04 0.  0.
        2    1    3    3  502    0  0.46297946848E+03  0.38720432628E+03 -0.32552055712E+04  0.33106858034E+04  0.25500000920E-02 0. -1.
       -2    1    3    3    0  502 -0.46297946848E+03 -0.38720432628E+03  0.58973472066E+03  0.84383897710E+03  0.25500000920E-02 0.  1.
</event>
<event>
 5   0  0.1508771E-06  0.3187786E+04  0.7818609E-02  0.8192050E-01
       -2   -1    0    0    0  501  0.00000000000E+00  0.00000000000E+00  0.14233824426E+04  0.14233824426E+04  0.25500000920E-02 0. -1.
        2   -1    0    0  501    0  0.00000000000E+00  0.00000000000E+00 -0.17848294722E+04  0.17848294722E+04  0.25500000920E-02 0.  1.
    10030    2    1    2    0    0  0.00000000000E+00  0.00000000000E+00 -0.36144702969E+03  0.32082119148E+04  0.31877860240E+04 0.  0.
        4    1    3    3  502    0 -0.77665792867E+03  0.12278606398E+04  0.47895650569E+03  0.15297843757E+04  0.12699999809E+01 0. -1.
       -4    1    3    3    0  502  0.77665792867E+03 -0.12278606398E+04 -0.84040353538E+03  0.16784275391E+04  0.12699999809E+01 0.  1.
</event>
<event>
 5   0  0.5370912E-07  0.3236159E+04  0.7818609E-02  0.8179332E-01
        1   -1    0    0  501    0  0.00000000000E+00  0.00000000000E+00  0.17295519434E+04  0.17295519434E+04  0.50400001928E-02 0. -1.
       -1   -1    0    0    0  501  0.00000000000E+00  0.00000000000E+00 -0.15137914538E+04  0.15137914538E+04  0.50400001928E-02 0.  1.
    10030    2    1    2    0    0  0.00000000000E+00  0.00000000000E+00  0.21576048954E+03  0.32433433972E+04  0.32361588038E+04 0.  0.
        1    1    3    3  502    0  0.40967086524E+03  0.11218291852E+04  0.12020228027E+04  0.16944585438E+04  0.50400001928E-02 0.  1.
       -1    1    3    3    0  502 -0.40967086524E+03 -0.11218291852E+04 -0.98626231316E+03  0.15488848534E+04  0.50400001928E-02 0. -1.
</event>
<event>
 5   0  0.5177039E-07  0.3281421E+04  0.7818609E-02  0.8167639E-01
       -1   -1    0    0    0  501  0.00000000000E+00  0.00000000000E+00  0.18705204011E+04  0.18705204011E+04  0.50400001928E-02 0.  1.
        1   -1    0    0  501    0  0.00000000000E+00  0.00000000000E+00 -0.14391345162E+04  0.14391345162E+04  0.50400001928E-02 0. -1.
    10030    2    1    2    0    0  0.00000000000E+00  0.00000000000E+00  0.43138588484E+03  0.33096549173E+04  0.32814207122E+04 0.  0.
        3    1    3    3  502    0 -0.45051330636E+03  0.13103043214E+04  0.11019288971E+04  0.17703409158E+04  0.10100000352E+00 0.  1.
       -3    1    3    3    0  502  0.45051330636E+03 -0.13103043214E+04 -0.67054301224E+03  0.15393140015E+04  0.10100000352E+00 0. -1.
</event>
<event>
 5   0  0.1493485E-06  0.3192328E+04  0.7818609E-02  0.8190846E-01
       -2   -1    0    0    0  501  0.00000000000E+00  0.00000000000E+00  0.11286120675E+04  0.11286120675E+04  0.25500000920E-02 0. -1.
        2   -1    0    0  501    0  0.00000000000E+00  0.00000000000E+00 -0.22574087523E+04  0.22574087523E+04  0.25500000920E-02 0.  1.
    10030    2    1    2    0    0  0.00000000000E+00  0.00000000000E+00 -0.11287966847E+04  0.33860208198E+04  0.31923275265E+04 0.  0.
        2    1    3    3  502    0  0.83233440996E+03  0.88393620517E+03 -0.16634205332E+04  0.20593910884E+04  0.25500000920E-02 0.  1.
       -2    1    3    3    0  502 -0.83233440996E+03 -0.88393620517E+03  0.53462384848E+03  0.13266297314E+04  0.25500000920E-02 0. -1.
</event>
<event>
 5   0  0.1508771E-06  0.3197302E+04  0.7818609E-02  0.8189530E-01
        2   -1    0    0  501    0  0.00000000000E+00  0.00000000000E+00  0.17149731739E+04  0.17149731739E+04  0.25500000920E-02 0.  1.
       -2   -1    0    0    0  501  0.00000000000E+00  0.00000000000E+00 -0.14902190557E+04  0.14902190557E+04  0.25500000920E-02 0. -1.
    10030    2    1    2    0    0  0.00000000000E+00  0.00000000000E+00  0.22475411820E+03  0.32051922295E+04  0.31973024277E+04 0.  0.
        4    1    3    3  502    0  0.10963739808E+04 -0.11461650904E+04  0.31275469549E+03  0.16166469722E+04  0.12699999809E+01 0.  1.
       -4    1    3    3    0  502 -0.10963739808E+04  0.11461650904E+04 -0.88000577296E+02  0.15885452574E+04  0.12699999809E+01 0. -1.
</event>
<event>
 5   0  0.5281187E-07  0.3188977E+04  0.7818609E-02  0.8191734E-01
       -1   -1    0    0    0  501  0.00000000000E+00  0.00000000000E+00  0.95669549582E+03  0.95669549584E+03  0.50400001928E-02 0. -1.
        1   -1    0    0  501    0  0.00000000000E+00  0.00000000000E+00 -0.26574748288E+04  0.26574748288E+04  0.50400001928E-02 0.  1.
    10030    2    1    2    0    0  0.00000000000E+00  0.00000000000E+00 -0.17007793330E+04  0.36141703246E+04  0.31889773903E+04 0.  0.
        5    1    3    3  502    0 -0.17248343328E+03  0.13506985139E+04  0.89821888044E+02  0.13646344096E+04  0.46999998093E+01 0. -1.
       -5    1    3    3    0  502  0.17248343328E+03 -0.13506985139E+04 -0.17906012210E+04  0.22495359150E+04  0.46999998093E+01 0.  1.
</event>
<event>
 5   0  0.1508771E-06  0.3282186E+04  0.7818609E-02  0.8167443E-01
       -2   -1    0    0    0  501  0.00000000000E+00  0.00000000000E+00  0.16899214226E+04  0.16899214226E+04  0.25500000920E-02 0.  1.
        2   -1    0    0  501    0  0.00000000000E+00  0.00000000000E+00 -0.15936758357E+04  0.15936758358E+04  0.25500000920E-02 0. -1.
    10030    2    1    2    0    0  0.00000000000E+00  0.00000000000E+00  0.96245586843E+02  0.32835972583E+04  0.32821864271E+04 0.  0.
        4    1    3    3  502    0  0.15921337347E+04 -0.32475887306E+03  0.27806320393E+03  0.16485384173E+04  0.12699999809E+01 0.  1.
       -4    1    3    3    0  502 -0.15921337347E+04  0.32475887306E+03 -0.18181761709E+03  0.16350588411E+04  0.12699999809E+01 0. -1.
</event>
<event>
 5   0  0.5317728E-07  0.3194461E+04  0.7818609E-02  0.8190282E-01
       -1   -1    0    0    0  501  0.00000000000E+00  0.00000000000E+00  0.16327543572E+04  0.16327543572E+04  0.50400001928E-02 0.  1.
        1   -1    0    0  501    0  0.00000000000E+00  0.00000000000E+00 -0.15624795078E+04  0.15624795078E+04  0.50400001928E-02 0. -1.
    10030    2    1    2    0    0  0.00000000000E+00  0.00000000000E+00  0.70274849370E+02  0.31952338650E+04  0.31944609714E+04 0.  0.
        2    1    3    3  502    0 -0.23551072196E+03  0.14249959614E+04  0.71726021816E+03  0.16126193012E+04  0.25500000920E-02 0. -1.
       -2    1    3    3    0  502  0.23551072196E+03 -0.14249959614E+04 -0.64698536879E+03  0.15826145638E+04  0.25500000920E-02 0.  1.
</event>
<event>
 5   0  0.1572769E-06  0.3205443E+04  0.7818609E-02  0.8187381E-01
        2   -1    0    0  501    0  0.00000000000E+00  0.00000000000E+00  0.13480479025E+04  0.13480479025E+04  0.25500000920E-02 0. -1.
       -2   -1    0    0    0  501  0.00000000000E+00  0.00000000000E+00 -0.19055078422E+04  0.19055078422E+04  0.25500000920E-02 0.  1.
    10030    2    1    2    0    0  0.00000000000E+00  0.00000000000E+00 -0.55745993974E+03  0.32535557447E+04  0.32054427774E+04 0.  0.
        5    1    3    3  502    0  0.37911449638E+03 -0.15032809066E+04  0.13370944913E+03  0.15561110476E+04  0.46999998093E+01 0. -1.
       -5    1    3    3    0  502 -0.37911449638E+03  0.15032809066E+04 -0.69116938887E+03  0.16974446971E+04  0.46999998093E+01 0.  1.
</event>
<event>
 5   0  0.5233813E-07  0.3196216E+04  0.7818609E-02  0.8189817E-01
        1   -1    0    0  501    0  0.00000000000E+00  0.00000000000E+00  0.22047319813E+04  0.22047319813E+04  0.50400001928E-02 0. -1.
       -1   -1    0    0    0  501  0.00000000000E+00  0.00000000000E+00 -0.11583944252E+04  0.11583944252E+04  0.50400001928E-02 0.  1.
    10030    2    1    2    0    0  0.00000000000E+00  0.00000000000E+00  0.10463375560E+04  0.33631264065E+04  0.31962160354E+04 0.  0.
        4    1    3    3  502    0 -0.75645533503E+03  0.12257479119E+04  0.12516106887E+04  0.19081964119E+04  0.12699999809E+01 0. -1.
       -4    1    3    3    0  502  0.75645533503E+03 -0.12257479119E+04 -0.20527313266E+03  0.14549299946E+04  0.12699999809E+01 0.  1.
</event>
<event>
 5   0  0.1556396E-06  0.3194334E+04  0.7818609E-02  0.8190315E-01
        2   -1    0    0  501    0  0.00000000000E+00  0.00000000000E+00  0.82992047226E+03  0.82992047226E+03  0.25500000920E-02 0. -1.
       -2   -1    0    0    0  501  0.00000000000E+00  0.00000000000E+00 -0.30737198912E+04  0.30737198912E+04  0.25500000920E-02 0.  1.
    10030    2    1    2    0    0  0.00000000000E+00  0.00000000000E+00 -0.22437994189E+04  0.39036403634E+04  0.31943343993E+04 0.  0.
        3    1    3    3  502    0  0.65186402235E+03 -0.22776583175E+03  0.63808282614E+03  0.94018810935E+03  0.10100000352E+00 0. -1.
       -3    1    3    3    0  502 -0.65186402235E+03  0.22776583175E+03 -0.28818822451E+04  0.29634522541E+04  0.10100000352E+00 0.  1.
</event>
<event>
 5   0  0.5317728E-07  0.3213691E+04  0.7818609E-02  0.8185211E-01
       -1   -1    0    0    0  501  0.00000000000E+00  0.00000000000E+00  0.21764758611E+04  0.21764758611E+04  0.50400001928E-02 0. -1.
        1   -1    0    0  501    0  0.00000000000E+00  0.00000000000E+00 -0.11862994373E+04  0.11862994373E+04  0.50400001928E-02 0.  1.
    10030    2    1    2    0    0  0.00000000000E+00  0.00000000000E+00  0.99017642384E+03  0.33627752985E+04  0.32136907688E+04 0.  0.
        2    1    3    3  502    0 -0.81205132109E+03  0.13804361146E+04  0.63120295590E+03  0.17214669285E+04  0.25500000920E-02 0.  1.
       -2    1    3    3    0  502  0.81205132109E+03 -0.13804361146E+04  0.35897346795E+03  0.16413083699E+04  0.25500000920E-02 0. -1.
</event>
<event>
 5   0  0.1493485E-06  0.3162369E+04  0.7818609E-02  0.8198827E-01
       -2   -1    0    0    0  501  0.00000000000E+00  0.00000000000E+00  0.14621966303E+04  0.14621966303E+04  0.25500000920E-02 0.  1.
        2   -1    0    0  501    0  0.00000000000E+00  0.00000000000E+00 -0.17098548892E+04  0.17098548892E+04  0.25500000920E-02 0. -1.
    10030    2    1    2    0    0  0.00000000000E+00  0.00000000000E+00 -0.24765825887E+03  0.31720515195E+04  0.31623687687E+04 0.  0.
        2    1    3    3  502    0 -0.33188370078E+03 -0.57948142618E+03 -0.15614650933E+04  0.16982693401E+04  0.25500000920E-02 0. -1.
       -2    1    3    3    0  502  0.33188370078E+03  0.57948142618E+03  0.13138068344E+04  0.14737821794E+04  0.25500000920E-02 0.  1.
</event>
<event>
 5   0  0.4995625E-07  0.3200831E+04  0.7818609E-02  0.8188598E-01
        3   -1    0    0  501    0  0.00000000000E+00  0.00000000000E+00  0.15086147162E+04  0.15086147196E+04  0.10100000352E+00 0.  1.
       -3   -1    0    0    0  501  0.00000000000E+00  0.00000000000E+00 -0.16978023761E+04  0.16978023791E+04  0.10100000352E+00 0. -1.
    10030    2    1    2    0    0  0.00000000000E+00  0.00000000000E+00 -0.18918765991E+03  0.32064170987E+04  0.32008309296E+04 0.  0.
        1    1    3    3  502    0  0.40103393514E+03  0.91133406080E+03  0.11605780152E+04  0.15291498674E+04  0.50400001928E-02 0.  1.
       -1    1    3    3    0  502 -0.40103393514E+03 -0.91133406080E+03 -0.13497656751E+04  0.16772672313E+04  0.50400001928E-02 0. -1.
</event>
<event>
 5   0  0.1508771E-06  0.2998454E+04  0.7818609E-02  0.8244172E-01
        2   -1    0    0  501    0  0.00000000000E+00  0.00000000000E+00  0.18374859627E+04  0.18374859627E+04  0.25500000920E-02 0.  1.
       -2   -1    0    0    0  501  0.00000000000E+00  0.00000000000E+00 -0.12232374585E+04  0.12232374585E+04  0.25500000920E-02 0. -1.
    10030    2    1    2    0    0  0.00000000000E+00  0.00000000000E+00  0.61424850411E+03  0.30607234212E+04  0.29984540411E+04 0.  0.
        4    1    3    3  502    0  0.79359339754E+03 -0.69689432844E+03  0.13932837617E+04  0.17483401955E+04  0.12699999809E+01 0.  1.
       -4    1    3    3    0  502 -0.79359339754E+03  0.69689432844E+03 -0.77903525761E+03  0.13123832257E+04  0.12699999809E+01 0. -1.
</event>
<event>
 5   0  0.1572769E-06  0.3182704E+04  0.7818609E-02  0.8193400E-01
       -2   -1    0    0    0  501  0.00000000000E+00  0.00000000000E+00  0.99894529715E+03  0.99894529715E+03  0.25500000920E-02 0.  1.
        2   -1    0    0  501    0  0.00000000000E+00  0.00000000000E+00 -0.25350754089E+04  0.25350754089E+04  0.25500000920E-02 0. -1.
    10030    2    1    2    0    0  0.00000000000E+00  0.00000000000E+00 -0.15361301118E+04  0.35340207061E+04  0.31827042952E+04 0.  0.
        5    1    3    3  502    0  0.31015701587E+03  0.13617670266E+04  0.78868792677E+02  0.13988742566E+04  0.46999998093E+01 0. -1.
       -5    1    3    3    0  502 -0.31015701587E+03 -0.13617670266E+04 -0.16149989045E+04  0.21351464495E+04  0.46999998093E+01 0.  1.
</event>
<event>
 5   0  0.5233813E-07  0.3205870E+04  0.7818609E-02  0.8187269E-01
       -1   -1    0    0    0  501  0.00000000000E+00  0.00000000000E+00  0.10483312499E+04  0.10483312499E+04  0.50400001928E-02 0.  1.
        1   -1    0    0  501    0  0.00000000000E+00  0.00000000000E+00 -0.24509433799E+04  0.24509433799E+04  0.50400001928E-02 0. -1.
    10030    2    1    2    0    0  0.00000000000E+00  0.00000000000E+00 -0.14026121300E+04  0.34992746298E+04  0.32058699517E+04 0.  0.
        4    1    3    3  502    0 -0.60268311121E+03  0.54196085148E+03  0.80817343880E+03  0.11445935598E+04  0.12699999809E+01 0.  1.
       -4    1    3    3    0  502  0.60268311121E+03 -0.54196085148E+03 -0.22107855688E+04  0.23546810700E+04  0.12699999809E+01 0. -1.
</event>
<event>
 5   0  0.5317728E-07  0.3207653E+04  0.7818609E-02  0.8186799E-01
       -1   -1    0    0    0  501  0.00000000000E+00  0.00000000000E+00  0.94345236774E+03  0.94345236775E+03  0.50400001928E-02 0.  1.
        1   -1    0    0  501    0  0.00000000000E+00  0.00000000000E+00 -0.27264322644E+04  0.27264322644E+04  0.50400001928E-02 0. -1.
    10030    2    1    2    0    0  0.00000000000E+00  0.00000000000E+00 -0.17829798967E+04  0.36698846322E+04  0.32076527090E+04 0.  0.
        2    1    3    3  502    0 -0.25496398268E+03  0.15571740022E+03  0.91133607379E+03  0.95905577554E+03  0.25500000920E-02 0.  1.
       -2    1    3    3    0  502  0.25496398268E+03 -0.15571740022E+03 -0.26943159705E+04  0.27108288566E+04  0.25500000920E-02 0. -1.
</event>
<event>
 5   0  0.1572769E-06  0.3209391E+04  0.7818609E-02  0.8186341E-01
       -2   -1    0    0    0  501  0.00000000000E+00  0.00000000000E+00  0.20319801617E+04  0.20319801617E+04  0.25500000920E-02 0. -1.
        2   -1    0    0  501    0  0.00000000000E+00  0.00000000000E+00 -0.12672600937E+04  0.12672600937E+04  0.25500000920E-02 0.  1.
    10030    2    1    2    0    0  0.00000000000E+00  0.00000000000E+00  0.76472006791E+03  0.32992402554E+04  0.32093908270E+04 0.  0.
        5    1    3    3  502    0  0.39569336256E+02  0.68918334078E+03  0.18715303143E+04  0.19947900183E+04  0.46999998093E+01 0. -1.
       -5    1    3    3    0  502 -0.39569336256E+02 -0.68918334078E+03 -0.11068102464E+04  0.13044502371E+04  0.46999998093E+01 0.  1.
</event>
<event>
 5   0  0.5177039E-07  0.3165268E+04  0.7818609E-02  0.8198051E-01
        1   -1    0    0  501    0  0.00000000000E+00  0.00000000000E+00  0.18952738536E+04  0.18952738536E+04  0.50400001928E-02 0.  1.
       -1   -1    0    0    0  501  0.00000000000E+00  0.00000000000E+00 -0.13215661475E+04  0.13215661475E+04  0.50400001928E-02 0. -1.
    10030    2    1    2    0    0  0.00000000000E+00  0.00000000000E+00  0.57370770606E+03  0.32168400012E+04  0.31652676129E+04 0.  0.
        3    1    3    3  502    0  0.76067942008E+03 -0.13452497809E+04 -0.59878825093E+02  0.15465819206E+04  0.10100000352E+00 0. -1.
       -3    1    3    3    0  502 -0.76067942008E+03  0.13452497809E+04  0.63358653115E+03  0.16702580806E+04  0.10100000352E+00 0.  1.
</event>
<event>
 5   0  0.1538349E-06  0.3205033E+04  0.7818609E-02  0.8187489E-01
       -2   -1    0    0    0  501  0.00000000000E+00  0.00000000000E+00  0.14962897209E+04  0.14962897209E+04  0.25500000920E-02 0.  1.
        2   -1    0    0  501    0  0.00000000000E+00  0.00000000000E+00 -0.17162848259E+04  0.17162848259E+04  0.25500000920E-02 0. -1.
    10030    2    1    2    0    0  0.00000000000E+00  0.00000000000E+00 -0.21999510497E+03  0.32125745468E+04  0.32050331313E+04 0.  0.
        1    1    3    3  502    0 -0.33042340111E+03  0.85234022761E+03  0.12093045631E+04  0.15159422859E+04  0.50400001928E-02 0.  1.
       -1    1    3    3    0  502  0.33042340111E+03 -0.85234022761E+03 -0.14292996681E+04  0.16966322609E+04  0.50400001928E-02 0. -1.
</event>
<event>
 5   0  0.5370912E-07  0.3189933E+04  0.7818609E-02  0.8191481E-01
       -1   -1    0    0    0  501  0.00000000000E+00  0.00000000000E+00  0.16075778767E+04  0.16075778767E+04  0.50400001928E-02 0.  1.
        1   -1    0    0  501    0  0.00000000000E+00  0.00000000000E+00 -0.15824537322E+04  0.15824537322E+04  0.50400001928E-02 0. -1.
    10030    2    1    2    0    0  0.00000000000E+00  0.00000000000E+00  0.25124144438E+02  0.31900316089E+04  0.31899326706E+04 0.  0.
        1    1    3    3  502    0 -0.48637561261E+03  0.12093568872E+04 -0.90660314665E+03  0.15877766161E+04  0.50400001928E-02 0. -1.
       -1    1    3    3    0  502  0.48637561261E+03 -0.12093568872E+04  0.93172729109E+03  0.16022549928E+04  0.50400001928E-02 0.  1.
</event>
<event>
 5   0  0.1538349E-06  0.3173649E+04  0.7818609E-02  0.8195811E-01
       -2   -1    0    0    0  501  0.00000000000E+00  0.00000000000E+00  0.89143852008E+03  0.89143852009E+03  0.25500000920E-02 0. -1.
        2   -1    0    0  501    0  0.00000000000E+00  0.00000000000E+00 -0.28246611659E+04  0.28246611659E+04  0.25500000920E-02 0.  1.
    10030    2    1    2    0    0  0.00000000000E+00  0.00000000000E+00 -0.19332226458E+04  0.37160996860E+04  0.31736488586E+04 0.  0.
        1    1    3    3  502    0 -0.11848986393E+04 -0.19334617921E+03  0.24835598603E+03  0.12259886729E+04  0.50400001928E-02 0. -1.
       -1    1    3    3    0  502  0.11848986393E+04  0.19334617921E+03 -0.21815786318E+04  0.24901110130E+04  0.50400001928E-02 0.  1.
</event>
<event>
 5   0  0.1538349E-06  0.3197820E+04  0.7818609E-02  0.8189393E-01
       -2   -1    0    0    0  501  0.00000000000E+00  0.00000000000E+00  0.12142313939E+04  0.12142313939E+04  0.25500000920E-02 0.  1.
        2   -1    0    0  501    0  0.00000000000E+00  0.00000000000E+00 -0.21054584481E+04  0.21054584481E+04  0.25500000920E-02 0. -1.
    10030    2    1    2    0    0  0.00000000000E+00  0.00000000000E+00 -0.89122705417E+03  0.33196898420E+04  0.31978203491E+04 0.  0.
        1    1    3    3  502    0  0.65911773816E+03  0.14400723212E+04 -0.67368910409E+03  0.17210756788E+04  0.50400001928E-02 0. -1.
       -1    1    3    3    0  502 -0.65911773816E+03 -0.14400723212E+04 -0.21753795008E+03  0.15986141632E+04  0.50400001928E-02 0.  1.
</event>
<event>
 5   0  0.1572769E-06  0.3223282E+04  0.7818609E-02  0.8182695E-01
       -2   -1    0    0    0  501  0.00000000000E+00  0.00000000000E+00  0.12396136551E+04  0.12396136551E+04  0.25500000920E-02 0.  1.
        2   -1    0    0  501    0  0.00000000000E+00  0.00000000000E+00 -0.20953192623E+04  0.20953192623E+04  0.25500000920E-02 0. -1.
    10030    2    1    2    0    0  0.00000000000E+00  0.00000000000E+00 -0.85570560723E+03  0.33349329175E+04  0.32232817869E+04 0.  0.
        5    1    3    3  502    0 -0.26889743102E+03  0.93384090057E+03  0.90237250248E+03  0.13261458740E+04  0.46999998093E+01 0.  1.
       -5    1    3    3    0  502  0.26889743102E+03 -0.93384090057E+03 -0.17580781097E+04  0.20087870434E+04  0.46999998093E+01 0. -1.
</event>
<event>
 5   0  0.1556396E-06  0.3199526E+04  0.7818609E-02  0.8188942E-01
        2   -1    0    0  501    0  0.00000000000E+00  0.00000000000E+00  0.18791163707E+04  0.18791163707E+04  0.25500000920E-02 0. -1.
       -2   -1    0    0    0  501  0.00000000000E+00  0.00000000000E+00 -0.13619389059E+04  0.13619389059E+04  0.25500000920E-02 0.  1.
    10030    2    1    2    0    0  0.00000000000E+00  0.00000000000E+00  0.51717746479E+03  0.32410552765E+04  0.31995260236E+04 0.  0.
        3    1    3    3  502    0  0.15405834051E+04 -0.32599752460E+03  0.54433177161E+03  0.16661238555E+04  0.10100000352E+00 0. -1.
       -3    1    3    3    0  502 -0.15405834051E+04  0.32599752460E+03 -0.27154306826E+02  0.15749314210E+04  0.10100000352E+00 0.  1.
</event>
<event>
 5   0  0.5317728E-07  0.3204104E+04  0.7818609E-02  0.8187734E-01
        1   -1    0    0  501    0  0.00000000000E+00  0.00000000000E+00  0.21932624039E+04  0.21932624039E+04  0.50400001928E-02 0.  1.
       -1   -1    0    0    0  501  0.00000000000E+00  0.00000000000E+00 -0.11702069679E+04  0.11702069679E+04  0.50400001928E-02 0. -1.
    10030    2    1    2    0    0  0.00000000000E+00  0.00000000000E+00  0.10230554360E+04  0.33634693718E+04  0.32041042102E+04 0.  0.
        2    1    3    3  502    0  0.68627449794E+03 -0.73549617336E+02  0.20291845943E+04  0.21433553952E+04  0.25500000920E-02 0.  1.
       -2    1    3    3    0  502 -0.68627449794E+03  0.73549617336E+02 -0.10061291582E+04  0.12201139766E+04  0.25500000920E-02 0. -1.
</event>
<event>
 5   0  0.5177039E-07  0.3186800E+04  0.7818609E-02  0.8192312E-01
        1   -1    0    0  501    0  0.00000000000E+00  0.00000000000E+00  0.22199327486E+04  0.22199327486E+04  0.50400001928E-02 0. -1.
       -1   -1    0    0    0  501  0.00000000000E+00  0.00000000000E+00 -0.11436941089E+04  0.11436941089E+04  0.50400001928E-02 0.  1.
    10030    2    1    2    0    0  0.00000000000E+00  0.00000000000E+00  0.10762386398E+04  0.33636268575E+04  0.31868002803E+04 0.  0.
        3    1    3    3  502    0  0.46776491263E+02  0.28244441032E+03 -0.11163248114E+04  0.11524512917E+04  0.10100000352E+00 0.  1.
       -3    1    3    3    0  502 -0.46776491263E+02 -0.28244441032E+03  0.21925634512E+04  0.22111755658E+04  0.10100000352E+00 0. -1.
</event>
<event>
 5   0  0.4995625E-07  0.3202390E+04  0.7818609E-02  0.8188186E-01
       -3   -1    0    0    0  501  0.00000000000E+00  0.00000000000E+00  0.10418291975E+04  0.10418292024E+04  0.10100000352E+00 0. -1.
        3   -1    0    0  501    0  0.00000000000E+00  0.00000000000E+00 -0.24608888983E+04  0.24608889003E+04  0.10100000352E+00 0.  1.
    10030    2    1    2    0    0  0.00000000000E+00  0.00000000000E+00 -0.14190597008E+04  0.35027181027E+04  0.32023903061E+04 0.  0.
        5    1    3    3  502    0 -0.83928639605E+03  0.74964655832E+03 -0.19554013824E+04  0.22561002357E+04  0.46999998093E+01 0.  1.
       -5    1    3    3    0  502  0.83928639605E+03 -0.74964655832E+03  0.53634168160E+03  0.12466178670E+04  0.46999998093E+01 0. -1.
</event>
<event>
 5   0  0.5317728E-07  0.3217451E+04  0.7818609E-02  0.8184223E-01
        1   -1    0    0  501    0  0.00000000000E+00  0.00000000000E+00  0.16982720084E+04  0.16982720084E+04  0.50400001928E-02 0.  1.
       -1   -1    0    0    0  501  0.00000000000E+00  0.00000000000E+00 -0.15239008649E+04  0.15239008649E+04  0.50400001928E-02 0. -1.
    10030    2    1    2    0    0  0.00000000000E+00  0.00000000000E+00  0.17437114349E+03  0.32221728732E+04  0.32174512785E+04 0.  0.
        2    1    3    3  502    0  0.60903635106E+03  0.13923922073E+04  0.61551719411E+03  0.16396776366E+04  0.25500000920E-02 0.  1.
       -2    1    3    3    0  502 -0.60903635106E+03 -0.13923922073E+04 -0.44114605062E+03  0.15824952366E+04  0.25500000920E-02 0. -1.
</event>
<event>
 5   0  0.5370912E-07  0.3203105E+04  0.7818609E-02  0.8187998E-01
        1   -1    0    0  501    0  0.00000000000E+00  0.00000000000E+00  0.16122611835E+04  0.16122611835E+04  0.50400001928E-02 0.  1.
       -1   -1    0    0    0  501  0.00000000000E+00  0.00000000000E+00 -0.15909152059E+04  0.15909152059E+04  0.50400001928E-02 0. -1.
    10030    2    1    2    0    0  0.00000000000E+00  0.00000000000E+00  0.21345977606E+02  0.32031763894E+04  0.32031052638E+04 0.  0.
        1    1    3    3  502    0 -0.82385193951E+03 -0.31848137299E+03  0.13466698805E+04  0.16104912822E+04  0.50400001928E-02 0.  1.
       -1    1    3    3    0  502  0.82385193951E+03  0.31848137299E+03 -0.13253239029E+04  0.15926851072E+04  0.50400001928E-02 0. -1.
</event>
<event>
 5   0  0.1508771E-06  0.3201283E+04  0.7818609E-02  0.8188478E-01
       -2   -1    0    0    0  501  0.00000000000E+00  0.00000000000E+00  0.19333329325E+04  0.19333329325E+04  0.25500000920E-02 0.  1.
        2   -1    0    0  501    0  0.00000000000E+00  0.00000000000E+00 -0.13252000960E+04  0.13252000960E+04  0.25500000920E-02 0. -1.
    10030    2    1    2    0    0  0.00000000000E+00  0.00000000000E+00  0.60813283656E+03  0.32585330285E+04  0.32012828602E+04 0.  0.
        4    1    3    3  502    0  0.15740465329E+04 -0.52569775399E+02  0.59494843607E+03  0.16835531841E+04  0.12699999809E+01 0. -1.
       -4    1    3    3    0  502 -0.15740465329E+04  0.52569775399E+02  0.13184400490E+02  0.15749798444E+04  0.12699999809E+01 0.  1.
</event>
<event>
 5   0  0.5177039E-07  0.3207508E+04  0.7818609E-02  0.8186837E-01
       -1   -1    0    0    0  501  0.00000000000E+00  0.00000000000E+00  0.19112881981E+04  0.19112881981E+04  0.50400001928E-02 0.  1.
        1   -1    0    0  501    0  0.00000000000E+00  0.00000000000E+00 -0.13457033170E+04  0.13457033170E+04  0.50400001928E-02 0. -1.
    10030    2    1    2    0    0  0.00000000000E+00  0.00000000000E+00  0.56558488111E+03  0.32569915151E+04  0.32075079847E+04 0.  0.
        3    1    3    3  502    0 -0.17005143783E+03  0.12096873708E+04 -0.77235626653E+03  0.14452664942E+04  0.10100000352E+00 0. -1.
       -3    1    3    3    0  502  0.17005143783E+03 -0.12096873708E+04  0.13379411476E+04  0.18117250209E+04  0.10100000352E+00 0.  1.
</event>
<event>
 5   0  0.1493485E-06  0.2820273E+04  0.7818609E-02  0.8297002E-01
       -2   -1    0    0    0  501  0.00000000000E+00  0.00000000000E+00  0.84675448417E+03  0.84675448418E+03  0.25500000920E-02 0.  1.
        2   -1    0    0  501    0  0.00000000000E+00  0.00000000000E+00 -0.23483604155E+04  0.23483604155E+04  0.25500000920E-02 0. -1.
    10030    2    1    2    0    0  0.00000000000E+00  0.00000000000E+00 -0.15016059313E+04  0.31951148997E+04  0.28202728324E+04 0.  0.
        2    1    3    3  502    0  0.50662741557E+03 -0.69392508123E+03 -0.20175772369E+04  0.21929024747E+04  0.25500000920E-02 0. -1.
       -2    1    3    3    0  502 -0.50662741557E+03  0.69392508123E+03  0.51597130560E+03  0.10022124250E+04  0.25500000920E-02 0.  1.
</event>
<event>
 5   0  0.5281187E-07  0.3186899E+04  0.7818609E-02  0.8192286E-01
        1   -1    0    0  501    0  0.00000000000E+00  0.00000000000E+00  0.10110737562E+04  0.10110737562E+04  0.50400001928E-02 0. -1.
       -1   -1    0    0    0  501  0.00000000000E+00  0.00000000000E+00 -0.25112723583E+04  0.25112723583E+04  0.50400001928E-02 0.  1.
    10030    2    1    2    0    0  0.00000000000E+00  0.00000000000E+00 -0.15001986021E+04  0.35223461145E+04  0.31868991677E+04 0.  0.
        5    1    3    3  502    0 -0.33053875008E+03  0.22922569521E+03  0.95402776544E+03  0.10353701521E+04  0.46999998093E+01 0. -1.
       -5    1    3    3    0  502  0.33053875008E+03 -0.22922569521E+03 -0.24542263675E+04  0.24869759624E+04  0.46999998093E+01 0.  1.
</event>
<event>
 5   0  0.1508771E-06  0.3220135E+04  0.7818609E-02  0.8183520E-01
        2   -1    0    0  501    0  0.00000000000E+00  0.00000000000E+00  0.19810530861E+04  0.19810530862E+04  0.25500000920E-02 0.  1.
       -2   -1    0    0    0  501  0.00000000000E+00  0.00000000000E+00 -0.13085553469E+04  0.13085553469E+04  0.25500000920E-02 0. -1.
    10030    2    1    2    0    0  0.00000000000E+00  0.00000000000E+00  0.67249773922E+03  0.32896084331E+04  0.32201351577E+04 0.  0.
        4    1    3    3  502    0 -0.10577330856E+04  0.10341093970E+03 -0.89931721827E+03  0.13922162816E+04  0.12699999809E+01 0. -1.
       -4    1    3    3    0  502  0.10577330856E+04 -0.10341093970E+03  0.15718149575E+04  0.18973921514E+04  0.12699999809E+01 0.  1.
</event>
<event>
 5   0  0.1538349E-06  0.3192497E+04  0.7818609E-02  0.8190802E-01
       -2   -1    0    0    0  501  0.00000000000E+00  0.00000000000E+00  0.10607847247E+04  0.10607847247E+04  0.25500000920E-02 0. -1.
        2   -1    0    0  501    0  0.00000000000E+00  0.00000000000E+00 -0.24020035847E+04  0.24020035847E+04  0.25500000920E-02 0.  1.
    10030    2    1    2    0    0  0.00000000000E+00  0.00000000000E+00 -0.13412188600E+04  0.34627883094E+04  0.31924966477E+04 0.  0.
        1    1    3    3  502    0  0.14860889403E+04 -0.58124760551E+03 -0.71532595949E+03  0.17487139119E+04  0.50400001928E-02 0. -1.
       -1    1    3    3    0  502 -0.14860889403E+04  0.58124760551E+03 -0.62589290048E+03  0.17140743975E+04  0.50400001928E-02 0.  1.
</event>
<event>
 5   0  0.1538349E-06  0.3290090E+04  0.7818609E-02  0.8165422E-01
       -2   -1    0    0    0  501  0.00000000000E+00  0.00000000000E+00  0.23870078316E+04  0.23870078316E+04  0.25500000920E-02 0. -1.
        2   -1    0    0  501    0  0.00000000000E+00  0.00000000000E+00 -0.11337091614E+04  0.11337091614E+04  0.25500000920E-02 0.  1.
    10030    2    1    2    0    0  0.00000000000E+00  0.00000000000E+00  0.12532986703E+04  0.35207169930E+04  0.32900897538E+04 0.  0.
        1    1    3    3  502    0  0.16186494472E+04  0.18079334634E+03  0.87407194890E+03  0.18484355653E+04  0.50400001928E-02 0. -1.
       -1    1    3    3    0  502 -0.16186494472E+04 -0.18079334634E+03  0.37922672137E+03  0.16722814277E+04  0.50400001928E-02 0.  1.
</event>
<event>
 5   0  0.5233813E-07  0.3185477E+04  0.7818609E-02  0.8192663E-01
        1   -1    0    0  501    0  0.00000000000E+00  0.00000000000E+00  0.18414292826E+04  0.18414292826E+04  0.50400001928E-02 0. -1.
       -1   -1    0    0    0  501  0.00000000000E+00  0.00000000000E+00 -0.13776339398E+04  0.13776339398E+04  0.50400001928E-02 0.  1.
    10030    2    1    2    0    0  0.00000000000E+00  0.00000000000E+00  0.46379534287E+03  0.32190632224E+04  0.31854767163E+04 0.  0.
        4    1    3    3  502    0  0.36900158668E+03  0.40720413000E+03  0.17425966940E+04  0.18271897070E+04  0.12699999809E+01 0. -1.
       -4    1    3    3    0  502 -0.36900158668E+03 -0.40720413000E+03 -0.12788013511E+04  0.13918735154E+04  0.12699999809E+01 0.  1.
</event>
<event>
 5   0  0.1508771E-06  0.3226039E+04  0.7818609E-02  0.8181974E-01
       -2   -1    0    0    0  501  0.00000000000E+00  0.00000000000E+00  0.13483834508E+04  0.13483834508E+04  0.25500000920E-02 0. -1.
        2   -1    0    0  501    0  0.00000000000E+00  0.00000000000E+00 -0.19295934325E+04  0.19295934325E+04  0.25500000920E-02 0.  1.
    10030    2    1    2    0    0  0.00000000000E+00  0.00000000000E+00 -0.58120998170E+03  0.32779768833E+04  0.32260389651E+04 0.  0.
        4    1    3    3  502    0  0.13014535238E+03  0.10910915918E+04  0.90925829788E+03  0.14262436466E+04  0.12699999809E+01 0. -1.
       -4    1    3    3    0  502 -0.13014535238E+03 -0.10910915918E+04 -0.14904682796E+04  0.18517332367E+04  0.12699999809E+01 0.  1.
</event>
<event>
 5   0  0.1508771E-06  0.3184281E+04  0.7818609E-02  0.8192981E-01
        2   -1    0    0  501    0  0.00000000000E+00  0.00000000000E+00  0.20661769942E+04  0.20661769942E+04  0.25500000920E-02 0. -1.
       -2   -1    0    0    0  501  0.00000000000E+00  0.00000000000E+00 -0.12268604778E+04  0.12268604778E+04  0.25500000920E-02 0.  1.
    10030    2    1    2    0    0  0.00000000000E+00  0.00000000000E+00  0.83931651645E+03  0.32930374720E+04  0.31842807001E+04 0.  0.
        4    1    3    3  502    0 -0.59546127211E+03 -0.89355887137E+03  0.16353450646E+04  0.19563682364E+04  0.12699999809E+01 0. -1.
       -4    1    3    3    0  502  0.59546127211E+03  0.89355887137E+03 -0.79602854812E+03  0.13366692356E+04  0.12699999809E+01 0.  1.
</event>
<event>
 5   0  0.5317728E-07  0.3143981E+04  0.7818609E-02  0.8203770E-01
       -1   -1    0    0    0  501  0.00000000000E+00  0.00000000000E+00  0.13072681960E+04  0.13072681960E+04  0.50400001928E-02 0. -1.
        1   -1    0    0  501    0  0.00000000000E+00  0.00000000000E+00 -0.18903193707E+04  0.18903193707E+04  0.50400001928E-02 0.  1.
    10030    2    1    2    0    0  0.00000000000E+00  0.00000000000E+00 -0.58305117469E+03  0.31975875666E+04  0.31439811663E+04 0.  0.
        2    1    3    3  502    0 -0.86735746130E+03  0.77503665592E+03  0.78393670513E+03  0.14026929605E+04  0.25500000920E-02 0. -1.
       -2    1    3    3    0  502  0.86735746130E+03 -0.77503665592E+03 -0.13669878798E+04  0.17948946062E+04  0.25500000920E-02 0.  1.
</event>
<event>
 5   0  0.1508771E-06  0.3208504E+04  0.7818609E-02  0.8186575E-01
       -2   -1    0    0    0  501  0.00000000000E+00  0.00000000000E+00  0.11920327123E+04  0.11920327123E+04  0.25500000920E-02 0.  1.
        2   -1    0    0  501    0  0.00000000000E+00  0.00000000000E+00 -0.21590218298E+04  0.21590218298E+04  0.25500000920E-02 0. -1.
    10030    2    1    2    0    0  0.00000000000E+00  0.00000000000E+00 -0.96698911745E+03  0.33510545421E+04  0.32085041049E+04 0.  0.
        4    1    3    3  502    0  0.13292082457E+04  0.18112803374E+03  0.43537803807E+03  0.14103749764E+04  0.12699999809E+01 0.  1.
       -4    1    3    3    0  502 -0.13292082457E+04 -0.18112803374E+03 -0.14023671555E+04  0.19406795657E+04  0.12699999809E+01 0. -1.
</event>
<event>
 5   0  0.5281187E-07  0.3207973E+04  0.7818609E-02  0.8186715E-01
        1   -1    0    0  501    0  0.00000000000E+00  0.00000000000E+00  0.17494021365E+04  0.17494021365E+04  0.50400001928E-02 0.  1.
       -1   -1    0    0    0  501  0.00000000000E+00  0.00000000000E+00 -0.14706578332E+04  0.14706578332E+04  0.50400001928E-02 0. -1.
    10030    2    1    2    0    0  0.00000000000E+00  0.00000000000E+00  0.27874430330E+03  0.32200599698E+04  0.32079725408E+04 0.  0.
        5    1    3    3  502    0  0.11504206965E+04 -0.68228725264E+03  0.10280136303E+04  0.16869551826E+04  0.46999998093E+01 0.  1.
       -5    1    3    3    0  502 -0.11504206965E+04  0.68228725264E+03 -0.74926932700E+03  0.15331047872E+04  0.46999998093E+01 0. -1.
</event>
<event>
 5   0  0.5281187E-07  0.3204586E+04  0.7818609E-02  0.8187607E-01
        1   -1    0    0  501    0  0.00000000000E+00  0.00000000000E+00  0.16094344984E+04  0.16094344984E+04  0.50400001928E-02 0.  1.
       -1   -1    0    0    0  501  0.00000000000E+00  0.00000000000E+00 -0.15951830344E+04  0.15951830344E+04  0.50400001928E-02 0. -1.
    10030    2    1    2    0    0  0.00000000000E+00  0.00000000000E+00  0.14251463967E+02  0.32046175328E+04  0.32045858433E+04 0.  0.
        5    1    3    3  502    0  0.10307795497E+04 -0.91876915282E+03 -0.80570287679E+03  0.15986939832E+04  0.46999998093E+01 0. -1.
       -5    1    3    3    0  502 -0.10307795497E+04  0.91876915282E+03  0.81995434076E+03  0.16059235496E+04  0.46999998093E+01 0.  1.
</event>
<event>
 5   0  0.5281187E-07  0.3206114E+04  0.7818609E-02  0.8187204E-01
       -1   -1    0    0    0  501  0.00000000000E+00  0.00000000000E+00  0.16545215709E+04  0.16545215709E+04  0.50400001928E-02 0.  1.
        1   -1    0    0  501    0  0.00000000000E+00  0.00000000000E+00 -0.15531931304E+04  0.15531931304E+04  0.50400001928E-02 0. -1.
    10030    2    1    2    0    0  0.00000000000E+00  0.00000000000E+00  0.10132844052E+03  0.32077147013E+04  0.32061138707E+04 0.  0.
        5    1    3    3  502    0  0.92910585485E+03  0.12726138998E+04  0.34574472967E+03  0.16131786434E+04  0.46999998093E+01 0.  1.
       -5    1    3    3    0  502 -0.92910585485E+03 -0.12726138998E+04 -0.24441628915E+03  0.15945360579E+04  0.46999998093E+01 0. -1.
</event>
<event>
 5   0  0.5317728E-07  0.3184715E+04  0.7818609E-02  0.8192866E-01
        1   -1    0    0  501    0  0.00000000000E+00  0.00000000000E+00  0.20203590283E+04  0.20203590283E+04  0.50400001928E-02 0. -1.
       -1   -1    0    0    0  501  0.00000000000E+00  0.00000000000E+00 -0.12550253103E+04  0.12550253103E+04  0.50400001928E-02 0.  1.
    10030    2    1    2    0    0  0.00000000000E+00  0.00000000000E+00  0.76533371800E+03  0.32753843386E+04  0.31847145658E+04 0.  0.
        2    1    3    3  502    0 -0.11668337209E+04  0.56696195287E+03  0.13323492975E+04  0.18595971174E+04  0.25500000920E-02 0. -1.
       -2    1    3    3    0  502  0.11668337209E+04 -0.56696195287E+03 -0.56701557952E+03  0.14157872212E+04  0.25500000920E-02 0.  1.
</event>
<event>
 5   0  0.1556396E-06  0.3152168E+04  0.7818609E-02  0.8201565E-01
        2   -1    0    0  501    0  0.00000000000E+00  0.00000000000E+00  0.19427245694E+04  0.19427245694E+04  0.25500000920E-02 0.  1.
       -2   -1    0    0    0  501  0.00000000000E+00  0.00000000000E+00 -0.12786376751E+04  0.12786376751E+04  0.25500000920E-02 0. -1.
    10030    2    1    2    0    0  0.00000000000E+00  0.00000000000E+00  0.66408689430E+03  0.32213622445E+04  0.31521680328E+04 0.  0.
        3    1    3    3  502    0 -0.23957568515E+03  0.15018476284E+04 -0.90676441687E+02  0.15235370146E+04  0.10100000352E+00 0. -1.
       -3    1    3    3    0  502  0.23957568515E+03 -0.15018476284E+04  0.75476333599E+03  0.16978252299E+04  0.10100000352E+00 0.  1.
</event>
<event>
 5   0  0.1572769E-06  0.3192000E+04  0.7818609E-02  0.8190933E-01
       -2   -1    0    0    0  501  0.00000000000E+00  0.00000000000E+00  0.18591344236E+04  0.18591344236E+04  0.25500000920E-02 0. -1.
        2   -1    0    0  501    0  0.00000000000E+00  0.00000000000E+00 -0.13701087308E+04  0.13701087308E+04  0.25500000920E-02 0.  1.
    10030    2    1    2    0    0  0.00000000000E+00  0.00000000000E+00  0.48902569278E+03  0.32292431544E+04  0.31920001915E+04 0.  0.
        5    1    3    3  502    0 -0.93188672590E+03 -0.12691604729E+04  0.50834877169E+03  0.16545760000E+04  0.46999998093E+01 0. -1.
       -5    1    3    3    0  502  0.93188672590E+03  0.12691604729E+04 -0.19323078904E+02  0.15746671545E+04  0.46999998093E+01 0.  1.
</event>
<event>
 5   0  0.1493485E-06  0.3179334E+04  0.7818609E-02  0.8194296E-01
       -2   -1    0    0    0  501  0.00000000000E+00  0.00000000000E+00  0.11522721346E+04  0.11522721346E+04  0.25500000920E-02 0.  1.
        2   -1    0    0  501    0  0.00000000000E+00  0.00000000000E+00 -0.21930945498E+04  0.21930945498E+04  0.25500000920E-02 0. -1.
    10030    2    1    2    0    0  0.00000000000E+00  0.00000000000E+00 -0.10408224152E+04  0.33453666844E+04  0.31793343569E+04 0.  0.
        2    1    3    3  502    0  0.46509977994E+03 -0.70399074620E+03  0.89721035551E+03  0.12316278651E+04  0.25500000920E-02 0.  1.
       -2    1    3    3    0  502 -0.46509977994E+03  0.70399074620E+03 -0.19380327707E+04  0.21137388193E+04  0.25500000920E-02 0. -1.
</event>
<event>
 5   0  0.5233813E-07  0.3210215E+04  0.7818609E-02  0.8186125E-01
       -1   -1    0    0    0  501  0.00000000000E+00  0.00000000000E+00  0.12546249954E+04  0.12546249954E+04  0.50400001928E-02 0. -1.
        1   -1    0    0  501    0  0.00000000000E+00  0.00000000000E+00 -0.20534986859E+04  0.20534986859E+04  0.50400001928E-02 0.  1.
    10030    2    1    2    0    0  0.00000000000E+00  0.00000000000E+00 -0.79887369056E+03  0.33081236813E+04  0.32102154316E+04 0.  0.
        4    1    3    3  502    0 -0.66647845798E+03 -0.12902513875E+04  0.30510120349E+03  0.14839240328E+04  0.12699999809E+01 0. -1.
       -4    1    3    3    0  502  0.66647845798E+03  0.12902513875E+04 -0.11039748941E+04  0.18241996485E+04  0.12699999809E+01 0.  1.
</event>
<event>
 5   0  0.1538349E-06  0.3202146E+04  0.7818609E-02  0.8188251E-01
       -2   -1    0    0    0  501  0.00000000000E+00  0.00000000000E+00  0.19008506480E+04  0.19008506480E+04  0.25500000920E-02 0. -1.
        2   -1    0    0  501    0  0.00000000000E+00  0.00000000000E+00 -0.13485725642E+04  0.13485725642E+04  0.25500000920E-02 0.  1.
    10030    2    1    2    0    0  0.00000000000E+00  0.00000000000E+00  0.55227808382E+03  0.32494232121E+04  0.32021461756E+04 0.  0.
        1    1    3    3  502    0  0.79917124183E+03  0.10967868982E+04  0.11382819051E+04  0.17712430295E+04  0.50400001928E-02 0. -1.
       -1    1    3    3    0  502 -0.79917124183E+03 -0.10967868982E+04 -0.58600382130E+03  0.14781801827E+04  0.50400001928E-02 0.  1.
</event>
<event>
 5   0  0.5317728E-07  0.3214788E+04  0.7818609E-02  0.8184923E-01
        1   -1    0    0  501    0  0.00000000000E+00  0.00000000000E+00  0.23350664299E+04  0.23350664299E+04  0.50400001928E-02 0.  1.
       -1   -1    0    0    0  501  0.00000000000E+00  0.00000000000E+00 -0.11064848652E+04  0.11064848652E+04  0.50400001928E-02 0. -1.
    10030    2    1    2    0    0  0.00000000000E+00  0.00000000000E+00  0.12285815646E+04  0.34415512951E+04  0.32147881199E+04 0.  0.
        2    1    3    3  502    0  0.99108899871E+03  0.10132527512E+04  0.14259087058E+04  0.20105109247E+04  0.25500000920E-02 0.  1.
       -2    1    3    3    0  502 -0.99108899871E+03 -0.10132527512E+04 -0.19732714111E+03  0.14310403704E+04  0.25500000920E-02 0. -1.
</event>
<event>
 5   0  0.5370912E-07  0.3178955E+04  0.7818609E-02  0.8194397E-01
       -1   -1    0    0    0  501  0.00000000000E+00  0.00000000000E+00  0.11880927045E+04  0.11880927045E+04  0.50400001928E-02 0.  1.
        1   -1    0    0  501    0  0.00000000000E+00  0.00000000000E+00 -0.21264662867E+04  0.21264662867E+04  0.50400001928E-02 0. -1.
    10030    2    1    2    0    0  0.00000000000E+00  0.00000000000E+00 -0.93837358222E+03  0.33145589912E+04  0.31789552256E+04 0.  0.
        1    1    3    3  502    0 -0.65782080955E+03 -0.14371103051E+04 -0.64497523353E+03  0.17070463668E+04  0.50400001928E-02 0. -1.
       -1    1    3    3    0  502  0.65782080955E+03  0.14371103051E+04 -0.29339834869E+03  0.16075126244E+04  0.50400001928E-02 0.  1.
</event>
<event>
 5   0  0.5177039E-07  0.3205731E+04  0.7818609E-02  0.8187305E-01
        1   -1    0    0  501    0  0.00000000000E+00  0.00000000000E+00  0.17766491394E+04  0.17766491395E+04  0.50400001928E-02 0.  1.
       -1   -1    0    0    0  501  0.00000000000E+00  0.00000000000E+00 -0.14460802590E+04  0.14460802590E+04  0.50400001928E-02 0. -1.
    10030    2    1    2    0    0  0.00000000000E+00  0.00000000000E+00  0.33056888046E+03  0.32227293985E+04  0.32057306485E+04 0.  0.
        3    1    3    3  502    0 -0.39259879274E+03 -0.15537925854E+04  0.13735173262E+03  0.16084995242E+04  0.10100000352E+00 0. -1.
       -3    1    3    3    0  502  0.39259879274E+03  0.15537925854E+04  0.19321714784E+03  0.16142298743E+04  0.10100000352E+00 0.  1.
</event>
<event>
 5   0  0.5317728E-07  0.3199325E+04  0.7818609E-02  0.8188995E-01
        1   -1    0    0  501    0  0.00000000000E+00  0.00000000000E+00  0.17417308515E+04  0.17417308515E+04  0.50400001928E-02 0. -1.
       -1   -1    0    0    0  501  0.00000000000E+00  0.00000000000E+00 -0.14691827044E+04  0.14691827044E+04  0.50400001928E-02 0.  1.
    10030    2    1    2    0    0  0.00000000000E+00  0.00000000000E+00  0.27254814718E+03  0.32109135559E+04  0.31993254556E+04 0.  0.
        2    1    3    3  502    0  0.13975391087E+04 -0.34316312930E+03 -0.56485800306E+03  0.15459434198E+04  0.25500000920E-02 0.  1.
       -2    1    3    3    0  502 -0.13975391087E+04  0.34316312930E+03  0.83740615024E+03  0.16649701361E+04  0.25500000920E-02 0. -1.
</event>
<event>
 5   0  0.5177039E-07  0.3195190E+04  0.7818609E-02  0.8190089E-01
       -1   -1    0    0    0  501  0.00000000000E+00  0.00000000000E+00  0.10995950370E+04  0.10995950370E+04  0.50400001928E-02 0. -1.
        1   -1    0    0  501    0  0.00000000000E+00  0.00000000000E+00 -0.23211358132E+04  0.23211358132E+04  0.50400001928E-02 0.  1.
    10030    2    1    2    0    0  0.00000000000E+00  0.00000000000E+00 -0.12215407762E+04  0.34207308502E+04  0.31951897724E+04 0.  0.
        3    1    3    3  502    0  0.71293465994E+03  0.12784741829E+04 -0.12958941053E+04  0.19550226618E+04  0.10100000352E+00 0.  1.
       -3    1    3    3    0  502 -0.71293465994E+03 -0.12784741829E+04  0.74353329090E+02  0.14657081884E+04  0.10100000352E+00 0. -1.
</event>
<event>
 5   0  0.5370912E-07  0.3150673E+04  0.7818609E-02  0.8201967E-01
       -1   -1    0    0    0  501  0.00000000000E+00  0.00000000000E+00  0.15643979369E+04  0.15643979369E+04  0.50400001928E-02 0.  1.
        1   -1    0    0  501    0  0.00000000000E+00  0.00000000000E+00 -0.15863519104E+04  0.15863519105E+04  0.50400001928E-02 0. -1.
    10030    2    1    2    0    0  0.00000000000E+00  0.00000000000E+00 -0.21953973591E+02  0.31507498473E+04  0.31506733603E+04 0.  0.
        1    1    3    3  502    0 -0.70951265094E+03  0.54859180882E+03  0.12841700786E+04  0.15663505244E+04  0.50400001928E-02 0.  1.
       -1    1    3    3    0  502  0.70951265094E+03 -0.54859180882E+03 -0.13061240522E+04  0.15843993229E+04  0.50400001928E-02 0. -1.
</event>
<event>
 5   0  0.5317728E-07  0.2820535E+04  0.7818609E-02  0.8296921E-01
        1   -1    0    0  501    0  0.00000000000E+00  0.00000000000E+00  0.94262586511E+03  0.94262586512E+03  0.50400001928E-02 0.  1.
       -1   -1    0    0    0  501  0.00000000000E+00  0.00000000000E+00 -0.21099078826E+04  0.21099078827E+04  0.50400001928E-02 0. -1.
    10030    2    1    2    0    0  0.00000000000E+00  0.00000000000E+00 -0.11672820175E+04  0.30525337478E+04  0.28205345190E+04 0.  0.
        2    1    3    3  502    0 -0.17743241622E+03 -0.12214524637E+04 -0.13219770632E+04  0.18086049152E+04  0.25500000920E-02 0.  1.
       -2    1    3    3    0  502  0.17743241622E+03  0.12214524637E+04  0.15469504571E+03  0.12439288326E+04  0.25500000920E-02 0. -1.
</event>
<event>
 5   0  0.1493485E-06  0.3195268E+04  0.7818609E-02  0.8190068E-01
        2   -1    0    0  501    0  0.00000000000E+00  0.00000000000E+00  0.22638456584E+04  0.22638456584E+04  0.25500000920E-02 0. -1.
       -2   -1    0    0    0  501  0.00000000000E+00  0.00000000000E+00 -0.11274772629E+04  0.11274772629E+04  0.25500000920E-02 0.  1.
    10030    2    1    2    0    0  0.00000000000E+00  0.00000000000E+00  0.11363683956E+04  0.33913229213E+04  0.31952680679E+04 0.  0.
        2    1    3    3  502    0 -0.70218185626E+03 -0.26026952197E+03 -0.92966024484E+03  0.11937620174E+04  0.25500000920E-02 0.  1.
       -2    1    3    3    0  502  0.70218185626E+03  0.26026952197E+03  0.20660286404E+04  0.21975609039E+04  0.25500000920E-02 0. -1.
</event>
<event>
 5   0  0.5317728E-07  0.3181038E+04  0.7818609E-02  0.8193843E-01
       -1   -1    0    0    0  501  0.00000000000E+00  0.00000000000E+00  0.24762130137E+04  0.24762130137E+04  0.50400001928E-02 0. -1.
        1   -1    0    0  501    0  0.00000000000E+00  0.00000000000E+00 -0.10216207235E+04  0.10216207235E+04  0.50400001928E-02 0.  1.
    10030    2    1    2    0    0  0.00000000000E+00  0.00000000000E+00  0.14545922902E+04  0.34978337372E+04  0.31810379002E+04 0.  0.
        2    1    3    3  502    0  0.95786836562E+03  0.12697356155E+04  0.72378581325E+03  0.17474570789E+04  0.25500000920E-02 0. -1.
       -2    1    3    3    0  502 -0.95786836562E+03 -0.12697356155E+04  0.73080647693E+03  0.17503766583E+04  0.25500000920E-02 0.  1.
</event>
<event>
 5   0  0.5281187E-07  0.3210388E+04  0.7818609E-02  0.8186079E-01
       -1   -1    0    0    0  501  0.00000000000E+00  0.00000000000E+00  0.11142567871E+04  0.11142567871E+04  0.50400001928E-02 0. -1.
        1   -1    0    0  501    0  0.00000000000E+00  0.00000000000E+00 -0.23124359280E+04  0.23124359280E+04  0.50400001928E-02 0.  1.
    10030    2    1    2    0    0  0.00000000000E+00  0.00000000000E+00 -0.11981791409E+04  0.34266927151E+04  0.32103877818E+04 0.  0.
        5    1    3    3  502    0 -0.54049757133E+03 -0.10602759365E+04 -0.17488392831E+04  0.21153684347E+04  0.46999998093E+01 0.  1.
       -5    1    3    3    0  502  0.54049757133E+03  0.10602759365E+04  0.55066014223E+03  0.13113242804E+04  0.46999998093E+01 0. -1.
</event>
<event>
 5   0  0.4995625E-07  0.3194832E+04  0.7818609E-02  0.8190183E-01
        3   -1    0    0  501    0  0.00000000000E+00  0.00000000000E+00  0.19007173624E+04  0.19007173650E+04  0.10100000352E+00 0.  1.
       -3   -1    0    0    0  501  0.00000000000E+00  0.00000000000E+00 -0.13425129073E+04  0.13425129111E+04  0.10100000352E+00 0. -1.
    10030    2    1    2    0    0  0.00000000000E+00  0.00000000000E+00  0.55820445511E+03  0.32432302761E+04  0.31948318281E+04 0.  0.
        3    1    3    3  502    0  0.12504287162E+03 -0.12493673875E+04  0.12815755979E+04  0.17941545675E+04  0.10100000352E+00 0.  1.
       -3    1    3    3    0  502 -0.12504287162E+03  0.12493673875E+04 -0.72337114280E+03  0.14490757086E+04  0.10100000352E+00 0. -1.
</event>
<event>
 5   0  0.1556396E-06  0.3172346E+04  0.7818609E-02  0.8196159E-01
       -2   -1    0    0    0  501  0.00000000000E+00  0.00000000000E+00  0.11412611291E+04  0.11412611291E+04  0.25500000920E-02 0.  1.
        2   -1    0    0  501    0  0.00000000000E+00  0.00000000000E+00 -0.22045303427E+04  0.22045303427E+04  0.25500000920E-02 0. -1.
    10030    2    1    2    0    0  0.00000000000E+00  0.00000000000E+00 -0.10632692136E+04  0.33457914718E+04  0.31723460014E+04 0.  0.
        3    1    3    3  502    0 -0.97099448020E+03 -0.10822897926E+04  0.13686853625E+03  0.14604500957E+04  0.10100000352E+00 0.  1.
       -3    1    3    3    0  502  0.97099448020E+03  0.10822897926E+04 -0.12001377499E+04  0.18853413761E+04  0.10100000352E+00 0. -1.
</event>
<event>
 5   0  0.1556396E-06  0.3208629E+04  0.7818609E-02  0.8186542E-01
       -2   -1    0    0    0  501  0.00000000000E+00  0.00000000000E+00  0.91141836419E+03  0.91141836419E+03  0.25500000920E-02 0. -1.
        2   -1    0    0  501    0  0.00000000000E+00  0.00000000000E+00 -0.28239773461E+04  0.28239773461E+04  0.25500000920E-02 0.  1.
    10030    2    1    2    0    0  0.00000000000E+00  0.00000000000E+00 -0.19125589819E+04  0.37353957103E+04  0.32086288743E+04 0.  0.
        3    1    3    3  502    0  0.12359572540E+04 -0.49622198369E+03  0.84986386198E+02  0.13345595854E+04  0.10100000352E+00 0. -1.
       -3    1    3    3    0  502 -0.12359572540E+04  0.49622198369E+03 -0.19975453681E+04  0.24008361249E+04  0.10100000352E+00 0.  1.
</event>
<event>
 5   0  0.1508771E-06  0.3096815E+04  0.7818609E-02  0.8216612E-01
        2   -1    0    0  501    0  0.00000000000E+00  0.00000000000E+00  0.11072690816E+04  0.11072690816E+04  0.25500000920E-02 0. -1.
       -2   -1    0    0    0  501  0.00000000000E+00  0.00000000000E+00 -0.21652969904E+04  0.21652969904E+04  0.25500000920E-02 0.  1.
    10030    2    1    2    0    0  0.00000000000E+00  0.00000000000E+00 -0.10580279087E+04  0.32725660720E+04  0.30968154030E+04 0.  0.
        4    1    3    3  502    0 -0.14347591333E+04 -0.47175749251E+03 -0.16835963914E+03  0.15196826917E+04  0.12699999809E+01 0. -1.
       -4    1    3    3    0  502  0.14347591333E+04  0.47175749251E+03 -0.88966826960E+03  0.17528833804E+04  0.12699999809E+01 0.  1.
</event>
<event>
 5   0  0.1556396E-06  0.3221338E+04  0.7818609E-02  0.8183205E-01
       -2   -1    0    0    0  501  0.00000000000E+00  0.00000000000E+00  0.17475199041E+04  0.17475199041E+04  0.25500000920E-02 0. -1.
        2   -1    0    0  501    0  0.00000000000E+00  0.00000000000E+00 -0.14845348209E+04  0.14845348210E+04  0.25500000920E-02 0.  1.
    10030    2    1    2    0    0  0.00000000000E+00  0.00000000000E+00  0.26298508320E+03  0.32320547251E+04  0.32213377023E+04 0.  0.
        3    1    3    3  502    0  0.54288191583E+03  0.43478205222E+02  0.16523332406E+04  0.17397747777E+04  0.10100000352E+00 0. -1.
       -3    1    3    3    0  502 -0.54288191583E+03 -0.43478205222E+02 -0.13893481574E+04  0.14922799474E+04  0.10100000352E+00 0.  1.
</event>
<event>
 5   0  0.1538349E-06  0.3251328E+04  0.7818609E-02  0.8175392E-01
       -2   -1    0    0    0  501  0.00000000000E+00  0.00000000000E+00  0.13014377348E+04  0.13014377348E+04  0.25500000920E-02 0. -1.
        2   -1    0    0  501    0  0.00000000000E+00  0.00000000000E+00 -0.20306645231E+04  0.20306645231E+04  0.25500000920E-02 0.  1.
    10030    2    1    2    0    0  0.00000000000E+00  0.00000000000E+00 -0.72922678832E+03  0.33321022580E+04  0.32513279977E+04 0.  0.
        1    1    3    3  502    0  0.12051127026E+04  0.82209009980E+03 -0.10998303254E+04  0.18269525180E+04  0.50400001928E-02 0.  1.
       -1    1    3    3    0  502 -0.12051127026E+04 -0.82209009980E+03  0.37060353712E+03  0.15051497400E+04  0.50400001928E-02 0. -1.
</event>
<event>
 5   0  0.1556396E-06  0.3090051E+04  0.7818609E-02  0.8218474E-01
       -2   -1    0    0    0  501  0.00000000000E+00  0.00000000000E+00  0.10028324076E+04  0.10028324076E+04  0.25500000920E-02 0. -1.
        2   -1    0    0  501    0  0.00000000000E+00  0.00000000000E+00 -0.23803622455E+04  0.23803622455E+04  0.25500000920E-02 0.  1.
    10030    2    1    2    0    0  0.00000000000E+00  0.00000000000E+00 -0.13775298379E+04  0.33831946531E+04  0.30900513922E+04 0.  0.
        3    1    3    3  502    0  0.59354084820E+03 -0.56686260161E+02  0.87179489681E+03  0.10561867367E+04  0.10100000352E+00 0. -1.
       -3    1    3    3    0  502 -0.59354084820E+03  0.56686260161E+02 -0.22493247347E+04  0.23270079164E+04  0.10100000352E+00 0.  1.
</event>
<event>
 5   0  0.1572769E-06  0.3187151E+04  0.7818609E-02  0.8192219E-01
        2   -1    0    0  501    0  0.00000000000E+00  0.00000000000E+00  0.15360894320E+04  0.15360894320E+04  0.25500000920E-02 0.  1.
       -2   -1    0    0    0  501  0.00000000000E+00  0.00000000000E+00 -0.16532130470E+04  0.16532130470E+04  0.25500000920E-02 0. -1.
    10030    2    1    2    0    0  0.00000000000E+00  0.00000000000E+00 -0.11712361497E+03  0.31893024790E+04  0.31871511356E+04 0.  0.
        5    1    3    3  502    0 -0.55098893389E+03 -0.13761741991E+04  0.52665494786E+03  0.15731597998E+04  0.46999998093E+01 0.  1.
       -5    1    3    3    0  502  0.55098893389E+03  0.13761741991E+04 -0.64377856283E+03  0.16161426792E+04  0.46999998093E+01 0. -1.
</event>
<event>
 5   0  0.5177039E-07  0.3088158E+04  0.7818609E-02  0.8218995E-01
        1   -1    0    0  501    0  0.00000000000E+00  0.00000000000E+00  0.17966472061E+04  0.17966472062E+04  0.50400001928E-02 0. -1.
       -1   -1    0    0    0  501  0.00000000000E+00  0.00000000000E+00 -0.13270165449E+04  0.13270165449E+04  0.50400001928E-02 0.  1.
    10030    2    1    2    0    0  0.00000000000E+00  0.00000000000E+00  0.46963066123E+03  0.31236637511E+04  0.30881583949E+04 0.  0.
        3    1    3    3  502    0  0.51620749368E+03 -0.18381369328E+03 -0.12253617739E+04  0.13422999432E+04  0.10100000352E+00 0.  1.
       -3    1    3    3    0  502 -0.51620749368E+03  0.18381369328E+03  0.16949924352E+04  0.17813638078E+04  0.10100000352E+00 0. -1.
</event>
<event>
 5   0  0.5370912E-07  0.3162381E+04  0.7818609E-02  0.8198824E-01
       -1   -1    0    0    0  501  0.00000000000E+00  0.00000000000E+00  0.32958971440E+04  0.32958971440E+04  0.50400001928E-02 0.  1.
        1   -1    0    0  501    0  0.00000000000E+00  0.00000000000E+00 -0.75856829493E+03  0.75856829495E+03  0.50400001928E-02 0. -1.
    10030    2    1    2    0    0  0.00000000000E+00  0.00000000000E+00  0.25373288490E+04  0.40544654389E+04  0.31623807973E+04 0.  0.
        1    1    3    3  502    0  0.52386182346E+03  0.25531810801E+03  0.31531857202E+04  0.32065867730E+04  0.50400001928E-02 0.  1.
       -1    1    3    3    0  502 -0.52386182346E+03 -0.25531810801E+03 -0.61585687119E+03  0.84787866595E+03  0.50400001928E-02 0. -1.
</event>
<event>
 5   0  0.5177039E-07  0.3322359E+04  0.7818609E-02  0.8157229E-01
        1   -1    0    0  501    0  0.00000000000E+00  0.00000000000E+00  0.28260263409E+04  0.28260263409E+04  0.50400001928E-02 0. -1.
       -1   -1    0    0    0  501  0.00000000000E+00  0.00000000000E+00 -0.97646572931E+03  0.97646572932E+03  0.50400001928E-02 0.  1.
    10030    2    1    2    0    0  0.00000000000E+00  0.00000000000E+00  0.18495606116E+04  0.38024920702E+04  0.33223593256E+04 0.  0.
        3    1    3    3  502    0 -0.26311567509E+03 -0.16243368868E+04  0.11853120847E+04  0.20279706429E+04  0.10100000352E+00 0. -1.
       -3    1    3    3    0  502  0.26311567509E+03  0.16243368868E+04  0.66424852687E+03  0.17745214273E+04  0.10100000352E+00 0.  1.
</event>
<event>
 5   0  0.5370912E-07  0.3177898E+04  0.7818609E-02  0.8194679E-01
        1   -1    0    0  501    0  0.00000000000E+00  0.00000000000E+00  0.27160415118E+04  0.27160415118E+04  0.50400001928E-02 0.  1.
       -1   -1    0    0    0  501  0.00000000000E+00  0.00000000000E+00 -0.92957314604E+03  0.92957314605E+03  0.50400001928E-02 0. -1.
    10030    2    1    2    0    0  0.00000000000E+00  0.00000000000E+00  0.17864683658E+04  0.36456146579E+04  0.31778982067E+04 0.  0.
        1    1    3    3  502    0 -0.10461763485E+04 -0.11959269290E+04  0.89983234571E+03  0.18260406408E+04  0.50400001928E-02 0. -1.
       -1    1    3    3    0  502  0.10461763485E+04  0.11959269290E+04  0.88663602009E+03  0.18195740171E+04  0.50400001928E-02 0.  1.
</event>
<event>
 5   0  0.5233813E-07  0.3197217E+04  0.7818609E-02  0.8189553E-01
        1   -1    0    0  501    0  0.00000000000E+00  0.00000000000E+00  0.18634879498E+04  0.18634879498E+04  0.50400001928E-02 0.  1.
       -1   -1    0    0    0  501  0.00000000000E+00  0.00000000000E+00 -0.13713793260E+04  0.13713793260E+04  0.50400001928E-02 0. -1.
    10030    2    1    2    0    0  0.00000000000E+00  0.00000000000E+00  0.49210862374E+03  0.32348672758E+04  0.31972168201E+04 0.  0.
        4    1    3    3  502    0  0.14317284996E+04 -0.65693671838E+03  0.52153787600E+03  0.16593419532E+04  0.12699999809E+01 0. -1.
       -4    1    3    3    0  502 -0.14317284996E+04  0.65693671838E+03 -0.29429252252E+02  0.15755253227E+04  0.12699999809E+01 0.  1.
</event>
<event>
 5   0  0.1508771E-06  0.3131186E+04  0.7818609E-02  0.8207231E-01
        2   -1    0    0  501    0  0.00000000000E+00  0.00000000000E+00  0.11375678650E+04  0.11375678650E+04  0.25500000920E-02 0.  1.
       -2   -1    0    0    0  501  0.00000000000E+00  0.00000000000E+00 -0.21546678471E+04  0.21546678471E+04  0.25500000920E-02 0. -1.
    10030    2    1    2    0    0  0.00000000000E+00  0.00000000000E+00 -0.10170999821E+04  0.32922357122E+04  0.31311856558E+04 0.  0.
        4    1    3    3  502    0 -0.95655146269E+03 -0.90195756492E+03  0.38520690010E+03  0.13700015031E+04  0.12699999809E+01 0.  1.
       -4    1    3    3    0  502  0.95655146269E+03  0.90195756492E+03 -0.14023068822E+04  0.19222342091E+04  0.12699999809E+01 0. -1.
</event>
<event>
 5   0  0.1572769E-06  0.3174980E+04  0.7818609E-02  0.8195456E-01
        2   -1    0    0  501    0  0.00000000000E+00  0.00000000000E+00  0.28831360511E+04  0.28831360511E+04  0.25500000920E-02 0.  1.
       -2   -1    0    0    0  501  0.00000000000E+00  0.00000000000E+00 -0.87409169798E+03  0.87409169799E+03  0.25500000920E-02 0. -1.
    10030    2    1    2    0    0  0.00000000000E+00  0.00000000000E+00  0.20090443532E+04  0.37572277491E+04  0.31749804953E+04 0.  0.
        5    1    3    3  502    0 -0.11424873485E+04  0.16801321827E+03 -0.28455274121E+03  0.11893267572E+04  0.46999998093E+01 0. -1.
       -5    1    3    3    0  502  0.11424873485E+04 -0.16801321827E+03  0.22935970944E+04  0.25679009919E+04  0.46999998093E+01 0.  1.
</event>
<event>
 5   0  0.5370912E-07  0.3194522E+04  0.7818609E-02  0.8190265E-01
       -1   -1    0    0    0  501  0.00000000000E+00  0.00000000000E+00  0.11073177722E+04  0.11073177722E+04  0.50400001928E-02 0.  1.
        1   -1    0    0  501    0  0.00000000000E+00  0.00000000000E+00 -0.23039849645E+04  0.23039849645E+04  0.50400001928E-02 0. -1.
    10030    2    1    2    0    0  0.00000000000E+00  0.00000000000E+00 -0.11966671923E+04  0.34113027367E+04  0.31945224983E+04 0.  0.
        1    1    3    3  502    0 -0.11666175470E+02 -0.11260960458E+04  0.61123414103E+03  0.12813413203E+04  0.50400001928E-02 0.  1.
       -1    1    3    3    0  502  0.11666175470E+02  0.11260960458E+04 -0.18079013333E+04  0.21299614163E+04  0.50400001928E-02 0. -1.
</event>
<event>
 5   0  0.1556396E-06  0.3182332E+04  0.7818609E-02  0.8193499E-01
       -2   -1    0    0    0  501  0.00000000000E+00  0.00000000000E+00  0.22383698680E+04  0.22383698680E+04  0.25500000920E-02 0. -1.
        2   -1    0    0  501    0  0.00000000000E+00  0.00000000000E+00 -0.11310947729E+04  0.11310947729E+04  0.25500000920E-02 0.  1.
    10030    2    1    2    0    0  0.00000000000E+00  0.00000000000E+00  0.11072750951E+04  0.33694646409E+04  0.31823315085E+04 0.  0.
        3    1    3    3  502    0  0.78276228631E+02 -0.23423076228E+03 -0.11106784780E+04  0.11378039856E+04  0.10100000352E+00 0.  1.
       -3    1    3    3    0  502 -0.78276228631E+02  0.23423076228E+03  0.22179535731E+04  0.22316606553E+04  0.10100000352E+00 0. -1.
</event>
<event>
 5   0  0.1538349E-06  0.3195634E+04  0.7818609E-02  0.8189971E-01
        2   -1    0    0  501    0  0.00000000000E+00  0.00000000000E+00  0.22787498590E+04  0.22787498590E+04  0.25500000920E-02 0.  1.
       -2   -1    0    0    0  501  0.00000000000E+00  0.00000000000E+00 -0.11203595257E+04  0.11203595257E+04  0.25500000920E-02 0. -1.
    10030    2    1    2    0    0  0.00000000000E+00  0.00000000000E+00  0.11583903333E+04  0.33991093847E+04  0.31956339660E+04 0.  0.
        1    1    3    3  502    0  0.18399741506E+03  0.15554908784E+04  0.24348510704E+03  0.15851472862E+04  0.50400001928E-02 0.  1.
       -1    1    3    3    0  502 -0.18399741506E+03 -0.15554908784E+04  0.91490522623E+03  0.18139620985E+04  0.50400001928E-02 0. -1.
</event>
<event>
 5   0  0.1493485E-06  0.3187485E+04  0.7818609E-02  0.8192130E-01
       -2   -1    0    0    0  501  0.00000000000E+00  0.00000000000E+00  0.14831223255E+04  0.14831223255E+04  0.25500000920E-02 0.  1.
        2   -1    0    0  501    0  0.00000000000E+00  0.00000000000E+00 -0.17126134624E+04  0.17126134624E+04  0.25500000920E-02 0. -1.
    10030    2    1    2    0    0  0.00000000000E+00  0.00000000000E+00 -0.22949113691E+03  0.31957357879E+04  0.31874850657E+04 0.  0.
        2    1    3    3  502    0  0.11227618119E+04 -0.12244992088E+03  0.10126326012E+04  0.15169089802E+04  0.25500000920E-02 0.  1.
       -2    1    3    3    0  502 -0.11227618119E+04  0.12244992088E+03 -0.12421237381E+04  0.16788268077E+04  0.25500000920E-02 0. -1.
</event>
<event>
 5   0  0.5317728E-07  0.3104997E+04  0.7818609E-02  0.8214368E-01
       -1   -1    0    0    0  501  0.00000000000E+00  0.00000000000E+00  0.10900133348E+04  0.10900133348E+04  0.50400001928E-02 0.  1.
        1   -1    0    0  501    0  0.00000000000E+00  0.00000000000E+00 -0.22112132896E+04  0.22112132896E+04  0.50400001928E-02 0. -1.
    10030    2    1    2    0    0  0.00000000000E+00  0.00000000000E+00 -0.11211999548E+04  0.33012266245E+04  0.31049972444E+04 0.  0.
        2    1    3    3  502    0  0.39740237878E+03  0.61723610185E+03  0.89382327343E+03  0.11566456243E+04  0.25500000920E-02 0.  1.
       -2    1    3    3    0  502 -0.39740237878E+03 -0.61723610185E+03 -0.20150232282E+04  0.21445810002E+04  0.25500000920E-02 0. -1.
</event>
<event>
 5   0  0.5233813E-07  0.3229415E+04  0.7818609E-02  0.8181092E-01
        1   -1    0    0  501    0  0.00000000000E+00  0.00000000000E+00  0.24298535173E+04  0.24298535173E+04  0.50400001928E-02 0.  1.
       -1   -1    0    0    0  501  0.00000000000E+00  0.00000000000E+00 -0.10730196445E+04  0.10730196445E+04  0.50400001928E-02 0. -1.
    10030    2    1    2    0    0  0.00000000000E+00  0.00000000000E+00  0.13568338728E+04  0.35028731619E+04  0.32294151529E+04 0.  0.
        4    1    3    3  502    0  0.86254738989E+03 -0.63031366262E+03 -0.63489191483E+03  0.12427279145E+04  0.12699999809E+01 0. -1.
       -4    1    3    3    0  502 -0.86254738989E+03  0.63031366262E+03  0.19917257876E+04  0.22601452474E+04  0.12699999809E+01 0.  1.
</event>
<event>
 5   0  0.1572769E-06  0.3181144E+04  0.7818609E-02  0.8193815E-01
       -2   -1    0    0    0  501  0.00000000000E+00  0.00000000000E+00  0.16544705739E+04  0.16544705739E+04  0.25500000920E-02 0.  1.
        2   -1    0    0  501    0  0.00000000000E+00  0.00000000000E+00 -0.15291412032E+04  0.15291412032E+04  0.25500000920E-02 0. -1.
    10030    2    1    2    0    0  0.00000000000E+00  0.00000000000E+00  0.12532937070E+03  0.31836117771E+04  0.31811438975E+04 0.  0.
        5    1    3    3  502    0  0.15179056377E+01 -0.54939576251E+03  0.15564910980E+04  0.16506134120E+04  0.46999998093E+01 0.  1.
       -5    1    3    3    0  502 -0.15179056377E+01  0.54939576251E+03 -0.14311617273E+04  0.15329983651E+04  0.46999998093E+01 0. -1.
</event>
<event>
 5   0  0.5317728E-07  0.3193095E+04  0.7818609E-02  0.8190643E-01
        1   -1    0    0  501    0  0.00000000000E+00  0.00000000000E+00  0.14719728714E+04  0.14719728714E+04  0.50400001928E-02 0.  1.
       -1   -1    0    0    0  501  0.00000000000E+00  0.00000000000E+00 -0.17316644838E+04  0.17316644838E+04  0.50400001928E-02 0. -1.
    10030    2    1    2    0    0  0.00000000000E+00  0.00000000000E+00 -0.25969161232E+03  0.32036373552E+04  0.31930945132E+04 0.  0.
        2    1    3    3  502    0  0.40350541123E+03  0.15445753369E+04 -0.15073651978E+03  0.16035121099E+04  0.25500000920E-02 0.  1.
       -2    1    3    3    0  502 -0.40350541123E+03 -0.15445753369E+04 -0.10895509253E+03  0.16001252453E+04  0.25500000920E-02 0. -1.
</event>
<event>
 5   0  0.5281187E-07  0.3186004E+04  0.7818609E-02  0.8192523E-01
        1   -1    0    0  501    0  0.00000000000E+00  0.00000000000E+00  0.20268212696E+04  0.20268212696E+04  0.50400001928E-02 0.  1.
       -1   -1    0    0    0  501  0.00000000000E+00  0.00000000000E+00 -0.12520366934E+04  0.12520366934E+04  0.50400001928E-02 0. -1.
    10030    2    1    2    0    0  0.00000000000E+00  0.00000000000E+00  0.77478457617E+03  0.32788579629E+04  0.31860035156E+04 0.  0.
        5    1    3    3  502    0 -0.10298195070E+04 -0.90400690428E+03  0.12233945593E+04  0.18369738806E+04  0.46999998093E+01 0.  1.
       -5    1    3    3    0  502  0.10298195070E+04  0.90400690428E+03 -0.44860998318E+03  0.14418840824E+04  0.46999998093E+01 0. -1.
</event>
<event>
 5   0  0.5233813E-07  0.3083888E+04  0.7818609E-02  0.8220174E-01
        1   -1    0    0  501    0  0.00000000000E+00  0.00000000000E+00  0.16881531390E+04  0.16881531390E+04  0.50400001928E-02 0.  1.
       -1   -1    0    0    0  501  0.00000000000E+00  0.00000000000E+00 -0.14083977772E+04  0.14083977772E+04  0.50400001928E-02 0. -1.
    10030    2    1    2    0    0  0.00000000000E+00  0.00000000000E+00  0.27975536184E+03  0.30965509162E+04  0.30838878894E+04 0.  0.
        4    1    3    3  502    0 -0.23865141705E+03  0.15133157981E+04  0.31526692981E+03  0.15641208565E+04  0.12699999809E+01 0. -1.
       -4    1    3    3    0  502  0.23865141705E+03 -0.15133157981E+04 -0.35511567972E+02  0.15324300598E+04  0.12699999809E+01 0.  1.
</event>
<event>
 5   0  0.5177039E-07  0.3193862E+04  0.7818609E-02  0.8190440E-01
        1   -1    0    0  501    0  0.00000000000E+00  0.00000000000E+00  0.19320301951E+04  0.19320301951E+04  0.50400001928E-02 0.  1.
       -1   -1    0    0    0  501  0.00000000000E+00  0.00000000000E+00 -0.13199530833E+04  0.13199530833E+04  0.50400001928E-02 0. -1.
    10030    2    1    2    0    0  0.00000000000E+00  0.00000000000E+00  0.61207711177E+03  0.32519832784E+04  0.31938623722E+04 0.  0.
        3    1    3    3  502    0 -0.66062966339E+03  0.14483559387E+04  0.17715417127E+03  0.16017334635E+04  0.10100000352E+00 0. -1.
       -3    1    3    3    0  502  0.66062966339E+03 -0.14483559387E+04  0.43492294050E+03  0.16502498150E+04  0.10100000352E+00 0.  1.
</event>
<event>
 5   0  0.5281187E-07  0.3199471E+04  0.7818609E-02  0.8188957E-01
        1   -1    0    0  501    0  0.00000000000E+00  0.00000000000E+00  0.20106795004E+04  0.20106795004E+04  0.50400001928E-02 0.  1.
       -1   -1    0    0    0  501  0.00000000000E+00  0.00000000000E+00 -0.12727807686E+04  0.12727807686E+04  0.50400001928E-02 0. -1.
    10030    2    1    2    0    0  0.00000000000E+00  0.00000000000E+00  0.73789873180E+03  0.32834602690E+04  0.31994713313E+04 0.  0.
        5    1    3    3  502    0  0.65529044359E+03  0.54506863681E+03 -0.10203330866E+04  0.13295138517E+04  0.46999998093E+01 0. -1.
       -5    1    3    3    0  502 -0.65529044359E+03 -0.54506863681E+03  0.17582318184E+04  0.19539464173E+04  0.46999998093E+01 0.  1.
</event>
<event>
 5   0  0.5370912E-07  0.3204180E+04  0.7818609E-02  0.8187714E-01
       -1   -1    0    0    0  501  0.00000000000E+00  0.00000000000E+00  0.14803165863E+04  0.14803165864E+04  0.50400001928E-02 0.  1.
        1   -1    0    0  501    0  0.00000000000E+00  0.00000000000E+00 -0.17338802502E+04  0.17338802502E+04  0.50400001928E-02 0. -1.
    10030    2    1    2    0    0  0.00000000000E+00  0.00000000000E+00 -0.25356366384E+03  0.32141968365E+04  0.32041795787E+04 0.  0.
        1    1    3    3  502    0  0.14937361792E+04 -0.57873317359E+03 -0.14947630803E+03  0.16088887550E+04  0.50400001928E-02 0.  1.
       -1    1    3    3    0  502 -0.14937361792E+04  0.57873317359E+03 -0.10408735581E+03  0.16053080816E+04  0.50400001928E-02 0. -1.
</event>
<event>
 5   0  0.4995625E-07  0.3192340E+04  0.7818609E-02  0.8190843E-01
        3   -1    0    0  501    0  0.00000000000E+00  0.00000000000E+00  0.12199546594E+04  0.12199546635E+04  0.10100000352E+00 0. -1.
       -3   -1    0    0    0  501  0.00000000000E+00  0.00000000000E+00 -0.20884037586E+04  0.20884037610E+04  0.10100000352E+00 0.  1.
    10030    2    1    2    0    0  0.00000000000E+00  0.00000000000E+00 -0.86844909921E+03  0.33083584245E+04  0.31923395226E+04 0.  0.
        3    1    3    3  502    0 -0.12778513089E+03 -0.26947199180E+03 -0.20592729187E+04  0.20807568714E+04  0.10100000352E+00 0.  1.
       -3    1    3    3    0  502  0.12778513089E+03  0.26947199180E+03  0.11908238195E+04  0.12276015531E+04  0.10100000352E+00 0. -1.
</event>
<event>
 5   0  0.1538349E-06  0.3183163E+04  0.7818609E-02  0.8193278E-01
       -2   -1    0    0    0  501  0.00000000000E+00  0.00000000000E+00  0.12395431879E+04  0.12395431879E+04  0.25500000920E-02 0.  1.
        2   -1    0    0  501    0  0.00000000000E+00  0.00000000000E+00 -0.20436009157E+04  0.20436009157E+04  0.25500000920E-02 0. -1.
    10030    2    1    2    0    0  0.00000000000E+00  0.00000000000E+00 -0.80405772781E+03  0.32831441035E+04  0.31831629514E+04 0.  0.
        1    1    3    3  502    0  0.11235152499E+03 -0.14174001396E+04 -0.11396744837E+04  0.18222249998E+04  0.50400001928E-02 0. -1.
       -1    1    3    3    0  502 -0.11235152499E+03  0.14174001396E+04  0.33561675594E+03  0.14609191038E+04  0.50400001928E-02 0.  1.
</event>
<event>
 5   0  0.5370912E-07  0.3205942E+04  0.7818609E-02  0.8187250E-01
       -1   -1    0    0    0  501  0.00000000000E+00  0.00000000000E+00  0.18594335468E+04  0.18594335468E+04  0.50400001928E-02 0. -1.
        1   -1    0    0  501    0  0.00000000000E+00  0.00000000000E+00 -0.13818808775E+04  0.13818808775E+04  0.50400001928E-02 0.  1.
    10030    2    1    2    0    0  0.00000000000E+00  0.00000000000E+00  0.47755266931E+03  0.32413144244E+04  0.32059417720E+04 0.  0.
        1    1    3    3  502    0  0.69121303135E+03  0.64711416667E+03 -0.10689333968E+04  0.14279883775E+04  0.50400001928E-02 0.  1.
       -1    1    3    3    0  502 -0.69121303135E+03 -0.64711416667E+03  0.15464860661E+04  0.18133260469E+04  0.50400001928E-02 0. -1.
</event>
<event>
 5   0  0.1508771E-06  0.3231907E+04  0.7818609E-02  0.8180441E-01
        2   -1    0    0  501    0  0.00000000000E+00  0.00000000000E+00  0.22721840452E+04  0.22721840452E+04  0.25500000920E-02 0.  1.
       -2   -1    0    0    0  501  0.00000000000E+00  0.00000000000E+00 -0.11492494708E+04  0.11492494708E+04  0.25500000920E-02 0. -1.
    10030    2    1    2    0    0  0.00000000000E+00  0.00000000000E+00  0.11229345744E+04  0.34214335159E+04  0.32319073696E+04 0.  0.
        4    1    3    3  502    0  0.14642335574E+04 -0.65713552817E+03  0.76092425806E+03  0.17761797072E+04  0.12699999809E+01 0.  1.
       -4    1    3    3    0  502 -0.14642335574E+04  0.65713552817E+03  0.36201031633E+03  0.16452538087E+04  0.12699999809E+01 0. -1.
</event>
<event>
 5   0  0.1572769E-06  0.3219340E+04  0.7818609E-02  0.8183728E-01
        2   -1    0    0  501    0  0.00000000000E+00  0.00000000000E+00  0.17326219599E+04  0.17326219599E+04  0.25500000920E-02 0.  1.
       -2   -1    0    0    0  501  0.00000000000E+00  0.00000000000E+00 -0.14954427381E+04  0.14954427381E+04  0.25500000920E-02 0. -1.
    10030    2    1    2    0    0  0.00000000000E+00  0.00000000000E+00  0.23717922183E+03  0.32280646979E+04  0.32193396389E+04 0.  0.
        5    1    3    3  502    0 -0.10430745465E+04  0.11110134225E+04 -0.40113889450E+03  0.15758457530E+04  0.46999998093E+01 0. -1.
       -5    1    3    3    0  502  0.10430745465E+04 -0.11110134225E+04  0.63831811633E+03  0.16522189450E+04  0.46999998093E+01 0.  1.
</event>
<event>
 5   0  0.5317728E-07  0.3194467E+04  0.7818609E-02  0.8190280E-01
       -1   -1    0    0    0  501  0.00000000000E+00  0.00000000000E+00  0.14171511014E+04  0.14171511014E+04  0.50400001928E-02 0.  1.
        1   -1    0    0  501    0  0.00000000000E+00  0.00000000000E+00 -0.18001990883E+04  0.18001990883E+04  0.50400001928E-02 0. -1.
    10030    2    1    2    0    0  0.00000000000E+00  0.00000000000E+00 -0.38304798691E+03  0.32173501898E+04  0.31944665413E+04 0.  0.
        2    1    3    3  502    0 -0.13185761148E+04  0.69861716095E+03 -0.76520526942E+03  0.16769758533E+04  0.25500000920E-02 0.  1.
       -2    1    3    3    0  502  0.13185761148E+04 -0.69861716095E+03  0.38215728251E+03  0.15403743365E+04  0.25500000920E-02 0. -1.
</event>
<event>
 5   0  0.5370912E-07  0.3203474E+04  0.7818609E-02  0.8187900E-01
       -1   -1    0    0    0  501  0.00000000000E+00  0.00000000000E+00  0.14223695635E+04  0.14223695635E+04  0.50400001928E-02 0. -1.
        1   -1    0    0  501    0  0.00000000000E+00  0.00000000000E+00 -0.18037235755E+04  0.18037235755E+04  0.50400001928E-02 0.  1.
    10030    2    1    2    0    0  0.00000000000E+00  0.00000000000E+00 -0.38135401200E+03  0.32260931391E+04  0.32034740610E+04 0.  0.
        1    1    3    3  502    0  0.71715347408E+03  0.10966371892E+04 -0.11183977247E+04  0.17227117288E+04  0.50400001928E-02 0.  1.
       -1    1    3    3    0  502 -0.71715347408E+03 -0.10966371892E+04  0.73704371269E+03  0.15033814102E+04  0.50400001928E-02 0. -1.
</event>
<event>
 5   0  0.1493485E-06  0.3189040E+04  0.7818609E-02  0.8191718E-01
        2   -1    0    0  501    0  0.00000000000E+00  0.00000000000E+00  0.21800878276E+04  0.21800878276E+04  0.25500000920E-02 0. -1.
       -2   -1    0    0    0  501  0.00000000000E+00  0.00000000000E+00 -0.11662347781E+04  0.11662347781E+04  0.25500000920E-02 0.  1.
    10030    2    1    2    0    0  0.00000000000E+00  0.00000000000E+00  0.10138530494E+04  0.33463226057E+04  0.31890401339E+04 0.  0.
        2    1    3    3  502    0  0.28186353414E+02 -0.28486234390E+03  0.21529051977E+04  0.21718521625E+04  0.25500000920E-02 0. -1.
       -2    1    3    3    0  502 -0.28186353414E+02  0.28486234390E+03 -0.11390521483E+04  0.11744704432E+04  0.25500000920E-02 0.  1.
</event>
<event>
 5   0  0.5177039E-07  0.3198332E+04  0.7818609E-02  0.8189258E-01
        1   -1    0    0  501    0  0.00000000000E+00  0.00000000000E+00  0.11936172542E+04  0.11936172542E+04  0.50400001928E-02 0. -1.
       -1   -1    0    0    0  501  0.00000000000E+00  0.00000000000E+00 -0.21425059736E+04  0.21425059736E+04  0.50400001928E-02 0.  1.
    10030    2    1    2    0    0  0.00000000000E+00  0.00000000000E+00 -0.94888871933E+03  0.33361232278E+04  0.31983321262E+04 0.  0.
        3    1    3    3  502    0  0.55271252505E+03 -0.70447243522E+03 -0.18565024740E+04  0.20611584106E+04  0.10100000352E+00 0.  1.
       -3    1    3    3    0  502 -0.55271252505E+03  0.70447243522E+03  0.90761375466E+03  0.12749648172E+04  0.10100000352E+00 0. -1.
</event>
<event>
 5   0  0.5177039E-07  0.3392300E+04  0.7818609E-02  0.8139799E-01
        1   -1    0    0  501    0  0.00000000000E+00  0.00000000000E+00  0.19472309192E+04  0.19472309192E+04  0.50400001928E-02 0. -1.
       -1   -1    0    0    0  501  0.00000000000E+00  0.00000000000E+00 -0.14774436810E+04  0.14774436811E+04  0.50400001928E-02 0.  1.
    10030    2    1    2    0    0  0.00000000000E+00  0.00000000000E+00  0.46978723818E+03  0.34246746003E+04  0.33922995252E+04 0.  0.
        3    1    3    3  502    0 -0.98292084541E+03  0.12895819806E+04 -0.26762082237E+03  0.16434037811E+04  0.10100000352E+00 0.  1.
       -3    1    3    3    0  502  0.98292084541E+03 -0.12895819806E+04  0.73740806055E+03  0.17812708191E+04  0.10100000352E+00 0. -1.
</event>
<event>
 5   0  0.1493485E-06  0.3196492E+04  0.7818609E-02  0.8189744E-01
       -2   -1    0    0    0  501  0.00000000000E+00  0.00000000000E+00  0.12670155780E+04  0.12670155780E+04  0.25500000920E-02 0. -1.
        2   -1    0    0  501    0  0.00000000000E+00  0.00000000000E+00 -0.20160682547E+04  0.20160682547E+04  0.25500000920E-02 0.  1.
    10030    2    1    2    0    0  0.00000000000E+00  0.00000000000E+00 -0.74905267667E+03  0.32830838326E+04  0.31964917550E+04 0.  0.
        2    1    3    3  502    0 -0.82894614987E+03 -0.47838242999E+03 -0.16891965368E+04  0.19414907697E+04  0.25500000920E-02 0.  1.
       -2    1    3    3    0  502  0.82894614987E+03  0.47838242999E+03  0.94014386018E+03  0.13415930629E+04  0.25500000920E-02 0. -1.
</event>
<event>
 5   0  0.5281187E-07  0.3186675E+04  0.7818609E-02  0.8192345E-01
        1   -1    0    0  501    0  0.00000000000E+00  0.00000000000E+00  0.17662714964E+04  0.17662714965E+04  0.50400001928E-02 0. -1.
       -1   -1    0    0    0  501  0.00000000000E+00  0.00000000000E+00 -0.14373348903E+04  0.14373348903E+04  0.50400001928E-02 0.  1.
    10030    2    1    2    0    0  0.00000000000E+00  0.00000000000E+00  0.32893660615E+03  0.32036063868E+04  0.31866745347E+04 0.  0.
        5    1    3    3  502    0  0.22110216320E+02  0.60831596561E+03  0.16447608202E+04  0.17537951480E+04  0.46999998093E+01 0. -1.
       -5    1    3    3    0  502 -0.22110216320E+02 -0.60831596561E+03 -0.13158242140E+04  0.14498112387E+04  0.46999998093E+01 0.  1.
</event>
<event>
 5   0  0.1556396E-06  0.3185438E+04  0.7818609E-02  0.8192673E-01
       -2   -1    0    0    0  501  0.00000000000E+00  0.00000000000E+00  0.14893448946E+04  0.14893448946E+04  0.25500000920E-02 0. -1.
        2   -1    0    0  501    0  0.00000000000E+00  0.00000000000E+00 -0.17032686101E+04  0.17032686101E+04  0.25500000920E-02 0.  1.
    10030    2    1    2    0    0  0.00000000000E+00  0.00000000000E+00 -0.21392371551E+03  0.31926135047E+04  0.31854383739E+04 0.  0.
        3    1    3    3  502    0  0.96171412332E+03 -0.12175692399E+04  0.25355030820E+03  0.15721503357E+04  0.10100000352E+00 0. -1.
       -3    1    3    3    0  502 -0.96171412332E+03  0.12175692399E+04 -0.46747402372E+03  0.16204631690E+04  0.10100000352E+00 0.  1.
</event>
<event>
 5   0  0.1556396E-06  0.3086241E+04  0.7818609E-02  0.8219524E-01
       -2   -1    0    0    0  501  0.00000000000E+00  0.00000000000E+00  0.10473674237E+04  0.10473674237E+04  0.25500000920E-02 0.  1.
        2   -1    0    0  501    0  0.00000000000E+00  0.00000000000E+00 -0.22735299445E+04  0.22735299445E+04  0.25500000920E-02 0. -1.
    10030    2    1    2    0    0  0.00000000000E+00  0.00000000000E+00 -0.12261625208E+04  0.33208973682E+04  0.30862412095E+04 0.  0.
        3    1    3    3  502    0 -0.72145183380E+03  0.77345188621E+03 -0.18221232622E+04  0.21068587427E+04  0.10100000352E+00 0. -1.
       -3    1    3    3    0  502  0.72145183380E+03 -0.77345188621E+03  0.59596074142E+03  0.12140386255E+04  0.10100000352E+00 0.  1.
</event>
<event>
 5   0  0.1493485E-06  0.3258752E+04  0.7818609E-02  0.8173471E-01
       -2   -1    0    0    0  501  0.00000000000E+00  0.00000000000E+00  0.10812170458E+04  0.10812170458E+04  0.25500000920E-02 0.  1.
        2   -1    0    0  501    0  0.00000000000E+00  0.00000000000E+00 -0.24554416704E+04  0.24554416704E+04  0.25500000920E-02 0. -1.
    10030    2    1    2    0    0  0.00000000000E+00  0.00000000000E+00 -0.13742246246E+04  0.35366587162E+04  0.32587515333E+04 0.  0.
        2    1    3    3  502    0 -0.16552301187E+03 -0.13115670900E+04  0.34661886870E+03  0.13666567744E+04  0.25500000920E-02 0.  1.
       -2    1    3    3    0  502  0.16552301187E+03  0.13115670900E+04 -0.17208434933E+04  0.21700019418E+04  0.25500000920E-02 0. -1.
</event>
<event>
 5   0  0.5233813E-07  0.3190598E+04  0.7818609E-02  0.8191305E-01
        1   -1    0    0  501    0  0.00000000000E+00  0.00000000000E+00  0.17474504371E+04  0.17474504371E+04  0.50400001928E-02 0. -1.
       -1   -1    0    0    0  501  0.00000000000E+00  0.00000000000E+00 -0.14563954774E+04  0.14563954774E+04  0.50400001928E-02 0.  1.
    10030    2    1    2    0    0  0.00000000000E+00  0.00000000000E+00  0.29105495973E+03  0.32038459146E+04  0.31905980089E+04 0.  0.
        4    1    3    3  502    0 -0.11274406548E+04 -0.11253470181E+04  0.58861762614E+02  0.15940497675E+04  0.12699999809E+01 0.  1.
       -4    1    3    3    0  502  0.11274406548E+04  0.11253470181E+04  0.23219319711E+03  0.16097961470E+04  0.12699999809E+01 0. -1.
</event>
<event>
 5   0  0.1538349E-06  0.3204406E+04  0.7818609E-02  0.8187654E-01
       -2   -1    0    0    0  501  0.00000000000E+00  0.00000000000E+00  0.14050833366E+04  0.14050833366E+04  0.25500000920E-02 0. -1.
        2   -1    0    0  501    0  0.00000000000E+00  0.00000000000E+00 -0.18269769454E+04  0.18269769454E+04  0.25500000920E-02 0.  1.
    10030    2    1    2    0    0  0.00000000000E+00  0.00000000000E+00 -0.42189360879E+03  0.32320602821E+04  0.32044062554E+04 0.  0.
        1    1    3    3  502    0 -0.61961242208E+03  0.95354491800E+03 -0.13493533971E+04  0.17646308551E+04  0.50400001928E-02 0.  1.
       -1    1    3    3    0  502  0.61961242208E+03 -0.95354491800E+03  0.92745978836E+03  0.14674294270E+04  0.50400001928E-02 0. -1.
</event>
<event>
 5   0  0.1493485E-06  0.3239797E+04  0.7818609E-02  0.8178385E-01
        2   -1    0    0  501    0  0.00000000000E+00  0.00000000000E+00  0.22768320557E+04  0.22768320557E+04  0.25500000920E-02 0. -1.
       -2   -1    0    0    0  501  0.00000000000E+00  0.00000000000E+00 -0.11525096808E+04  0.11525096808E+04  0.25500000920E-02 0.  1.
    10030    2    1    2    0    0  0.00000000000E+00  0.00000000000E+00  0.11243223749E+04  0.34293417365E+04  0.32397968984E+04 0.  0.
        2    1    3    3  502    0 -0.12988084908E+04  0.13399452522E+03  0.15770093003E+04  0.20473925764E+04  0.25500000920E-02 0. -1.
       -2    1    3    3    0  502  0.12988084908E+04 -0.13399452522E+03 -0.45268692543E+03  0.13819491601E+04  0.25500000920E-02 0.  1.
</event>
<event>
 5   0  0.1508771E-06  0.3206457E+04  0.7818609E-02  0.8187114E-01
        2   -1    0    0  501    0  0.00000000000E+00  0.00000000000E+00  0.13325325689E+04  0.13325325689E+04  0.25500000920E-02 0.  1.
       -2   -1    0    0    0  501  0.00000000000E+00  0.00000000000E+00 -0.19289146405E+04  0.19289146405E+04  0.25500000920E-02 0. -1.
    10030    2    1    2    0    0  0.00000000000E+00  0.00000000000E+00 -0.59638207158E+03  0.32614472095E+04  0.32064569738E+04 0.  0.
        4    1    3    3  502    0  0.15911421688E+04 -0.18241162349E+03 -0.37246781798E+03  0.16443057167E+04  0.12699999809E+01 0. -1.
       -4    1    3    3    0  502 -0.15911421688E+04  0.18241162349E+03 -0.22391425359E+03  0.16171414927E+04  0.12699999809E+01 0.  1.
</event>
<event>
 5   0  0.1556396E-06  0.3187000E+04  0.7818609E-02  0.8192259E-01
        2   -1    0    0  501    0  0.00000000000E+00  0.00000000000E+00  0.13044191832E+04  0.13044191832E+04  0.25500000920E-02 0. -1.
       -2   -1    0    0    0  501  0.00000000000E+00  0.00000000000E+00 -0.19466464392E+04  0.19466464392E+04  0.25500000920E-02 0.  1.
    10030    2    1    2    0    0  0.00000000000E+00  0.00000000000E+00 -0.64222725597E+03  0.32510656224E+04  0.31870004444E+04 0.  0.
        3    1    3    3  502    0  0.30731238275E+02 -0.46992396595E+03  0.12318120553E+04  0.13187622577E+04  0.10100000352E+00 0. -1.
       -3    1    3    3    0  502 -0.30731238275E+02  0.46992396595E+03 -0.18740393112E+04  0.19323033646E+04  0.10100000352E+00 0.  1.
</event>
<event>
 5   0  0.5317728E-07  0.3210537E+04  0.7818609E-02  0.8186040E-01
        1   -1    0    0  501    0  0.00000000000E+00  0.00000000000E+00  0.17119548442E+04  0.17119548442E+04  0.50400001928E-02 0. -1.
       -1   -1    0    0    0  501  0.00000000000E+00  0.00000000000E+00 -0.15052308224E+04  0.15052308224E+04  0.50400001928E-02 0.  1.
    10030    2    1    2    0    0  0.00000000000E+00  0.00000000000E+00  0.20672402180E+03  0.32171856666E+04  0.32105371501E+04 0.  0.
        2    1    3    3  502    0  0.89055731925E+03 -0.13181757909E+04  0.31876632430E+03  0.16224338890E+04  0.25500000920E-02 0. -1.
       -2    1    3    3    0  502 -0.89055731925E+03  0.13181757909E+04 -0.11204230249E+03  0.15947517776E+04  0.25500000920E-02 0.  1.
</event>
<event>
 5   0  0.1538349E-06  0.3138005E+04  0.7818609E-02  0.8205384E-01
        2   -1    0    0  501    0  0.00000000000E+00  0.00000000000E+00  0.18863182714E+04  0.18863182715E+04  0.25500000920E-02 0.  1.
       -2   -1    0    0    0  501  0.00000000000E+00  0.00000000000E+00 -0.13050657342E+04  0.13050657342E+04  0.25500000920E-02 0. -1.
    10030    2    1    2    0    0  0.00000000000E+00  0.00000000000E+00  0.58125253722E+03  0.31913840057E+04  0.31380053154E+04 0.  0.
        1    1    3    3  502    0  0.55956868327E+03  0.48489756141E+03 -0.11162070303E+04  0.13394629113E+04  0.50400001928E-02 0. -1.
       -1    1    3    3    0  502 -0.55956868327E+03 -0.48489756141E+03  0.16974595675E+04  0.18519210943E+04  0.50400001928E-02 0.  1.
</event>
<event>
 5   0  0.1508771E-06  0.3236356E+04  0.7818609E-02  0.8179281E-01
        2   -1    0    0  501    0  0.00000000000E+00  0.00000000000E+00  0.18333521621E+04  0.18333521621E+04  0.25500000920E-02 0.  1.
       -2   -1    0    0    0  501  0.00000000000E+00  0.00000000000E+00 -0.14282577761E+04  0.14282577761E+04  0.25500000920E-02 0. -1.
    10030    2    1    2    0    0  0.00000000000E+00  0.00000000000E+00  0.40509438595E+03  0.32616099382E+04  0.32363556553E+04 0.  0.
        4    1    3    3  502    0 -0.46062747101E+03 -0.62495685041E+03 -0.12283025216E+04  0.14530923678E+04  0.12699999809E+01 0. -1.
       -4    1    3    3    0  502  0.46062747101E+03  0.62495685041E+03  0.16333969075E+04  0.18085175704E+04  0.12699999809E+01 0.  1.
</event>
<event>
 5   0  0.5370912E-07  0.2965608E+04  0.7818609E-02  0.8253620E-01
       -1   -1    0    0    0  501  0.00000000000E+00  0.00000000000E+00  0.12338295864E+04  0.12338295864E+04  0.50400001928E-02 0. -1.
        1   -1    0    0  501    0  0.00000000000E+00  0.00000000000E+00 -0.17820194973E+04  0.17820194973E+04  0.50400001928E-02 0.  1.
    10030    2    1    2    0    0  0.00000000000E+00  0.00000000000E+00 -0.54818991085E+03  0.30158490837E+04  0.29656084565E+04 0.  0.
        1    1    3    3  502    0  0.10024729760E+04 -0.10873379989E+04 -0.38292374916E+03  0.15277063164E+04  0.50400001928E-02 0. -1.
       -1    1    3    3    0  502 -0.10024729760E+04  0.10873379989E+04 -0.16526616169E+03  0.14881427673E+04  0.50400001928E-02 0.  1.
</event>
<event>
 5   0  0.5317728E-07  0.3202583E+04  0.7818609E-02  0.8188135E-01
       -1   -1    0    0    0  501  0.00000000000E+00  0.00000000000E+00  0.99579517833E+03  0.99579517835E+03  0.50400001928E-02 0.  1.
        1   -1    0    0  501    0  0.00000000000E+00  0.00000000000E+00 -0.25749619122E+04  0.25749619122E+04  0.50400001928E-02 0. -1.
    10030    2    1    2    0    0  0.00000000000E+00  0.00000000000E+00 -0.15791667338E+04  0.35707570905E+04  0.32025831178E+04 0.  0.
        2    1    3    3  502    0  0.71278338293E+03 -0.58504920624E+03 -0.22492004723E+04  0.24308939692E+04  0.25500000920E-02 0. -1.
       -2    1    3    3    0  502 -0.71278338293E+03  0.58504920624E+03  0.67003373848E+03  0.11398631213E+04  0.25500000920E-02 0.  1.
</event>
<event>
 5   0  0.5281187E-07  0.3195519E+04  0.7818609E-02  0.8190002E-01
       -1   -1    0    0    0  501  0.00000000000E+00  0.00000000000E+00  0.14398893491E+04  0.14398893491E+04  0.50400001928E-02 0. -1.
        1   -1    0    0  501    0  0.00000000000E+00  0.00000000000E+00 -0.17729388496E+04  0.17729388496E+04  0.50400001928E-02 0.  1.
    10030    2    1    2    0    0  0.00000000000E+00  0.00000000000E+00 -0.33304950047E+03  0.32128281987E+04  0.31955192167E+04 0.  0.
        5    1    3    3  502    0  0.35333700939E+03 -0.36654728563E+03  0.13561453844E+04  0.14485704500E+04  0.46999998093E+01 0. -1.
       -5    1    3    3    0  502 -0.35333700939E+03  0.36654728563E+03 -0.16891948849E+04  0.17642577487E+04  0.46999998093E+01 0.  1.
</event>
<event>
 5   0  0.4995625E-07  0.3185412E+04  0.7818609E-02  0.8192680E-01
       -3   -1    0    0    0  501  0.00000000000E+00  0.00000000000E+00  0.25277717974E+04  0.25277717994E+04  0.10100000352E+00 0.  1.
        3   -1    0    0  501    0  0.00000000000E+00  0.00000000000E+00 -0.10035369939E+04  0.10035369990E+04  0.10100000352E+00 0. -1.
    10030    2    1    2    0    0  0.00000000000E+00  0.00000000000E+00  0.15242348035E+04  0.35313087985E+04  0.31854120760E+04 0.  0.
        1    1    3    3  502    0 -0.12406183766E+04  0.27976181196E+03  0.18250396911E+04  0.22244483590E+04  0.50400001928E-02 0.  1.
       -1    1    3    3    0  502  0.12406183766E+04 -0.27976181196E+03 -0.30080488769E+03  0.13068604394E+04  0.50400001928E-02 0. -1.
</event>
<event>
 5   0  0.5177039E-07  0.3204935E+04  0.7818609E-02  0.8187515E-01
       -1   -1    0    0    0  501  0.00000000000E+00  0.00000000000E+00  0.19238386897E+04  0.19238386897E+04  0.50400001928E-02 0.  1.
        1   -1    0    0  501    0  0.00000000000E+00  0.00000000000E+00 -0.13347801640E+04  0.13347801641E+04  0.50400001928E-02 0. -1.
    10030    2    1    2    0    0  0.00000000000E+00  0.00000000000E+00  0.58905852566E+03  0.32586188538E+04  0.32049347712E+04 0.  0.
        3    1    3    3  502    0  0.40130943393E+03 -0.98851604039E+03  0.15102535169E+04  0.18490751524E+04  0.10100000352E+00 0.  1.
       -3    1    3    3    0  502 -0.40130943393E+03  0.98851604039E+03 -0.92119499124E+03  0.14095437013E+04  0.10100000352E+00 0. -1.
</event>
<event>
 5   0  0.1508771E-06  0.3209652E+04  0.7818609E-02  0.8186273E-01
       -2   -1    0    0    0  501  0.00000000000E+00  0.00000000000E+00  0.15729596553E+04  0.15729596553E+04  0.25500000920E-02 0.  1.
        2   -1    0    0  501    0  0.00000000000E+00  0.00000000000E+00 -0.16373380352E+04  0.16373380352E+04  0.25500000920E-02 0. -1.
    10030    2    1    2    0    0  0.00000000000E+00  0.00000000000E+00 -0.64378379914E+02  0.32102976905E+04  0.32096521129E+04 0.  0.
        4    1    3    3  502    0 -0.11972349600E+03  0.67157339033E+02  0.15670762030E+04  0.15730776403E+04  0.12699999809E+01 0.  1.
       -4    1    3    3    0  502  0.11972349600E+03 -0.67157339033E+02 -0.16314545829E+04  0.16372200501E+04  0.12699999809E+01 0. -1.
</event>
<event>
 5   0  0.5370912E-07  0.3197130E+04  0.7818609E-02  0.8189576E-01
        1   -1    0    0  501    0  0.00000000000E+00  0.00000000000E+00  0.28552728192E+04  0.28552728192E+04  0.50400001928E-02 0. -1.
       -1   -1    0    0    0  501  0.00000000000E+00  0.00000000000E+00 -0.89497926492E+03  0.89497926494E+03  0.50400001928E-02 0.  1.
    10030    2    1    2    0    0  0.00000000000E+00  0.00000000000E+00  0.19602935542E+04  0.37502520841E+04  0.31971299435E+04 0.  0.
        1    1    3    3  502    0 -0.13669822186E+04  0.13923690800E+03  0.19384162085E+04  0.23760228744E+04  0.50400001928E-02 0. -1.
       -1    1    3    3    0  502  0.13669822186E+04 -0.13923690800E+03  0.21877345768E+02  0.13742292097E+04  0.50400001928E-02 0.  1.
</event>
<event>
 5   0  0.1572769E-06  0.3200260E+04  0.7818609E-02  0.8188749E-01
       -2   -1    0    0    0  501  0.00000000000E+00  0.00000000000E+00  0.12499191318E+04  0.12499191318E+04  0.25500000920E-02 0. -1.
        2   -1    0    0  501    0  0.00000000000E+00  0.00000000000E+00 -0.20484649060E+04  0.20484649060E+04  0.25500000920E-02 0.  1.
    10030    2    1    2    0    0  0.00000000000E+00  0.00000000000E+00 -0.79854577423E+03  0.32983840378E+04  0.32002596625E+04 0.  0.
        5    1    3    3  502    0  0.15651140313E+04 -0.26001339189E+03 -0.61350296929E+03  0.17010575764E+04  0.46999998093E+01 0.  1.
       -5    1    3    3    0  502 -0.15651140313E+04  0.26001339189E+03 -0.18504280494E+03  0.15973264615E+04  0.46999998093E+01 0. -1.
</event>
<event>
 5   0  0.1572769E-06  0.3191186E+04  0.7818609E-02  0.8191149E-01
        2   -1    0    0  501    0  0.00000000000E+00  0.00000000000E+00  0.21586822463E+04  0.21586822464E+04  0.25500000920E-02 0.  1.
       -2   -1    0    0    0  501  0.00000000000E+00  0.00000000000E+00 -0.11793850699E+04  0.11793850699E+04  0.25500000920E-02 0. -1.
    10030    2    1    2    0    0  0.00000000000E+00  0.00000000000E+00  0.97929717641E+03  0.33380673163E+04  0.31911863700E+04 0.  0.
        5    1    3    3  502    0 -0.68959997667E+03 -0.87417126335E+03  0.16851307670E+04  0.20197552618E+04  0.46999998093E+01 0. -1.
       -5    1    3    3    0  502  0.68959997667E+03  0.87417126335E+03 -0.70583359060E+03  0.13183120545E+04  0.46999998093E+01 0.  1.
</event>
<event>
 5   0  0.1572769E-06  0.3223800E+04  0.7818609E-02  0.8182560E-01
        2   -1    0    0  501    0  0.00000000000E+00  0.00000000000E+00  0.16375494708E+04  0.16375494708E+04  0.25500000920E-02 0. -1.
       -2   -1    0    0    0  501  0.00000000000E+00  0.00000000000E+00 -0.15866520580E+04  0.15866520580E+04  0.25500000920E-02 0.  1.
    10030    2    1    2    0    0  0.00000000000E+00  0.00000000000E+00  0.50897412794E+02  0.32242015289E+04  0.32237997692E+04 0.  0.
        5    1    3    3  502    0 -0.57959544161E+03 -0.92965283411E+03  0.12079724276E+04  0.16307681453E+04  0.46999998093E+01 0. -1.
       -5    1    3    3    0  502  0.57959544161E+03  0.92965283411E+03 -0.11570750148E+04  0.15934333836E+04  0.46999998093E+01 0.  1.
</event>
<event>
 5   0  0.1493485E-06  0.3219251E+04  0.7818609E-02  0.8183751E-01
       -2   -1    0    0    0  501  0.00000000000E+00  0.00000000000E+00  0.17276577088E+04  0.17276577088E+04  0.25500000920E-02 0.  1.
        2   -1    0    0  501    0  0.00000000000E+00  0.00000000000E+00 -0.14996575820E+04  0.14996575820E+04  0.25500000920E-02 0. -1.
    10030    2    1    2    0    0  0.00000000000E+00  0.00000000000E+00  0.22800012676E+03  0.32273152908E+04  0.32192514547E+04 0.  0.
        2    1    3    3  502    0 -0.12550496542E+04 -0.93204693827E+03 -0.27041036735E+03  0.15865002037E+04  0.25500000920E-02 0. -1.
       -2    1    3    3    0  502  0.12550496542E+04  0.93204693827E+03  0.49841049411E+03  0.16408150871E+04  0.25500000920E-02 0.  1.
</event>
<event>
 5   0  0.5233813E-07  0.3174812E+04  0.7818609E-02  0.8195501E-01
        1   -1    0    0  501    0  0.00000000000E+00  0.00000000000E+00  0.21647232541E+04  0.21647232541E+04  0.50400001928E-02 0.  1.
       -1   -1    0    0    0  501  0.00000000000E+00  0.00000000000E+00 -0.11640555902E+04  0.11640555902E+04  0.50400001928E-02 0. -1.
    10030    2    1    2    0    0  0.00000000000E+00  0.00000000000E+00  0.10006676639E+04  0.33287788443E+04  0.31748122497E+04 0.  0.
        4    1    3    3  502    0 -0.10325140830E+04  0.10814999412E+04  0.10592218284E+04  0.18323973230E+04  0.12699999809E+01 0. -1.
       -4    1    3    3    0  502  0.10325140830E+04 -0.10814999412E+04 -0.58554164556E+02  0.14963815214E+04  0.12699999809E+01 0.  1.
</event>
<event>
 5   0  0.1538349E-06  0.3203441E+04  0.7818609E-02  0.8187909E-01
        2   -1    0    0  501    0  0.00000000000E+00  0.00000000000E+00  0.15289980206E+04  0.15289980207E+04  0.25500000920E-02 0. -1.
       -2   -1    0    0    0  501  0.00000000000E+00  0.00000000000E+00 -0.16779014410E+04  0.16779014410E+04  0.25500000920E-02 0.  1.
    10030    2    1    2    0    0  0.00000000000E+00  0.00000000000E+00 -0.14890342039E+03  0.32068994617E+04  0.32034406392E+04 0.  0.
        1    1    3    3  502    0 -0.25014546021E+03 -0.88690845710E+03  0.12370500752E+04  0.15425538082E+04  0.50400001928E-02 0. -1.
       -1    1    3    3    0  502  0.25014546021E+03  0.88690845710E+03 -0.13859534956E+04  0.16643456535E+04  0.50400001928E-02 0.  1.
</event>
<event>
 5   0  0.1572769E-06  0.3193167E+04  0.7818609E-02  0.8190624E-01
        2   -1    0    0  501    0  0.00000000000E+00  0.00000000000E+00  0.11939325594E+04  0.11939325594E+04  0.25500000920E-02 0.  1.
       -2   -1    0    0    0  501  0.00000000000E+00  0.00000000000E+00 -0.21350281730E+04  0.21350281730E+04  0.25500000920E-02 0. -1.
    10030    2    1    2    0    0  0.00000000000E+00  0.00000000000E+00 -0.94109561361E+03  0.33289607324E+04  0.31931674876E+04 0.  0.
        5    1    3    3  502    0  0.30972843978E+03 -0.51183283950E+02 -0.21025279488E+04  0.21258403751E+04  0.46999998093E+01 0. -1.
       -5    1    3    3    0  502 -0.30972843978E+03  0.51183283950E+02  0.11614323352E+04  0.12031203573E+04  0.46999998093E+01 0.  1.
</event>
<event>
 5   0  0.1508771E-06  0.3189881E+04  0.7818609E-02  0.8191495E-01
        2   -1    0    0  501    0  0.00000000000E+00  0.00000000000E+00  0.25096101248E+04  0.25096101248E+04  0.25500000920E-02 0. -1.
       -2   -1    0    0    0  501  0.00000000000E+00  0.00000000000E+00 -0.10136376285E+04  0.10136376285E+04  0.25500000920E-02 0.  1.
    10030    2    1    2    0    0  0.00000000000E+00  0.00000000000E+00  0.14959724963E+04  0.35232477533E+04  0.31898810356E+04 0.  0.
        4    1    3    3  502    0 -0.94107389629E+03  0.12786840645E+04  0.91614957490E+03  0.18330260968E+04  0.12699999809E+01 0.  1.
       -4    1    3    3    0  502  0.94107389629E+03 -0.12786840645E+04  0.57982292142E+03  0.16902216565E+04  0.12699999809E+01 0. -1.
</event>
<event>
 5   0  0.1556396E-06  0.3198635E+04  0.7818609E-02  0.8189178E-01
        2   -1    0    0  501    0  0.00000000000E+00  0.00000000000E+00  0.24003872510E+04  0.24003872510E+04  0.25500000920E-02 0.  1.
       -2   -1    0    0    0  501  0.00000000000E+00  0.00000000000E+00 -0.10655849103E+04  0.10655849103E+04  0.25500000920E-02 0. -1.
    10030    2    1    2    0    0  0.00000000000E+00  0.00000000000E+00  0.13348023407E+04  0.34659721613E+04  0.31986349798E+04 0.  0.
        3    1    3    3  502    0  0.25961012755E+03 -0.44176604926E+03  0.23090357769E+04  0.23652063102E+04  0.10100000352E+00 0.  1.
       -3    1    3    3    0  502 -0.25961012755E+03  0.44176604926E+03 -0.97423343620E+03  0.11007658511E+04  0.10100000352E+00 0. -1.
</event>
<event>
 5   0  0.1572769E-06  0.3183810E+04  0.7818609E-02  0.8193106E-01
        2   -1    0    0  501    0  0.00000000000E+00  0.00000000000E+00  0.16002243130E+04  0.16002243130E+04  0.25500000920E-02 0. -1.
       -2   -1    0    0    0  501  0.00000000000E+00  0.00000000000E+00 -0.15836289504E+04  0.15836289504E+04  0.25500000920E-02 0.  1.
    10030    2    1    2    0    0  0.00000000000E+00  0.00000000000E+00  0.16595362542E+02  0.31838532634E+04  0.31838100127E+04 0.  0.
        5    1    3    3  502    0  0.15359392299E+04 -0.26098562604E+03  0.33528323008E+03  0.15936309953E+04  0.46999998093E+01 0.  1.
       -5    1    3    3    0  502 -0.15359392299E+04  0.26098562604E+03 -0.31868786754E+03  0.15902222681E+04  0.46999998093E+01 0. -1.
</event>
<event>
 5   0  0.5233813E-07  0.3213815E+04  0.7818609E-02  0.8185178E-01
       -1   -1    0    0    0  501  0.00000000000E+00  0.00000000000E+00  0.10709096953E+04  0.10709096953E+04  0.50400001928E-02 0.  1.
        1   -1    0    0  501    0  0.00000000000E+00  0.00000000000E+00 -0.24111752573E+04  0.24111752573E+04  0.50400001928E-02 0. -1.
    10030    2    1    2    0    0  0.00000000000E+00  0.00000000000E+00 -0.13402655620E+04  0.34820849526E+04  0.32138145311E+04 0.  0.
        4    1    3    3  502    0 -0.60505302209E+03 -0.10249028043E+04 -0.18399007783E+04  0.21912898952E+04  0.12699999809E+01 0. -1.
       -4    1    3    3    0  502  0.60505302209E+03  0.10249028043E+04  0.49963521631E+03  0.12907950574E+04  0.12699999809E+01 0.  1.
</event>
<event>
 5   0  0.5177039E-07  0.3140120E+04  0.7818609E-02  0.8204813E-01
       -1   -1    0    0    0  501  0.00000000000E+00  0.00000000000E+00  0.12185387945E+04  0.12185387945E+04  0.50400001928E-02 0. -1.
        1   -1    0    0  501    0  0.00000000000E+00  0.00000000000E+00 -0.20229870392E+04  0.20229870392E+04  0.50400001928E-02 0.  1.
    10030    2    1    2    0    0  0.00000000000E+00  0.00000000000E+00 -0.80444824464E+03  0.32415258337E+04  0.31401198627E+04 0.  0.
        3    1    3    3  502    0 -0.98989685348E+02 -0.44767816575E+03 -0.19523406631E+04  0.20054547547E+04  0.10100000352E+00 0.  1.
       -3    1    3    3    0  502  0.98989685348E+02  0.44767816575E+03  0.11478924185E+04  0.12360710791E+04  0.10100000352E+00 0. -1.
</event>
<event>
 5   0  0.5281187E-07  0.3208636E+04  0.7818609E-02  0.8186540E-01
        1   -1    0    0  501    0  0.00000000000E+00  0.00000000000E+00  0.26184378349E+04  0.26184378349E+04  0.50400001928E-02 0. -1.
       -1   -1    0    0    0  501  0.00000000000E+00  0.00000000000E+00 -0.98296609741E+03  0.98296609743E+03  0.50400001928E-02 0.  1.
    10030    2    1    2    0    0  0.00000000000E+00  0.00000000000E+00  0.16354717375E+04  0.36014039323E+04  0.32086356103E+04 0.  0.
        5    1    3    3  502    0  0.85894423404E+03 -0.48817009402E+03 -0.60099996811E+03  0.11564247877E+04  0.46999998093E+01 0.  1.
       -5    1    3    3    0  502 -0.85894423404E+03  0.48817009402E+03  0.22364717056E+04  0.24449791446E+04  0.46999998093E+01 0. -1.
</event>
<event>
 5   0  0.1538349E-06  0.3176546E+04  0.7818609E-02  0.8195039E-01
        2   -1    0    0  501    0  0.00000000000E+00  0.00000000000E+00  0.26786555335E+04  0.26786555335E+04  0.25500000920E-02 0.  1.
       -2   -1    0    0    0  501  0.00000000000E+00  0.00000000000E+00 -0.94174530653E+03  0.94174530653E+03  0.25500000920E-02 0. -1.
    10030    2    1    2    0    0  0.00000000000E+00  0.00000000000E+00  0.17369102270E+04  0.36204008401E+04  0.31765460969E+04 0.  0.
        1    1    3    3  502    0 -0.73735275302E+03  0.12908994656E+04  0.23132660748E+03  0.15045339850E+04  0.50400001928E-02 0. -1.
       -1    1    3    3    0  502  0.73735275302E+03 -0.12908994656E+04  0.15055836195E+04  0.21158668550E+04  0.50400001928E-02 0.  1.
</event>
<event>
 5   0  0.1572769E-06  0.3199313E+04  0.7818609E-02  0.8188999E-01
        2   -1    0    0  501    0  0.00000000000E+00  0.00000000000E+00  0.18174358188E+04  0.18174358188E+04  0.25500000920E-02 0.  1.
       -2   -1    0    0    0  501  0.00000000000E+00  0.00000000000E+00 -0.14079731333E+04  0.14079731333E+04  0.25500000920E-02 0. -1.
    10030    2    1    2    0    0  0.00000000000E+00  0.00000000000E+00  0.40946268555E+03  0.32254089521E+04  0.31993129290E+04 0.  0.
        5    1    3    3  502    0 -0.11340279002E+04 -0.10270688229E+04 -0.26596998573E+03  0.15529493774E+04  0.46999998093E+01 0.  1.
       -5    1    3    3    0  502  0.11340279002E+04  0.10270688229E+04  0.67543267128E+03  0.16724595747E+04  0.46999998093E+01 0. -1.
</event>
<event>
 5   0  0.5281187E-07  0.3294989E+04  0.7818609E-02  0.8164172E-01
       -1   -1    0    0    0  501  0.00000000000E+00  0.00000000000E+00  0.15836701978E+04  0.15836701978E+04  0.50400001928E-02 0.  1.
        1   -1    0    0  501    0  0.00000000000E+00  0.00000000000E+00 -0.17138906062E+04  0.17138906062E+04  0.50400001928E-02 0. -1.
    10030    2    1    2    0    0  0.00000000000E+00  0.00000000000E+00 -0.13022040839E+03  0.32975608040E+04  0.32949886041E+04 0.  0.
        5    1    3    3  502    0 -0.56551877901E+03  0.53451898777E+03  0.13881574564E+04  0.15913909801E+04  0.46999998093E+01 0.  1.
       -5    1    3    3    0  502  0.56551877901E+03 -0.53451898777E+03 -0.15183778648E+04  0.17061698239E+04  0.46999998093E+01 0. -1.
</event>
<event>
 5   0  0.5370912E-07  0.3195924E+04  0.7818609E-02  0.8189894E-01
        1   -1    0    0  501    0  0.00000000000E+00  0.00000000000E+00  0.14031874336E+04  0.14031874336E+04  0.50400001928E-02 0.  1.
       -1   -1    0    0    0  501  0.00000000000E+00  0.00000000000E+00 -0.18197735017E+04  0.18197735017E+04  0.50400001928E-02 0. -1.
    10030    2    1    2    0    0  0.00000000000E+00  0.00000000000E+00 -0.41658606816E+03  0.32229609353E+04  0.31959244732E+04 0.  0.
        1    1    3    3  502    0 -0.10797655947E+03 -0.13751115771E+04  0.60531115377E+03  0.15063174897E+04  0.50400001928E-02 0.  1.
       -1    1    3    3    0  502  0.10797655947E+03  0.13751115771E+04 -0.10218972219E+04  0.17166434456E+04  0.50400001928E-02 0. -1.
</event>
<event>
 5   0  0.1493485E-06  0.3158230E+04  0.7818609E-02  0.8199936E-01
        2   -1    0    0  501    0  0.00000000000E+00  0.00000000000E+00  0.17971054036E+04  0.17971054036E+04  0.25500000920E-02 0. -1.
       -2   -1    0    0    0  501  0.00000000000E+00  0.00000000000E+00 -0.13875673263E+04  0.13875673263E+04  0.25500000920E-02 0.  1.
    10030    2    1    2    0    0  0.00000000000E+00  0.00000000000E+00  0.40953807736E+03  0.31846727299E+04  0.31582303526E+04 0.  0.
        2    1    3    3  502    0  0.12148935067E+04  0.96168449717E+03 -0.10241479237E+03  0.15528335695E+04  0.25500000920E-02 0.  1.
       -2    1    3    3    0  502 -0.12148935067E+04 -0.96168449717E+03  0.51195286973E+03  0.16318391605E+04  0.25500000920E-02 0. -1.
</event>
<event>
 5   0  0.5370912E-07  0.3201469E+04  0.7818609E-02  0.8188429E-01
        1   -1    0    0  501    0  0.00000000000E+00  0.00000000000E+00  0.17925461813E+04  0.17925461813E+04  0.50400001928E-02 0.  1.
       -1   -1    0    0    0  501  0.00000000000E+00  0.00000000000E+00 -0.14294475516E+04  0.14294475516E+04  0.50400001928E-02 0. -1.
    10030    2    1    2    0    0  0.00000000000E+00  0.00000000000E+00  0.36309862970E+03  0.32219937329E+04  0.32014688816E+04 0.  0.
        1    1    3    3  502    0  0.94652397250E+02 -0.10768301132E+04  0.13697234368E+04  0.17448966910E+04  0.50400001928E-02 0.  1.
       -1    1    3    3    0  502 -0.94652397250E+02  0.10768301132E+04 -0.10066248071E+04  0.14770970419E+04  0.50400001928E-02 0. -1.
</event>
<event>
 5   0  0.1508771E-06  0.3229808E+04  0.7818609E-02  0.8180989E-01
        2   -1    0    0  501    0  0.00000000000E+00  0.00000000000E+00  0.15943604507E+04  0.15943604507E+04  0.25500000920E-02 0. -1.
       -2   -1    0    0    0  501  0.00000000000E+00  0.00000000000E+00 -0.16357117711E+04  0.16357117711E+04  0.25500000920E-02 0.  1.
    10030    2    1    2    0    0  0.00000000000E+00  0.00000000000E+00 -0.41351320335E+02  0.32300722218E+04  0.32298075216E+04 0.  0.
        4    1    3    3  502    0  0.12230687826E+04 -0.56625737777E+03 -0.91033716773E+03  0.16264255398E+04  0.12699999809E+01 0.  1.
       -4    1    3    3    0  502 -0.12230687826E+04  0.56625737777E+03  0.86898584739E+03  0.16036466820E+04  0.12699999809E+01 0. -1.
</event>
<event>
 5   0  0.1538349E-06  0.3218469E+04  0.7818609E-02  0.8183956E-01
        2   -1    0    0  501    0  0.00000000000E+00  0.00000000000E+00  0.21653751232E+04  0.21653751232E+04  0.25500000920E-02 0.  1.
       -2   -1    0    0    0  501  0.00000000000E+00  0.00000000000E+00 -0.11959294901E+04  0.11959294901E+04  0.25500000920E-02 0. -1.
    10030    2    1    2    0    0  0.00000000000E+00  0.00000000000E+00  0.96944563318E+03  0.33613046133E+04  0.32184691808E+04 0.  0.
        1    1    3    3  502    0  0.71141627400E+02 -0.80402904229E+03 -0.96922214607E+03  0.12613149490E+04  0.50400001928E-02 0. -1.
       -1    1    3    3    0  502 -0.71141627400E+02  0.80402904229E+03  0.19386677793E+04  0.20999896643E+04  0.50400001928E-02 0.  1.
</event>
<event>
 5   0  0.4995625E-07  0.3183877E+04  0.7818609E-02  0.8193088E-01
        4   -1    0    0  501    0  0.00000000000E+00  0.00000000000E+00  0.14257909700E+04  0.14257915357E+04  0.12699999809E+01 0. -1.
       -4   -1    0    0    0  501  0.00000000000E+00  0.00000000000E+00 -0.17774461039E+04  0.17774465576E+04  0.12699999809E+01 0.  1.
    10030    2    1    2    0    0  0.00000000000E+00  0.00000000000E+00 -0.35165513388E+03  0.32032380933E+04  0.31838770311E+04 0.  0.
        3    1    3    3  502    0 -0.12404847888E+04 -0.33094491931E+03 -0.11227957296E+04  0.17055782924E+04  0.10100000352E+00 0.  1.
       -3    1    3    3    0  502  0.12404847888E+04  0.33094491931E+03  0.77114059571E+03  0.14976598009E+04  0.10100000352E+00 0. -1.
</event>
<event>
 5   0  0.5370912E-07  0.3223613E+04  0.7818609E-02  0.8182609E-01
        1   -1    0    0  501    0  0.00000000000E+00  0.00000000000E+00  0.13898100965E+04  0.13898100965E+04  0.50400001928E-02 0.  1.
       -1   -1    0    0    0  501  0.00000000000E+00  0.00000000000E+00 -0.18692628957E+04  0.18692628957E+04  0.50400001928E-02 0. -1.
    10030    2    1    2    0    0  0.00000000000E+00  0.00000000000E+00 -0.47945279919E+03  0.32590729923E+04  0.32236131564E+04 0.  0.
        1    1    3    3  502    0  0.61884839419E+03 -0.73285681098E+03  0.10698476606E+04  0.14368808083E+04  0.50400001928E-02 0.  1.
       -1    1    3    3    0  502 -0.61884839419E+03  0.73285681098E+03 -0.15493004598E+04  0.18221921839E+04  0.50400001928E-02 0. -1.
</event>
<event>
 5   0  0.4995625E-07  0.3329242E+04  0.7818609E-02  0.8155494E-01
       -3   -1    0    0    0  501  0.00000000000E+00  0.00000000000E+00  0.19383930172E+04  0.19383930198E+04  0.10100000352E+00 0.  1.
        3   -1    0    0  501    0  0.00000000000E+00  0.00000000000E+00 -0.14295151980E+04  0.14295152016E+04  0.10100000352E+00 0. -1.
    10030    2    1    2    0    0  0.00000000000E+00  0.00000000000E+00  0.50887781912E+03  0.33679082214E+04  0.33292415282E+04 0.  0.
        4    1    3    3  502    0  0.10638088282E+04  0.41389763534E+03 -0.97122693889E+03  0.14987607732E+04  0.12699999809E+01 0. -1.
       -4    1    3    3    0  502 -0.10638088282E+04 -0.41389763534E+03  0.14801047580E+04  0.18691474482E+04  0.12699999809E+01 0.  1.
</event>
<event>
 5   0  0.1508771E-06  0.3187927E+04  0.7818609E-02  0.8192013E-01
       -2   -1    0    0    0  501  0.00000000000E+00  0.00000000000E+00  0.13874911364E+04  0.13874911364E+04  0.25500000920E-02 0. -1.
        2   -1    0    0  501    0  0.00000000000E+00  0.00000000000E+00 -0.18311610874E+04  0.18311610874E+04  0.25500000920E-02 0.  1.
    10030    2    1    2    0    0  0.00000000000E+00  0.00000000000E+00 -0.44366995101E+03  0.32186522238E+04  0.31879270871E+04 0.  0.
        4    1    3    3  502    0  0.67238990410E+03  0.14411305179E+04 -0.11237973103E+03  0.15942384294E+04  0.12699999809E+01 0. -1.
       -4    1    3    3    0  502 -0.67238990410E+03 -0.14411305179E+04 -0.33129021998E+03  0.16244137945E+04  0.12699999809E+01 0.  1.
</event>
<event>
 5   0  0.5233813E-07  0.3192214E+04  0.7818609E-02  0.8190877E-01
       -1   -1    0    0    0  501  0.00000000000E+00  0.00000000000E+00  0.10304593229E+04  0.10304593229E+04  0.50400001928E-02 0. -1.
        1   -1    0    0  501    0  0.00000000000E+00  0.00000000000E+00 -0.24722540845E+04  0.24722540845E+04  0.50400001928E-02 0.  1.
    10030    2    1    2    0    0  0.00000000000E+00  0.00000000000E+00 -0.14417947616E+04  0.35027134074E+04  0.31922138211E+04 0.  0.
        4    1    3    3  502    0  0.29901884509E+02 -0.15926423539E+04 -0.83145421423E+03  0.17968643558E+04  0.12699999809E+01 0.  1.
       -4    1    3    3    0  502 -0.29901884509E+02  0.15926423539E+04 -0.61034054735E+03  0.17058490515E+04  0.12699999809E+01 0. -1.
</event>
<event>
 5   0  0.1508771E-06  0.3197842E+04  0.7818609E-02  0.8189387E-01
       -2   -1    0    0    0  501  0.00000000000E+00  0.00000000000E+00  0.19538850158E+04  0.19538850158E+04  0.25500000920E-02 0. -1.
        2   -1    0    0  501    0  0.00000000000E+00  0.00000000000E+00 -0.13084437201E+04  0.13084437201E+04  0.25500000920E-02 0.  1.
    10030    2    1    2    0    0  0.00000000000E+00  0.00000000000E+00  0.64544129572E+03  0.32623287359E+04  0.31978421342E+04 0.  0.
        4    1    3    3  502    0 -0.11040176276E+04  0.66273091737E+03  0.12897170404E+04  0.18224815083E+04  0.12699999809E+01 0.  1.
       -4    1    3    3    0  502  0.11040176276E+04 -0.66273091737E+03 -0.64427574470E+03  0.14398472276E+04  0.12699999809E+01 0. -1.
</event>
<event>
 5   0  0.5317728E-07  0.2975470E+04  0.7818609E-02  0.8250770E-01
        1   -1    0    0  501    0  0.00000000000E+00  0.00000000000E+00  0.19866743108E+04  0.19866743108E+04  0.50400001928E-02 0. -1.
       -1   -1    0    0    0  501  0.00000000000E+00  0.00000000000E+00 -0.11141009717E+04  0.11141009717E+04  0.50400001928E-02 0.  1.
    10030    2    1    2    0    0  0.00000000000E+00  0.00000000000E+00  0.87257333906E+03  0.31007752825E+04  0.29754702352E+04 0.  0.
        2    1    3    3  502    0  0.11887679422E+04 -0.87849932514E+03  0.26058790592E+03  0.15009451493E+04  0.25500000920E-02 0.  1.
       -2    1    3    3    0  502 -0.11887679422E+04  0.87849932514E+03  0.61198543314E+03  0.15998301332E+04  0.25500000920E-02 0. -1.
</event>
<event>
 5   0  0.1538349E-06  0.3204554E+04  0.7818609E-02  0.8187616E-01
        2   -1    0    0  501    0  0.00000000000E+00  0.00000000000E+00  0.20704134346E+04  0.20704134346E+04  0.25500000920E-02 0.  1.
       -2   -1    0    0    0  501  0.00000000000E+00  0.00000000000E+00 -0.12399896058E+04  0.12399896058E+04  0.25500000920E-02 0. -1.
    10030    2    1    2    0    0  0.00000000000E+00  0.00000000000E+00  0.83042382880E+03  0.33104030404E+04  0.32045537216E+04 0.  0.
        1    1    3    3  502    0  0.96035533778E+03 -0.84199576755E+03 -0.58424316199E+03  0.14044854288E+04  0.50400001928E-02 0. -1.
       -1    1    3    3    0  502 -0.96035533778E+03  0.84199576755E+03  0.14146669908E+04  0.19059176116E+04  0.50400001928E-02 0.  1.
</event>
<event>
 5   0  0.5177039E-07  0.3192216E+04  0.7818609E-02  0.8190876E-01
       -1   -1    0    0    0  501  0.00000000000E+00  0.00000000000E+00  0.10485757217E+04  0.10485757217E+04  0.50400001928E-02 0.  1.
        1   -1    0    0  501    0  0.00000000000E+00  0.00000000000E+00 -0.24295435041E+04  0.24295435041E+04  0.50400001928E-02 0. -1.
    10030    2    1    2    0    0  0.00000000000E+00  0.00000000000E+00 -0.13809677824E+04  0.34781192257E+04  0.31922157403E+04 0.  0.
        3    1    3    3  502    0  0.46604127945E+03  0.14234070011E+04 -0.12915022833E+04  0.19776906034E+04  0.10100000352E+00 0. -1.
       -3    1    3    3    0  502 -0.46604127945E+03 -0.14234070011E+04 -0.89465499102E+02  0.15004286223E+04  0.10100000352E+00 0.  1.
</event>
<event>
 5   0  0.5370912E-07  0.3197222E+04  0.7818609E-02  0.8189551E-01
       -1   -1    0    0    0  501  0.00000000000E+00  0.00000000000E+00  0.10431149938E+04  0.10431149938E+04  0.50400001928E-02 0.  1.
        1   -1    0    0  501    0  0.00000000000E+00  0.00000000000E+00 -0.24499290670E+04  0.24499290670E+04  0.50400001928E-02 0. -1.
    10030    2    1    2    0    0  0.00000000000E+00  0.00000000000E+00 -0.14068140732E+04  0.34930440608E+04  0.31972223842E+04 0.  0.
        1    1    3    3  502    0  0.37601957641E+03  0.20318514379E+03 -0.23863498733E+04  0.24243227182E+04  0.50400001928E-02 0. -1.
       -1    1    3    3    0  502 -0.37601957641E+03 -0.20318514379E+03  0.97953580003E+03  0.10687213426E+04  0.50400001928E-02 0.  1.
</event>
<event>
 5   0  0.5177039E-07  0.3167014E+04  0.7818609E-02  0.8197583E-01
       -1   -1    0    0    0  501  0.00000000000E+00  0.00000000000E+00  0.23395823965E+04  0.23395823965E+04  0.50400001928E-02 0.  1.
        1   -1    0    0  501    0  0.00000000000E+00  0.00000000000E+00 -0.10717703921E+04  0.10717703921E+04  0.50400001928E-02 0. -1.
    10030    2    1    2    0    0  0.00000000000E+00  0.00000000000E+00  0.12678120044E+04  0.34113527886E+04  0.31670144568E+04 0.  0.
        3    1    3    3  502    0  0.73385886439E+03  0.10813825319E+04  0.15970730318E+04  0.20636325478E+04  0.10100000352E+00 0.  1.
       -3    1    3    3    0  502 -0.73385886439E+03 -0.10813825319E+04 -0.32926102739E+03  0.13477202408E+04  0.10100000352E+00 0. -1.
</event>
<event>
 5   0  0.1556396E-06  0.3116904E+04  0.7818609E-02  0.8211114E-01
        2   -1    0    0  501    0  0.00000000000E+00  0.00000000000E+00  0.19924355856E+04  0.19924355856E+04  0.25500000920E-02 0.  1.
       -2   -1    0    0    0  501  0.00000000000E+00  0.00000000000E+00 -0.12189965543E+04  0.12189965543E+04  0.25500000920E-02 0. -1.
    10030    2    1    2    0    0  0.00000000000E+00  0.00000000000E+00  0.77343903134E+03  0.32114321399E+04  0.31169036645E+04 0.  0.
        3    1    3    3  502    0  0.88556596893E+03  0.11247024447E+04  0.10215129476E+04  0.17585992684E+04  0.10100000352E+00 0.  1.
       -3    1    3    3    0  502 -0.88556596893E+03 -0.11247024447E+04 -0.24807391625E+03  0.14528328715E+04  0.10100000352E+00 0. -1.
</event>
<event>
 5   0  0.1493485E-06  0.3199553E+04  0.7818609E-02  0.8188935E-01
       -2   -1    0    0    0  501  0.00000000000E+00  0.00000000000E+00  0.24374082817E+04  0.24374082817E+04  0.25500000920E-02 0.  1.
        2   -1    0    0  501    0  0.00000000000E+00  0.00000000000E+00 -0.10500023059E+04  0.10500023059E+04  0.25500000920E-02 0. -1.
    10030    2    1    2    0    0  0.00000000000E+00  0.00000000000E+00  0.13874059758E+04  0.34874105875E+04  0.31995526663E+04 0.  0.
        2    1    3    3  502    0  0.11047282433E+04 -0.73543774604E+03  0.16673753774E+04  0.21310640110E+04  0.25500000920E-02 0.  1.
       -2    1    3    3    0  502 -0.11047282433E+04  0.73543774604E+03 -0.27996940155E+03  0.13563465765E+04  0.25500000920E-02 0. -1.
</event>
<event>
 5   0  0.5233813E-07  0.3166634E+04  0.7818609E-02  0.8197685E-01
        1   -1    0    0  501    0  0.00000000000E+00  0.00000000000E+00  0.14836981083E+04  0.14836981083E+04  0.50400001928E-02 0.  1.
       -1   -1    0    0    0  501  0.00000000000E+00  0.00000000000E+00 -0.16896242034E+04  0.16896242034E+04  0.50400001928E-02 0. -1.
    10030    2    1    2    0    0  0.00000000000E+00  0.00000000000E+00 -0.20592609503E+03  0.31733223117E+04  0.31666336917E+04 0.  0.
        4    1    3    3  502    0  0.14486796940E+04  0.63836010555E+03 -0.12974291369E+03  0.15883989791E+04  0.12699999809E+01 0. -1.
       -4    1    3    3    0  502 -0.14486796940E+04 -0.63836010555E+03 -0.76183181341E+02  0.15849233326E+04  0.12699999809E+01 0.  1.
</event>
<event>
 5   0  0.1508771E-06  0.3213743E+04  0.7818609E-02  0.8185197E-01
       -2   -1    0    0    0  501  0.00000000000E+00  0.00000000000E+00  0.11576048580E+04  0.11576048580E+04  0.25500000920E-02 0. -1.
        2   -1    0    0  501    0  0.00000000000E+00  0.00000000000E+00 -0.22304991499E+04  0.22304991499E+04  0.25500000920E-02 0.  1.
    10030    2    1    2    0    0  0.00000000000E+00  0.00000000000E+00 -0.10728942920E+04  0.33881040079E+04  0.32137433947E+04 0.  0.
        4    1    3    3  502    0 -0.55017804825E+03 -0.40253700733E+03 -0.20704884555E+04  0.21798293475E+04  0.12699999809E+01 0.  1.
       -4    1    3    3    0  502  0.55017804825E+03  0.40253700733E+03  0.99759416350E+03  0.12082746604E+04  0.12699999809E+01 0. -1.
</event>
<event>
 5   0  0.1572769E-06  0.3209506E+04  0.7818609E-02  0.8186311E-01
        2   -1    0    0  501    0  0.00000000000E+00  0.00000000000E+00  0.25894720418E+04  0.25894720418E+04  0.25500000920E-02 0.  1.
       -2   -1    0    0    0  501  0.00000000000E+00  0.00000000000E+00 -0.99450113324E+03  0.99450113324E+03  0.25500000920E-02 0. -1.
    10030    2    1    2    0    0  0.00000000000E+00  0.00000000000E+00  0.15949709086E+04  0.35839731751E+04  0.32095064294E+04 0.  0.
        5    1    3    3  502    0 -0.12479298973E+04  0.31906945203E+03 -0.27130448957E+03  0.13163443925E+04  0.46999998093E+01 0. -1.
       -5    1    3    3    0  502  0.12479298973E+04 -0.31906945203E+03  0.18662753982E+04  0.22676287826E+04  0.46999998093E+01 0.  1.
</event>
<event>
 5   0  0.5233813E-07  0.3187811E+04  0.7818609E-02  0.8192044E-01
        1   -1    0    0  501    0  0.00000000000E+00  0.00000000000E+00  0.12758721742E+04  0.12758721742E+04  0.50400001928E-02 0. -1.
       -1   -1    0    0    0  501  0.00000000000E+00  0.00000000000E+00 -0.19912140327E+04  0.19912140327E+04  0.50400001928E-02 0.  1.
    10030    2    1    2    0    0  0.00000000000E+00  0.00000000000E+00 -0.71534185855E+03  0.32670862069E+04  0.31878108960E+04 0.  0.
        4    1    3    3  502    0 -0.57961293175E+02 -0.15226509456E+04  0.12162079663E+03  0.15286002240E+04  0.12699999809E+01 0. -1.
       -4    1    3    3    0  502  0.57961293175E+02  0.15226509456E+04 -0.83696265518E+03  0.17384859829E+04  0.12699999809E+01 0.  1.
</event>
<event>
 5   0  0.1538349E-06  0.3202930E+04  0.7818609E-02  0.8188044E-01
        2   -1    0    0  501    0  0.00000000000E+00  0.00000000000E+00  0.30931731730E+04  0.30931731730E+04  0.25500000920E-02 0. -1.
       -2   -1    0    0    0  501  0.00000000000E+00  0.00000000000E+00 -0.82914531633E+03  0.82914531634E+03  0.25500000920E-02 0.  1.
    10030    2    1    2    0    0  0.00000000000E+00  0.00000000000E+00  0.22640278567E+04  0.39223184894E+04  0.32029299393E+04 0.  0.
        1    1    3    3  502    0  0.70776331422E+03 -0.12252959322E+04  0.21363412061E+03  0.14310550542E+04  0.50400001928E-02 0.  1.
       -1    1    3    3    0  502 -0.70776331422E+03  0.12252959322E+04  0.20503937361E+04  0.24912634352E+04  0.50400001928E-02 0. -1.
</event>
<event>
 5   0  0.5370912E-07  0.3214004E+04  0.7818609E-02  0.8185129E-01
       -1   -1    0    0    0  501  0.00000000000E+00  0.00000000000E+00  0.18771993440E+04  0.18771993440E+04  0.50400001928E-02 0. -1.
        1   -1    0    0  501    0  0.00000000000E+00  0.00000000000E+00 -0.13756959367E+04  0.13756959367E+04  0.50400001928E-02 0.  1.
    10030    2    1    2    0    0  0.00000000000E+00  0.00000000000E+00  0.50150340726E+03  0.32528952807E+04  0.32140040510E+04 0.  0.
        1    1    3    3  502    0 -0.68099430285E+03 -0.12753359556E+04  0.96082551900E+03  0.17359207119E+04  0.50400001928E-02 0. -1.
       -1    1    3    3    0  502  0.68099430285E+03  0.12753359556E+04 -0.45932211174E+03  0.15169745688E+04  0.50400001928E-02 0.  1.
</event>
<event>
 5   0  0.1538349E-06  0.3197121E+04  0.7818609E-02  0.8189578E-01
       -2   -1    0    0    0  501  0.00000000000E+00  0.00000000000E+00  0.10881683870E+04  0.10881683870E+04  0.25500000920E-02 0. -1.
        2   -1    0    0  501    0  0.00000000000E+00  0.00000000000E+00 -0.23483458925E+04  0.23483458925E+04  0.25500000920E-02 0.  1.
    10030    2    1    2    0    0  0.00000000000E+00  0.00000000000E+00 -0.12601775055E+04  0.34365142795E+04  0.31971210561E+04 0.  0.
        1    1    3    3  502    0  0.15186752962E+04  0.47403391291E+03 -0.46248723237E+03  0.16567972857E+04  0.50400001928E-02 0.  1.
       -1    1    3    3    0  502 -0.15186752962E+04 -0.47403391291E+03 -0.79769027312E+03  0.17797169937E+04  0.50400001928E-02 0. -1.
</event>
<event>
 5   0  0.5233813E-07  0.3141885E+04  0.7818609E-02  0.8204336E-01
       -1   -1    0    0    0  501  0.00000000000E+00  0.00000000000E+00  0.19375001809E+04  0.19375001809E+04  0.50400001928E-02 0.  1.
        1   -1    0    0  501    0  0.00000000000E+00  0.00000000000E+00 -0.12737344952E+04  0.12737344952E+04  0.50400001928E-02 0. -1.
    10030    2    1    2    0    0  0.00000000000E+00  0.00000000000E+00  0.66376568571E+03  0.32112346761E+04  0.31418853033E+04 0.  0.
        4    1    3    3  502    0  0.86827319777E+03  0.75064650160E+03  0.14281673371E+04  0.18322205304E+04  0.12699999809E+01 0.  1.
       -4    1    3    3    0  502 -0.86827319777E+03 -0.75064650160E+03 -0.76440165143E+03  0.13790141457E+04  0.12699999809E+01 0. -1.
</event>
<event>
 5   0  0.1493485E-06  0.3189353E+04  0.7818609E-02  0.8191635E-01
        2   -1    0    0  501    0  0.00000000000E+00  0.00000000000E+00  0.16452962254E+04  0.16452962254E+04  0.25500000920E-02 0. -1.
       -2   -1    0    0    0  501  0.00000000000E+00  0.00000000000E+00 -0.15456146259E+04  0.15456146259E+04  0.25500000920E-02 0.  1.
    10030    2    1    2    0    0  0.00000000000E+00  0.00000000000E+00  0.99681599536E+02  0.31909108513E+04  0.31893534830E+04 0.  0.
        2    1    3    3  502    0 -0.78837913717E+03  0.76508022940E+03  0.12063050892E+04  0.16315824801E+04  0.25500000920E-02 0. -1.
       -2    1    3    3    0  502  0.78837913717E+03 -0.76508022940E+03 -0.11066234896E+04  0.15593283712E+04  0.25500000920E-02 0.  1.
</event>
<event>
 5   0  0.1493485E-06  0.3203008E+04  0.7818609E-02  0.8188023E-01
       -2   -1    0    0    0  501  0.00000000000E+00  0.00000000000E+00  0.12208097538E+04  0.12208097538E+04  0.25500000920E-02 0.  1.
        2   -1    0    0  501    0  0.00000000000E+00  0.00000000000E+00 -0.21009132664E+04  0.21009132664E+04  0.25500000920E-02 0. -1.
    10030    2    1    2    0    0  0.00000000000E+00  0.00000000000E+00 -0.88010351259E+03  0.33217230202E+04  0.32030082157E+04 0.  0.
        2    1    3    3  502    0 -0.45694772761E+02  0.15625939235E+04 -0.80083604760E+03  0.17564527199E+04  0.25500000920E-02 0. -1.
       -2    1    3    3    0  502  0.45694772761E+02 -0.15625939235E+04 -0.79267464989E+02  0.15652703003E+04  0.25500000920E-02 0.  1.
</event>
<event>
 5   0  0.5233813E-07  0.3198328E+04  0.7818609E-02  0.8189259E-01
        1   -1    0    0  501    0  0.00000000000E+00  0.00000000000E+00  0.19989333079E+04  0.19989333079E+04  0.50400001928E-02 0.  1.
       -1   -1    0    0    0  501  0.00000000000E+00  0.00000000000E+00 -0.12793453986E+04  0.12793453986E+04  0.50400001928E-02 0. -1.
    10030    2    1    2    0    0  0.00000000000E+00  0.00000000000E+00  0.71958790923E+03  0.32782787065E+04  0.31983283944E+04 0.  0.
        4    1    3    3  502    0 -0.15645607676E+04  0.32479437973E+03  0.42448041297E+03  0.16533381440E+04  0.12699999809E+01 0.  1.
       -4    1    3    3    0  502  0.15645607676E+04 -0.32479437973E+03  0.29510749626E+03  0.16249405625E+04  0.12699999809E+01 0. -1.
</event>
<event>
 5   0  0.5281187E-07  0.2900489E+04  0.7818609E-02  0.8272732E-01
        1   -1    0    0  501    0  0.00000000000E+00  0.00000000000E+00  0.19141579601E+04  0.19141579601E+04  0.50400001928E-02 0.  1.
       -1   -1    0    0    0  501  0.00000000000E+00  0.00000000000E+00 -0.10987647502E+04  0.10987647503E+04  0.50400001928E-02 0. -1.
    10030    2    1    2    0    0  0.00000000000E+00  0.00000000000E+00  0.81539320986E+03  0.30129227104E+04  0.29004891263E+04 0.  0.
        5    1    3    3  502    0 -0.52957850329E+02 -0.35122866309E+02 -0.10973099381E+04  0.10991584689E+04  0.46999998093E+01 0. -1.
       -5    1    3    3    0  502  0.52957850329E+02  0.35122866309E+02  0.19127031479E+04  0.19137642414E+04  0.46999998093E+01 0.  1.
</event>
<event>
 5   0  0.5317728E-07  0.3151394E+04  0.7818609E-02  0.8201773E-01
       -1   -1    0    0    0  501  0.00000000000E+00  0.00000000000E+00  0.99745263921E+03  0.99745263923E+03  0.50400001928E-02 0. -1.
        1   -1    0    0  501    0  0.00000000000E+00  0.00000000000E+00 -0.24891612694E+04  0.24891612694E+04  0.50400001928E-02 0.  1.
    10030    2    1    2    0    0  0.00000000000E+00  0.00000000000E+00 -0.14917086302E+04  0.34866139087E+04  0.31513936458E+04 0.  0.
        2    1    3    3  502    0  0.13392642555E+04 -0.81953231770E+03 -0.89245805741E+03  0.18060297201E+04  0.25500000920E-02 0.  1.
       -2    1    3    3    0  502 -0.13392642555E+04  0.81953231770E+03 -0.59925057280E+03  0.16805841885E+04  0.25500000920E-02 0. -1.
</event>
<event>
 5   0  0.1556396E-06  0.2916796E+04  0.7818609E-02  0.8267898E-01
       -2   -1    0    0    0  501  0.00000000000E+00  0.00000000000E+00  0.12563914877E+04  0.12563914877E+04  0.25500000920E-02 0.  1.
        2   -1    0    0  501    0  0.00000000000E+00  0.00000000000E+00 -0.16928837476E+04  0.16928837476E+04  0.25500000920E-02 0. -1.
    10030    2    1    2    0    0  0.00000000000E+00  0.00000000000E+00 -0.43649225984E+03  0.29492752353E+04  0.29167960025E+04 0.  0.
        3    1    3    3  502    0 -0.10979952995E+04  0.21884696719E+03 -0.11632314291E+04  0.16144952897E+04  0.10100000352E+00 0. -1.
       -3    1    3    3    0  502  0.10979952995E+04 -0.21884696719E+03  0.72673916923E+03  0.13347799456E+04  0.10100000352E+00 0.  1.
</event>
<event>
 5   0  0.5317728E-07  0.3198620E+04  0.7818609E-02  0.8189182E-01
        1   -1    0    0  501    0  0.00000000000E+00  0.00000000000E+00  0.17317735513E+04  0.17317735513E+04  0.50400001928E-02 0. -1.
       -1   -1    0    0    0  501  0.00000000000E+00  0.00000000000E+00 -0.14769784610E+04  0.14769784610E+04  0.50400001928E-02 0.  1.
    10030    2    1    2    0    0  0.00000000000E+00  0.00000000000E+00  0.25479509028E+03  0.32087520123E+04  0.31986198490E+04 0.  0.
        2    1    3    3  502    0  0.12226994738E+04  0.75731312637E+03 -0.57430017514E+03  0.15486567941E+04  0.25500000920E-02 0.  1.
       -2    1    3    3    0  502 -0.12226994738E+04 -0.75731312637E+03  0.82909526542E+03  0.16600952183E+04  0.25500000920E-02 0. -1.
</event>
<event>
 5   0  0.5370912E-07  0.3195172E+04  0.7818609E-02  0.8190093E-01
        1   -1    0    0  501    0  0.00000000000E+00  0.00000000000E+00  0.17915192223E+04  0.17915192223E+04  0.50400001928E-02 0.  1.
       -1   -1    0    0    0  501  0.00000000000E+00  0.00000000000E+00 -0.14246462549E+04  0.14246462549E+04  0.50400001928E-02 0. -1.
    10030    2    1    2    0    0  0.00000000000E+00  0.00000000000E+00  0.36687296735E+03  0.32161654772E+04  0.31951720771E+04 0.  0.
        1    1    3    3  502    0  0.71830651591E+03 -0.41714356744E+03 -0.11901939517E+04  0.14513905916E+04  0.50400001928E-02 0. -1.
       -1    1    3    3    0  502 -0.71830651591E+03  0.41714356744E+03  0.15570669190E+04  0.17647748856E+04  0.50400001928E-02 0.  1.
</event>
<event>
 5   0  0.1538349E-06  0.3222765E+04  0.7818609E-02  0.8182831E-01
        2   -1    0    0  501    0  0.00000000000E+00  0.00000000000E+00  0.11311915830E+04  0.11311915830E+04  0.25500000920E-02 0.  1.
       -2   -1    0    0    0  501  0.00000000000E+00  0.00000000000E+00 -0.22954140391E+04  0.22954140391E+04  0.25500000920E-02 0. -1.
    10030    2    1    2    0    0  0.00000000000E+00  0.00000000000E+00 -0.11642224561E+04  0.34266056221E+04  0.32227646768E+04 0.  0.
        1    1    3    3  502    0 -0.52079165843E+03  0.60521140296E+03 -0.20703002417E+04  0.22189294456E+04  0.50400001928E-02 0. -1.
       -1    1    3    3    0  502  0.52079165843E+03 -0.60521140296E+03  0.90607778556E+03  0.12076761765E+04  0.50400001928E-02 0.  1.
</event>
<event>
 5   0  0.5281187E-07  0.3199842E+04  0.7818609E-02  0.8188859E-01
       -1   -1    0    0    0  501  0.00000000000E+00  0.00000000000E+00  0.15763616315E+04  0.15763616315E+04  0.50400001928E-02 0.  1.
        1   -1    0    0  501    0  0.00000000000E+00  0.00000000000E+00 -0.16238324529E+04  0.16238324529E+04  0.50400001928E-02 0. -1.
    10030    2    1    2    0    0  0.00000000000E+00  0.00000000000E+00 -0.47470821432E+02  0.32001940844E+04  0.31998419803E+04 0.  0.
        5    1    3    3  502    0 -0.26607624547E+02  0.60362999523E+03  0.14578620257E+04  0.15781194229E+04  0.46999998093E+01 0.  1.
       -5    1    3    3    0  502  0.26607624547E+02 -0.60362999523E+03 -0.15053328472E+04  0.16220746615E+04  0.46999998093E+01 0. -1.
</event>
<event>
 5   0  0.5281187E-07  0.3193489E+04  0.7818609E-02  0.8190539E-01
        1   -1    0    0  501    0  0.00000000000E+00  0.00000000000E+00  0.27724508079E+04  0.27724508079E+04  0.50400001928E-02 0. -1.
       -1   -1    0    0    0  501  0.00000000000E+00  0.00000000000E+00 -0.91961712262E+03  0.91961712263E+03  0.50400001928E-02 0.  1.
    10030    2    1    2    0    0  0.00000000000E+00  0.00000000000E+00  0.18528336853E+04  0.36920679305E+04  0.31934891480E+04 0.  0.
        5    1    3    3  502    0 -0.14366943870E+03 -0.42332751028E+03 -0.84578290307E+03  0.95667021366E+03  0.46999998093E+01 0.  1.
       -5    1    3    3    0  502  0.14366943870E+03  0.42332751028E+03  0.26986165883E+04  0.27353977169E+04  0.46999998093E+01 0. -1.
</event>
<event>
 5   0  0.1493485E-06  0.3185490E+04  0.7818609E-02  0.8192660E-01
       -2   -1    0    0    0  501  0.00000000000E+00  0.00000000000E+00  0.11908152252E+04  0.11908152252E+04  0.25500000920E-02 0. -1.
        2   -1    0    0  501    0  0.00000000000E+00  0.00000000000E+00 -0.21303362192E+04  0.21303362192E+04  0.25500000920E-02 0.  1.
    10030    2    1    2    0    0  0.00000000000E+00  0.00000000000E+00 -0.93952099404E+03  0.33211514444E+04  0.31854901065E+04 0.  0.
        2    1    3    3  502    0 -0.15219247461E+04 -0.28498930004E+03 -0.85897240328E+03  0.17706799325E+04  0.25500000920E-02 0.  1.
       -2    1    3    3    0  502  0.15219247461E+04  0.28498930004E+03 -0.80548590757E+02  0.15504715119E+04  0.25500000920E-02 0. -1.
</event>
<event>
 5   0  0.1493485E-06  0.3198561E+04  0.7818609E-02  0.8189197E-01
       -2   -1    0    0    0  501  0.00000000000E+00  0.00000000000E+00  0.26092404249E+04  0.26092404249E+04  0.25500000920E-02 0. -1.
        2   -1    0    0  501    0  0.00000000000E+00  0.00000000000E+00 -0.98024618971E+03  0.98024618971E+03  0.25500000920E-02 0.  1.
    10030    2    1    2    0    0  0.00000000000E+00  0.00000000000E+00  0.16289942352E+04  0.35894866146E+04  0.31985609168E+04 0.  0.
        2    1    3    3  502    0 -0.13030242272E+04 -0.92657830980E+03  0.85462306489E+03  0.18129534147E+04  0.25500000920E-02 0.  1.
       -2    1    3    3    0  502  0.13030242272E+04  0.92657830980E+03  0.77437117032E+03  0.17765331999E+04  0.25500000920E-02 0. -1.
</event>
<event>
 5   0  0.5177039E-07  0.3189522E+04  0.7818609E-02  0.8191590E-01
       -1   -1    0    0    0  501  0.00000000000E+00  0.00000000000E+00  0.15062556674E+04  0.15062556674E+04  0.50400001928E-02 0.  1.
        1   -1    0    0  501    0  0.00000000000E+00  0.00000000000E+00 -0.16884666035E+04  0.16884666035E+04  0.50400001928E-02 0. -1.
    10030    2    1    2    0    0  0.00000000000E+00  0.00000000000E+00 -0.18221093613E+03  0.31947222709E+04  0.31895218392E+04 0.  0.
        3    1    3    3  502    0  0.13661137643E+04 -0.28805230689E+03 -0.86308997815E+03  0.16413912602E+04  0.10100000352E+00 0. -1.
       -3    1    3    3    0  502 -0.13661137643E+04  0.28805230689E+03  0.68087904202E+03  0.15533310106E+04  0.10100000352E+00 0.  1.
</event>
<event>
 5   0  0.1572769E-06  0.3203670E+04  0.7818609E-02  0.8187849E-01
        2   -1    0    0  501    0  0.00000000000E+00  0.00000000000E+00  0.20075945954E+04  0.20075945954E+04  0.25500000920E-02 0.  1.
       -2   -1    0    0    0  501  0.00000000000E+00  0.00000000000E+00 -0.12780842172E+04  0.12780842172E+04  0.25500000920E-02 0. -1.
    10030    2    1    2    0    0  0.00000000000E+00  0.00000000000E+00  0.72951037819E+03  0.32856788126E+04  0.32036697501E+04 0.  0.
        5    1    3    3  502    0 -0.93083552692E+03  0.11011564871E+04 -0.35085425656E+03  0.14839545770E+04  0.46999998093E+01 0. -1.
       -5    1    3    3    0  502  0.93083552692E+03 -0.11011564871E+04  0.10803646348E+04  0.18017242356E+04  0.46999998093E+01 0.  1.
</event>
<event>
 5   0  0.5233813E-07  0.3383838E+04  0.7818609E-02  0.8141885E-01
        1   -1    0    0  501    0  0.00000000000E+00  0.00000000000E+00  0.17169619841E+04  0.17169619841E+04  0.50400001928E-02 0. -1.
       -1   -1    0    0    0  501  0.00000000000E+00  0.00000000000E+00 -0.16672408051E+04  0.16672408051E+04  0.50400001928E-02 0.  1.
    10030    2    1    2    0    0  0.00000000000E+00  0.00000000000E+00  0.49721179046E+02  0.33842027892E+04  0.33838375143E+04 0.  0.
        4    1    3    3  502    0  0.98529097547E+03 -0.10844705714E+04  0.87094998653E+03  0.17045322580E+04  0.12699999809E+01 0. -1.
       -4    1    3    3    0  502 -0.98529097547E+03  0.10844705714E+04 -0.82122880748E+03  0.16796705313E+04  0.12699999809E+01 0.  1.
</event>
<event>
 5   0  0.1493485E-06  0.3200860E+04  0.7818609E-02  0.8188590E-01
        2   -1    0    0  501    0  0.00000000000E+00  0.00000000000E+00  0.26917016955E+04  0.26917016955E+04  0.25500000920E-02 0. -1.
       -2   -1    0    0    0  501  0.00000000000E+00  0.00000000000E+00 -0.95158276608E+03  0.95158276609E+03  0.25500000920E-02 0.  1.
    10030    2    1    2    0    0  0.00000000000E+00  0.00000000000E+00  0.17401189294E+04  0.36432844616E+04  0.32008604748E+04 0.  0.
        2    1    3    3  502    0  0.14211976647E+04  0.42567907426E+03  0.15533439152E+04  0.21479950641E+04  0.25500000920E-02 0. -1.
       -2    1    3    3    0  502 -0.14211976647E+04 -0.42567907426E+03  0.18677501421E+03  0.14952893975E+04  0.25500000920E-02 0.  1.
</event>
<event>
 5   0  0.5281187E-07  0.3235226E+04  0.7818609E-02  0.8179576E-01
       -1   -1    0    0    0  501  0.00000000000E+00  0.00000000000E+00  0.11114340813E+04  0.11114340813E+04  0.50400001928E-02 0. -1.
        1   -1    0    0  501    0  0.00000000000E+00  0.00000000000E+00 -0.23543200950E+04  0.23543200950E+04  0.50400001928E-02 0.  1.
    10030    2    1    2    0    0  0.00000000000E+00  0.00000000000E+00 -0.12428860137E+04  0.34657541763E+04  0.32352258603E+04 0.  0.
        5    1    3    3  502    0  0.24213834945E+03  0.89182615237E+03 -0.20436997303E+04  0.22429256662E+04  0.46999998093E+01 0.  1.
       -5    1    3    3    0  502 -0.24213834945E+03 -0.89182615237E+03  0.80081371663E+03  0.12228285101E+04  0.46999998093E+01 0. -1.
</event>
<event>
 5   0  0.5281187E-07  0.3182613E+04  0.7818609E-02  0.8193424E-01
       -1   -1    0    0    0  501  0.00000000000E+00  0.00000000000E+00  0.13097688806E+04  0.13097688806E+04  0.50400001928E-02 0. -1.
        1   -1    0    0  501    0  0.00000000000E+00  0.00000000000E+00 -0.19333611787E+04  0.19333611787E+04  0.50400001928E-02 0.  1.
    10030    2    1    2    0    0  0.00000000000E+00  0.00000000000E+00 -0.62359229803E+03  0.32431300593E+04  0.31826129560E+04 0.  0.
        5    1    3    3  502    0 -0.15693651068E+04 -0.56462094894E+02 -0.57386215980E+03  0.16719553448E+04  0.46999998093E+01 0.  1.
       -5    1    3    3    0  502  0.15693651068E+04  0.56462094894E+02 -0.49730138237E+02  0.15711747145E+04  0.46999998093E+01 0. -1.
</event>
<event>
 5   0  0.5317728E-07  0.3197879E+04  0.7818609E-02  0.8189377E-01
        1   -1    0    0  501    0  0.00000000000E+00  0.00000000000E+00  0.20828465000E+04  0.20828465000E+04  0.50400001928E-02 0. -1.
       -1   -1    0    0    0  501  0.00000000000E+00  0.00000000000E+00 -0.12274586834E+04  0.12274586834E+04  0.50400001928E-02 0.  1.
    10030    2    1    2    0    0  0.00000000000E+00  0.00000000000E+00  0.85538781661E+03  0.33103051834E+04  0.31978793114E+04 0.  0.
        2    1    3    3  502    0 -0.32557814893E+03  0.14897196364E+04 -0.70196185963E+02  0.15264970458E+04  0.25500000920E-02 0.  1.
       -2    1    3    3    0  502  0.32557814893E+03 -0.14897196364E+04  0.92558400257E+03  0.17838081377E+04  0.25500000920E-02 0. -1.
</event>
<event>
 5   0  0.5281187E-07  0.3204328E+04  0.7818609E-02  0.8187675E-01
        1   -1    0    0  501    0  0.00000000000E+00  0.00000000000E+00  0.18610266358E+04  0.18610266358E+04  0.50400001928E-02 0.  1.
       -1   -1    0    0    0  501  0.00000000000E+00  0.00000000000E+00 -0.13793079405E+04  0.13793079405E+04  0.50400001928E-02 0. -1.
    10030    2    1    2    0    0  0.00000000000E+00  0.00000000000E+00  0.48171869528E+03  0.32403345763E+04  0.32043275839E+04 0.  0.
        5    1    3    3  502    0 -0.14240325316E+04 -0.69988245369E+03  0.16550146963E+02  0.15868207515E+04  0.46999998093E+01 0. -1.
       -5    1    3    3    0  502  0.14240325316E+04  0.69988245369E+03  0.46516854832E+03  0.16535138247E+04  0.46999998093E+01 0.  1.
</event>
<event>
 5   0  0.1493485E-06  0.3162412E+04  0.7818609E-02  0.8198815E-01
        2   -1    0    0  501    0  0.00000000000E+00  0.00000000000E+00  0.16744750695E+04  0.16744750695E+04  0.25500000920E-02 0. -1.
       -2   -1    0    0    0  501  0.00000000000E+00  0.00000000000E+00 -0.14931324273E+04  0.14931324273E+04  0.25500000920E-02 0.  1.
    10030    2    1    2    0    0  0.00000000000E+00  0.00000000000E+00  0.18134264226E+03  0.31676074968E+04  0.31624123861E+04 0.  0.
        2    1    3    3  502    0  0.66864778818E+03 -0.14354114620E+03 -0.13373351566E+04  0.15020516790E+04  0.25500000920E-02 0.  1.
       -2    1    3    3    0  502 -0.66864778818E+03  0.14354114620E+03  0.15186777989E+04  0.16655558178E+04  0.25500000920E-02 0. -1.
</event>
<event>
 5   0  0.1493485E-06  0.3208942E+04  0.7818609E-02  0.8186460E-01
       -2   -1    0    0    0  501  0.00000000000E+00  0.00000000000E+00  0.17920795620E+04  0.17920795620E+04  0.25500000920E-02 0.  1.
        2   -1    0    0  501    0  0.00000000000E+00  0.00000000000E+00 -0.14365030072E+04  0.14365030072E+04  0.25500000920E-02 0. -1.
    10030    2    1    2    0    0  0.00000000000E+00  0.00000000000E+00  0.35557655481E+03  0.32285825692E+04  0.32089423055E+04 0.  0.
        2    1    3    3  502    0 -0.49284436156E+03  0.77507764832E+03 -0.11458192361E+04  0.14685171594E+04  0.25500000920E-02 0. -1.
       -2    1    3    3    0  502  0.49284436156E+03 -0.77507764832E+03  0.15013957910E+04  0.17600654098E+04  0.25500000920E-02 0.  1.
</event>
<event>
 5   0  0.5233813E-07  0.3203979E+04  0.7818609E-02  0.8187767E-01
       -1   -1    0    0    0  501  0.00000000000E+00  0.00000000000E+00  0.79918970999E+03  0.79918971001E+03  0.50400001928E-02 0.  1.
        1   -1    0    0  501    0  0.00000000000E+00  0.00000000000E+00 -0.32112159911E+04  0.32112159911E+04  0.50400001928E-02 0. -1.
    10030    2    1    2    0    0  0.00000000000E+00  0.00000000000E+00 -0.24120262811E+04  0.40104057011E+04  0.32039792613E+04 0.  0.
        4    1    3    3  502    0 -0.35984465227E+03 -0.31010591560E+03 -0.31210313620E+04  0.31569751706E+04  0.12699999809E+01 0. -1.
       -4    1    3    3    0  502  0.35984465227E+03  0.31010591560E+03  0.70900508090E+03  0.85343053045E+03  0.12699999809E+01 0.  1.
</event>
<event>
 5   0  0.1508771E-06  0.3168585E+04  0.7818609E-02  0.8197163E-01
       -2   -1    0    0    0  501  0.00000000000E+00  0.00000000000E+00  0.90120536846E+03  0.90120536847E+03  0.25500000920E-02 0.  1.
        2   -1    0    0  501    0  0.00000000000E+00  0.00000000000E+00 -0.27851393520E+04  0.27851393521E+04  0.25500000920E-02 0. -1.
    10030    2    1    2    0    0  0.00000000000E+00  0.00000000000E+00 -0.18839339836E+04  0.36863447205E+04  0.31685848804E+04 0.  0.
        4    1    3    3  502    0  0.72034072949E+03 -0.14093975237E+04 -0.86230331015E+03  0.18024596412E+04  0.12699999809E+01 0.  1.
       -4    1    3    3    0  502 -0.72034072949E+03  0.14093975237E+04 -0.10216306734E+04  0.18838850794E+04  0.12699999809E+01 0. -1.
</event>
<event>
 5   0  0.4995625E-07  0.3172147E+04  0.7818609E-02  0.8196212E-01
        3   -1    0    0  501    0  0.00000000000E+00  0.00000000000E+00  0.15821844203E+04  0.15821844235E+04  0.10100000352E+00 0. -1.
       -3   -1    0    0    0  501  0.00000000000E+00  0.00000000000E+00 -0.15899716478E+04  0.15899716510E+04  0.10100000352E+00 0.  1.
    10030    2    1    2    0    0  0.00000000000E+00  0.00000000000E+00 -0.77872274977E+01  0.31721560746E+04  0.31721465162E+04 0.  0.
        4    1    3    3  502    0  0.12875607762E+04  0.71700875538E+03  0.58237810737E+03  0.15846388170E+04  0.12699999809E+01 0. -1.
       -4    1    3    3    0  502 -0.12875607762E+04 -0.71700875538E+03 -0.59016533487E+03  0.15875172575E+04  0.12699999809E+01 0.  1.
</event>
<event>
 5   0  0.5281187E-07  0.3228301E+04  0.7818609E-02  0.8181383E-01
        1   -1    0    0  501    0  0.00000000000E+00  0.00000000000E+00  0.25622643888E+04  0.25622643888E+04  0.50400001928E-02 0. -1.
       -1   -1    0    0    0  501  0.00000000000E+00  0.00000000000E+00 -0.10168670832E+04  0.10168670832E+04  0.50400001928E-02 0.  1.
    10030    2    1    2    0    0  0.00000000000E+00  0.00000000000E+00  0.15453973056E+04  0.35791314720E+04  0.32283012966E+04 0.  0.
        5    1    3    3  502    0  0.14846821421E+04 -0.38960197279E+03  0.21903929713E+03  0.15505067120E+04  0.46999998093E+01 0.  1.
       -5    1    3    3    0  502 -0.14846821421E+04  0.38960197279E+03  0.13263580084E+04  0.20286247600E+04  0.46999998093E+01 0. -1.
</event>
<event>
 5   0  0.5177039E-07  0.3232388E+04  0.7818609E-02  0.8180315E-01
        1   -1    0    0  501    0  0.00000000000E+00  0.00000000000E+00  0.17222404794E+04  0.17222404794E+04  0.50400001928E-02 0. -1.
       -1   -1    0    0    0  501  0.00000000000E+00  0.00000000000E+00 -0.15166776947E+04  0.15166776947E+04  0.50400001928E-02 0.  1.
    10030    2    1    2    0    0  0.00000000000E+00  0.00000000000E+00  0.20556278469E+03  0.32389181742E+04  0.32323884173E+04 0.  0.
        3    1    3    3  502    0 -0.65817705536E+03  0.77423686126E+03  0.13620794826E+04  0.16993823233E+04  0.10100000352E+00 0. -1.
       -3    1    3    3    0  502  0.65817705536E+03 -0.77423686126E+03 -0.11565166979E+04  0.15395358509E+04  0.10100000352E+00 0.  1.
</event>
<event>
 5   0  0.1493485E-06  0.3198845E+04  0.7818609E-02  0.8189122E-01
       -2   -1    0    0    0  501  0.00000000000E+00  0.00000000000E+00  0.15792333457E+04  0.15792333457E+04  0.25500000920E-02 0.  1.
        2   -1    0    0  501    0  0.00000000000E+00  0.00000000000E+00 -0.16198698019E+04  0.16198698019E+04  0.25500000920E-02 0. -1.
    10030    2    1    2    0    0  0.00000000000E+00  0.00000000000E+00 -0.40636456194E+02  0.31991031475E+04  0.31988450458E+04 0.  0.
        2    1    3    3  502    0 -0.60450402185E+03 -0.72281896707E+03 -0.13128079104E+04  0.16159693627E+04  0.25500000920E-02 0. -1.
       -2    1    3    3    0  502  0.60450402185E+03  0.72281896707E+03  0.12721714542E+04  0.15831337848E+04  0.25500000920E-02 0.  1.
</event>
<event>
 5   0  0.5370912E-07  0.3203694E+04  0.7818609E-02  0.8187842E-01
       -1   -1    0    0    0  501  0.00000000000E+00  0.00000000000E+00  0.93247115943E+03  0.93247115944E+03  0.50400001928E-02 0. -1.
        1   -1    0    0  501    0  0.00000000000E+00  0.00000000000E+00 -0.27517351051E+04  0.27517351051E+04  0.50400001928E-02 0.  1.
    10030    2    1    2    0    0  0.00000000000E+00  0.00000000000E+00 -0.18192639457E+04  0.36842062646E+04  0.32036938830E+04 0.  0.
        1    1    3    3  502    0 -0.54493760596E+03  0.63767920851E+03 -0.24789837185E+04  0.26170502563E+04  0.50400001928E-02 0.  1.
       -1    1    3    3    0  502  0.54493760596E+03 -0.63767920851E+03  0.65971977280E+03  0.10671560083E+04  0.50400001928E-02 0. -1.
</event>
<event>
 5   0  0.1493485E-06  0.3187375E+04  0.7818609E-02  0.8192159E-01
        2   -1    0    0  501    0  0.00000000000E+00  0.00000000000E+00  0.18975749844E+04  0.18975749844E+04  0.25500000920E-02 0.  1.
       -2   -1    0    0    0  501  0.00000000000E+00  0.00000000000E+00 -0.13384664677E+04  0.13384664677E+04  0.25500000920E-02 0. -1.
    10030    2    1    2    0    0  0.00000000000E+00  0.00000000000E+00  0.55910851663E+03  0.32360414521E+04  0.31873754009E+04 0.  0.
        2    1    3    3  502    0 -0.14533338939E+04 -0.64721424400E+03  0.18445009782E+03  0.16015890620E+04  0.25500000920E-02 0.  1.
       -2    1    3    3    0  502  0.14533338939E+04  0.64721424400E+03  0.37465841881E+03  0.16344523901E+04  0.25500000920E-02 0. -1.
</event>
<event>
 5   0  0.1493485E-06  0.3230141E+04  0.7818609E-02  0.8180902E-01
        2   -1    0    0  501    0  0.00000000000E+00  0.00000000000E+00  0.28266832836E+04  0.28266832836E+04  0.25500000920E-02 0. -1.
       -2   -1    0    0    0  501  0.00000000000E+00  0.00000000000E+00 -0.92279639017E+03  0.92279639018E+03  0.25500000920E-02 0.  1.
    10030    2    1    2    0    0  0.00000000000E+00  0.00000000000E+00  0.19038868934E+04  0.37494796738E+04  0.32301412540E+04 0.  0.
        2    1    3    3  502    0  0.39639376930E+02 -0.10730827912E+04  0.23522946543E+04  0.25858012487E+04  0.25500000920E-02 0. -1.
       -2    1    3    3    0  502 -0.39639376930E+02  0.10730827912E+04 -0.44840776087E+03  0.11636784251E+04  0.25500000920E-02 0.  1.
</event>
<event>
 5   0  0.5177039E-07  0.3180656E+04  0.7818609E-02  0.8193945E-01
       -1   -1    0    0    0  501  0.00000000000E+00  0.00000000000E+00  0.13193981031E+04  0.13193981031E+04  0.50400001928E-02 0. -1.
        1   -1    0    0  501    0  0.00000000000E+00  0.00000000000E+00 -0.19168915799E+04  0.19168915799E+04  0.50400001928E-02 0.  1.
    10030    2    1    2    0    0  0.00000000000E+00  0.00000000000E+00 -0.59749347677E+03  0.32362896830E+04  0.31806559791E+04 0.  0.
        3    1    3    3  502    0 -0.11563448388E+04 -0.17010460474E+03  0.79857603036E+03  0.14155538313E+04  0.10100000352E+00 0. -1.
       -3    1    3    3    0  502  0.11563448388E+04  0.17010460474E+03 -0.13960695071E+04  0.18207358517E+04  0.10100000352E+00 0.  1.
</event>
<event>
 5   0  0.5370912E-07  0.3260377E+04  0.7818609E-02  0.8173051E-01
        1   -1    0    0  501    0  0.00000000000E+00  0.00000000000E+00  0.14391700704E+04  0.14391700704E+04  0.50400001928E-02 0. -1.
       -1   -1    0    0    0  501  0.00000000000E+00  0.00000000000E+00 -0.18465599556E+04  0.18465599556E+04  0.50400001928E-02 0.  1.
    10030    2    1    2    0    0  0.00000000000E+00  0.00000000000E+00 -0.40738988518E+03  0.32857300260E+04  0.32603765558E+04 0.  0.
        1    1    3    3  502    0 -0.51062815085E+03  0.21342559865E+03 -0.17489883584E+04  0.18344622843E+04  0.50400001928E-02 0.  1.
       -1    1    3    3    0  502  0.51062815085E+03 -0.21342559865E+03  0.13415984733E+04  0.14512677417E+04  0.50400001928E-02 0. -1.
</event>
<event>
 5   0  0.5177039E-07  0.3163121E+04  0.7818609E-02  0.8198625E-01
        1   -1    0    0  501    0  0.00000000000E+00  0.00000000000E+00  0.19053811611E+04  0.19053811611E+04  0.50400001928E-02 0.  1.
       -1   -1    0    0    0  501  0.00000000000E+00  0.00000000000E+00 -0.13127737539E+04  0.13127737539E+04  0.50400001928E-02 0. -1.
    10030    2    1    2    0    0  0.00000000000E+00  0.00000000000E+00  0.59260740716E+03  0.32181549150E+04  0.31631214833E+04 0.  0.
        3    1    3    3  502    0 -0.13465953870E+04  0.17508788907E+03  0.11211870476E+04  0.17609756702E+04  0.10100000352E+00 0.  1.
       -3    1    3    3    0  502  0.13465953870E+04 -0.17508788907E+03 -0.52857964040E+03  0.14571792448E+04  0.10100000352E+00 0. -1.
</event>
<event>
 5   0  0.4995625E-07  0.3165355E+04  0.7818609E-02  0.8198027E-01
       -3   -1    0    0    0  501  0.00000000000E+00  0.00000000000E+00  0.18083916024E+04  0.18083916052E+04  0.10100000352E+00 0.  1.
        3   -1    0    0  501    0  0.00000000000E+00  0.00000000000E+00 -0.13851362481E+04  0.13851362518E+04  0.10100000352E+00 0. -1.
    10030    2    1    2    0    0  0.00000000000E+00  0.00000000000E+00  0.42325535423E+03  0.31935278570E+04  0.31653554427E+04 0.  0.
        4    1    3    3  502    0  0.22250755858E+03 -0.37007948103E+03  0.17478083202E+04  0.18003621783E+04  0.12699999809E+01 0.  1.
       -4    1    3    3    0  502 -0.22250755858E+03  0.37007948103E+03 -0.13245529660E+04  0.13931656787E+04  0.12699999809E+01 0. -1.
</event>
<event>
 5   0  0.5233813E-07  0.3174414E+04  0.7818609E-02  0.8195607E-01
        1   -1    0    0  501    0  0.00000000000E+00  0.00000000000E+00  0.17836180380E+04  0.17836180380E+04  0.50400001928E-02 0.  1.
       -1   -1    0    0    0  501  0.00000000000E+00  0.00000000000E+00 -0.14124242051E+04  0.14124242051E+04  0.50400001928E-02 0. -1.
    10030    2    1    2    0    0  0.00000000000E+00  0.00000000000E+00  0.37119383292E+03  0.31960422432E+04  0.31744135141E+04 0.  0.
        4    1    3    3  502    0  0.44496645361E+03  0.49702220276E+03 -0.12644233117E+04  0.14296132830E+04  0.12699999809E+01 0. -1.
       -4    1    3    3    0  502 -0.44496645361E+03 -0.49702220276E+03  0.16356171446E+04  0.17664289602E+04  0.12699999809E+01 0.  1.
</event>
<event>
 5   0  0.5233813E-07  0.3275976E+04  0.7818609E-02  0.8169035E-01
        1   -1    0    0  501    0  0.00000000000E+00  0.00000000000E+00  0.14514958672E+04  0.14514958672E+04  0.50400001928E-02 0. -1.
       -1   -1    0    0    0  501  0.00000000000E+00  0.00000000000E+00 -0.18484415630E+04  0.18484415630E+04  0.50400001928E-02 0.  1.
    10030    2    1    2    0    0  0.00000000000E+00  0.00000000000E+00 -0.39694569576E+03  0.32999374302E+04  0.32759763671E+04 0.  0.
        4    1    3    3  502    0 -0.73617483747E+03 -0.38819182985E+03  0.12226462568E+04  0.14790239249E+04  0.12699999809E+01 0. -1.
       -4    1    3    3    0  502  0.73617483747E+03  0.38819182985E+03 -0.16195919526E+04  0.18209135053E+04  0.12699999809E+01 0.  1.
</event>
<event>
 5   0  0.1538349E-06  0.3138830E+04  0.7818609E-02  0.8205161E-01
       -2   -1    0    0    0  501  0.00000000000E+00  0.00000000000E+00  0.12878916323E+04  0.12878916323E+04  0.25500000920E-02 0. -1.
        2   -1    0    0  501    0  0.00000000000E+00  0.00000000000E+00 -0.19124775455E+04  0.19124775455E+04  0.25500000920E-02 0.  1.
    10030    2    1    2    0    0  0.00000000000E+00  0.00000000000E+00 -0.62458591320E+03  0.32003691778E+04  0.31388302457E+04 0.  0.
        1    1    3    3  502    0 -0.10246881829E+04  0.48419831416E+03 -0.14192250682E+04  0.18162141047E+04  0.50400001928E-02 0.  1.
       -1    1    3    3    0  502  0.10246881829E+04 -0.48419831416E+03  0.79463915502E+03  0.13841550731E+04  0.50400001928E-02 0. -1.
</event>
<event>
 5   0  0.1556396E-06  0.3223722E+04  0.7818609E-02  0.8182580E-01
       -2   -1    0    0    0  501  0.00000000000E+00  0.00000000000E+00  0.17318576471E+04  0.17318576471E+04  0.25500000920E-02 0.  1.
        2   -1    0    0  501    0  0.00000000000E+00  0.00000000000E+00 -0.15001784985E+04  0.15001784985E+04  0.25500000920E-02 0. -1.
    10030    2    1    2    0    0  0.00000000000E+00  0.00000000000E+00  0.23167914857E+03  0.32320361456E+04  0.32237218271E+04 0.  0.
        3    1    3    3  502    0 -0.14039827963E+04  0.69832482898E+02 -0.67489687752E+03  0.15593364209E+04  0.10100000352E+00 0. -1.
       -3    1    3    3    0  502  0.14039827963E+04 -0.69832482898E+02  0.90657602609E+03  0.16726997248E+04  0.10100000352E+00 0.  1.
</event>
<event>
 5   0  0.5281187E-07  0.3188203E+04  0.7818609E-02  0.8191940E-01
        1   -1    0    0  501    0  0.00000000000E+00  0.00000000000E+00  0.31685586626E+04  0.31685586626E+04  0.50400001928E-02 0.  1.
       -1   -1    0    0    0  501  0.00000000000E+00  0.00000000000E+00 -0.80199212015E+03  0.80199212017E+03  0.50400001928E-02 0. -1.
    10030    2    1    2    0    0  0.00000000000E+00  0.00000000000E+00  0.23665665424E+04  0.39705507827E+04  0.31882026784E+04 0.  0.
        5    1    3    3  502    0  0.11403073694E+04 -0.23589532478E+03 -0.17252640229E+03  0.11771724387E+04  0.46999998093E+01 0. -1.
       -5    1    3    3    0  502 -0.11403073694E+04  0.23589532478E+03  0.25390929447E+04  0.27933783440E+04  0.46999998093E+01 0.  1.
</event>
<event>
 5   0  0.1493485E-06  0.3180269E+04  0.7818609E-02  0.8194048E-01
        2   -1    0    0  501    0  0.00000000000E+00  0.00000000000E+00  0.23226939694E+04  0.23226939694E+04  0.25500000920E-02 0.  1.
       -2   -1    0    0    0  501  0.00000000000E+00  0.00000000000E+00 -0.10886185872E+04  0.10886185872E+04  0.25500000920E-02 0. -1.
    10030    2    1    2    0    0  0.00000000000E+00  0.00000000000E+00  0.12340753821E+04  0.34113125566E+04  0.31802690625E+04 0.  0.
        2    1    3    3  502    0  0.40927730102E+03  0.14601266803E+04  0.10367678551E+03  0.15199429949E+04  0.25500000920E-02 0.  1.
       -2    1    3    3    0  502 -0.40927730102E+03 -0.14601266803E+04  0.11303985966E+04  0.18913695617E+04  0.25500000920E-02 0. -1.
</event>
<event>
 5   0  0.1508771E-06  0.3197178E+04  0.7818609E-02  0.8189563E-01
       -2   -1    0    0    0  501  0.00000000000E+00  0.00000000000E+00  0.90528940819E+03  0.90528940819E+03  0.25500000920E-02 0. -1.
        2   -1    0    0  501    0  0.00000000000E+00  0.00000000000E+00 -0.28228401978E+04  0.28228401978E+04  0.25500000920E-02 0.  1.
    10030    2    1    2    0    0  0.00000000000E+00  0.00000000000E+00 -0.19175507896E+04  0.37281296060E+04  0.31971783385E+04 0.  0.
        4    1    3    3  502    0 -0.14305364832E+04  0.47731023263E+03 -0.34040042945E+03  0.15460057416E+04  0.12699999809E+01 0.  1.
       -4    1    3    3    0  502  0.14305364832E+04 -0.47731023263E+03 -0.15771503601E+04  0.21821238643E+04  0.12699999809E+01 0. -1.
</event>
<event>
 5   0  0.5233813E-07  0.3236642E+04  0.7818609E-02  0.8179207E-01
       -1   -1    0    0    0  501  0.00000000000E+00  0.00000000000E+00  0.12635031721E+04  0.12635031721E+04  0.50400001928E-02 0.  1.
        1   -1    0    0  501    0  0.00000000000E+00  0.00000000000E+00 -0.20727793313E+04  0.20727793313E+04  0.50400001928E-02 0. -1.
    10030    2    1    2    0    0  0.00000000000E+00  0.00000000000E+00 -0.80927615918E+03  0.33362825034E+04  0.32366422479E+04 0.  0.
        4    1    3    3  502    0 -0.86118048444E+02  0.14078464188E+04  0.41320643144E+03  0.14697581519E+04  0.12699999809E+01 0.  1.
       -4    1    3    3    0  502  0.86118048444E+02 -0.14078464188E+04 -0.12224825906E+04  0.18665243515E+04  0.12699999809E+01 0. -1.
</event>
<event>
 5   0  0.1572769E-06  0.3285786E+04  0.7818609E-02  0.8166522E-01
       -2   -1    0    0    0  501  0.00000000000E+00  0.00000000000E+00  0.14011734020E+04  0.14011734020E+04  0.25500000920E-02 0. -1.
        2   -1    0    0  501    0  0.00000000000E+00  0.00000000000E+00 -0.19263117902E+04  0.19263117902E+04  0.25500000920E-02 0.  1.
    10030    2    1    2    0    0  0.00000000000E+00  0.00000000000E+00 -0.52513838814E+03  0.33274851922E+04  0.32857856561E+04 0.  0.
        5    1    3    3  502    0 -0.96293751529E+03 -0.10230121368E+04  0.59986791832E+03  0.15276341512E+04  0.46999998093E+01 0. -1.
       -5    1    3    3    0  502  0.96293751529E+03  0.10230121368E+04 -0.11250063065E+04  0.17998510410E+04  0.46999998093E+01 0.  1.
</event>
<event>
 5   0  0.1538349E-06  0.3184321E+04  0.7818609E-02  0.8192970E-01
        2   -1    0    0  501    0  0.00000000000E+00  0.00000000000E+00  0.23140406626E+04  0.23140406626E+04  0.25500000920E-02 0.  1.
       -2   -1    0    0    0  501  0.00000000000E+00  0.00000000000E+00 -0.10954754371E+04  0.10954754371E+04  0.25500000920E-02 0. -1.
    10030    2    1    2    0    0  0.00000000000E+00  0.00000000000E+00  0.12185652255E+04  0.34095160997E+04  0.31843207793E+04 0.  0.
        1    1    3    3  502    0 -0.18306093830E+02  0.14333524477E+04 -0.13264244443E+03  0.14395931267E+04  0.50400001928E-02 0. -1.
       -1    1    3    3    0  502  0.18306093830E+02 -0.14333524477E+04  0.13512076699E+04  0.19699229730E+04  0.50400001928E-02 0.  1.
</event>
<event>
 5   0  0.5233813E-07  0.3169848E+04  0.7818609E-02  0.8196826E-01
       -1   -1    0    0    0  501  0.00000000000E+00  0.00000000000E+00  0.15905837664E+04  0.15905837664E+04  0.50400001928E-02 0. -1.
        1   -1    0    0  501    0  0.00000000000E+00  0.00000000000E+00 -0.15792841578E+04  0.15792841578E+04  0.50400001928E-02 0.  1.
    10030    2    1    2    0    0  0.00000000000E+00  0.00000000000E+00  0.11299608572E+02  0.31698679242E+04  0.31698477843E+04 0.  0.
        4    1    3    3  502    0  0.15285663146E+04  0.37644555277E+03  0.18937875597E+03  0.15855888995E+04  0.12699999809E+01 0.  1.
       -4    1    3    3    0  502 -0.15285663146E+04 -0.37644555277E+03 -0.17807914740E+03  0.15842790246E+04  0.12699999809E+01 0. -1.
</event>
<event>
 5   0  0.5177039E-07  0.3182943E+04  0.7818609E-02  0.8193337E-01
        1   -1    0    0  501    0  0.00000000000E+00  0.00000000000E+00  0.14058219225E+04  0.14058219225E+04  0.50400001928E-02 0.  1.
       -1   -1    0    0    0  501  0.00000000000E+00  0.00000000000E+00 -0.18016371109E+04  0.18016371109E+04  0.50400001928E-02 0. -1.
    10030    2    1    2    0    0  0.00000000000E+00  0.00000000000E+00 -0.39581518833E+03  0.32074590334E+04  0.31829426303E+04 0.  0.
        3    1    3    3  502    0  0.12140837388E+04  0.16556795369E+03 -0.12212932266E+04  0.17300200079E+04  0.10100000352E+00 0. -1.
       -3    1    3    3    0  502 -0.12140837388E+04 -0.16556795369E+03  0.82547803826E+03  0.14774390255E+04  0.10100000352E+00 0.  1.
</event>
<event>
 5   0  0.1508771E-06  0.3186016E+04  0.7818609E-02  0.8192520E-01
       -2   -1    0    0    0  501  0.00000000000E+00  0.00000000000E+00  0.11742934684E+04  0.11742934684E+04  0.25500000920E-02 0. -1.
        2   -1    0    0  501    0  0.00000000000E+00  0.00000000000E+00 -0.21610229629E+04  0.21610229629E+04  0.25500000920E-02 0.  1.
    10030    2    1    2    0    0  0.00000000000E+00  0.00000000000E+00 -0.98672949453E+03  0.33353164312E+04  0.31860164157E+04 0.  0.
        4    1    3    3  502    0 -0.13784100301E+04  0.44004326739E+03  0.20421025801E+03  0.14612856430E+04  0.12699999809E+01 0. -1.
       -4    1    3    3    0  502  0.13784100301E+04 -0.44004326739E+03 -0.11909397525E+04  0.18740307882E+04  0.12699999809E+01 0.  1.
</event>
<event>
 5   0  0.1556396E-06  0.3188662E+04  0.7818609E-02  0.8191818E-01
        2   -1    0    0  501    0  0.00000000000E+00  0.00000000000E+00  0.15914007668E+04  0.15914007668E+04  0.25500000920E-02 0. -1.
       -2   -1    0    0    0  501  0.00000000000E+00  0.00000000000E+00 -0.15972665889E+04  0.15972665889E+04  0.25500000920E-02 0.  1.
    10030    2    1    2    0    0  0.00000000000E+00  0.00000000000E+00 -0.58658221690E+01  0.31886673557E+04  0.31886619604E+04 0.  0.
        3    1    3    3  502    0  0.12405730779E+04  0.86454572988E+03  0.50246915442E+03  0.15934039482E+04  0.10100000352E+00 0. -1.
       -3    1    3    3    0  502 -0.12405730779E+04 -0.86454572988E+03 -0.50833497659E+03  0.15952634075E+04  0.10100000352E+00 0.  1.
</event>
<event>
 5   0  0.1493485E-06  0.3181553E+04  0.7818609E-02  0.8193706E-01
        2   -1    0    0  501    0  0.00000000000E+00  0.00000000000E+00  0.14798940902E+04  0.14798940902E+04  0.25500000920E-02 0. -1.
       -2   -1    0    0    0  501  0.00000000000E+00  0.00000000000E+00 -0.17099665387E+04  0.17099665387E+04  0.25500000920E-02 0.  1.
    10030    2    1    2    0    0  0.00000000000E+00  0.00000000000E+00 -0.23007244848E+03  0.31898606289E+04  0.31815526870E+04 0.  0.
        2    1    3    3  502    0 -0.44405134166E+03  0.81235861372E+03 -0.14120375521E+04  0.16884780602E+04  0.25500000920E-02 0.  1.
       -2    1    3    3    0  502  0.44405134166E+03 -0.81235861372E+03  0.11819651036E+04  0.15013825687E+04  0.25500000920E-02 0. -1.
</event>
<event>
 5   0  0.1493485E-06  0.3291671E+04  0.7818609E-02  0.8165018E-01
       -2   -1    0    0    0  501  0.00000000000E+00  0.00000000000E+00  0.19089372035E+04  0.19089372035E+04  0.25500000920E-02 0.  1.
        2   -1    0    0  501    0  0.00000000000E+00  0.00000000000E+00 -0.14189965082E+04  0.14189965082E+04  0.25500000920E-02 0. -1.
    10030    2    1    2    0    0  0.00000000000E+00  0.00000000000E+00  0.48994069529E+03  0.33279337117E+04  0.32916714454E+04 0.  0.
        2    1    3    3  502    0 -0.12295070541E+04  0.86628982953E+03  0.92063612033E+03  0.17634388367E+04  0.25500000920E-02 0. -1.
       -2    1    3    3    0  502  0.12295070541E+04 -0.86628982953E+03 -0.43069542504E+03  0.15644948750E+04  0.25500000920E-02 0.  1.
</event>
<event>
 5   0  0.1508771E-06  0.3150078E+04  0.7818609E-02  0.8202127E-01
        2   -1    0    0  501    0  0.00000000000E+00  0.00000000000E+00  0.23297708466E+04  0.23297708466E+04  0.25500000920E-02 0.  1.
       -2   -1    0    0    0  501  0.00000000000E+00  0.00000000000E+00 -0.10648035558E+04  0.10648035558E+04  0.25500000920E-02 0. -1.
    10030    2    1    2    0    0  0.00000000000E+00  0.00000000000E+00  0.12649672908E+04  0.33945744025E+04  0.31500782732E+04 0.  0.
        4    1    3    3  502    0  0.56836867966E+03 -0.12230872252E+04  0.15091103309E+04  0.20239567485E+04  0.12699999809E+01 0.  1.
       -4    1    3    3    0  502 -0.56836867966E+03  0.12230872252E+04 -0.24414304007E+03  0.13706176539E+04  0.12699999809E+01 0. -1.
</event>
<event>
 5   0  0.1572769E-06  0.3176593E+04  0.7818609E-02  0.8195026E-01
       -2   -1    0    0    0  501  0.00000000000E+00  0.00000000000E+00  0.90594063706E+03  0.90594063706E+03  0.25500000920E-02 0.  1.
        2   -1    0    0  501    0  0.00000000000E+00  0.00000000000E+00 -0.27846033155E+04  0.27846033155E+04  0.25500000920E-02 0. -1.
    10030    2    1    2    0    0  0.00000000000E+00  0.00000000000E+00 -0.18786626784E+04  0.36905439525E+04  0.31765927039E+04 0.  0.
        5    1    3    3  502    0 -0.38517336137E+03 -0.15050289444E+04 -0.13232377739E+04  0.20406986397E+04  0.46999998093E+01 0. -1.
       -5    1    3    3    0  502  0.38517336137E+03  0.15050289444E+04 -0.55542490454E+03  0.16498453129E+04  0.46999998093E+01 0.  1.
</event>
<event>
 5   0  0.1572769E-06  0.3184249E+04  0.7818609E-02  0.8192989E-01
       -2   -1    0    0    0  501  0.00000000000E+00  0.00000000000E+00  0.10444576690E+04  0.10444576690E+04  0.25500000920E-02 0.  1.
        2   -1    0    0  501    0  0.00000000000E+00  0.00000000000E+00 -0.24269635057E+04  0.24269635057E+04  0.25500000920E-02 0. -1.
    10030    2    1    2    0    0  0.00000000000E+00  0.00000000000E+00 -0.13825058367E+04  0.34714211748E+04  0.31842491398E+04 0.  0.
        5    1    3    3  502    0  0.15871555381E+04  0.88132481051E+02 -0.78881395215E+03  0.17745646163E+04  0.46999998093E+01 0. -1.
       -5    1    3    3    0  502 -0.15871555381E+04 -0.88132481051E+02 -0.59369188454E+03  0.16968565585E+04  0.46999998093E+01 0.  1.
</event>
<event>
 5   0  0.1556396E-06  0.3210637E+04  0.7818609E-02  0.8186014E-01
        2   -1    0    0  501    0  0.00000000000E+00  0.00000000000E+00  0.22046356603E+04  0.22046356603E+04  0.25500000920E-02 0.  1.
       -2   -1    0    0    0  501  0.00000000000E+00  0.00000000000E+00 -0.11689221840E+04  0.11689221840E+04  0.25500000920E-02 0. -1.
    10030    2    1    2    0    0  0.00000000000E+00  0.00000000000E+00  0.10357134763E+04  0.33735578443E+04  0.32106370277E+04 0.  0.
        3    1    3    3  502    0 -0.47929051479E+03 -0.94942558913E+03 -0.74562497180E+03  0.12988783452E+04  0.10100000352E+00 0. -1.
       -3    1    3    3    0  502  0.47929051479E+03  0.94942558913E+03  0.17813384481E+04  0.20746794991E+04  0.10100000352E+00 0.  1.
</event>
<event>
 5   0  0.5370912E-07  0.3204968E+04  0.7818609E-02  0.8187506E-01
        1   -1    0    0  501    0  0.00000000000E+00  0.00000000000E+00  0.11823796487E+04  0.11823796487E+04  0.50400001928E-02 0.  1.
       -1   -1    0    0    0  501  0.00000000000E+00  0.00000000000E+00 -0.21718526222E+04  0.21718526223E+04  0.50400001928E-02 0. -1.
    10030    2    1    2    0    0  0.00000000000E+00  0.00000000000E+00 -0.98947297352E+03  0.33542322710E+04  0.32049676071E+04 0.  0.
        1    1    3    3  502    0  0.52422619892E+03  0.89325554202E+03  0.78501112417E+03  0.12996003371E+04  0.50400001928E-02 0.  1.
       -1    1    3    3    0  502 -0.52422619892E+03 -0.89325554202E+03 -0.17744840977E+04  0.20546319339E+04  0.50400001928E-02 0. -1.
</event>
<event>
 5   0  0.5370912E-07  0.3206628E+04  0.7818609E-02  0.8187069E-01
        1   -1    0    0  501    0  0.00000000000E+00  0.00000000000E+00  0.20176232842E+04  0.20176232842E+04  0.50400001928E-02 0. -1.
       -1   -1    0    0    0  501  0.00000000000E+00  0.00000000000E+00 -0.12740807990E+04  0.12740807990E+04  0.50400001928E-02 0.  1.
    10030    2    1    2    0    0  0.00000000000E+00  0.00000000000E+00  0.74354248520E+03  0.32917040831E+04  0.32066275655E+04 0.  0.
        1    1    3    3  502    0 -0.46051985787E+03  0.14399238291E+04  0.91993895964E+03  0.17696742250E+04  0.50400001928E-02 0. -1.
       -1    1    3    3    0  502  0.46051985787E+03 -0.14399238291E+04 -0.17639647444E+03  0.15220298582E+04  0.50400001928E-02 0.  1.
</event>
<event>
 5   0  0.1493485E-06  0.3203269E+04  0.7818609E-02  0.8187954E-01
        2   -1    0    0  501    0  0.00000000000E+00  0.00000000000E+00  0.17924095401E+04  0.17924095401E+04  0.25500000920E-02 0.  1.
       -2   -1    0    0    0  501  0.00000000000E+00  0.00000000000E+00 -0.14311647956E+04  0.14311647956E+04  0.25500000920E-02 0. -1.
    10030    2    1    2    0    0  0.00000000000E+00  0.00000000000E+00  0.36124474457E+03  0.32235743357E+04  0.32032692257E+04 0.  0.
        2    1    3    3  502    0 -0.15599396747E+04 -0.47776705029E+02  0.54281913969E+03  0.16523761741E+04  0.25500000920E-02 0.  1.
       -2    1    3    3    0  502  0.15599396747E+04  0.47776705029E+02 -0.18157439512E+03  0.15711981616E+04  0.25500000920E-02 0. -1.
</event>
<event>
 5   0  0.1508771E-06  0.3170496E+04  0.7818609E-02  0.8196653E-01
       -2   -1    0    0    0  501  0.00000000000E+00  0.00000000000E+00  0.12129505473E+04  0.12129505473E+04  0.25500000920E-02 0.  1.
        2   -1    0    0  501    0  0.00000000000E+00  0.00000000000E+00 -0.20718169338E+04  0.20718169338E+04  0.25500000920E-02 0. -1.
    10030    2    1    2    0    0  0.00000000000E+00  0.00000000000E+00 -0.85886638646E+03  0.32847674811E+04  0.31704961654E+04 0.  0.
        4    1    3    3  502    0  0.10531694254E+04  0.10143917228E+04 -0.10637528431E+04  0.18082389582E+04  0.12699999809E+01 0.  1.
       -4    1    3    3    0  502 -0.10531694254E+04 -0.10143917228E+04  0.20488645667E+03  0.14765285229E+04  0.12699999809E+01 0. -1.
</event>
<event>
 5   0  0.5281187E-07  0.3207597E+04  0.7818609E-02  0.8186814E-01
        1   -1    0    0  501    0  0.00000000000E+00  0.00000000000E+00  0.20507832170E+04  0.20507832170E+04  0.50400001928E-02 0. -1.
       -1   -1    0    0    0  501  0.00000000000E+00  0.00000000000E+00 -0.12542376198E+04  0.12542376198E+04  0.50400001928E-02 0.  1.
    10030    2    1    2    0    0  0.00000000000E+00  0.00000000000E+00  0.79654559714E+03  0.33050208368E+04  0.32075968954E+04 0.  0.
        5    1    3    3  502    0  0.12328891078E+04  0.71932159193E+03 -0.35517447616E+03  0.14709215150E+04  0.46999998093E+01 0. -1.
       -5    1    3    3    0  502 -0.12328891078E+04 -0.71932159193E+03  0.11517200733E+04  0.18340993218E+04  0.46999998093E+01 0.  1.
</event>
<event>
 5   0  0.1508771E-06  0.3202332E+04  0.7818609E-02  0.8188202E-01
       -2   -1    0    0    0  501  0.00000000000E+00  0.00000000000E+00  0.25965102541E+04  0.25965102541E+04  0.25500000920E-02 0. -1.
        2   -1    0    0  501    0  0.00000000000E+00  0.00000000000E+00 -0.98737638995E+03  0.98737638995E+03  0.25500000920E-02 0.  1.
    10030    2    1    2    0    0  0.00000000000E+00  0.00000000000E+00  0.16091338641E+04  0.35838866440E+04  0.32023322258E+04 0.  0.
        4    1    3    3  502    0  0.57208036097E+03  0.94578461966E+03 -0.49188235152E+03  0.12098488942E+04  0.12699999809E+01 0.  1.
       -4    1    3    3    0  502 -0.57208036097E+03 -0.94578461966E+03  0.21010162157E+04  0.23740377498E+04  0.12699999809E+01 0. -1.
</event>
<event>
 5   0  0.5281187E-07  0.3186004E+04  0.7818609E-02  0.8192523E-01
        1   -1    0    0  501    0  0.00000000000E+00  0.00000000000E+00  0.18860562537E+04  0.18860562537E+04  0.50400001928E-02 0. -1.
       -1   -1    0    0    0  501  0.00000000000E+00  0.00000000000E+00 -0.13454823870E+04  0.13454823870E+04  0.50400001928E-02 0.  1.
    10030    2    1    2    0    0  0.00000000000E+00  0.00000000000E+00  0.54057386669E+03  0.32315386407E+04  0.31860040617E+04 0.  0.
        5    1    3    3  502    0  0.15865952288E+04 -0.66126010635E+02  0.14208302016E+03  0.15943232871E+04  0.46999998093E+01 0. -1.
       -5    1    3    3    0  502 -0.15865952288E+04  0.66126010635E+02  0.39849084653E+03  0.16372153536E+04  0.46999998093E+01 0.  1.
</event>
<event>
 5   0  0.5233813E-07  0.3203290E+04  0.7818609E-02  0.8187949E-01
       -1   -1    0    0    0  501  0.00000000000E+00  0.00000000000E+00  0.24874815706E+04  0.24874815706E+04  0.50400001928E-02 0. -1.
        1   -1    0    0  501    0  0.00000000000E+00  0.00000000000E+00 -0.10312705528E+04  0.10312705528E+04  0.50400001928E-02 0.  1.
    10030    2    1    2    0    0  0.00000000000E+00  0.00000000000E+00  0.14562110178E+04  0.35187521234E+04  0.32032898678E+04 0.  0.
        4    1    3    3  502    0  0.81084029969E+03  0.56582390573E+02 -0.78787799319E+03  0.11319968655E+04  0.12699999809E+01 0.  1.
       -4    1    3    3    0  502 -0.81084029969E+03 -0.56582390573E+02  0.22440890110E+04  0.23867552578E+04  0.12699999809E+01 0. -1.
</event>
<event>
 5   0  0.5370912E-07  0.3225092E+04  0.7818609E-02  0.8182222E-01
        1   -1    0    0  501    0  0.00000000000E+00  0.00000000000E+00  0.18224951462E+04  0.18224951462E+04  0.50400001928E-02 0. -1.
       -1   -1    0    0    0  501  0.00000000000E+00  0.00000000000E+00 -0.14267827117E+04  0.14267827117E+04  0.50400001928E-02 0.  1.
    10030    2    1    2    0    0  0.00000000000E+00  0.00000000000E+00  0.39571243449E+03  0.32492778580E+04  0.32250919781E+04 0.  0.
        1    1    3    3  502    0  0.11709927975E+04  0.18520203603E+02 -0.91894091822E+03  0.14886300887E+04  0.50400001928E-02 0.  1.
       -1    1    3    3    0  502 -0.11709927975E+04 -0.18520203603E+02  0.13146533527E+04  0.17606477693E+04  0.50400001928E-02 0. -1.
</event>
<event>
 5   0  0.5370912E-07  0.3197166E+04  0.7818609E-02  0.8189566E-01
       -1   -1    0    0    0  501  0.00000000000E+00  0.00000000000E+00  0.11254169531E+04  0.11254169532E+04  0.50400001928E-02 0. -1.
        1   -1    0    0  501    0  0.00000000000E+00  0.00000000000E+00 -0.22706854358E+04  0.22706854358E+04  0.50400001928E-02 0.  1.
    10030    2    1    2    0    0  0.00000000000E+00  0.00000000000E+00 -0.11452684827E+04  0.33961023890E+04  0.31971661732E+04 0.  0.
        1    1    3    3  502    0 -0.78079489049E+03 -0.11939483629E+03 -0.20489220300E+04  0.21959001054E+04  0.50400001928E-02 0.  1.
       -1    1    3    3    0  502  0.78079489049E+03  0.11939483629E+03  0.90365354730E+03  0.12002022836E+04  0.50400001928E-02 0. -1.
</event>
<event>
 5   0  0.5370912E-07  0.3108290E+04  0.7818609E-02  0.8213467E-01
       -1   -1    0    0    0  501  0.00000000000E+00  0.00000000000E+00  0.31314756950E+04  0.31314756950E+04  0.50400001928E-02 0.  1.
        1   -1    0    0  501    0  0.00000000000E+00  0.00000000000E+00 -0.77131892308E+03  0.77131892310E+03  0.50400001928E-02 0. -1.
    10030    2    1    2    0    0  0.00000000000E+00  0.00000000000E+00  0.23601567719E+04  0.39027946181E+04  0.31082898583E+04 0.  0.
        1    1    3    3  502    0  0.75752075518E+03 -0.89218557413E+03  0.24639547307E+04  0.27278023588E+04  0.50400001928E-02 0.  1.
       -1    1    3    3    0  502 -0.75752075518E+03  0.89218557413E+03 -0.10379795884E+03  0.11749922593E+04  0.50400001928E-02 0. -1.
</event>
<event>
 5   0  0.5317728E-07  0.3176538E+04  0.7818609E-02  0.8195041E-01
       -1   -1    0    0    0  501  0.00000000000E+00  0.00000000000E+00  0.79003647100E+03  0.79003647101E+03  0.50400001928E-02 0. -1.
        1   -1    0    0  501    0  0.00000000000E+00  0.00000000000E+00 -0.31930149387E+04  0.31930149388E+04  0.50400001928E-02 0.  1.
    10030    2    1    2    0    0  0.00000000000E+00  0.00000000000E+00 -0.24029784678E+04  0.39830514098E+04  0.31765378978E+04 0.  0.
        2    1    3    3  502    0  0.37876098150E+03  0.54692109797E+03 -0.30098920551E+04  0.30825367397E+04  0.25500000920E-02 0.  1.
       -2    1    3    3    0  502 -0.37876098150E+03 -0.54692109797E+03  0.60691358732E+03  0.90051467005E+03  0.25500000920E-02 0. -1.
</event>
<event>
 5   0  0.5281187E-07  0.3204100E+04  0.7818609E-02  0.8187735E-01
       -1   -1    0    0    0  501  0.00000000000E+00  0.00000000000E+00  0.14397506972E+04  0.14397506972E+04  0.50400001928E-02 0. -1.
        1   -1    0    0  501    0  0.00000000000E+00  0.00000000000E+00 -0.17826448138E+04  0.17826448138E+04  0.50400001928E-02 0.  1.
    10030    2    1    2    0    0  0.00000000000E+00  0.00000000000E+00 -0.34289411664E+03  0.32223955110E+04  0.32040999444E+04 0.  0.
        5    1    3    3  502    0 -0.67368281206E+03 -0.37996139033E+03 -0.15824273731E+04  0.17613397374E+04  0.46999998093E+01 0.  1.
       -5    1    3    3    0  502  0.67368281206E+03  0.37996139033E+03  0.12395332565E+04  0.14610557735E+04  0.46999998093E+01 0. -1.
</event>
<event>
 5   0  0.1556396E-06  0.3191167E+04  0.7818609E-02  0.8191154E-01
        2   -1    0    0  501    0  0.00000000000E+00  0.00000000000E+00  0.18702310489E+04  0.18702310489E+04  0.25500000920E-02 0. -1.
       -2   -1    0    0    0  501  0.00000000000E+00  0.00000000000E+00 -0.13612686923E+04  0.13612686923E+04  0.25500000920E-02 0.  1.
    10030    2    1    2    0    0  0.00000000000E+00  0.00000000000E+00  0.50896235661E+03  0.32314997412E+04  0.31911671684E+04 0.  0.
        3    1    3    3  502    0  0.60626981418E+03 -0.87010882132E+03 -0.95274166124E+03  0.14256118447E+04  0.10100000352E+00 0.  1.
       -3    1    3    3    0  502 -0.60626981418E+03  0.87010882132E+03  0.14617040179E+04  0.18058878964E+04  0.10100000352E+00 0. -1.
</event>
<event>
 5   0  0.5177039E-07  0.3099070E+04  0.7818609E-02  0.8215993E-01
       -1   -1    0    0    0  501  0.00000000000E+00  0.00000000000E+00  0.12669622933E+04  0.12669622933E+04  0.50400001928E-02 0.  1.
        1   -1    0    0  501    0  0.00000000000E+00  0.00000000000E+00 -0.18951304941E+04  0.18951304941E+04  0.50400001928E-02 0. -1.
    10030    2    1    2    0    0  0.00000000000E+00  0.00000000000E+00 -0.62816820073E+03  0.31620927874E+04  0.30990701037E+04 0.  0.
        3    1    3    3  502    0  0.63404470380E+03 -0.72803093757E+03 -0.15507621141E+04  0.18267197041E+04  0.10100000352E+00 0. -1.
       -3    1    3    3    0  502 -0.63404470380E+03  0.72803093757E+03  0.92259391338E+03  0.13353730833E+04  0.10100000352E+00 0.  1.
</event>
<event>
 5   0  0.5317728E-07  0.3205712E+04  0.7818609E-02  0.8187310E-01
        1   -1    0    0  501    0  0.00000000000E+00  0.00000000000E+00  0.19253204939E+04  0.19253204939E+04  0.50400001928E-02 0. -1.
       -1   -1    0    0    0  501  0.00000000000E+00  0.00000000000E+00 -0.13344000774E+04  0.13344000774E+04  0.50400001928E-02 0.  1.
    10030    2    1    2    0    0  0.00000000000E+00  0.00000000000E+00  0.59092041649E+03  0.32597205713E+04  0.32057122865E+04 0.  0.
        2    1    3    3  502    0 -0.62403237766E+03 -0.13015837282E+04 -0.41313821484E+03  0.15014059393E+04  0.25500000920E-02 0. -1.
       -2    1    3    3    0  502  0.62403237766E+03  0.13015837282E+04  0.10040586313E+04  0.17583146320E+04  0.25500000920E-02 0.  1.
</event>
<event>
 5   0  0.1572769E-06  0.3200247E+04  0.7818609E-02  0.8188752E-01
       -2   -1    0    0    0  501  0.00000000000E+00  0.00000000000E+00  0.10656153732E+04  0.10656153732E+04  0.25500000920E-02 0.  1.
        2   -1    0    0  501    0  0.00000000000E+00  0.00000000000E+00 -0.24027389071E+04  0.24027389071E+04  0.25500000920E-02 0. -1.
    10030    2    1    2    0    0  0.00000000000E+00  0.00000000000E+00 -0.13371235339E+04  0.34683542802E+04  0.32002471886E+04 0.  0.
        5    1    3    3  502    0 -0.14177176739E+04  0.50217087688E+02  0.13367355804E+03  0.14248985468E+04  0.46999998093E+01 0.  1.
       -5    1    3    3    0  502  0.14177176739E+04 -0.50217087688E+02 -0.14707970919E+04  0.20434557334E+04  0.46999998093E+01 0. -1.
</event>
<event>
 5   0  0.1556396E-06  0.3011251E+04  0.7818609E-02  0.8240525E-01
       -2   -1    0    0    0  501  0.00000000000E+00  0.00000000000E+00  0.12290551367E+04  0.12290551367E+04  0.25500000920E-02 0.  1.
        2   -1    0    0  501    0  0.00000000000E+00  0.00000000000E+00 -0.18444319427E+04  0.18444319427E+04  0.25500000920E-02 0. -1.
    10030    2    1    2    0    0  0.00000000000E+00  0.00000000000E+00 -0.61537680599E+03  0.30734870794E+04  0.30112512705E+04 0.  0.
        3    1    3    3  502    0 -0.13195928427E+03 -0.85397449506E+03 -0.15661443686E+04  0.17887129128E+04  0.10100000352E+00 0. -1.
       -3    1    3    3    0  502  0.13195928427E+03  0.85397449506E+03  0.95076756260E+03  0.12847741666E+04  0.10100000352E+00 0.  1.
</event>
<event>
 5   0  0.5370912E-07  0.3236707E+04  0.7818609E-02  0.8179190E-01
        1   -1    0    0  501    0  0.00000000000E+00  0.00000000000E+00  0.23391980716E+04  0.23391980716E+04  0.50400001928E-02 0.  1.
       -1   -1    0    0    0  501  0.00000000000E+00  0.00000000000E+00 -0.11196433862E+04  0.11196433862E+04  0.50400001928E-02 0. -1.
    10030    2    1    2    0    0  0.00000000000E+00  0.00000000000E+00  0.12195546854E+04  0.34588414578E+04  0.32367067521E+04 0.  0.
        1    1    3    3  502    0  0.15386975784E+04 -0.52149068790E+02  0.76791428901E+02  0.15414949519E+04  0.50400001928E-02 0. -1.
       -1    1    3    3    0  502 -0.15386975784E+04  0.52149068790E+02  0.11427632565E+04  0.19173465059E+04  0.50400001928E-02 0.  1.
</event>
<event>
 5   0  0.1508771E-06  0.3193867E+04  0.7818609E-02  0.8190439E-01
        2   -1    0    0  501    0  0.00000000000E+00  0.00000000000E+00  0.21722209004E+04  0.21722209004E+04  0.25500000920E-02 0. -1.
       -2   -1    0    0    0  501  0.00000000000E+00  0.00000000000E+00 -0.11740045563E+04  0.11740045563E+04  0.25500000920E-02 0.  1.
    10030    2    1    2    0    0  0.00000000000E+00  0.00000000000E+00  0.99821634409E+03  0.33462254567E+04  0.31938673951E+04 0.  0.
        4    1    3    3  502    0 -0.11310708334E+04 -0.28018741645E+03 -0.64493846695E+03  0.13318308667E+04  0.12699999809E+01 0.  1.
       -4    1    3    3    0  502  0.11310708334E+04  0.28018741645E+03  0.16431548110E+04  0.20143945900E+04  0.12699999809E+01 0. -1.
</event>
<event>
 5   0  0.1538349E-06  0.3197481E+04  0.7818609E-02  0.8189483E-01
        2   -1    0    0  501    0  0.00000000000E+00  0.00000000000E+00  0.19785596727E+04  0.19785596727E+04  0.25500000920E-02 0.  1.
       -2   -1    0    0    0  501  0.00000000000E+00  0.00000000000E+00 -0.12918346595E+04  0.12918346595E+04  0.25500000920E-02 0. -1.
    10030    2    1    2    0    0  0.00000000000E+00  0.00000000000E+00  0.68672501321E+03  0.32703943322E+04  0.31974814846E+04 0.  0.
        1    1    3    3  502    0 -0.37756945391E+03  0.16032761710E+03 -0.12370946226E+04  0.13033290999E+04  0.50400001928E-02 0. -1.
       -1    1    3    3    0  502  0.37756945391E+03 -0.16032761710E+03  0.19238196358E+04  0.19670652324E+04  0.50400001928E-02 0.  1.
</event>
<event>
 5   0  0.1556396E-06  0.3200005E+04  0.7818609E-02  0.8188816E-01
        2   -1    0    0  501    0  0.00000000000E+00  0.00000000000E+00  0.24883534816E+04  0.24883534816E+04  0.25500000920E-02 0.  1.
       -2   -1    0    0    0  501  0.00000000000E+00  0.00000000000E+00 -0.10287962192E+04  0.10287962192E+04  0.25500000920E-02 0. -1.
    10030    2    1    2    0    0  0.00000000000E+00  0.00000000000E+00  0.14595572624E+04  0.35171497008E+04  0.32000054087E+04 0.  0.
        3    1    3    3  502    0  0.13607012732E+04  0.73540558055E+03  0.27970880818E+03  0.15718035343E+04  0.10100000352E+00 0. -1.
       -3    1    3    3    0  502 -0.13607012732E+04 -0.73540558055E+03  0.11798484542E+04  0.19453461666E+04  0.10100000352E+00 0.  1.
</event>
<event>
 5   0  0.5281187E-07  0.3215950E+04  0.7818609E-02  0.8184617E-01
       -1   -1    0    0    0  501  0.00000000000E+00  0.00000000000E+00  0.14130810856E+04  0.14130810856E+04  0.50400001928E-02 0. -1.
        1   -1    0    0  501    0  0.00000000000E+00  0.00000000000E+00 -0.18297490830E+04  0.18297490830E+04  0.50400001928E-02 0.  1.
    10030    2    1    2    0    0  0.00000000000E+00  0.00000000000E+00 -0.41666799747E+03  0.32428301686E+04  0.32159501368E+04 0.  0.
        5    1    3    3  502    0  0.58890628463E+03 -0.14935067725E+04 -0.11708654297E+03  0.16096907902E+04  0.46999998093E+01 0.  1.
       -5    1    3    3    0  502 -0.58890628463E+03  0.14935067725E+04 -0.29958145450E+03  0.16331393784E+04  0.46999998093E+01 0. -1.
</event>
<event>
 5   0  0.5317728E-07  0.3191624E+04  0.7818609E-02  0.8191033E-01
        1   -1    0    0  501    0  0.00000000000E+00  0.00000000000E+00  0.28828491292E+04  0.28828491292E+04  0.50400001928E-02 0. -1.
       -1   -1    0    0    0  501  0.00000000000E+00  0.00000000000E+00 -0.88336776447E+03  0.88336776449E+03  0.50400001928E-02 0.  1.
    10030    2    1    2    0    0  0.00000000000E+00  0.00000000000E+00  0.19994813647E+04  0.37662168937E+04  0.31916240321E+04 0.  0.
        2    1    3    3  502    0 -0.14612528441E+04  0.58696563758E+03  0.13047907083E+04  0.20450592477E+04  0.25500000920E-02 0. -1.
       -2    1    3    3    0  502  0.14612528441E+04 -0.58696563758E+03  0.69469065642E+03  0.17211576460E+04  0.25500000920E-02 0.  1.
</event>
<event>
 5   0  0.5177039E-07  0.3264682E+04  0.7818609E-02  0.8171941E-01
       -1   -1    0    0    0  501  0.00000000000E+00  0.00000000000E+00  0.99729223093E+03  0.99729223094E+03  0.50400001928E-02 0.  1.
        1   -1    0    0  501    0  0.00000000000E+00  0.00000000000E+00 -0.26717712752E+04  0.26717712752E+04  0.50400001928E-02 0. -1.
    10030    2    1    2    0    0  0.00000000000E+00  0.00000000000E+00 -0.16744790442E+04  0.36690635061E+04  0.32646817521E+04 0.  0.
        3    1    3    3  502    0 -0.11717531436E+04  0.11249557135E+03 -0.21081899243E+04  0.24145652715E+04  0.10100000352E+00 0. -1.
       -3    1    3    3    0  502  0.11717531436E+04 -0.11249557135E+03  0.43371088006E+03  0.12544982346E+04  0.10100000352E+00 0.  1.
</event>
<event>
 5   0  0.1493485E-06  0.3219374E+04  0.7818609E-02  0.8183719E-01
       -2   -1    0    0    0  501  0.00000000000E+00  0.00000000000E+00  0.96545719844E+03  0.96545719844E+03  0.25500000920E-02 0.  1.
        2   -1    0    0  501    0  0.00000000000E+00  0.00000000000E+00 -0.26837984008E+04  0.26837984008E+04  0.25500000920E-02 0. -1.
    10030    2    1    2    0    0  0.00000000000E+00  0.00000000000E+00 -0.17183412024E+04  0.36492555992E+04  0.32193741536E+04 0.  0.
        2    1    3    3  502    0  0.33062780755E+03  0.10837456987E+04 -0.21552033496E+04  0.24348964998E+04  0.25500000920E-02 0. -1.
       -2    1    3    3    0  502 -0.33062780755E+03 -0.10837456987E+04  0.43686214725E+03  0.12143590994E+04  0.25500000920E-02 0.  1.
</event>
<event>
 5   0  0.1508771E-06  0.3230110E+04  0.7818609E-02  0.8180910E-01
       -2   -1    0    0    0  501  0.00000000000E+00  0.00000000000E+00  0.10889542204E+04  0.10889542204E+04  0.25500000920E-02 0.  1.
        2   -1    0    0  501    0  0.00000000000E+00  0.00000000000E+00 -0.23953275368E+04  0.23953275368E+04  0.25500000920E-02 0. -1.
    10030    2    1    2    0    0  0.00000000000E+00  0.00000000000E+00 -0.13063733164E+04  0.34842817571E+04  0.32301096144E+04 0.  0.
        4    1    3    3  502    0  0.65948937281E+02  0.12320751946E+04  0.47095046754E+03  0.13206644173E+04  0.12699999809E+01 0.  1.
       -4    1    3    3    0  502 -0.65948937281E+02 -0.12320751946E+04 -0.17773237839E+04  0.21636173398E+04  0.12699999809E+01 0. -1.
</event>
<event>
 5   0  0.5317728E-07  0.3205857E+04  0.7818609E-02  0.8187272E-01
       -1   -1    0    0    0  501  0.00000000000E+00  0.00000000000E+00  0.14077394979E+04  0.14077394979E+04  0.50400001928E-02 0.  1.
        1   -1    0    0  501    0  0.00000000000E+00  0.00000000000E+00 -0.18251815369E+04  0.18251815369E+04  0.50400001928E-02 0. -1.
    10030    2    1    2    0    0  0.00000000000E+00  0.00000000000E+00 -0.41744203900E+03  0.32329210349E+04  0.32058572273E+04 0.  0.
        2    1    3    3  502    0  0.11587248105E+04 -0.60119737668E+03 -0.11467881905E+04  0.17375858615E+04  0.25500000920E-02 0. -1.
       -2    1    3    3    0  502 -0.11587248105E+04  0.60119737668E+03  0.72934615148E+03  0.14953351734E+04  0.25500000920E-02 0.  1.
</event>
<event>
 5   0  0.5281187E-07  0.3195160E+04  0.7818609E-02  0.8190097E-01
        1   -1    0    0  501    0  0.00000000000E+00  0.00000000000E+00  0.22485858835E+04  0.22485858835E+04  0.50400001928E-02 0. -1.
       -1   -1    0    0    0  501  0.00000000000E+00  0.00000000000E+00 -0.11350517523E+04  0.11350517524E+04  0.50400001928E-02 0.  1.
    10030    2    1    2    0    0  0.00000000000E+00  0.00000000000E+00  0.11135341311E+04  0.33836376358E+04  0.31951596814E+04 0.  0.
        5    1    3    3  502    0 -0.12554687340E+04  0.79734842541E+03  0.11745060745E+04  0.18951128892E+04  0.46999998093E+01 0. -1.
       -5    1    3    3    0  502  0.12554687340E+04 -0.79734842541E+03 -0.60971943356E+02  0.14885247467E+04  0.46999998093E+01 0.  1.
</event>
<event>
 5   0  0.5317728E-07  0.3199947E+04  0.7818609E-02  0.8188831E-01
        1   -1    0    0  501    0  0.00000000000E+00  0.00000000000E+00  0.20416598179E+04  0.20416598179E+04  0.50400001928E-02 0. -1.
       -1   -1    0    0    0  501  0.00000000000E+00  0.00000000000E+00 -0.12538404684E+04  0.12538404684E+04  0.50400001928E-02 0.  1.
    10030    2    1    2    0    0  0.00000000000E+00  0.00000000000E+00  0.78781934954E+03  0.32955002863E+04  0.31999473135E+04 0.  0.
        2    1    3    3  502    0  0.37360766690E+03 -0.13502696205E+04  0.11897095510E+04  0.18379933494E+04  0.25500000920E-02 0. -1.
       -2    1    3    3    0  502 -0.37360766690E+03  0.13502696205E+04 -0.40189020146E+03  0.14575069368E+04  0.25500000920E-02 0.  1.
</event>
<event>
 5   0  0.1493485E-06  0.3117657E+04  0.7818609E-02  0.8210909E-01
       -2   -1    0    0    0  501  0.00000000000E+00  0.00000000000E+00  0.10809449883E+04  0.10809449883E+04  0.25500000920E-02 0.  1.
        2   -1    0    0  501    0  0.00000000000E+00  0.00000000000E+00 -0.22479836677E+04  0.22479836677E+04  0.25500000920E-02 0. -1.
    10030    2    1    2    0    0  0.00000000000E+00  0.00000000000E+00 -0.11670386794E+04  0.33289286560E+04  0.31176572483E+04 0.  0.
        2    1    3    3  502    0 -0.12745543862E+04 -0.89720425939E+03 -0.60696921762E+03  0.16726852656E+04  0.25500000920E-02 0. -1.
       -2    1    3    3    0  502  0.12745543862E+04  0.89720425939E+03 -0.56006946173E+03  0.16562433905E+04  0.25500000920E-02 0.  1.
</event>
<event>
 5   0  0.1556396E-06  0.3179970E+04  0.7818609E-02  0.8194127E-01
        2   -1    0    0  501    0  0.00000000000E+00  0.00000000000E+00  0.19418299901E+04  0.19418299901E+04  0.25500000920E-02 0. -1.
       -2   -1    0    0    0  501  0.00000000000E+00  0.00000000000E+00 -0.13018912942E+04  0.13018912942E+04  0.25500000920E-02 0.  1.
    10030    2    1    2    0    0  0.00000000000E+00  0.00000000000E+00  0.63993869595E+03  0.32437212843E+04  0.31799695337E+04 0.  0.
        3    1    3    3  502    0  0.14656724097E+04 -0.17039648440E+03  0.92414517680E+03  0.17410556833E+04  0.10100000352E+00 0. -1.
       -3    1    3    3    0  502 -0.14656724097E+04  0.17039648440E+03 -0.28420648084E+03  0.15026656010E+04  0.10100000352E+00 0.  1.
</event>
<event>
 5   0  0.1493485E-06  0.3210317E+04  0.7818609E-02  0.8186098E-01
        2   -1    0    0  501    0  0.00000000000E+00  0.00000000000E+00  0.25447931746E+04  0.25447931746E+04  0.25500000920E-02 0. -1.
       -2   -1    0    0    0  501  0.00000000000E+00  0.00000000000E+00 -0.10124727915E+04  0.10124727915E+04  0.25500000920E-02 0.  1.
    10030    2    1    2    0    0  0.00000000000E+00  0.00000000000E+00  0.15323203831E+04  0.35572659661E+04  0.32103170243E+04 0.  0.
        2    1    3    3  502    0  0.42214542501E+02 -0.14039630451E+04  0.16270692127E+04  0.21494763368E+04  0.25500000920E-02 0. -1.
       -2    1    3    3    0  502 -0.42214542501E+02  0.14039630451E+04 -0.94748829609E+02  0.14077896292E+04  0.25500000920E-02 0.  1.
</event>
<event>
 5   0  0.5177039E-07  0.3185710E+04  0.7818609E-02  0.8192601E-01
       -1   -1    0    0    0  501  0.00000000000E+00  0.00000000000E+00  0.16047439685E+04  0.16047439685E+04  0.50400001928E-02 0.  1.
        1   -1    0    0  501    0  0.00000000000E+00  0.00000000000E+00 -0.15810541508E+04  0.15810541508E+04  0.50400001928E-02 0. -1.
    10030    2    1    2    0    0  0.00000000000E+00  0.00000000000E+00  0.23689817682E+02  0.31857981193E+04  0.31857100385E+04 0.  0.
        3    1    3    3  502    0  0.10768282585E+04  0.67059519141E+03 -0.95147300649E+03  0.15857357603E+04  0.10100000352E+00 0. -1.
       -3    1    3    3    0  502 -0.10768282585E+04 -0.67059519141E+03  0.97516282418E+03  0.16000623591E+04  0.10100000352E+00 0.  1.
</event>
<event>
 5   0  0.5281187E-07  0.3211955E+04  0.7818609E-02  0.8185667E-01
        1   -1    0    0  501    0  0.00000000000E+00  0.00000000000E+00  0.20959727431E+04  0.20959727431E+04  0.50400001928E-02 0. -1.
       -1   -1    0    0    0  501  0.00000000000E+00  0.00000000000E+00 -0.12305332068E+04  0.12305332069E+04  0.50400001928E-02 0.  1.
    10030    2    1    2    0    0  0.00000000000E+00  0.00000000000E+00  0.86543953622E+03  0.33265059499E+04  0.32119552058E+04 0.  0.
        5    1    3    3  502    0  0.47040001183E+03 -0.96463046203E+02  0.20198761418E+04  0.20761750910E+04  0.46999998093E+01 0. -1.
       -5    1    3    3    0  502 -0.47040001183E+03  0.96463046203E+02 -0.11544366056E+04  0.12503308589E+04  0.46999998093E+01 0.  1.
</event>
<event>
 5   0  0.1572769E-06  0.3230888E+04  0.7818609E-02  0.8180707E-01
       -2   -1    0    0    0  501  0.00000000000E+00  0.00000000000E+00  0.13396293664E+04  0.13396293664E+04  0.25500000920E-02 0.  1.
        2   -1    0    0  501    0  0.00000000000E+00  0.00000000000E+00 -0.19480452882E+04  0.19480452883E+04  0.25500000920E-02 0. -1.
    10030    2    1    2    0    0  0.00000000000E+00  0.00000000000E+00 -0.60841592185E+03  0.32876746546E+04  0.32308876026E+04 0.  0.
        5    1    3    3  502    0  0.81168020268E+03 -0.13015963974E+04  0.21131135009E+03  0.15484355039E+04  0.46999998093E+01 0.  1.
       -5    1    3    3    0  502 -0.81168020268E+03  0.13015963974E+04 -0.81972727194E+03  0.17392391507E+04  0.46999998093E+01 0. -1.
</event>
<event>
 5   0  0.5281187E-07  0.3151548E+04  0.7818609E-02  0.8201732E-01
        1   -1    0    0  501    0  0.00000000000E+00  0.00000000000E+00  0.14354534146E+04  0.14354534146E+04  0.50400001928E-02 0. -1.
       -1   -1    0    0    0  501  0.00000000000E+00  0.00000000000E+00 -0.17298109760E+04  0.17298109760E+04  0.50400001928E-02 0.  1.
    10030    2    1    2    0    0  0.00000000000E+00  0.00000000000E+00 -0.29435756139E+03  0.31652643906E+04  0.31515476021E+04 0.  0.
        5    1    3    3  502    0 -0.73413784062E+02 -0.78393534975E+03 -0.15180726261E+04  0.17101201140E+04  0.46999998093E+01 0.  1.
       -5    1    3    3    0  502  0.73413784062E+02  0.78393534975E+03  0.12237150647E+04  0.14551442766E+04  0.46999998093E+01 0. -1.
</event>
<event>
 5   0  0.5317728E-07  0.3205146E+04  0.7818609E-02  0.8187459E-01
       -1   -1    0    0    0  501  0.00000000000E+00  0.00000000000E+00  0.13695234695E+04  0.13695234695E+04  0.50400001928E-02 0. -1.
        1   -1    0    0  501    0  0.00000000000E+00  0.00000000000E+00 -0.18752799753E+04  0.18752799753E+04  0.50400001928E-02 0.  1.
    10030    2    1    2    0    0  0.00000000000E+00  0.00000000000E+00 -0.50575650581E+03  0.32448034449E+04  0.32051458239E+04 0.  0.
        2    1    3    3  502    0  0.44884333812E+03 -0.37900998426E+03 -0.17623435436E+04  0.18576769568E+04  0.25500000920E-02 0.  1.
       -2    1    3    3    0  502 -0.44884333812E+03  0.37900998426E+03  0.12565870378E+04  0.13871264880E+04  0.25500000920E-02 0. -1.
</event>
<event>
 5   0  0.1572769E-06  0.3242132E+04  0.7818609E-02  0.8177778E-01
       -2   -1    0    0    0  501  0.00000000000E+00  0.00000000000E+00  0.93080363416E+03  0.93080363416E+03  0.25500000920E-02 0. -1.
        2   -1    0    0  501    0  0.00000000000E+00  0.00000000000E+00 -0.28232114622E+04  0.28232114622E+04  0.25500000920E-02 0.  1.
    10030    2    1    2    0    0  0.00000000000E+00  0.00000000000E+00 -0.18924078280E+04  0.37540150963E+04  0.32421323162E+04 0.  0.
        5    1    3    3  502    0  0.54600350085E+03  0.15114880365E+04 -0.11921487751E+04  0.20009889303E+04  0.46999998093E+01 0.  1.
       -5    1    3    3    0  502 -0.54600350085E+03 -0.15114880365E+04 -0.70025905290E+03  0.17530261660E+04  0.46999998093E+01 0. -1.
</event>
<event>
 5   0  0.5370912E-07  0.3183364E+04  0.7818609E-02  0.8193225E-01
       -1   -1    0    0    0  501  0.00000000000E+00  0.00000000000E+00  0.12481468065E+04  0.12481468065E+04  0.50400001928E-02 0.  1.
        1   -1    0    0  501    0  0.00000000000E+00  0.00000000000E+00 -0.20297701837E+04  0.20297701837E+04  0.50400001928E-02 0. -1.
    10030    2    1    2    0    0  0.00000000000E+00  0.00000000000E+00 -0.78162337718E+03  0.32779169902E+04  0.31833637384E+04 0.  0.
        1    1    3    3  502    0 -0.15857134495E+04  0.13308640273E+03 -0.42724682889E+03  0.16476464995E+04  0.50400001928E-02 0. -1.
       -1    1    3    3    0  502  0.15857134495E+04 -0.13308640273E+03 -0.35437654829E+03  0.16302704906E+04  0.50400001928E-02 0.  1.
</event>
<event>
 5   0  0.1556396E-06  0.3197639E+04  0.7818609E-02  0.8189441E-01
        2   -1    0    0  501    0  0.00000000000E+00  0.00000000000E+00  0.13206844538E+04  0.13206844538E+04  0.25500000920E-02 0.  1.
       -2   -1    0    0    0  501  0.00000000000E+00  0.00000000000E+00 -0.19355294552E+04  0.19355294552E+04  0.25500000920E-02 0. -1.
    10030    2    1    2    0    0  0.00000000000E+00  0.00000000000E+00 -0.61484500135E+03  0.32562139090E+04  0.31976389173E+04 0.  0.
        3    1    3    3  502    0 -0.60384438804E+03 -0.35779872766E+03  0.11554069870E+04  0.13518924847E+04  0.10100000352E+00 0.  1.
       -3    1    3    3    0  502  0.60384438804E+03  0.35779872766E+03 -0.17702519883E+04  0.19043214242E+04  0.10100000352E+00 0. -1.
</event>
<event>
 5   0  0.1508771E-06  0.3219129E+04  0.7818609E-02  0.8183784E-01
       -2   -1    0    0    0  501  0.00000000000E+00  0.00000000000E+00  0.14205509660E+04  0.14205509660E+04  0.25500000920E-02 0. -1.
        2   -1    0    0  501    0  0.00000000000E+00  0.00000000000E+00 -0.18237270666E+04  0.18237270666E+04  0.25500000920E-02 0.  1.
    10030    2    1    2    0    0  0.00000000000E+00  0.00000000000E+00 -0.40317610061E+03  0.32442780325E+04  0.32191286064E+04 0.  0.
        4    1    3    3  502    0 -0.65479065508E+03 -0.11491650855E+04  0.72283723129E+03  0.15072579313E+04  0.12699999809E+01 0. -1.
       -4    1    3    3    0  502  0.65479065508E+03  0.11491650855E+04 -0.11260133319E+04  0.17370201012E+04  0.12699999809E+01 0.  1.
</event>
<event>
 5   0  0.1556396E-06  0.3194327E+04  0.7818609E-02  0.8190317E-01
       -2   -1    0    0    0  501  0.00000000000E+00  0.00000000000E+00  0.15276876322E+04  0.15276876322E+04  0.25500000920E-02 0. -1.
        2   -1    0    0  501    0  0.00000000000E+00  0.00000000000E+00 -0.16697992721E+04  0.16697992721E+04  0.25500000920E-02 0.  1.
    10030    2    1    2    0    0  0.00000000000E+00  0.00000000000E+00 -0.14211163989E+03  0.31974869043E+04  0.31943272821E+04 0.  0.
        3    1    3    3  502    0  0.13648183625E+04 -0.13066447507E+03  0.74897933209E+03  0.15622971605E+04  0.10100000352E+00 0. -1.
       -3    1    3    3    0  502 -0.13648183625E+04  0.13066447507E+03 -0.89109097198E+03  0.16351897438E+04  0.10100000352E+00 0.  1.
</event>
<event>
 5   0  0.5317728E-07  0.3193179E+04  0.7818609E-02  0.8190621E-01
        1   -1    0    0  501    0  0.00000000000E+00  0.00000000000E+00  0.22879638025E+04  0.22879638025E+04  0.50400001928E-02 0.  1.
       -1   -1    0    0    0  501  0.00000000000E+00  0.00000000000E+00 -0.11141340073E+04  0.11141340073E+04  0.50400001928E-02 0. -1.
    10030    2    1    2    0    0  0.00000000000E+00  0.00000000000E+00  0.11738297953E+04  0.34020978098E+04  0.31931791556E+04 0.  0.
        2    1    3    3  502    0 -0.49027499424E+03  0.14559153175E+04  0.10501479697E+04  0.18608787548E+04  0.25500000920E-02 0.  1.
       -2    1    3    3    0  502  0.49027499424E+03 -0.14559153175E+04  0.12368182555E+03  0.15412190551E+04  0.25500000920E-02 0. -1.
</event>
<event>
 5   0  0.1508771E-06  0.3172393E+04  0.7818609E-02  0.8196146E-01
       -2   -1    0    0    0  501  0.00000000000E+00  0.00000000000E+00  0.10680695839E+04  0.10680695839E+04  0.25500000920E-02 0.  1.
        2   -1    0    0  501    0  0.00000000000E+00  0.00000000000E+00 -0.23556701425E+04  0.23556701425E+04  0.25500000920E-02 0. -1.
    10030    2    1    2    0    0  0.00000000000E+00  0.00000000000E+00 -0.12876005586E+04  0.34237397263E+04  0.31723931842E+04 0.  0.
        4    1    3    3  502    0  0.14100996913E+04  0.31362685941E+03  0.63300909740E+02  0.14459431401E+04  0.12699999809E+01 0.  1.
       -4    1    3    3    0  502 -0.14100996913E+04 -0.31362685941E+03 -0.13509014683E+04  0.19777965862E+04  0.12699999809E+01 0. -1.
</event>
<event>
 5   0  0.5281187E-07  0.3194529E+04  0.7818609E-02  0.8190264E-01
       -1   -1    0    0    0  501  0.00000000000E+00  0.00000000000E+00  0.16566546305E+04  0.16566546305E+04  0.50400001928E-02 0. -1.
        1   -1    0    0  501    0  0.00000000000E+00  0.00000000000E+00 -0.15400030661E+04  0.15400030661E+04  0.50400001928E-02 0.  1.
    10030    2    1    2    0    0  0.00000000000E+00  0.00000000000E+00  0.11665156445E+03  0.31966576966E+04  0.31945285789E+04 0.  0.
        5    1    3    3  502    0  0.32976140381E+03  0.62270796534E+02 -0.15043202372E+04  0.15413051942E+04  0.46999998093E+01 0.  1.
       -5    1    3    3    0  502 -0.32976140381E+03 -0.62270796534E+02  0.16209718016E+04  0.16553525024E+04  0.46999998093E+01 0. -1.
</event>
<event>
 5   0  0.5317728E-07  0.3092381E+04  0.7818609E-02  0.8217832E-01
       -1   -1    0    0    0  501  0.00000000000E+00  0.00000000000E+00  0.26012750346E+04  0.26012750346E+04  0.50400001928E-02 0. -1.
        1   -1    0    0  501    0  0.00000000000E+00  0.00000000000E+00 -0.91905136317E+03  0.91905136318E+03  0.50400001928E-02 0.  1.
    10030    2    1    2    0    0  0.00000000000E+00  0.00000000000E+00  0.16822236714E+04  0.35203263978E+04  0.30923811968E+04 0.  0.
        2    1    3    3  502    0 -0.11488139882E+04  0.95435980883E+02  0.20141607668E+04  0.23207165273E+04  0.25500000920E-02 0. -1.
       -2    1    3    3    0  502  0.11488139882E+04 -0.95435980883E+02 -0.33193709535E+03  0.11996098704E+04  0.25500000920E-02 0.  1.
</event>
<event>
 5   0  0.4995625E-07  0.3195913E+04  0.7818609E-02  0.8189897E-01
        3   -1    0    0  501    0  0.00000000000E+00  0.00000000000E+00  0.13229376781E+04  0.13229376820E+04  0.10100000352E+00 0.  1.
       -3   -1    0    0    0  501  0.00000000000E+00  0.00000000000E+00 -0.19301470755E+04  0.19301470781E+04  0.10100000352E+00 0. -1.
    10030    2    1    2    0    0  0.00000000000E+00  0.00000000000E+00 -0.60720939734E+03  0.32530847601E+04  0.31959125777E+04 0.  0.
        3    1    3    3  502    0 -0.14586972102E+04  0.24034045467E+03 -0.92100562127E+03  0.17417842719E+04  0.10100000352E+00 0. -1.
       -3    1    3    3    0  502  0.14586972102E+04 -0.24034045467E+03  0.31379622392E+03  0.15113004882E+04  0.10100000352E+00 0.  1.
</event>
<event>
 5   0  0.5317728E-07  0.3215011E+04  0.7818609E-02  0.8184864E-01
       -1   -1    0    0    0  501  0.00000000000E+00  0.00000000000E+00  0.10106061323E+04  0.10106061323E+04  0.50400001928E-02 0.  1.
        1   -1    0    0  501    0  0.00000000000E+00  0.00000000000E+00 -0.25569540487E+04  0.25569540487E+04  0.50400001928E-02 0. -1.
    10030    2    1    2    0    0  0.00000000000E+00  0.00000000000E+00 -0.15463479164E+04  0.35675601810E+04  0.32150106946E+04 0.  0.
        2    1    3    3  502    0  0.48451147756E+03  0.29038003328E+03 -0.24431995775E+04  0.25076475253E+04  0.25500000920E-02 0. -1.
       -2    1    3    3    0  502 -0.48451147756E+03 -0.29038003328E+03  0.89685166111E+03  0.10599126557E+04  0.25500000920E-02 0.  1.
</event>
<event>
 5   0  0.5177039E-07  0.3197704E+04  0.7818609E-02  0.8189424E-01
       -1   -1    0    0    0  501  0.00000000000E+00  0.00000000000E+00  0.14342851653E+04  0.14342851653E+04  0.50400001928E-02 0. -1.
        1   -1    0    0  501    0  0.00000000000E+00  0.00000000000E+00 -0.17823005366E+04  0.17823005366E+04  0.50400001928E-02 0.  1.
    10030    2    1    2    0    0  0.00000000000E+00  0.00000000000E+00 -0.34801537125E+03  0.32165857019E+04  0.31977036884E+04 0.  0.
        3    1    3    3  502    0  0.15490348857E+04 -0.63677269325E+02  0.21914973621E+03  0.15657555649E+04  0.10100000352E+00 0.  1.
       -3    1    3    3    0  502 -0.15490348857E+04  0.63677269325E+02 -0.56716510746E+03  0.16508301370E+04  0.10100000352E+00 0. -1.
</event>
<event>
 5   0  0.5281187E-07  0.3184625E+04  0.7818609E-02  0.8192890E-01
        1   -1    0    0  501    0  0.00000000000E+00  0.00000000000E+00  0.16198326143E+04  0.16198326143E+04  0.50400001928E-02 0. -1.
       -1   -1    0    0    0  501  0.00000000000E+00  0.00000000000E+00 -0.15652594955E+04  0.15652594956E+04  0.50400001928E-02 0.  1.
    10030    2    1    2    0    0  0.00000000000E+00  0.00000000000E+00  0.54573118777E+02  0.31850921099E+04  0.31846245498E+04 0.  0.
        5    1    3    3  502    0 -0.56093205549E+03 -0.57397963298E+03 -0.13481749292E+04  0.15689790055E+04  0.46999998093E+01 0.  1.
       -5    1    3    3    0  502  0.56093205549E+03  0.57397963298E+03  0.14027480480E+04  0.16161131044E+04  0.46999998093E+01 0. -1.
</event>
<event>
 5   0  0.1572769E-06  0.3218444E+04  0.7818609E-02  0.8183963E-01
       -2   -1    0    0    0  501  0.00000000000E+00  0.00000000000E+00  0.11966629778E+04  0.11966629778E+04  0.25500000920E-02 0.  1.
        2   -1    0    0  501    0  0.00000000000E+00  0.00000000000E+00 -0.21640136998E+04  0.21640136998E+04  0.25500000920E-02 0. -1.
    10030    2    1    2    0    0  0.00000000000E+00  0.00000000000E+00 -0.96735072202E+03  0.33606766776E+04  0.32184437718E+04 0.  0.
        5    1    3    3  502    0  0.26945149564E+03  0.11053180070E+04  0.70470672006E+03  0.13382696501E+04  0.46999998093E+01 0.  1.
       -5    1    3    3    0  502 -0.26945149564E+03 -0.11053180070E+04 -0.16720574421E+04  0.20224070275E+04  0.46999998093E+01 0. -1.
</event>
<event>
 5   0  0.5370912E-07  0.3189197E+04  0.7818609E-02  0.8191676E-01
       -1   -1    0    0    0  501  0.00000000000E+00  0.00000000000E+00  0.17175771310E+04  0.17175771310E+04  0.50400001928E-02 0. -1.
        1   -1    0    0  501    0  0.00000000000E+00  0.00000000000E+00 -0.14804248701E+04  0.14804248701E+04  0.50400001928E-02 0.  1.
    10030    2    1    2    0    0  0.00000000000E+00  0.00000000000E+00  0.23715226085E+03  0.31980020011E+04  0.31891967020E+04 0.  0.
        1    1    3    3  502    0  0.25810824903E+03 -0.33525319279E+03 -0.14231111768E+04  0.14846750463E+04  0.50400001928E-02 0.  1.
       -1    1    3    3    0  502 -0.25810824903E+03  0.33525319279E+03  0.16602634377E+04  0.17133269548E+04  0.50400001928E-02 0. -1.
</event>
<event>
 5   0  0.5281187E-07  0.3161761E+04  0.7818609E-02  0.8198990E-01
        1   -1    0    0  501    0  0.00000000000E+00  0.00000000000E+00  0.13326419509E+04  0.13326419509E+04  0.50400001928E-02 0. -1.
       -1   -1    0    0    0  501  0.00000000000E+00  0.00000000000E+00 -0.18753592561E+04  0.18753592561E+04  0.50400001928E-02 0.  1.
    10030    2    1    2    0    0  0.00000000000E+00  0.00000000000E+00 -0.54271730527E+03  0.32080012070E+04  0.31617605334E+04 0.  0.
        5    1    3    3  502    0  0.71347880314E+03 -0.24507622812E+03 -0.16809375043E+04  0.18424677320E+04  0.46999998093E+01 0.  1.
       -5    1    3    3    0  502 -0.71347880314E+03  0.24507622812E+03  0.11382201990E+04  0.13655334751E+04  0.46999998093E+01 0. -1.
</event>
<event>
 5   0  0.5233813E-07  0.3161771E+04  0.7818609E-02  0.8198987E-01
        1   -1    0    0  501    0  0.00000000000E+00  0.00000000000E+00  0.18293887850E+04  0.18293887850E+04  0.50400001928E-02 0.  1.
       -1   -1    0    0    0  501  0.00000000000E+00  0.00000000000E+00 -0.13661385836E+04  0.13661385836E+04  0.50400001928E-02 0. -1.
    10030    2    1    2    0    0  0.00000000000E+00  0.00000000000E+00  0.46325020135E+03  0.31955273686E+04  0.31617707720E+04 0.  0.
        4    1    3    3  502    0 -0.19251304322E+03  0.74525952748E+03  0.16272093925E+04  0.18000791802E+04  0.12699999809E+01 0.  1.
       -4    1    3    3    0  502  0.19251304322E+03 -0.74525952748E+03 -0.11639591911E+04  0.13954481884E+04  0.12699999809E+01 0. -1.
</event>
<event>
 5   0  0.5317728E-07  0.3218421E+04  0.7818609E-02  0.8183969E-01
       -1   -1    0    0    0  501  0.00000000000E+00  0.00000000000E+00  0.11041706328E+04  0.11041706328E+04  0.50400001928E-02 0. -1.
        1   -1    0    0  501    0  0.00000000000E+00  0.00000000000E+00 -0.23452527713E+04  0.23452527713E+04  0.50400001928E-02 0.  1.
    10030    2    1    2    0    0  0.00000000000E+00  0.00000000000E+00 -0.12410821385E+04  0.34494234041E+04  0.32184214992E+04 0.  0.
        2    1    3    3  502    0 -0.52685813391E+02  0.72788609920E+03  0.91661181530E+03  0.11716531860E+04  0.25500000920E-02 0. -1.
       -2    1    3    3    0  502  0.52685813391E+02 -0.72788609920E+03 -0.21576939538E+04  0.22777702181E+04  0.25500000920E-02 0.  1.
</event>
<event>
 5   0  0.1493485E-06  0.3182896E+04  0.7818609E-02  0.8193349E-01
       -2   -1    0    0    0  501  0.00000000000E+00  0.00000000000E+00  0.14631901705E+04  0.14631901705E+04  0.25500000920E-02 0. -1.
        2   -1    0    0  501    0  0.00000000000E+00  0.00000000000E+00 -0.17309486892E+04  0.17309486892E+04  0.25500000920E-02 0.  1.
    10030    2    1    2    0    0  0.00000000000E+00  0.00000000000E+00 -0.26775851867E+03  0.31941388597E+04  0.31828962331E+04 0.  0.
        2    1    3    3  502    0 -0.14309538995E+04  0.41439957721E+03  0.42787565370E+03  0.15499785957E+04  0.25500000920E-02 0. -1.
       -2    1    3    3    0  502  0.14309538995E+04 -0.41439957721E+03 -0.69563417237E+03  0.16441602640E+04  0.25500000920E-02 0.  1.
</event>
<event>
 5   0  0.1556396E-06  0.3197693E+04  0.7818609E-02  0.8189427E-01
        2   -1    0    0  501    0  0.00000000000E+00  0.00000000000E+00  0.18121860447E+04  0.18121860447E+04  0.25500000920E-02 0.  1.
       -2   -1    0    0    0  501  0.00000000000E+00  0.00000000000E+00 -0.14106227832E+04  0.14106227832E+04  0.25500000920E-02 0. -1.
    10030    2    1    2    0    0  0.00000000000E+00  0.00000000000E+00  0.40156326146E+03  0.32228088279E+04  0.31976934951E+04 0.  0.
        3    1    3    3  502    0 -0.97606941799E+03  0.10443851507E+04  0.92254814126E+03  0.17013368082E+04  0.10100000352E+00 0.  1.
       -3    1    3    3    0  502  0.97606941799E+03 -0.10443851507E+04 -0.52098487980E+03  0.15214720197E+04  0.10100000352E+00 0. -1.
</event>
<event>
 5   0  0.1508771E-06  0.3179096E+04  0.7818609E-02  0.8194360E-01
        2   -1    0    0  501    0  0.00000000000E+00  0.00000000000E+00  0.27848875577E+04  0.27848875577E+04  0.25500000920E-02 0.  1.
       -2   -1    0    0    0  501  0.00000000000E+00  0.00000000000E+00 -0.90727629956E+03  0.90727629956E+03  0.25500000920E-02 0. -1.
    10030    2    1    2    0    0  0.00000000000E+00  0.00000000000E+00  0.18776112582E+04  0.36921638573E+04  0.31790957696E+04 0.  0.
        4    1    3    3  502    0  0.10930379646E+04  0.47372739175E+03  0.21610313674E+04  0.24676320264E+04  0.12699999809E+01 0. -1.
       -4    1    3    3    0  502 -0.10930379646E+04 -0.47372739175E+03 -0.28342010922E+03  0.12245318309E+04  0.12699999809E+01 0.  1.
</event>
<event>
 5   0  0.5281187E-07  0.3244670E+04  0.7818609E-02  0.8177119E-01
       -1   -1    0    0    0  501  0.00000000000E+00  0.00000000000E+00  0.17167779887E+04  0.17167779887E+04  0.50400001928E-02 0. -1.
        1   -1    0    0  501    0  0.00000000000E+00  0.00000000000E+00 -0.15330871653E+04  0.15330871653E+04  0.50400001928E-02 0.  1.
    10030    2    1    2    0    0  0.00000000000E+00  0.00000000000E+00  0.18369082337E+03  0.32498651540E+04  0.32446696597E+04 0.  0.
        5    1    3    3  502    0 -0.12331287172E+04  0.10024608954E+04  0.41857923540E+03  0.16434004218E+04  0.46999998093E+01 0. -1.
       -5    1    3    3    0  502  0.12331287172E+04 -0.10024608954E+04 -0.23488841203E+03  0.16064647323E+04  0.46999998093E+01 0.  1.
</event>
<event>
 5   0  0.1538349E-06  0.3225522E+04  0.7818609E-02  0.8182109E-01
       -2   -1    0    0    0  501  0.00000000000E+00  0.00000000000E+00  0.18574804363E+04  0.18574804363E+04  0.25500000920E-02 0. -1.
        2   -1    0    0  501    0  0.00000000000E+00  0.00000000000E+00 -0.14002827730E+04  0.14002827730E+04  0.25500000920E-02 0.  1.
    10030    2    1    2    0    0  0.00000000000E+00  0.00000000000E+00  0.45719766321E+03  0.32577632093E+04  0.32255218841E+04 0.  0.
        1    1    3    3  502    0 -0.23963362829E+03 -0.67364662044E+02 -0.13807638080E+04  0.14030220836E+04  0.50400001928E-02 0.  1.
       -1    1    3    3    0  502  0.23963362829E+03  0.67364662044E+02  0.18379614712E+04  0.18547411257E+04  0.50400001928E-02 0. -1.
</event>
<event>
 5   0  0.1572769E-06  0.3213071E+04  0.7818609E-02  0.8185374E-01
        2   -1    0    0  501    0  0.00000000000E+00  0.00000000000E+00  0.17652645539E+04  0.17652645539E+04  0.25500000920E-02 0.  1.
       -2   -1    0    0    0  501  0.00000000000E+00  0.00000000000E+00 -0.14620793011E+04  0.14620793011E+04  0.25500000920E-02 0. -1.
    10030    2    1    2    0    0  0.00000000000E+00  0.00000000000E+00  0.30318525280E+03  0.32273438549E+04  0.32130712816E+04 0.  0.
        5    1    3    3  502    0 -0.61619052660E+03 -0.13554443282E+04  0.75760887745E+03  0.16706027035E+04  0.46999998093E+01 0.  1.
       -5    1    3    3    0  502  0.61619052660E+03  0.13554443282E+04 -0.45442362465E+03  0.15567411514E+04  0.46999998093E+01 0. -1.
</event>
<event>
 5   0  0.5233813E-07  0.3254381E+04  0.7818609E-02  0.8174601E-01
        1   -1    0    0  501    0  0.00000000000E+00  0.00000000000E+00  0.21372788740E+04  0.21372788740E+04  0.50400001928E-02 0. -1.
       -1   -1    0    0    0  501  0.00000000000E+00  0.00000000000E+00 -0.12388409354E+04  0.12388409354E+04  0.50400001928E-02 0.  1.
    10030    2    1    2    0    0  0.00000000000E+00  0.00000000000E+00  0.89843793860E+03  0.33761198094E+04  0.32543807765E+04 0.  0.
        4    1    3    3  502    0  0.57909124234E+03  0.14621027591E+04  0.88277076800E+03  0.18034347748E+04  0.12699999809E+01 0. -1.
       -4    1    3    3    0  502 -0.57909124234E+03 -0.14621027591E+04  0.15667170593E+02  0.15726850347E+04  0.12699999809E+01 0.  1.
</event>
<event>
 5   0  0.5317728E-07  0.3275936E+04  0.7818609E-02  0.8169045E-01
       -1   -1    0    0    0  501  0.00000000000E+00  0.00000000000E+00  0.15417445872E+04  0.15417445872E+04  0.50400001928E-02 0.  1.
        1   -1    0    0  501    0  0.00000000000E+00  0.00000000000E+00 -0.17401974331E+04  0.17401974331E+04  0.50400001928E-02 0. -1.
    10030    2    1    2    0    0  0.00000000000E+00  0.00000000000E+00 -0.19845284588E+03  0.32819420204E+04  0.32759364910E+04 0.  0.
        2    1    3    3  502    0  0.13037044633E+03  0.80292204776E+03  0.13250900260E+04  0.15548452801E+04  0.25500000920E-02 0.  1.
       -2    1    3    3    0  502 -0.13037044633E+03 -0.80292204776E+03 -0.15235428718E+04  0.17270967403E+04  0.25500000920E-02 0. -1.
</event>
<event>
 5   0  0.5317728E-07  0.3200000E+04  0.7818609E-02  0.8188817E-01
       -1   -1    0    0    0  501  0.00000000000E+00  0.00000000000E+00  0.89412035656E+03  0.89412035657E+03  0.50400001928E-02 0. -1.
        1   -1    0    0  501    0  0.00000000000E+00  0.00000000000E+00 -0.28631485257E+04  0.28631485257E+04  0.50400001928E-02 0.  1.
    10030    2    1    2    0    0  0.00000000000E+00  0.00000000000E+00 -0.19690281691E+04  0.37572688823E+04  0.31999996129E+04 0.  0.
        2    1    3    3  502    0 -0.78753138393E+03  0.11126802338E+04 -0.19680933192E+04  0.23940873619E+04  0.25500000920E-02 0.  1.
       -2    1    3    3    0  502  0.78753138393E+03 -0.11126802338E+04 -0.93484990103E+00  0.13631815203E+04  0.25500000920E-02 0. -1.
</event>
<event>
 5   0  0.5177039E-07  0.3267505E+04  0.7818609E-02  0.8171213E-01
        1   -1    0    0  501    0  0.00000000000E+00  0.00000000000E+00  0.17495612445E+04  0.17495612445E+04  0.50400001928E-02 0. -1.
       -1   -1    0    0    0  501  0.00000000000E+00  0.00000000000E+00 -0.15256090297E+04  0.15256090298E+04  0.50400001928E-02 0.  1.
    10030    2    1    2    0    0  0.00000000000E+00  0.00000000000E+00  0.22395221478E+03  0.32751702743E+04  0.32675045112E+04 0.  0.
        3    1    3    3  502    0  0.77552701265E+03  0.14320399127E+04 -0.18582934464E+02  0.16286576665E+04  0.10100000352E+00 0.  1.
       -3    1    3    3    0  502 -0.77552701265E+03 -0.14320399127E+04  0.24253514925E+03  0.16465126078E+04  0.10100000352E+00 0. -1.
</event>
<event>
 5   0  0.5317728E-07  0.3216310E+04  0.7818609E-02  0.8184523E-01
        1   -1    0    0  501    0  0.00000000000E+00  0.00000000000E+00  0.20121994943E+04  0.20121994943E+04  0.50400001928E-02 0. -1.
       -1   -1    0    0    0  501  0.00000000000E+00  0.00000000000E+00 -0.12852413341E+04  0.12852413342E+04  0.50400001928E-02 0.  1.
    10030    2    1    2    0    0  0.00000000000E+00  0.00000000000E+00  0.72695816014E+03  0.32974408285E+04  0.32163096634E+04 0.  0.
        2    1    3    3  502    0 -0.12429235140E+02 -0.50447631866E+03  0.19289243946E+04  0.19938405558E+04  0.25500000920E-02 0. -1.
       -2    1    3    3    0  502  0.12429235140E+02  0.50447631866E+03 -0.12019662345E+04  0.13036002726E+04  0.25500000920E-02 0.  1.
</event>
<event>
 5   0  0.1493485E-06  0.3192579E+04  0.7818609E-02  0.8190780E-01
        2   -1    0    0  501    0  0.00000000000E+00  0.00000000000E+00  0.31572369229E+04  0.31572369229E+04  0.25500000920E-02 0. -1.
       -2   -1    0    0    0  501  0.00000000000E+00  0.00000000000E+00 -0.80707918080E+03  0.80707918080E+03  0.25500000920E-02 0.  1.
    10030    2    1    2    0    0  0.00000000000E+00  0.00000000000E+00  0.23501577421E+04  0.39643161037E+04  0.31925790135E+04 0.  0.
        2    1    3    3  502    0 -0.11428198124E+04  0.51327116475E+03  0.24034839524E+04  0.27103910275E+04  0.25500000920E-02 0. -1.
       -2    1    3    3    0  502  0.11428198124E+04 -0.51327116475E+03 -0.53326210291E+02  0.12539250763E+04  0.25500000920E-02 0.  1.
</event>
<event>
 5   0  0.1493485E-06  0.3092482E+04  0.7818609E-02  0.8217804E-01
        2   -1    0    0  501    0  0.00000000000E+00  0.00000000000E+00  0.22206977746E+04  0.22206977746E+04  0.25500000920E-02 0.  1.
       -2   -1    0    0    0  501  0.00000000000E+00  0.00000000000E+00 -0.10766258884E+04  0.10766258884E+04  0.25500000920E-02 0. -1.
    10030    2    1    2    0    0  0.00000000000E+00  0.00000000000E+00  0.11440718862E+04  0.32973236631E+04  0.30924816666E+04 0.  0.
        2    1    3    3  502    0  0.10332952940E+04 -0.11480170079E+04  0.49501173070E+03  0.16219367524E+04  0.25500000920E-02 0. -1.
       -2    1    3    3    0  502 -0.10332952940E+04  0.11480170079E+04  0.64906015549E+03  0.16753869107E+04  0.25500000920E-02 0.  1.
</event>
<event>
 5   0  0.1556396E-06  0.3150312E+04  0.7818609E-02  0.8202064E-01
       -2   -1    0    0    0  501  0.00000000000E+00  0.00000000000E+00  0.15347981684E+04  0.15347981684E+04  0.25500000920E-02 0.  1.
        2   -1    0    0  501    0  0.00000000000E+00  0.00000000000E+00 -0.16165746789E+04  0.16165746789E+04  0.25500000920E-02 0. -1.
    10030    2    1    2    0    0  0.00000000000E+00  0.00000000000E+00 -0.81776510547E+02  0.31513728473E+04  0.31503116393E+04 0.  0.
        3    1    3    3  502    0 -0.11627952090E+03  0.15403433954E+04 -0.34911076372E+03  0.15836846398E+04  0.10100000352E+00 0.  1.
       -3    1    3    3    0  502  0.11627952090E+03 -0.15403433954E+04  0.26733425317E+03  0.15676882075E+04  0.10100000352E+00 0. -1.
</event>
<event>
 5   0  0.5370912E-07  0.3181035E+04  0.7818609E-02  0.8193844E-01
       -1   -1    0    0    0  501  0.00000000000E+00  0.00000000000E+00  0.13999227156E+04  0.13999227156E+04  0.50400001928E-02 0. -1.
        1   -1    0    0  501    0  0.00000000000E+00  0.00000000000E+00 -0.18070606439E+04  0.18070606439E+04  0.50400001928E-02 0.  1.
    10030    2    1    2    0    0  0.00000000000E+00  0.00000000000E+00 -0.40713792827E+03  0.32069833595E+04  0.31810345762E+04 0.  0.
        1    1    3    3  502    0  0.29363026831E+03 -0.11776462579E+04 -0.12399016537E+04  0.17350577956E+04  0.50400001928E-02 0.  1.
       -1    1    3    3    0  502 -0.29363026831E+03  0.11776462579E+04  0.83276372544E+03  0.14719255639E+04  0.50400001928E-02 0. -1.
</event>
<event>
 5   0  0.5317728E-07  0.3234882E+04  0.7818609E-02  0.8179665E-01
        1   -1    0    0  501    0  0.00000000000E+00  0.00000000000E+00  0.18002911612E+04  0.18002911612E+04  0.50400001928E-02 0.  1.
       -1   -1    0    0    0  501  0.00000000000E+00  0.00000000000E+00 -0.14531625634E+04  0.14531625634E+04  0.50400001928E-02 0. -1.
    10030    2    1    2    0    0  0.00000000000E+00  0.00000000000E+00  0.34712859783E+03  0.32534537247E+04  0.32348822042E+04 0.  0.
        2    1    3    3  502    0 -0.35131328769E+03 -0.55558134046E+03  0.16598930305E+04  0.17853113243E+04  0.25500000920E-02 0.  1.
       -2    1    3    3    0  502  0.35131328769E+03  0.55558134046E+03 -0.13127644327E+04  0.14681424004E+04  0.25500000920E-02 0. -1.
</event>
<event>
 5   0  0.5317728E-07  0.3198162E+04  0.7818609E-02  0.8189303E-01
       -1   -1    0    0    0  501  0.00000000000E+00  0.00000000000E+00  0.11281351232E+04  0.11281351232E+04  0.50400001928E-02 0.  1.
        1   -1    0    0  501    0  0.00000000000E+00  0.00000000000E+00 -0.22666250465E+04  0.22666250465E+04  0.50400001928E-02 0. -1.
    10030    2    1    2    0    0  0.00000000000E+00  0.00000000000E+00 -0.11384899233E+04  0.33947601697E+04  0.31981615507E+04 0.  0.
        2    1    3    3  502    0 -0.11237660212E+04 -0.25652435875E+03 -0.17457110177E+04  0.20919277651E+04  0.25500000920E-02 0. -1.
       -2    1    3    3    0  502  0.11237660212E+04  0.25652435875E+03  0.60722109432E+03  0.13028324046E+04  0.25500000920E-02 0.  1.
</event>
<event>
 5   0  0.1556396E-06  0.3189706E+04  0.7818609E-02  0.8191541E-01
       -2   -1    0    0    0  501  0.00000000000E+00  0.00000000000E+00  0.11722974991E+04  0.11722974991E+04  0.25500000920E-02 0. -1.
        2   -1    0    0  501    0  0.00000000000E+00  0.00000000000E+00 -0.21697186260E+04  0.21697186260E+04  0.25500000920E-02 0.  1.
    10030    2    1    2    0    0  0.00000000000E+00  0.00000000000E+00 -0.99742112686E+03  0.33420161251E+04  0.31897057663E+04 0.  0.
        3    1    3    3  502    0  0.46809173245E+03  0.38267193946E+03 -0.20449888427E+04  0.21324931560E+04  0.10100000352E+00 0.  1.
       -3    1    3    3    0  502 -0.46809173245E+03 -0.38267193946E+03  0.10475677159E+04  0.12095229691E+04  0.10100000352E+00 0. -1.
</event>
<event>
 5   0  0.1493485E-06  0.3180915E+04  0.7818609E-02  0.8193876E-01
        2   -1    0    0  501    0  0.00000000000E+00  0.00000000000E+00  0.18338260539E+04  0.18338260539E+04  0.25500000920E-02 0.  1.
       -2   -1    0    0    0  501  0.00000000000E+00  0.00000000000E+00 -0.13793864627E+04  0.13793864627E+04  0.25500000920E-02 0. -1.
    10030    2    1    2    0    0  0.00000000000E+00  0.00000000000E+00  0.45443959115E+03  0.32132125166E+04  0.31809148582E+04 0.  0.
        2    1    3    3  502    0 -0.10045769192E+04 -0.45391137789E+03 -0.93086940760E+03  0.14428195242E+04  0.25500000920E-02 0. -1.
       -2    1    3    3    0  502  0.10045769192E+04  0.45391137789E+03  0.13853089987E+04  0.17703929924E+04  0.25500000920E-02 0.  1.
</event>
<event>
 5   0  0.1493485E-06  0.3144540E+04  0.7818609E-02  0.8203620E-01
       -2   -1    0    0    0  501  0.00000000000E+00  0.00000000000E+00  0.86138714049E+03  0.86138714049E+03  0.25500000920E-02 0. -1.
        2   -1    0    0  501    0  0.00000000000E+00  0.00000000000E+00 -0.28698271193E+04  0.28698271193E+04  0.25500000920E-02 0.  1.
    10030    2    1    2    0    0  0.00000000000E+00  0.00000000000E+00 -0.20084399788E+04  0.37312142598E+04  0.31445395059E+04 0.  0.
        2    1    3    3  502    0  0.89113904208E+03 -0.18695355912E+03 -0.25251370725E+04  0.26842871792E+04  0.25500000920E-02 0.  1.
       -2    1    3    3    0  502 -0.89113904208E+03  0.18695355912E+03  0.51669709363E+03  0.10469270806E+04  0.25500000920E-02 0. -1.
</event>
<event>
 5   0  0.5233813E-07  0.3175667E+04  0.7818609E-02  0.8195273E-01
       -1   -1    0    0    0  501  0.00000000000E+00  0.00000000000E+00  0.12779287588E+04  0.12779287589E+04  0.50400001928E-02 0. -1.
        1   -1    0    0  501    0  0.00000000000E+00  0.00000000000E+00 -0.19728919517E+04  0.19728919517E+04  0.50400001928E-02 0.  1.
    10030    2    1    2    0    0  0.00000000000E+00  0.00000000000E+00 -0.69496319289E+03  0.32508207106E+04  0.31756670879E+04 0.  0.
        4    1    3    3  502    0 -0.73751864269E+03  0.12063876263E+04 -0.10870109215E+04  0.17835075580E+04  0.12699999809E+01 0.  1.
       -4    1    3    3    0  502  0.73751864269E+03 -0.12063876263E+04  0.39204772863E+03  0.14673131525E+04  0.12699999809E+01 0. -1.
</event>
<event>
 5   0  0.4995625E-07  0.3232045E+04  0.7818609E-02  0.8180405E-01
       -3   -1    0    0    0  501  0.00000000000E+00  0.00000000000E+00  0.21638475714E+04  0.21638475737E+04  0.10100000352E+00 0.  1.
        3   -1    0    0  501    0  0.00000000000E+00  0.00000000000E+00 -0.12068909900E+04  0.12068909942E+04  0.10100000352E+00 0. -1.
    10030    2    1    2    0    0  0.00000000000E+00  0.00000000000E+00  0.95695658135E+03  0.33707385680E+04  0.32320446462E+04 0.  0.
        4    1    3    3  502    0  0.45457791776E+03 -0.75451706724E+03  0.18914566004E+04  0.20865154617E+04  0.12699999809E+01 0.  1.
       -4    1    3    3    0  502 -0.45457791776E+03  0.75451706724E+03 -0.93450001902E+03  0.12842231062E+04  0.12699999809E+01 0. -1.
</event>
<event>
 5   0  0.1538349E-06  0.3229169E+04  0.7818609E-02  0.8181156E-01
       -2   -1    0    0    0  501  0.00000000000E+00  0.00000000000E+00  0.18647697377E+04  0.18647697377E+04  0.25500000920E-02 0.  1.
        2   -1    0    0  501    0  0.00000000000E+00  0.00000000000E+00 -0.13979655101E+04  0.13979655101E+04  0.25500000920E-02 0. -1.
    10030    2    1    2    0    0  0.00000000000E+00  0.00000000000E+00  0.46680422759E+03  0.32627352479E+04  0.32291694150E+04 0.  0.
        1    1    3    3  502    0 -0.25552639082E+03  0.56680953613E+03 -0.12721593688E+04  0.14159647758E+04  0.50400001928E-02 0. -1.
       -1    1    3    3    0  502  0.25552639082E+03 -0.56680953613E+03  0.17389635964E+04  0.18467704720E+04  0.50400001928E-02 0.  1.
</event>
<event>
 5   0  0.1556396E-06  0.3195254E+04  0.7818609E-02  0.8190072E-01
        2   -1    0    0  501    0  0.00000000000E+00  0.00000000000E+00  0.19868558798E+04  0.19868558798E+04  0.25500000920E-02 0.  1.
       -2   -1    0    0    0  501  0.00000000000E+00  0.00000000000E+00 -0.12846484636E+04  0.12846484636E+04  0.25500000920E-02 0. -1.
    10030    2    1    2    0    0  0.00000000000E+00  0.00000000000E+00  0.70220741622E+03  0.32715043434E+04  0.31952535758E+04 0.  0.
        3    1    3    3  502    0 -0.66403461848E+03 -0.28974096074E+03 -0.11067860881E+04  0.13228254813E+04  0.10100000352E+00 0. -1.
       -3    1    3    3    0  502  0.66403461848E+03  0.28974096074E+03  0.18089935043E+04  0.19486788622E+04  0.10100000352E+00 0.  1.
</event>
<event>
 5   0  0.5317728E-07  0.2873011E+04  0.7818609E-02  0.8280953E-01
        1   -1    0    0  501    0  0.00000000000E+00  0.00000000000E+00  0.20783958662E+04  0.20783958662E+04  0.50400001928E-02 0. -1.
       -1   -1    0    0    0  501  0.00000000000E+00  0.00000000000E+00 -0.99285603926E+03  0.99285603927E+03  0.50400001928E-02 0.  1.
    10030    2    1    2    0    0  0.00000000000E+00  0.00000000000E+00  0.10855398269E+04  0.30712519055E+04  0.28730108860E+04 0.  0.
        2    1    3    3  502    0  0.12200509332E+04  0.70362229955E+02  0.13498995867E+04  0.18209074707E+04  0.25500000920E-02 0. -1.
       -2    1    3    3    0  502 -0.12200509332E+04 -0.70362229955E+02 -0.26435975973E+03  0.12503444347E+04  0.25500000920E-02 0.  1.
</event>
<event>
 5   0  0.1556396E-06  0.3166614E+04  0.7818609E-02  0.8197690E-01
        2   -1    0    0  501    0  0.00000000000E+00  0.00000000000E+00  0.27226661541E+04  0.27226661541E+04  0.25500000920E-02 0.  1.
       -2   -1    0    0    0  501  0.00000000000E+00  0.00000000000E+00 -0.92073734993E+03  0.92073734993E+03  0.25500000920E-02 0. -1.
    10030    2    1    2    0    0  0.00000000000E+00  0.00000000000E+00  0.18019288041E+04  0.36434035040E+04  0.31666135978E+04 0.  0.
        3    1    3    3  502    0  0.11587519608E+04  0.93186027882E+03  0.15267196117E+04  0.21311833494E+04  0.10100000352E+00 0.  1.
       -3    1    3    3    0  502 -0.11587519608E+04 -0.93186027882E+03  0.27520919243E+03  0.15122201545E+04  0.10100000352E+00 0. -1.
</event>
<event>
 5   0  0.1493485E-06  0.3167702E+04  0.7818609E-02  0.8197399E-01
        2   -1    0    0  501    0  0.00000000000E+00  0.00000000000E+00  0.19073061741E+04  0.19073061741E+04  0.25500000920E-02 0.  1.
       -2   -1    0    0    0  501  0.00000000000E+00  0.00000000000E+00 -0.13152501746E+04  0.13152501746E+04  0.25500000920E-02 0. -1.
    10030    2    1    2    0    0  0.00000000000E+00  0.00000000000E+00  0.59205599950E+03  0.32225563487E+04  0.31677024977E+04 0.  0.
        2    1    3    3  502    0 -0.42021149833E+03 -0.65138783452E+03 -0.11090850997E+04  0.13531273306E+04  0.25500000920E-02 0. -1.
       -2    1    3    3    0  502  0.42021149833E+03  0.65138783452E+03  0.17011410992E+04  0.18694290181E+04  0.25500000920E-02 0.  1.
</event>
<event>
 5   0  0.1556396E-06  0.3199848E+04  0.7818609E-02  0.8188857E-01
       -2   -1    0    0    0  501  0.00000000000E+00  0.00000000000E+00  0.12536825383E+04  0.12536825383E+04  0.25500000920E-02 0.  1.
        2   -1    0    0  501    0  0.00000000000E+00  0.00000000000E+00 -0.20417907842E+04  0.20417907842E+04  0.25500000920E-02 0. -1.
    10030    2    1    2    0    0  0.00000000000E+00  0.00000000000E+00 -0.78810824590E+03  0.32954733225E+04  0.31998484046E+04 0.  0.
        3    1    3    3  502    0 -0.13778913722E+04 -0.76583501371E+03 -0.11263076687E+03  0.15804346243E+04  0.10100000352E+00 0.  1.
       -3    1    3    3    0  502  0.13778913722E+04  0.76583501371E+03 -0.67547747904E+03  0.17150386983E+04  0.10100000352E+00 0. -1.
</event>
<event>
 5   0  0.5281187E-07  0.3185961E+04  0.7818609E-02  0.8192535E-01
       -1   -1    0    0    0  501  0.00000000000E+00  0.00000000000E+00  0.15745323537E+04  0.15745323537E+04  0.50400001928E-02 0.  1.
        1   -1    0    0  501    0  0.00000000000E+00  0.00000000000E+00 -0.16116446524E+04  0.16116446525E+04  0.50400001928E-02 0. -1.
    10030    2    1    2    0    0  0.00000000000E+00  0.00000000000E+00 -0.37112298703E+02  0.31861770062E+04  0.31859608585E+04 0.  0.
        5    1    3    3  502    0  0.25017428122E+03  0.67931956892E+03  0.14005194395E+04  0.15765592403E+04  0.46999998093E+01 0.  1.
       -5    1    3    3    0  502 -0.25017428122E+03 -0.67931956892E+03 -0.14376317382E+04  0.16096177659E+04  0.46999998093E+01 0. -1.
</event>
<event>
 5   0  0.5281187E-07  0.3196895E+04  0.7818609E-02  0.8189638E-01
       -1   -1    0    0    0  501  0.00000000000E+00  0.00000000000E+00  0.15235868158E+04  0.15235868158E+04  0.50400001928E-02 0.  1.
        1   -1    0    0  501    0  0.00000000000E+00  0.00000000000E+00 -0.16769862586E+04  0.16769862586E+04  0.50400001928E-02 0. -1.
    10030    2    1    2    0    0  0.00000000000E+00  0.00000000000E+00 -0.15339944273E+03  0.32005730744E+04  0.31968948396E+04 0.  0.
        5    1    3    3  502    0  0.38701210761E+03  0.11183108502E+04 -0.11524659511E+04  0.16518466598E+04  0.46999998093E+01 0. -1.
       -5    1    3    3    0  502 -0.38701210761E+03 -0.11183108502E+04  0.99906650836E+03  0.15487264146E+04  0.46999998093E+01 0.  1.
</event>
<event>
 5   0  0.1538349E-06  0.3154276E+04  0.7818609E-02  0.8200998E-01
       -2   -1    0    0    0  501  0.00000000000E+00  0.00000000000E+00  0.89389246847E+03  0.89389246847E+03  0.25500000920E-02 0.  1.
        2   -1    0    0  501    0  0.00000000000E+00  0.00000000000E+00 -0.27826211667E+04  0.27826211667E+04  0.25500000920E-02 0. -1.
    10030    2    1    2    0    0  0.00000000000E+00  0.00000000000E+00 -0.18887286983E+04  0.36765136352E+04  0.31542758938E+04 0.  0.
        1    1    3    3  502    0  0.11133030869E+04  0.50356427044E+03 -0.21066281033E+04  0.24353444732E+04  0.50400001928E-02 0. -1.
       -1    1    3    3    0  502 -0.11133030869E+04 -0.50356427044E+03  0.21789940502E+03  0.12411691619E+04  0.50400001928E-02 0.  1.
</event>
<event>
 5   0  0.5233813E-07  0.3191505E+04  0.7818609E-02  0.8191064E-01
        1   -1    0    0  501    0  0.00000000000E+00  0.00000000000E+00  0.13297863460E+04  0.13297863460E+04  0.50400001928E-02 0.  1.
       -1   -1    0    0    0  501  0.00000000000E+00  0.00000000000E+00 -0.19149139308E+04  0.19149139308E+04  0.50400001928E-02 0. -1.
    10030    2    1    2    0    0  0.00000000000E+00  0.00000000000E+00 -0.58512758484E+03  0.32447002768E+04  0.31915052241E+04 0.  0.
        4    1    3    3  502    0 -0.13897512026E+04  0.77716681395E+03 -0.39932902556E+03  0.16416034677E+04  0.12699999809E+01 0. -1.
       -4    1    3    3    0  502  0.13897512026E+04 -0.77716681395E+03 -0.18579855928E+03  0.16030968091E+04  0.12699999809E+01 0.  1.
</event>
<event>
 5   0  0.1493485E-06  0.3190783E+04  0.7818609E-02  0.8191256E-01
        2   -1    0    0  501    0  0.00000000000E+00  0.00000000000E+00  0.18278601675E+04  0.18278601675E+04  0.25500000920E-02 0. -1.
       -2   -1    0    0    0  501  0.00000000000E+00  0.00000000000E+00 -0.13924880677E+04  0.13924880677E+04  0.25500000920E-02 0.  1.
    10030    2    1    2    0    0  0.00000000000E+00  0.00000000000E+00  0.43537209982E+03  0.32203482352E+04  0.31907826454E+04 0.  0.
        2    1    3    3  502    0  0.11675950621E+04 -0.43137750070E+03 -0.78951316346E+03  0.14740067206E+04  0.25500000920E-02 0.  1.
       -2    1    3    3    0  502 -0.11675950621E+04  0.43137750070E+03  0.12248852633E+04  0.17463415145E+04  0.25500000920E-02 0. -1.
</event>
<event>
 5   0  0.5370912E-07  0.2793666E+04  0.7818609E-02  0.8305238E-01
       -1   -1    0    0    0  501  0.00000000000E+00  0.00000000000E+00  0.17049455319E+04  0.17049455319E+04  0.50400001928E-02 0.  1.
        1   -1    0    0  501    0  0.00000000000E+00  0.00000000000E+00 -0.11444013027E+04  0.11444013027E+04  0.50400001928E-02 0. -1.
    10030    2    1    2    0    0  0.00000000000E+00  0.00000000000E+00  0.56054422923E+03  0.28493468346E+04  0.27936656119E+04 0.  0.
        1    1    3    3  502    0  0.10911451790E+04  0.59322124217E+03  0.93225684325E+03  0.15529365942E+04  0.50400001928E-02 0.  1.
       -1    1    3    3    0  502 -0.10911451790E+04 -0.59322124217E+03 -0.37171261403E+03  0.12964102404E+04  0.50400001928E-02 0. -1.
</event>
<event>
 5   0  0.1508771E-06  0.2890970E+04  0.7818609E-02  0.8275569E-01
        2   -1    0    0  501    0  0.00000000000E+00  0.00000000000E+00  0.18359419611E+04  0.18359419611E+04  0.25500000920E-02 0.  1.
       -2   -1    0    0    0  501  0.00000000000E+00  0.00000000000E+00 -0.11380684225E+04  0.11380684225E+04  0.25500000920E-02 0. -1.
    10030    2    1    2    0    0  0.00000000000E+00  0.00000000000E+00  0.69787353859E+03  0.29740103836E+04  0.28909704748E+04 0.  0.
        4    1    3    3  502    0 -0.35958456892E+03 -0.40590492855E+03  0.17273369861E+04  0.18104570003E+04  0.12699999809E+01 0.  1.
       -4    1    3    3    0  502  0.35958456892E+03  0.40590492855E+03 -0.10294634475E+04  0.11635533834E+04  0.12699999809E+01 0. -1.
</event>
<event>
 5   0  0.5233813E-07  0.3198567E+04  0.7818609E-02  0.8189196E-01
       -1   -1    0    0    0  501  0.00000000000E+00  0.00000000000E+00  0.16076698893E+04  0.16076698893E+04  0.50400001928E-02 0. -1.
        1   -1    0    0  501    0  0.00000000000E+00  0.00000000000E+00 -0.15909405498E+04  0.15909405498E+04  0.50400001928E-02 0.  1.
    10030    2    1    2    0    0  0.00000000000E+00  0.00000000000E+00  0.16729339546E+02  0.31986104391E+04  0.31985666900E+04 0.  0.
        4    1    3    3  502    0 -0.27941831743E+03  0.14884465787E+04 -0.50560519024E+03  0.15966170597E+04  0.12699999809E+01 0. -1.
       -4    1    3    3    0  502  0.27941831743E+03 -0.14884465787E+04  0.52233452978E+03  0.16019933794E+04  0.12699999809E+01 0.  1.
</event>
<event>
 5   0  0.1572769E-06  0.3210569E+04  0.7818609E-02  0.8186032E-01
        2   -1    0    0  501    0  0.00000000000E+00  0.00000000000E+00  0.19194735263E+04  0.19194735263E+04  0.25500000920E-02 0.  1.
       -2   -1    0    0    0  501  0.00000000000E+00  0.00000000000E+00 -0.13425234286E+04  0.13425234286E+04  0.25500000920E-02 0. -1.
    10030    2    1    2    0    0  0.00000000000E+00  0.00000000000E+00  0.57695009773E+03  0.32619969550E+04  0.32105689089E+04 0.  0.
        5    1    3    3  502    0  0.11316793186E+04  0.65203076315E+03 -0.65978849553E+03  0.14632789020E+04  0.46999998093E+01 0. -1.
       -5    1    3    3    0  502 -0.11316793186E+04 -0.65203076315E+03  0.12367385933E+04  0.17987180530E+04  0.46999998093E+01 0.  1.
</event>
<event>
 5   0  0.5233813E-07  0.3214852E+04  0.7818609E-02  0.8184906E-01
        1   -1    0    0  501    0  0.00000000000E+00  0.00000000000E+00  0.19921526959E+04  0.19921526959E+04  0.50400001928E-02 0.  1.
       -1   -1    0    0    0  501  0.00000000000E+00  0.00000000000E+00 -0.12969984911E+04  0.12969984911E+04  0.50400001928E-02 0. -1.
    10030    2    1    2    0    0  0.00000000000E+00  0.00000000000E+00  0.69515420483E+03  0.32891511870E+04  0.32148524324E+04 0.  0.
        4    1    3    3  502    0  0.52752298011E+03 -0.71243236065E+03 -0.10242989256E+04  0.13546328894E+04  0.12699999809E+01 0. -1.
       -4    1    3    3    0  502 -0.52752298011E+03  0.71243236065E+03  0.17194531304E+04  0.19345182976E+04  0.12699999809E+01 0.  1.
</event>
<event>
 5   0  0.5281187E-07  0.3212368E+04  0.7818609E-02  0.8185558E-01
       -1   -1    0    0    0  501  0.00000000000E+00  0.00000000000E+00  0.14130793239E+04  0.14130793239E+04  0.50400001928E-02 0. -1.
        1   -1    0    0  501    0  0.00000000000E+00  0.00000000000E+00 -0.18256775037E+04  0.18256775037E+04  0.50400001928E-02 0.  1.
    10030    2    1    2    0    0  0.00000000000E+00  0.00000000000E+00 -0.41259817985E+03  0.32387568276E+04  0.32123680565E+04 0.  0.
        5    1    3    3  502    0  0.12902299041E+04  0.78512616843E+03 -0.75731287737E+03  0.16895742630E+04  0.46999998093E+01 0.  1.
       -5    1    3    3    0  502 -0.12902299041E+04 -0.78512616843E+03  0.34471469752E+03  0.15491825646E+04  0.46999998093E+01 0. -1.
</event>
<event>
 5   0  0.1538349E-06  0.3266426E+04  0.7818609E-02  0.8171491E-01
       -2   -1    0    0    0  501  0.00000000000E+00  0.00000000000E+00  0.13984917112E+04  0.13984917112E+04  0.25500000920E-02 0. -1.
        2   -1    0    0  501    0  0.00000000000E+00  0.00000000000E+00 -0.19073292315E+04  0.19073292315E+04  0.25500000920E-02 0.  1.
    10030    2    1    2    0    0  0.00000000000E+00  0.00000000000E+00 -0.50883752032E+03  0.33058209427E+04  0.32664256433E+04 0.  0.
        1    1    3    3  502    0  0.29456601293E+03  0.10958106298E+04  0.93440323443E+03  0.14699249902E+04  0.50400001928E-02 0. -1.
       -1    1    3    3    0  502 -0.29456601293E+03 -0.10958106298E+04 -0.14432407548E+04  0.18358959525E+04  0.50400001928E-02 0.  1.
</event>
<event>
 5   0  0.5177039E-07  0.3175102E+04  0.7818609E-02  0.8195424E-01
        1   -1    0    0  501    0  0.00000000000E+00  0.00000000000E+00  0.11557934124E+04  0.11557934124E+04  0.50400001928E-02 0.  1.
       -1   -1    0    0    0  501  0.00000000000E+00  0.00000000000E+00 -0.21805953694E+04  0.21805953694E+04  0.50400001928E-02 0. -1.
    10030    2    1    2    0    0  0.00000000000E+00  0.00000000000E+00 -0.10248019570E+04  0.33363887818E+04  0.31751017389E+04 0.  0.
        3    1    3    3  502    0  0.28473905739E+02 -0.14531038191E+04 -0.11835934992E+04  0.18743572375E+04  0.10100000352E+00 0. -1.
       -3    1    3    3    0  502 -0.28473905739E+02  0.14531038191E+04  0.15879154221E+03  0.14620315443E+04  0.10100000352E+00 0.  1.
</event>
<event>
 5   0  0.1538349E-06  0.3171626E+04  0.7818609E-02  0.8196351E-01
        2   -1    0    0  501    0  0.00000000000E+00  0.00000000000E+00  0.21343275468E+04  0.21343275468E+04  0.25500000920E-02 0. -1.
       -2   -1    0    0    0  501  0.00000000000E+00  0.00000000000E+00 -0.11782650943E+04  0.11782650943E+04  0.25500000920E-02 0.  1.
    10030    2    1    2    0    0  0.00000000000E+00  0.00000000000E+00  0.95606245251E+03  0.33125926410E+04  0.31716264900E+04 0.  0.
        1    1    3    3  502    0 -0.14220984615E+04 -0.18783146056E+03  0.11842180539E+04  0.18601121178E+04  0.50400001928E-02 0. -1.
       -1    1    3    3    0  502  0.14220984615E+04  0.18783146056E+03 -0.22815560141E+03  0.14524805232E+04  0.50400001928E-02 0.  1.
</event>
<event>
 5   0  0.5177039E-07  0.3047593E+04  0.7818609E-02  0.8230270E-01
        1   -1    0    0  501    0  0.00000000000E+00  0.00000000000E+00  0.15513274679E+04  0.15513274679E+04  0.50400001928E-02 0. -1.
       -1   -1    0    0    0  501  0.00000000000E+00  0.00000000000E+00 -0.14967539836E+04  0.14967539836E+04  0.50400001928E-02 0.  1.
    10030    2    1    2    0    0  0.00000000000E+00  0.00000000000E+00  0.54573484320E+02  0.30480814514E+04  0.30475928648E+04 0.  0.
        3    1    3    3  502    0  0.53584462792E+03  0.39272888839E+03  0.13988526898E+04  0.15485975277E+04  0.10100000352E+00 0. -1.
       -3    1    3    3    0  502 -0.53584462792E+03 -0.39272888839E+03 -0.13442792054E+04  0.14994839237E+04  0.10100000352E+00 0.  1.
</event>
<event>
 5   0  0.5281187E-07  0.3219722E+04  0.7818609E-02  0.8183628E-01
       -1   -1    0    0    0  501  0.00000000000E+00  0.00000000000E+00  0.13730557624E+04  0.13730557624E+04  0.50400001928E-02 0.  1.
        1   -1    0    0  501    0  0.00000000000E+00  0.00000000000E+00 -0.18875073085E+04  0.18875073085E+04  0.50400001928E-02 0. -1.
    10030    2    1    2    0    0  0.00000000000E+00  0.00000000000E+00 -0.51445154614E+03  0.32605630709E+04  0.32197222156E+04 0.  0.
        5    1    3    3  502    0 -0.61268971992E+03  0.67132164214E+03  0.10883760914E+04  0.14179725125E+04  0.46999998093E+01 0.  1.
       -5    1    3    3    0  502  0.61268971992E+03 -0.67132164214E+03 -0.16028276375E+04  0.18425905583E+04  0.46999998093E+01 0. -1.
</event>
<event>
 5   0  0.1508771E-06  0.3210213E+04  0.7818609E-02  0.8186125E-01
        2   -1    0    0  501    0  0.00000000000E+00  0.00000000000E+00  0.26169536014E+04  0.26169536015E+04  0.25500000920E-02 0. -1.
       -2   -1    0    0    0  501  0.00000000000E+00  0.00000000000E+00 -0.98449071983E+03  0.98449071983E+03  0.25500000920E-02 0.  1.
    10030    2    1    2    0    0  0.00000000000E+00  0.00000000000E+00  0.16324628816E+04  0.36014443213E+04  0.32102127873E+04 0.  0.
        4    1    3    3  502    0 -0.36463042785E+03 -0.82715031936E+02 -0.93495398659E+03  0.10069447330E+04  0.12699999809E+01 0.  1.
       -4    1    3    3    0  502  0.36463042785E+03  0.82715031936E+02  0.25674168682E+04  0.25944995883E+04  0.12699999809E+01 0. -1.
</event>
<event>
 5   0  0.1493485E-06  0.3202717E+04  0.7818609E-02  0.8188100E-01
        2   -1    0    0  501    0  0.00000000000E+00  0.00000000000E+00  0.15245224147E+04  0.15245224147E+04  0.25500000920E-02 0. -1.
       -2   -1    0    0    0  501  0.00000000000E+00  0.00000000000E+00 -0.16820675384E+04  0.16820675384E+04  0.25500000920E-02 0.  1.
    10030    2    1    2    0    0  0.00000000000E+00  0.00000000000E+00 -0.15754512370E+03  0.32065899531E+04  0.32027173871E+04 0.  0.
        2    1    3    3  502    0  0.82041030918E+02  0.15274721142E+04  0.39555958486E+03  0.15799902454E+04  0.25500000920E-02 0. -1.
       -2    1    3    3    0  502 -0.82041030918E+02 -0.15274721142E+04 -0.55310470856E+03  0.16265997077E+04  0.25500000920E-02 0.  1.
</event>
<event>
 5   0  0.5233813E-07  0.3197599E+04  0.7818609E-02  0.8189452E-01
       -1   -1    0    0    0  501  0.00000000000E+00  0.00000000000E+00  0.18342365670E+04  0.18342365671E+04  0.50400001928E-02 0. -1.
        1   -1    0    0  501    0  0.00000000000E+00  0.00000000000E+00 -0.13935824791E+04  0.13935824791E+04  0.50400001928E-02 0.  1.
    10030    2    1    2    0    0  0.00000000000E+00  0.00000000000E+00  0.44065408798E+03  0.32278190461E+04  0.31975990633E+04 0.  0.
        4    1    3    3  502    0 -0.56632397077E+03  0.78453429696E+03  0.15051249724E+04  0.17893070442E+04  0.12699999809E+01 0. -1.
       -4    1    3    3    0  502  0.56632397077E+03 -0.78453429696E+03 -0.10644708844E+04  0.14385120019E+04  0.12699999809E+01 0.  1.
</event>
<event>
 5   0  0.1572769E-06  0.3201063E+04  0.7818609E-02  0.8188536E-01
        2   -1    0    0  501    0  0.00000000000E+00  0.00000000000E+00  0.19437618621E+04  0.19437618621E+04  0.25500000920E-02 0.  1.
       -2   -1    0    0    0  501  0.00000000000E+00  0.00000000000E+00 -0.13179091282E+04  0.13179091282E+04  0.25500000920E-02 0. -1.
    10030    2    1    2    0    0  0.00000000000E+00  0.00000000000E+00  0.62585273393E+03  0.32616709903E+04  0.32010632615E+04 0.  0.
        5    1    3    3  502    0  0.17082673309E+03 -0.76116114343E+02 -0.13067307204E+04  0.13200540524E+04  0.46999998093E+01 0. -1.
       -5    1    3    3    0  502 -0.17082673309E+03  0.76116114343E+02  0.19325834543E+04  0.19416169379E+04  0.46999998093E+01 0.  1.
</event>
<event>
 5   0  0.5370912E-07  0.3207347E+04  0.7818609E-02  0.8186879E-01
       -1   -1    0    0    0  501  0.00000000000E+00  0.00000000000E+00  0.10105496342E+04  0.10105496342E+04  0.50400001928E-02 0.  1.
        1   -1    0    0  501    0  0.00000000000E+00  0.00000000000E+00 -0.25449212093E+04  0.25449212093E+04  0.50400001928E-02 0. -1.
    10030    2    1    2    0    0  0.00000000000E+00  0.00000000000E+00 -0.15343715751E+04  0.35554708436E+04  0.32073473134E+04 0.  0.
        1    1    3    3  502    0 -0.13270014514E+04 -0.76800989177E+03 -0.12883138600E+04  0.20026294334E+04  0.50400001928E-02 0.  1.
       -1    1    3    3    0  502  0.13270014514E+04  0.76800989177E+03 -0.24605771512E+03  0.15528414101E+04  0.50400001928E-02 0. -1.
</event>
<event>
 5   0  0.1508771E-06  0.3225722E+04  0.7818609E-02  0.8182057E-01
       -2   -1    0    0    0  501  0.00000000000E+00  0.00000000000E+00  0.13640133626E+04  0.13640133626E+04  0.25500000920E-02 0.  1.
        2   -1    0    0  501    0  0.00000000000E+00  0.00000000000E+00 -0.19071075169E+04  0.19071075169E+04  0.25500000920E-02 0. -1.
    10030    2    1    2    0    0  0.00000000000E+00  0.00000000000E+00 -0.54309415430E+03  0.32711208795E+04  0.32257217096E+04 0.  0.
        4    1    3    3  502    0 -0.14263990651E+04 -0.71355772837E+03 -0.28296928939E+02  0.15951743646E+04  0.12699999809E+01 0. -1.
       -4    1    3    3    0  502  0.14263990651E+04  0.71355772837E+03 -0.51479722536E+03  0.16759465149E+04  0.12699999809E+01 0.  1.
</event>
<event>
 5   0  0.5317728E-07  0.3160715E+04  0.7818609E-02  0.8199270E-01
       -1   -1    0    0    0  501  0.00000000000E+00  0.00000000000E+00  0.11515983908E+04  0.11515983908E+04  0.50400001928E-02 0.  1.
        1   -1    0    0  501    0  0.00000000000E+00  0.00000000000E+00 -0.21687513043E+04  0.21687513043E+04  0.50400001928E-02 0. -1.
    10030    2    1    2    0    0  0.00000000000E+00  0.00000000000E+00 -0.10171529136E+04  0.33203496951E+04  0.31607154329E+04 0.  0.
        2    1    3    3  502    0 -0.98540925998E+03 -0.50783101164E+03 -0.16917867528E+04  0.20226384163E+04  0.25500000920E-02 0. -1.
       -2    1    3    3    0  502  0.98540925998E+03  0.50783101164E+03  0.67463383925E+03  0.12977112788E+04  0.25500000920E-02 0.  1.
</event>
<event>
 5   0  0.5317728E-07  0.3168968E+04  0.7818609E-02  0.8197061E-01
       -1   -1    0    0    0  501  0.00000000000E+00  0.00000000000E+00  0.10699141115E+04  0.10699141115E+04  0.50400001928E-02 0.  1.
        1   -1    0    0  501    0  0.00000000000E+00  0.00000000000E+00 -0.23465332307E+04  0.23465332307E+04  0.50400001928E-02 0. -1.
    10030    2    1    2    0    0  0.00000000000E+00  0.00000000000E+00 -0.12766191192E+04  0.34164473422E+04  0.31689676657E+04 0.  0.
        2    1    3    3  502    0 -0.28191597234E+03 -0.10753765298E+03 -0.23152747560E+04  0.23348529200E+04  0.25500000920E-02 0. -1.
       -2    1    3    3    0  502  0.28191597234E+03  0.10753765298E+03  0.10386556368E+04  0.10815944222E+04  0.25500000920E-02 0.  1.
</event>
<event>
 5   0  0.1493485E-06  0.3045645E+04  0.7818609E-02  0.8230815E-01
       -2   -1    0    0    0  501  0.00000000000E+00  0.00000000000E+00  0.94473889822E+03  0.94473889822E+03  0.25500000920E-02 0.  1.
        2   -1    0    0  501    0  0.00000000000E+00  0.00000000000E+00 -0.24546346401E+04  0.24546346401E+04  0.25500000920E-02 0. -1.
    10030    2    1    2    0    0  0.00000000000E+00  0.00000000000E+00 -0.15098957419E+04  0.33993735383E+04  0.30456453014E+04 0.  0.
        2    1    3    3  502    0 -0.30961877844E+03 -0.82236114569E+03  0.63322410029E+03  0.10831040592E+04  0.25500000920E-02 0.  1.
       -2    1    3    3    0  502  0.30961877844E+03  0.82236114569E+03 -0.21431198422E+04  0.23162694791E+04  0.25500000920E-02 0. -1.
</event>
<event>
 5   0  0.5281187E-07  0.3131483E+04  0.7818609E-02  0.8207150E-01
        1   -1    0    0  501    0  0.00000000000E+00  0.00000000000E+00  0.19558348715E+04  0.19558348715E+04  0.50400001928E-02 0.  1.
       -1   -1    0    0    0  501  0.00000000000E+00  0.00000000000E+00 -0.12534528074E+04  0.12534528074E+04  0.50400001928E-02 0. -1.
    10030    2    1    2    0    0  0.00000000000E+00  0.00000000000E+00  0.70238206409E+03  0.32092876789E+04  0.31314831696E+04 0.  0.
        5    1    3    3  502    0 -0.50712402744E+03 -0.14764652176E+04  0.47417383142E+03  0.16315597538E+04  0.46999998093E+01 0. -1.
       -5    1    3    3    0  502  0.50712402744E+03  0.14764652176E+04  0.22820823267E+03  0.15777279250E+04  0.46999998093E+01 0.  1.
</event>
<event>
 5   0  0.5233813E-07  0.3179764E+04  0.7818609E-02  0.8194182E-01
        1   -1    0    0  501    0  0.00000000000E+00  0.00000000000E+00  0.21488507336E+04  0.21488507336E+04  0.50400001928E-02 0.  1.
       -1   -1    0    0    0  501  0.00000000000E+00  0.00000000000E+00 -0.11763150114E+04  0.11763150114E+04  0.50400001928E-02 0. -1.
    10030    2    1    2    0    0  0.00000000000E+00  0.00000000000E+00  0.97253572220E+03  0.33251657449E+04  0.31797643781E+04 0.  0.
        4    1    3    3  502    0 -0.10878157565E+04 -0.11361796950E+04  0.72809175350E+03  0.17333108878E+04  0.12699999809E+01 0.  1.
       -4    1    3    3    0  502  0.10878157565E+04  0.11361796950E+04  0.24444396870E+03  0.15918548571E+04  0.12699999809E+01 0. -1.
</event>
<event>
 5   0  0.5281187E-07  0.3201706E+04  0.7818609E-02  0.8188367E-01
       -1   -1    0    0    0  501  0.00000000000E+00  0.00000000000E+00  0.13786001874E+04  0.13786001874E+04  0.50400001928E-02 0.  1.
        1   -1    0    0  501    0  0.00000000000E+00  0.00000000000E+00 -0.18589362297E+04  0.18589362297E+04  0.50400001928E-02 0. -1.
    10030    2    1    2    0    0  0.00000000000E+00  0.00000000000E+00 -0.48033604229E+03  0.32375364172E+04  0.32017056921E+04 0.  0.
        5    1    3    3  502    0  0.11380450505E+04  0.89556224491E+02  0.89468440320E+03  0.14503961961E+04  0.46999998093E+01 0.  1.
       -5    1    3    3    0  502 -0.11380450505E+04 -0.89556224491E+02 -0.13750204455E+04  0.17871402211E+04  0.46999998093E+01 0. -1.
</event>
<event>
 5   0  0.1493485E-06  0.3203011E+04  0.7818609E-02  0.8188023E-01
        2   -1    0    0  501    0  0.00000000000E+00  0.00000000000E+00  0.17164089272E+04  0.17164089272E+04  0.25500000920E-02 0.  1.
       -2   -1    0    0    0  501  0.00000000000E+00  0.00000000000E+00 -0.14942937394E+04  0.14942937394E+04  0.25500000920E-02 0. -1.
    10030    2    1    2    0    0  0.00000000000E+00  0.00000000000E+00  0.22211518783E+03  0.32107026665E+04  0.32030105301E+04 0.  0.
        2    1    3    3  502    0 -0.70887099940E+03 -0.90513620767E+02  0.15477225745E+04  0.17047392695E+04  0.25500000920E-02 0.  1.
       -2    1    3    3    0  502  0.70887099940E+03  0.90513620767E+02 -0.13256073867E+04  0.15059633970E+04  0.25500000920E-02 0. -1.
</event>
<event>
 5   0  0.1493485E-06  0.3115442E+04  0.7818609E-02  0.8211513E-01
       -2   -1    0    0    0  501  0.00000000000E+00  0.00000000000E+00  0.10145468072E+04  0.10145468072E+04  0.25500000920E-02 0. -1.
        2   -1    0    0  501    0  0.00000000000E+00  0.00000000000E+00 -0.23917030839E+04  0.23917030839E+04  0.25500000920E-02 0.  1.
    10030    2    1    2    0    0  0.00000000000E+00  0.00000000000E+00 -0.13771562767E+04  0.34062498910E+04  0.31154420087E+04 0.  0.
        2    1    3    3  502    0 -0.41995540093E+03  0.13204271076E+04  0.89622048654E+02  0.13884964519E+04  0.25500000920E-02 0. -1.
       -2    1    3    3    0  502  0.41995540093E+03 -0.13204271076E+04 -0.14667783253E+04  0.20177534391E+04  0.25500000920E-02 0.  1.
</event>
<event>
 5   0  0.5370912E-07  0.3207977E+04  0.7818609E-02  0.8186714E-01
       -1   -1    0    0    0  501  0.00000000000E+00  0.00000000000E+00  0.20690043749E+04  0.20690043749E+04  0.50400001928E-02 0.  1.
        1   -1    0    0  501    0  0.00000000000E+00  0.00000000000E+00 -0.12434865817E+04  0.12434865817E+04  0.50400001928E-02 0. -1.
    10030    2    1    2    0    0  0.00000000000E+00  0.00000000000E+00  0.82551779315E+03  0.33124909566E+04  0.32079770433E+04 0.  0.
        1    1    3    3  502    0  0.10617571744E+04 -0.62766978622E+02 -0.82698636776E+03  0.13472840990E+04  0.50400001928E-02 0. -1.
       -1    1    3    3    0  502 -0.10617571744E+04  0.62766978622E+02  0.16525041609E+04  0.19652068575E+04  0.50400001928E-02 0.  1.
</event>
<event>
 5   0  0.1556396E-06  0.3194657E+04  0.7818609E-02  0.8190230E-01
        2   -1    0    0  501    0  0.00000000000E+00  0.00000000000E+00  0.16875337187E+04  0.16875337187E+04  0.25500000920E-02 0.  1.
       -2   -1    0    0    0  501  0.00000000000E+00  0.00000000000E+00 -0.15119451244E+04  0.15119451244E+04  0.25500000920E-02 0. -1.
    10030    2    1    2    0    0  0.00000000000E+00  0.00000000000E+00  0.17558859431E+03  0.31994788432E+04  0.31946570260E+04 0.  0.
        3    1    3    3  502    0 -0.13808967501E+04  0.75045017329E+02  0.88834474525E+03  0.16436739293E+04  0.10100000352E+00 0.  1.
       -3    1    3    3    0  502  0.13808967501E+04 -0.75045017329E+02 -0.71275615093E+03  0.15558049139E+04  0.10100000352E+00 0. -1.
</event>
<event>
 5   0  0.1556396E-06  0.3201832E+04  0.7818609E-02  0.8188334E-01
        2   -1    0    0  501    0  0.00000000000E+00  0.00000000000E+00  0.20805529974E+04  0.20805529974E+04  0.25500000920E-02 0. -1.
       -2   -1    0    0    0  501  0.00000000000E+00  0.00000000000E+00 -0.12318510251E+04  0.12318510251E+04  0.25500000920E-02 0.  1.
    10030    2    1    2    0    0  0.00000000000E+00  0.00000000000E+00  0.84870197228E+03  0.33124040225E+04  0.32018315650E+04 0.  0.
        3    1    3    3  502    0  0.86411825776E+03  0.11962857767E+04  0.10663719878E+04  0.18207002085E+04  0.10100000352E+00 0. -1.
       -3    1    3    3    0  502 -0.86411825776E+03 -0.11962857767E+04 -0.21767001550E+03  0.14917038140E+04  0.10100000352E+00 0.  1.
</event>
<event>
 5   0  0.1508771E-06  0.3225133E+04  0.7818609E-02  0.8182211E-01
       -2   -1    0    0    0  501  0.00000000000E+00  0.00000000000E+00  0.20104823111E+04  0.20104823111E+04  0.25500000920E-02 0. -1.
        2   -1    0    0  501    0  0.00000000000E+00  0.00000000000E+00 -0.12934067823E+04  0.12934067824E+04  0.25500000920E-02 0.  1.
    10030    2    1    2    0    0  0.00000000000E+00  0.00000000000E+00  0.71707552875E+03  0.33038890934E+04  0.32251334589E+04 0.  0.
        4    1    3    3  502    0  0.56772936359E+03  0.69912136473E+03 -0.10117671978E+04  0.13545337900E+04  0.12699999809E+01 0.  1.
       -4    1    3    3    0  502 -0.56772936359E+03 -0.69912136473E+03  0.17288427265E+04  0.19493553034E+04  0.12699999809E+01 0. -1.
</event>
<event>
 5   0  0.5233813E-07  0.3194205E+04  0.7818609E-02  0.8190349E-01
        1   -1    0    0  501    0  0.00000000000E+00  0.00000000000E+00  0.79387117320E+03  0.79387117322E+03  0.50400001928E-02 0.  1.
       -1   -1    0    0    0  501  0.00000000000E+00  0.00000000000E+00 -0.32130361285E+04  0.32130361285E+04  0.50400001928E-02 0. -1.
    10030    2    1    2    0    0  0.00000000000E+00  0.00000000000E+00 -0.24191649553E+04  0.40069073018E+04  0.31942052288E+04 0.  0.
        4    1    3    3  502    0 -0.39707252412E+03 -0.95180479835E+03 -0.27393373653E+04  0.29270411301E+04  0.12699999809E+01 0. -1.
       -4    1    3    3    0  502  0.39707252412E+03  0.95180479835E+03  0.32017240999E+03  0.10798661716E+04  0.12699999809E+01 0.  1.
</event>
<event>
 5   0  0.5233813E-07  0.3226616E+04  0.7818609E-02  0.8181823E-01
       -1   -1    0    0    0  501  0.00000000000E+00  0.00000000000E+00  0.90242110005E+03  0.90242110006E+03  0.50400001928E-02 0.  1.
        1   -1    0    0  501    0  0.00000000000E+00  0.00000000000E+00 -0.28842000763E+04  0.28842000763E+04  0.50400001928E-02 0. -1.
    10030    2    1    2    0    0  0.00000000000E+00  0.00000000000E+00 -0.19817789763E+04  0.37866211764E+04  0.32266161877E+04 0.  0.
        4    1    3    3  502    0  0.10322512622E+04 -0.23030297880E+03 -0.24205987500E+04  0.26415681047E+04  0.12699999809E+01 0. -1.
       -4    1    3    3    0  502 -0.10322512622E+04  0.23030297880E+03  0.43881977374E+03  0.11450530717E+04  0.12699999809E+01 0.  1.
</event>
<event>
 5   0  0.1572769E-06  0.3201022E+04  0.7818609E-02  0.8188547E-01
       -2   -1    0    0    0  501  0.00000000000E+00  0.00000000000E+00  0.99835084119E+03  0.99835084120E+03  0.25500000920E-02 0.  1.
        2   -1    0    0  501    0  0.00000000000E+00  0.00000000000E+00 -0.25658666659E+04  0.25658666659E+04  0.25500000920E-02 0. -1.
    10030    2    1    2    0    0  0.00000000000E+00  0.00000000000E+00 -0.15675158247E+04  0.35642175071E+04  0.32010218020E+04 0.  0.
        5    1    3    3  502    0 -0.92752016461E+03 -0.12664013428E+04 -0.43599552459E+03  0.16291654932E+04  0.46999998093E+01 0.  1.
       -5    1    3    3    0  502  0.92752016461E+03  0.12664013428E+04 -0.11315203001E+04  0.19350520139E+04  0.46999998093E+01 0. -1.
</event>
<event>
 5   0  0.5233813E-07  0.3245175E+04  0.7818609E-02  0.8176987E-01
       -1   -1    0    0    0  501  0.00000000000E+00  0.00000000000E+00  0.11168588693E+04  0.11168588693E+04  0.50400001928E-02 0.  1.
        1   -1    0    0  501    0  0.00000000000E+00  0.00000000000E+00 -0.23573171746E+04  0.23573171747E+04  0.50400001928E-02 0. -1.
    10030    2    1    2    0    0  0.00000000000E+00  0.00000000000E+00 -0.12404583054E+04  0.34741760440E+04  0.32451752460E+04 0.  0.
        4    1    3    3  502    0  0.89428182560E+03  0.13128250144E+04 -0.97455187407E+03  0.18635993320E+04  0.12699999809E+01 0. -1.
       -4    1    3    3    0  502 -0.89428182560E+03 -0.13128250144E+04 -0.26590643128E+03  0.16105767120E+04  0.12699999809E+01 0.  1.
</event>
<event>
 5   0  0.1556396E-06  0.3216776E+04  0.7818609E-02  0.8184401E-01
        2   -1    0    0  501    0  0.00000000000E+00  0.00000000000E+00  0.30355733427E+04  0.30355733427E+04  0.25500000920E-02 0. -1.
       -2   -1    0    0    0  501  0.00000000000E+00  0.00000000000E+00 -0.85219855295E+03  0.85219855295E+03  0.25500000920E-02 0.  1.
    10030    2    1    2    0    0  0.00000000000E+00  0.00000000000E+00  0.21833747897E+04  0.38877718956E+04  0.32167755346E+04 0.  0.
        3    1    3    3  502    0 -0.24546398515E+03 -0.10265295443E+04  0.25584709086E+04  0.27676323588E+04  0.10100000352E+00 0. -1.
       -3    1    3    3    0  502  0.24546398515E+03  0.10265295443E+04 -0.37509611889E+03  0.11201395368E+04  0.10100000352E+00 0.  1.
</event>
<event>
 5   0  0.1556396E-06  0.3097570E+04  0.7818609E-02  0.8216405E-01
        2   -1    0    0  501    0  0.00000000000E+00  0.00000000000E+00  0.10194510588E+04  0.10194510588E+04  0.25500000920E-02 0. -1.
       -2   -1    0    0    0  501  0.00000000000E+00  0.00000000000E+00 -0.23529679394E+04  0.23529679394E+04  0.25500000920E-02 0.  1.
    10030    2    1    2    0    0  0.00000000000E+00  0.00000000000E+00 -0.13335168806E+04  0.33724189982E+04  0.30975704397E+04 0.  0.
        3    1    3    3  502    0  0.11335261774E+04 -0.11478445657E+03  0.47546375143E+03  0.12345537070E+04  0.10100000352E+00 0. -1.
       -3    1    3    3    0  502 -0.11335261774E+04  0.11478445657E+03 -0.18089806320E+04  0.21378652912E+04  0.10100000352E+00 0.  1.
</event>
<event>
 5   0  0.5233813E-07  0.3206312E+04  0.7818609E-02  0.8187152E-01
       -1   -1    0    0    0  501  0.00000000000E+00  0.00000000000E+00  0.22272399610E+04  0.22272399610E+04  0.50400001928E-02 0. -1.
        1   -1    0    0  501    0  0.00000000000E+00  0.00000000000E+00 -0.11539433785E+04  0.11539433785E+04  0.50400001928E-02 0.  1.
    10030    2    1    2    0    0  0.00000000000E+00  0.00000000000E+00  0.10732965826E+04  0.33811833395E+04  0.32063117785E+04 0.  0.
        4    1    3    3  502    0 -0.37494547999E+03  0.12260047608E+04  0.15516588080E+04  0.20127887261E+04  0.12699999809E+01 0. -1.
       -4    1    3    3    0  502  0.37494547999E+03 -0.12260047608E+04 -0.47836222537E+03  0.13683946134E+04  0.12699999809E+01 0.  1.
</event>
<event>
 5   0  0.5177039E-07  0.3205614E+04  0.7818609E-02  0.8187336E-01
       -1   -1    0    0    0  501  0.00000000000E+00  0.00000000000E+00  0.16361492423E+04  0.16361492424E+04  0.50400001928E-02 0. -1.
        1   -1    0    0  501    0  0.00000000000E+00  0.00000000000E+00 -0.15701445275E+04  0.15701445275E+04  0.50400001928E-02 0.  1.
    10030    2    1    2    0    0  0.00000000000E+00  0.00000000000E+00  0.66004714818E+02  0.32062937699E+04  0.32056143119E+04 0.  0.
        3    1    3    3  502    0  0.72432260420E+03  0.12598463056E+04  0.70926312672E+03  0.16170683789E+04  0.10100000352E+00 0. -1.
       -3    1    3    3    0  502 -0.72432260420E+03 -0.12598463056E+04 -0.64325841190E+03  0.15892253910E+04  0.10100000352E+00 0.  1.
</event>
<event>
 5   0  0.5233813E-07  0.3169905E+04  0.7818609E-02  0.8196811E-01
       -1   -1    0    0    0  501  0.00000000000E+00  0.00000000000E+00  0.10048598861E+04  0.10048598861E+04  0.50400001928E-02 0.  1.
        1   -1    0    0  501    0  0.00000000000E+00  0.00000000000E+00 -0.24999252834E+04  0.24999252834E+04  0.50400001928E-02 0. -1.
    10030    2    1    2    0    0  0.00000000000E+00  0.00000000000E+00 -0.14950653973E+04  0.35047851695E+04  0.31699051315E+04 0.  0.
        4    1    3    3  502    0  0.14778340060E+04 -0.21766861744E+03 -0.13333151806E+04  0.20022746964E+04  0.12699999809E+01 0. -1.
       -4    1    3    3    0  502 -0.14778340060E+04  0.21766861744E+03 -0.16175021666E+03  0.15025104731E+04  0.12699999809E+01 0.  1.
</event>
<event>
 5   0  0.1572769E-06  0.3352054E+04  0.7818609E-02  0.8149775E-01
        2   -1    0    0  501    0  0.00000000000E+00  0.00000000000E+00  0.24953766623E+04  0.24953766623E+04  0.25500000920E-02 0.  1.
       -2   -1    0    0    0  501  0.00000000000E+00  0.00000000000E+00 -0.11257083778E+04  0.11257083778E+04  0.25500000920E-02 0. -1.
    10030    2    1    2    0    0  0.00000000000E+00  0.00000000000E+00  0.13696682845E+04  0.36210850401E+04  0.33520539462E+04 0.  0.
        5    1    3    3  502    0 -0.90052244742E+03 -0.33746977570E+02 -0.84172251822E+03  0.12331254699E+04  0.46999998093E+01 0. -1.
       -5    1    3    3    0  502  0.90052244742E+03  0.33746977570E+02  0.22113908027E+04  0.23879595702E+04  0.46999998093E+01 0.  1.
</event>
<event>
 5   0  0.5233813E-07  0.3190404E+04  0.7818609E-02  0.8191356E-01
       -1   -1    0    0    0  501  0.00000000000E+00  0.00000000000E+00  0.13104828170E+04  0.13104828170E+04  0.50400001928E-02 0. -1.
        1   -1    0    0  501    0  0.00000000000E+00  0.00000000000E+00 -0.19417805992E+04  0.19417805992E+04  0.50400001928E-02 0.  1.
    10030    2    1    2    0    0  0.00000000000E+00  0.00000000000E+00 -0.63129778221E+03  0.32522634163E+04  0.31904044319E+04 0.  0.
        4    1    3    3  502    0  0.15282338565E+04  0.32278992113E+03  0.14633865977E+02  0.15620204277E+04  0.12699999809E+01 0.  1.
       -4    1    3    3    0  502 -0.15282338565E+04 -0.32278992113E+03 -0.64593164818E+03  0.16902429886E+04  0.12699999809E+01 0. -1.
</event>
<event>
 5   0  0.5317728E-07  0.3254029E+04  0.7818609E-02  0.8174692E-01
        1   -1    0    0  501    0  0.00000000000E+00  0.00000000000E+00  0.20114311068E+04  0.20114311068E+04  0.50400001928E-02 0.  1.
       -1   -1    0    0    0  501  0.00000000000E+00  0.00000000000E+00 -0.13160663412E+04  0.13160663412E+04  0.50400001928E-02 0. -1.
    10030    2    1    2    0    0  0.00000000000E+00  0.00000000000E+00  0.69536476566E+03  0.33274974480E+04  0.32540293651E+04 0.  0.
        2    1    3    3  502    0  0.14662046584E+04  0.69941004463E+03  0.25482318053E+03  0.16443434447E+04  0.25500000920E-02 0.  1.
       -2    1    3    3    0  502 -0.14662046584E+04 -0.69941004463E+03  0.44054158513E+03  0.16831540033E+04  0.25500000920E-02 0. -1.
</event>
<event>
 5   0  0.5281187E-07  0.3186581E+04  0.7818609E-02  0.8192370E-01
       -1   -1    0    0    0  501  0.00000000000E+00  0.00000000000E+00  0.18210424783E+04  0.18210424783E+04  0.50400001928E-02 0.  1.
        1   -1    0    0  501    0  0.00000000000E+00  0.00000000000E+00 -0.13940228576E+04  0.13940228576E+04  0.50400001928E-02 0. -1.
    10030    2    1    2    0    0  0.00000000000E+00  0.00000000000E+00  0.42701962067E+03  0.32150653359E+04  0.31865811394E+04 0.  0.
        5    1    3    3  502    0  0.56573844471E+03  0.28453494467E+03 -0.12615892892E+04  0.14116124635E+04  0.46999998093E+01 0. -1.
       -5    1    3    3    0  502 -0.56573844471E+03 -0.28453494467E+03  0.16886089099E+04  0.18034528724E+04  0.46999998093E+01 0.  1.
</event>
<event>
 5   0  0.1493485E-06  0.3211681E+04  0.7818609E-02  0.8185739E-01
       -2   -1    0    0    0  501  0.00000000000E+00  0.00000000000E+00  0.14081939082E+04  0.14081939082E+04  0.25500000920E-02 0. -1.
        2   -1    0    0  501    0  0.00000000000E+00  0.00000000000E+00 -0.18312273864E+04  0.18312273864E+04  0.25500000920E-02 0.  1.
    10030    2    1    2    0    0  0.00000000000E+00  0.00000000000E+00 -0.42303347827E+03  0.32394212946E+04  0.32116807127E+04 0.  0.
        2    1    3    3  502    0 -0.82219806667E+03 -0.11205923299E+04 -0.10228189350E+04  0.17256579628E+04  0.25500000920E-02 0. -1.
       -2    1    3    3    0  502  0.82219806667E+03  0.11205923299E+04  0.59978545672E+03  0.15137633318E+04  0.25500000920E-02 0.  1.
</event>
<event>
 5   0  0.1508771E-06  0.3199911E+04  0.7818609E-02  0.8188841E-01
       -2   -1    0    0    0  501  0.00000000000E+00  0.00000000000E+00  0.12856700314E+04  0.12856700314E+04  0.25500000920E-02 0.  1.
        2   -1    0    0  501    0  0.00000000000E+00  0.00000000000E+00 -0.19910686815E+04  0.19910686815E+04  0.25500000920E-02 0. -1.
    10030    2    1    2    0    0  0.00000000000E+00  0.00000000000E+00 -0.70539865015E+03  0.32767387129E+04  0.31999108327E+04 0.  0.
        4    1    3    3  502    0 -0.14912367011E+04 -0.26456199892E+03 -0.88090930256E+03  0.17520795536E+04  0.12699999809E+01 0. -1.
       -4    1    3    3    0  502  0.14912367011E+04  0.26456199892E+03  0.17551065241E+03  0.15246591593E+04  0.12699999809E+01 0.  1.
</event>
<event>
 5   0  0.1556396E-06  0.3198385E+04  0.7818609E-02  0.8189244E-01
       -2   -1    0    0    0  501  0.00000000000E+00  0.00000000000E+00  0.13120516736E+04  0.13120516736E+04  0.25500000920E-02 0.  1.
        2   -1    0    0  501    0  0.00000000000E+00  0.00000000000E+00 -0.19491735237E+04  0.19491735237E+04  0.25500000920E-02 0. -1.
    10030    2    1    2    0    0  0.00000000000E+00  0.00000000000E+00 -0.63712185008E+03  0.32612251972E+04  0.31983848323E+04 0.  0.
        3    1    3    3  502    0  0.22483480383E+03  0.99589193664E+03 -0.15736244132E+04  0.18758052251E+04  0.10100000352E+00 0. -1.
       -3    1    3    3    0  502 -0.22483480383E+03 -0.99589193664E+03  0.93650256308E+03  0.13854199722E+04  0.10100000352E+00 0.  1.
</event>
<event>
 5   0  0.5370912E-07  0.3203771E+04  0.7818609E-02  0.8187822E-01
        1   -1    0    0  501    0  0.00000000000E+00  0.00000000000E+00  0.12190252694E+04  0.12190252694E+04  0.50400001928E-02 0.  1.
       -1   -1    0    0    0  501  0.00000000000E+00  0.00000000000E+00 -0.21049914757E+04  0.21049914757E+04  0.50400001928E-02 0. -1.
    10030    2    1    2    0    0  0.00000000000E+00  0.00000000000E+00 -0.88596620629E+03  0.33240167450E+04  0.32037714030E+04 0.  0.
        1    1    3    3  502    0 -0.42115114963E+03  0.14532013666E+04 -0.98892168562E+03  0.18075200146E+04  0.50400001928E-02 0. -1.
       -1    1    3    3    0  502  0.42115114963E+03 -0.14532013666E+04  0.10295547933E+03  0.15164967305E+04  0.50400001928E-02 0.  1.
</event>
<event>
 5   0  0.5177039E-07  0.3106332E+04  0.7818609E-02  0.8214002E-01
        1   -1    0    0  501    0  0.00000000000E+00  0.00000000000E+00  0.18568490176E+04  0.18568490176E+04  0.50400001928E-02 0.  1.
       -1   -1    0    0    0  501  0.00000000000E+00  0.00000000000E+00 -0.12991497866E+04  0.12991497867E+04  0.50400001928E-02 0. -1.
    10030    2    1    2    0    0  0.00000000000E+00  0.00000000000E+00  0.55769923093E+03  0.31559988042E+04  0.31063322456E+04 0.  0.
        3    1    3    3  502    0  0.39336117487E+03 -0.28652010668E+03  0.17773894437E+04  0.18428076488E+04  0.10100000352E+00 0.  1.
       -3    1    3    3    0  502 -0.39336117487E+03  0.28652010668E+03 -0.12196902128E+04  0.13131911555E+04  0.10100000352E+00 0. -1.
</event>
<event>
 5   0  0.5281187E-07  0.3407598E+04  0.7818609E-02  0.8136044E-01
       -1   -1    0    0    0  501  0.00000000000E+00  0.00000000000E+00  0.14057657784E+04  0.14057657784E+04  0.50400001928E-02 0. -1.
        1   -1    0    0  501    0  0.00000000000E+00  0.00000000000E+00 -0.20650177658E+04  0.20650177658E+04  0.50400001928E-02 0.  1.
    10030    2    1    2    0    0  0.00000000000E+00  0.00000000000E+00 -0.65925198738E+03  0.34707835442E+04  0.34075981612E+04 0.  0.
        5    1    3    3  502    0 -0.48077459056E+03  0.10725976875E+04  0.92665408908E+03  0.14967698210E+04  0.46999998093E+01 0. -1.
       -5    1    3    3    0  502  0.48077459056E+03 -0.10725976875E+04 -0.15859060765E+04  0.19740137232E+04  0.46999998093E+01 0.  1.
</event>
<event>
 5   0  0.5281187E-07  0.3206481E+04  0.7818609E-02  0.8187108E-01
        1   -1    0    0  501    0  0.00000000000E+00  0.00000000000E+00  0.17641136757E+04  0.17641136757E+04  0.50400001928E-02 0.  1.
       -1   -1    0    0    0  501  0.00000000000E+00  0.00000000000E+00 -0.14570379344E+04  0.14570379344E+04  0.50400001928E-02 0. -1.
    10030    2    1    2    0    0  0.00000000000E+00  0.00000000000E+00  0.30707574126E+03  0.32211516101E+04  0.32064812778E+04 0.  0.
        5    1    3    3  502    0  0.48119371051E+02  0.14802324275E+04 -0.46323772177E+03  0.15517779448E+04  0.46999998093E+01 0. -1.
       -5    1    3    3    0  502 -0.48119371051E+02 -0.14802324275E+04  0.77031346303E+03  0.16693736653E+04  0.46999998093E+01 0.  1.
</event>
<event>
 5   0  0.1493485E-06  0.3206051E+04  0.7818609E-02  0.8187221E-01
       -2   -1    0    0    0  501  0.00000000000E+00  0.00000000000E+00  0.12682226683E+04  0.12682226683E+04  0.25500000920E-02 0.  1.
        2   -1    0    0  501    0  0.00000000000E+00  0.00000000000E+00 -0.20262140891E+04  0.20262140891E+04  0.25500000920E-02 0. -1.
    10030    2    1    2    0    0  0.00000000000E+00  0.00000000000E+00 -0.75799142072E+03  0.32944367574E+04  0.32060509283E+04 0.  0.
        2    1    3    3  502    0 -0.10173724994E+04  0.34262783576E+03 -0.16022985708E+04  0.19286786529E+04  0.25500000920E-02 0. -1.
       -2    1    3    3    0  502  0.10173724994E+04 -0.34262783576E+03  0.84430715004E+03  0.13657581045E+04  0.25500000920E-02 0.  1.
</event>
<event>
 5   0  0.1493485E-06  0.2953496E+04  0.7818609E-02  0.8257137E-01
        2   -1    0    0  501    0  0.00000000000E+00  0.00000000000E+00  0.19483029313E+04  0.19483029313E+04  0.25500000920E-02 0. -1.
       -2   -1    0    0    0  501  0.00000000000E+00  0.00000000000E+00 -0.11193249611E+04  0.11193249611E+04  0.25500000920E-02 0.  1.
    10030    2    1    2    0    0  0.00000000000E+00  0.00000000000E+00  0.82897797025E+03  0.30676278924E+04  0.29534956257E+04 0.  0.
        2    1    3    3  502    0 -0.97326299003E+03 -0.37033380886E+02  0.15674164251E+04  0.18453743709E+04  0.25500000920E-02 0. -1.
       -2    1    3    3    0  502  0.97326299003E+03  0.37033380886E+02 -0.73843845488E+03  0.12222535215E+04  0.25500000920E-02 0.  1.
</event>
<event>
 5   0  0.5177039E-07  0.3138942E+04  0.7818609E-02  0.8205131E-01
       -1   -1    0    0    0  501  0.00000000000E+00  0.00000000000E+00  0.93206225416E+03  0.93206225417E+03  0.50400001928E-02 0.  1.
        1   -1    0    0  501    0  0.00000000000E+00  0.00000000000E+00 -0.26427836377E+04  0.26427836377E+04  0.50400001928E-02 0. -1.
    10030    2    1    2    0    0  0.00000000000E+00  0.00000000000E+00 -0.17107213836E+04  0.35748458919E+04  0.31389417801E+04 0.  0.
        3    1    3    3  502    0 -0.37288096775E+03  0.80084304472E+03 -0.23327557667E+04  0.24944216315E+04  0.10100000352E+00 0. -1.
       -3    1    3    3    0  502  0.37288096775E+03 -0.80084304472E+03  0.62203438316E+03  0.10804242604E+04  0.10100000352E+00 0.  1.
</event>
<event>
 5   0  0.5370912E-07  0.3199603E+04  0.7818609E-02  0.8188922E-01
        1   -1    0    0  501    0  0.00000000000E+00  0.00000000000E+00  0.89839914819E+03  0.89839914820E+03  0.50400001928E-02 0. -1.
       -1   -1    0    0    0  501  0.00000000000E+00  0.00000000000E+00 -0.28488060774E+04  0.28488060774E+04  0.50400001928E-02 0.  1.
    10030    2    1    2    0    0  0.00000000000E+00  0.00000000000E+00 -0.19504069292E+04  0.37472052256E+04  0.31996030712E+04 0.  0.
        1    1    3    3  502    0 -0.26739388531E+03 -0.13236589083E+04  0.29387041286E+02  0.13507168444E+04  0.50400001928E-02 0. -1.
       -1    1    3    3    0  502  0.26739388531E+03  0.13236589083E+04 -0.19797939705E+04  0.23964883812E+04  0.50400001928E-02 0.  1.
</event>
<event>
 5   0  0.1538349E-06  0.3235558E+04  0.7818609E-02  0.8179489E-01
        2   -1    0    0  501    0  0.00000000000E+00  0.00000000000E+00  0.18969133847E+04  0.18969133847E+04  0.25500000920E-02 0.  1.
       -2   -1    0    0    0  501  0.00000000000E+00  0.00000000000E+00 -0.13797199107E+04  0.13797199107E+04  0.25500000920E-02 0. -1.
    10030    2    1    2    0    0  0.00000000000E+00  0.00000000000E+00  0.51719347403E+03  0.32766332954E+04  0.32355581686E+04 0.  0.
        1    1    3    3  502    0 -0.13620493056E+03  0.15960480756E+04  0.48794010400E+03  0.16745168819E+04  0.50400001928E-02 0.  1.
       -1    1    3    3    0  502  0.13620493056E+03 -0.15960480756E+04  0.29253370030E+02  0.16021164135E+04  0.50400001928E-02 0. -1.
</event>
<event>
 5   0  0.1572769E-06  0.3196688E+04  0.7818609E-02  0.8189692E-01
        2   -1    0    0  501    0  0.00000000000E+00  0.00000000000E+00  0.20600057695E+04  0.20600057695E+04  0.25500000920E-02 0. -1.
       -2   -1    0    0    0  501  0.00000000000E+00  0.00000000000E+00 -0.12401441251E+04  0.12401441251E+04  0.25500000920E-02 0.  1.
    10030    2    1    2    0    0  0.00000000000E+00  0.00000000000E+00  0.81986164436E+03  0.33001498946E+04  0.31966883194E+04 0.  0.
        5    1    3    3  502    0 -0.55184103436E+03  0.94532755957E+03 -0.79245750197E+03  0.13513636463E+04  0.46999998093E+01 0.  1.
       -5    1    3    3    0  502  0.55184103436E+03 -0.94532755957E+03  0.16123191463E+04  0.19487862483E+04  0.46999998093E+01 0. -1.
</event>
<event>
 5   0  0.5317728E-07  0.3213083E+04  0.7818609E-02  0.8185371E-01
        1   -1    0    0  501    0  0.00000000000E+00  0.00000000000E+00  0.25820704405E+04  0.25820704405E+04  0.50400001928E-02 0. -1.
       -1   -1    0    0    0  501  0.00000000000E+00  0.00000000000E+00 -0.99957570939E+03  0.99957570941E+03  0.50400001928E-02 0.  1.
    10030    2    1    2    0    0  0.00000000000E+00  0.00000000000E+00  0.15824947311E+04  0.35816461499E+04  0.32130825650E+04 0.  0.
        2    1    3    3  502    0  0.12688481326E+04  0.93487631335E+03  0.11384309373E+04  0.19442207446E+04  0.25500000920E-02 0. -1.
       -2    1    3    3    0  502 -0.12688481326E+04 -0.93487631335E+03  0.44406379385E+03  0.16374254053E+04  0.25500000920E-02 0.  1.
</event>
<event>
 5   0  0.5317728E-07  0.3227324E+04  0.7818609E-02  0.8181638E-01
        1   -1    0    0  501    0  0.00000000000E+00  0.00000000000E+00  0.85607787639E+03  0.85607787640E+03  0.50400001928E-02 0.  1.
       -1   -1    0    0    0  501  0.00000000000E+00  0.00000000000E+00 -0.30416678710E+04  0.30416678710E+04  0.50400001928E-02 0. -1.
    10030    2    1    2    0    0  0.00000000000E+00  0.00000000000E+00 -0.21855899946E+04  0.38977457474E+04  0.32273237035E+04 0.  0.
        2    1    3    3  502    0  0.88762732092E+03 -0.36471180098E+03  0.47400664799E+03  0.10703173646E+04  0.25500000920E-02 0.  1.
       -2    1    3    3    0  502 -0.88762732092E+03  0.36471180098E+03 -0.26595966426E+04  0.28274283828E+04  0.25500000920E-02 0. -1.
</event>
<event>
 5   0  0.5177039E-07  0.3197479E+04  0.7818609E-02  0.8189483E-01
        1   -1    0    0  501    0  0.00000000000E+00  0.00000000000E+00  0.18558871242E+04  0.18558871242E+04  0.50400001928E-02 0. -1.
       -1   -1    0    0    0  501  0.00000000000E+00  0.00000000000E+00 -0.13772220919E+04  0.13772220919E+04  0.50400001928E-02 0.  1.
    10030    2    1    2    0    0  0.00000000000E+00  0.00000000000E+00  0.47866503234E+03  0.32331092161E+04  0.31974794746E+04 0.  0.
        3    1    3    3  502    0 -0.10407613663E+04  0.18225647522E+03 -0.97385676773E+03  0.14369407290E+04  0.10100000352E+00 0.  1.
       -3    1    3    3    0  502  0.10407613663E+04 -0.18225647522E+03  0.14525218001E+04  0.17961684872E+04  0.10100000352E+00 0. -1.
</event>
<event>
 5   0  0.1556396E-06  0.3163886E+04  0.7818609E-02  0.8198420E-01
       -2   -1    0    0    0  501  0.00000000000E+00  0.00000000000E+00  0.92162828325E+03  0.92162828326E+03  0.25500000920E-02 0.  1.
        2   -1    0    0  501    0  0.00000000000E+00  0.00000000000E+00 -0.27153506164E+04  0.27153506164E+04  0.25500000920E-02 0. -1.
    10030    2    1    2    0    0  0.00000000000E+00  0.00000000000E+00 -0.17937223332E+04  0.36369788997E+04  0.31638861718E+04 0.  0.
        3    1    3    3  502    0 -0.12156912096E+03 -0.71746604467E+03  0.71781071208E+03  0.10221491110E+04  0.10100000352E+00 0.  1.
       -3    1    3    3    0  502  0.12156912096E+03  0.71746604467E+03 -0.25115330452E+04  0.26148297887E+04  0.10100000352E+00 0. -1.
</event>
<event>
 5   0  0.5281187E-07  0.3215944E+04  0.7818609E-02  0.8184619E-01
        1   -1    0    0  501    0  0.00000000000E+00  0.00000000000E+00  0.25937922586E+04  0.25937922586E+04  0.50400001928E-02 0. -1.
       -1   -1    0    0    0  501  0.00000000000E+00  0.00000000000E+00 -0.99683142220E+03  0.99683142222E+03  0.50400001928E-02 0.  1.
    10030    2    1    2    0    0  0.00000000000E+00  0.00000000000E+00  0.15969608364E+04  0.35906236808E+04  0.32159437968E+04 0.  0.
        5    1    3    3  502    0  0.21143949845E+03  0.12219802867E+04  0.19412562896E+04  0.23035712609E+04  0.46999998093E+01 0. -1.
       -5    1    3    3    0  502 -0.21143949845E+03 -0.12219802867E+04 -0.34429545316E+03  0.12870524199E+04  0.46999998093E+01 0.  1.
</event>
<event>
 5   0  0.5317728E-07  0.3136218E+04  0.7818609E-02  0.8205868E-01
       -1   -1    0    0    0  501  0.00000000000E+00  0.00000000000E+00  0.75383888012E+03  0.75383888013E+03  0.50400001928E-02 0. -1.
        1   -1    0    0  501    0  0.00000000000E+00  0.00000000000E+00 -0.32619245089E+04  0.32619245089E+04  0.50400001928E-02 0.  1.
    10030    2    1    2    0    0  0.00000000000E+00  0.00000000000E+00 -0.25080856288E+04  0.40157633890E+04  0.31362177978E+04 0.  0.
        2    1    3    3  502    0  0.61319056888E+03 -0.78643711928E+03 -0.28035855190E+04  0.29756642584E+04  0.25500000920E-02 0.  1.
       -2    1    3    3    0  502 -0.61319056888E+03  0.78643711928E+03  0.29549989025E+03  0.10400991306E+04  0.25500000920E-02 0. -1.
</event>
<event>
 5   0  0.1538349E-06  0.3198750E+04  0.7818609E-02  0.8189147E-01
       -2   -1    0    0    0  501  0.00000000000E+00  0.00000000000E+00  0.12775660988E+04  0.12775660988E+04  0.25500000920E-02 0.  1.
        2   -1    0    0  501    0  0.00000000000E+00  0.00000000000E+00 -0.20022452352E+04  0.20022452352E+04  0.25500000920E-02 0. -1.
    10030    2    1    2    0    0  0.00000000000E+00  0.00000000000E+00 -0.72467913641E+03  0.32798113341E+04  0.31987501522E+04 0.  0.
        1    1    3    3  502    0 -0.13990419510E+04  0.68963136905E+03  0.30508344533E+00  0.15597787981E+04  0.50400001928E-02 0.  1.
       -1    1    3    3    0  502  0.13990419510E+04 -0.68963136905E+03 -0.72498421985E+03  0.17200325360E+04  0.50400001928E-02 0. -1.
</event>
<event>
 5   0  0.1572769E-06  0.3206029E+04  0.7818609E-02  0.8187227E-01
       -2   -1    0    0    0  501  0.00000000000E+00  0.00000000000E+00  0.13067606987E+04  0.13067606987E+04  0.25500000920E-02 0.  1.
        2   -1    0    0  501    0  0.00000000000E+00  0.00000000000E+00 -0.19664314609E+04  0.19664314609E+04  0.25500000920E-02 0. -1.
    10030    2    1    2    0    0  0.00000000000E+00  0.00000000000E+00 -0.65967076217E+03  0.32731921595E+04  0.32060289142E+04 0.  0.
        5    1    3    3  502    0  0.50513680620E+03  0.43696642108E+03  0.11579260990E+04  0.13367564426E+04  0.46999998093E+01 0.  1.
       -5    1    3    3    0  502 -0.50513680620E+03 -0.43696642108E+03 -0.18175968612E+04  0.19364357169E+04  0.46999998093E+01 0. -1.
</event>
<event>
 5   0  0.1572769E-06  0.3190223E+04  0.7818609E-02  0.8191404E-01
       -2   -1    0    0    0  501  0.00000000000E+00  0.00000000000E+00  0.17909981169E+04  0.17909981169E+04  0.25500000920E-02 0.  1.
        2   -1    0    0  501    0  0.00000000000E+00  0.00000000000E+00 -0.14206498459E+04  0.14206498459E+04  0.25500000920E-02 0. -1.
    10030    2    1    2    0    0  0.00000000000E+00  0.00000000000E+00  0.37034827105E+03  0.32116479628E+04  0.31902233143E+04 0.  0.
        5    1    3    3  502    0  0.11794401665E+04 -0.95137342239E+03 -0.31633665031E+03  0.15479927201E+04  0.46999998093E+01 0. -1.
       -5    1    3    3    0  502 -0.11794401665E+04  0.95137342239E+03  0.68668492136E+03  0.16636552427E+04  0.46999998093E+01 0.  1.
</event>
<event>
 5   0  0.1572769E-06  0.3218358E+04  0.7818609E-02  0.8183986E-01
       -2   -1    0    0    0  501  0.00000000000E+00  0.00000000000E+00  0.12684532087E+04  0.12684532087E+04  0.25500000920E-02 0.  1.
        2   -1    0    0  501    0  0.00000000000E+00  0.00000000000E+00 -0.20414294636E+04  0.20414294636E+04  0.25500000920E-02 0. -1.
    10030    2    1    2    0    0  0.00000000000E+00  0.00000000000E+00 -0.77297625486E+03  0.33098826723E+04  0.32183584346E+04 0.  0.
        5    1    3    3  502    0  0.70515169495E+03  0.74378215185E+03 -0.16623256261E+04  0.19528951276E+04  0.46999998093E+01 0. -1.
       -5    1    3    3    0  502 -0.70515169495E+03 -0.74378215185E+03  0.88934937124E+03  0.13569875447E+04  0.46999998093E+01 0.  1.
</event>
<event>
 5   0  0.1493485E-06  0.3214800E+04  0.7818609E-02  0.8184919E-01
        2   -1    0    0  501    0  0.00000000000E+00  0.00000000000E+00  0.19085745520E+04  0.19085745520E+04  0.25500000920E-02 0. -1.
       -2   -1    0    0    0  501  0.00000000000E+00  0.00000000000E+00 -0.13537514480E+04  0.13537514480E+04  0.25500000920E-02 0.  1.
    10030    2    1    2    0    0  0.00000000000E+00  0.00000000000E+00  0.55482310402E+03  0.32623260001E+04  0.32148004999E+04 0.  0.
        2    1    3    3  502    0 -0.12232678885E+04  0.85383457875E+03 -0.33003418767E+03  0.15278548295E+04  0.25500000920E-02 0.  1.
       -2    1    3    3    0  502  0.12232678885E+04 -0.85383457875E+03  0.88485729170E+03  0.17344711706E+04  0.25500000920E-02 0. -1.
</event>
<event>
 5   0  0.1508771E-06  0.3218175E+04  0.7818609E-02  0.8184034E-01
        2   -1    0    0  501    0  0.00000000000E+00  0.00000000000E+00  0.26365819481E+04  0.26365819481E+04  0.25500000920E-02 0.  1.
       -2   -1    0    0    0  501  0.00000000000E+00  0.00000000000E+00 -0.98201488502E+03  0.98201488502E+03  0.25500000920E-02 0. -1.
    10030    2    1    2    0    0  0.00000000000E+00  0.00000000000E+00  0.16545670630E+04  0.36185968331E+04  0.32181750845E+04 0.  0.
        4    1    3    3  502    0 -0.35791698309E+03 -0.89232163799E+03  0.22781050709E+04  0.24726719959E+04  0.12699999809E+01 0.  1.
       -4    1    3    3    0  502  0.35791698309E+03  0.89232163799E+03 -0.62353800782E+03  0.11459248372E+04  0.12699999809E+01 0. -1.
</event>
<event>
 5   0  0.1556396E-06  0.3205080E+04  0.7818609E-02  0.8187477E-01
       -2   -1    0    0    0  501  0.00000000000E+00  0.00000000000E+00  0.16010209545E+04  0.16010209545E+04  0.25500000920E-02 0. -1.
        2   -1    0    0  501    0  0.00000000000E+00  0.00000000000E+00 -0.16040606595E+04  0.16040606595E+04  0.25500000920E-02 0.  1.
    10030    2    1    2    0    0  0.00000000000E+00  0.00000000000E+00 -0.30397049163E+01  0.32050816140E+04  0.32050801726E+04 0.  0.
        3    1    3    3  502    0 -0.12999732853E+04  0.87190883706E+03  0.34196124074E+03  0.16022150489E+04  0.10100000352E+00 0. -1.
       -3    1    3    3    0  502  0.12999732853E+04 -0.87190883706E+03 -0.34500094566E+03  0.16028665651E+04  0.10100000352E+00 0.  1.
</event>
<event>
 5   0  0.1572769E-06  0.3212993E+04  0.7818609E-02  0.8185394E-01
       -2   -1    0    0    0  501  0.00000000000E+00  0.00000000000E+00  0.13117360058E+04  0.13117360058E+04  0.25500000920E-02 0.  1.
        2   -1    0    0  501    0  0.00000000000E+00  0.00000000000E+00 -0.19674924595E+04  0.19674924595E+04  0.25500000920E-02 0. -1.
    10030    2    1    2    0    0  0.00000000000E+00  0.00000000000E+00 -0.65575645367E+03  0.32792284653E+04  0.32129928107E+04 0.  0.
        5    1    3    3  502    0  0.13568964580E+04 -0.30244998055E+03  0.49380530477E+03  0.14752998873E+04  0.46999998093E+01 0.  1.
       -5    1    3    3    0  502 -0.13568964580E+04  0.30244998055E+03 -0.11495617584E+04  0.18039285781E+04  0.46999998093E+01 0. -1.
</event>
<event>
 5   0  0.1508771E-06  0.3193191E+04  0.7818609E-02  0.8190618E-01
        2   -1    0    0  501    0  0.00000000000E+00  0.00000000000E+00  0.15456408911E+04  0.15456408911E+04  0.25500000920E-02 0.  1.
       -2   -1    0    0    0  501  0.00000000000E+00  0.00000000000E+00 -0.16492296458E+04  0.16492296458E+04  0.25500000920E-02 0. -1.
    10030    2    1    2    0    0  0.00000000000E+00  0.00000000000E+00 -0.10358875471E+03  0.31948705368E+04  0.31931907424E+04 0.  0.
        4    1    3    3  502    0 -0.65496197493E+03 -0.14112387746E+04 -0.41051485065E+03  0.16090662271E+04  0.12699999809E+01 0.  1.
       -4    1    3    3    0  502  0.65496197493E+03  0.14112387746E+04  0.30692609594E+03  0.15858043098E+04  0.12699999809E+01 0. -1.
</event>
<event>
 5   0  0.4995625E-07  0.3037990E+04  0.7818609E-02  0.8232965E-01
       -3   -1    0    0    0  501  0.00000000000E+00  0.00000000000E+00  0.13885813775E+04  0.13885813812E+04  0.10100000352E+00 0. -1.
        3   -1    0    0  501    0  0.00000000000E+00  0.00000000000E+00 -0.16616571318E+04  0.16616571349E+04  0.10100000352E+00 0.  1.
    10030    2    1    2    0    0  0.00000000000E+00  0.00000000000E+00 -0.27307575428E+03  0.30502385161E+04  0.30379902299E+04 0.  0.
        3    1    3    3  502    0 -0.14708733909E+03 -0.14620246909E+04  0.24997555825E+03  0.14905162434E+04  0.10100000352E+00 0. -1.
       -3    1    3    3    0  502  0.14708733909E+03  0.14620246909E+04 -0.52305131253E+03  0.15597222726E+04  0.10100000352E+00 0.  1.
</event>
<event>
 5   0  0.1538349E-06  0.3186674E+04  0.7818609E-02  0.8192345E-01
        2   -1    0    0  501    0  0.00000000000E+00  0.00000000000E+00  0.14865398802E+04  0.14865398802E+04  0.25500000920E-02 0. -1.
       -2   -1    0    0    0  501  0.00000000000E+00  0.00000000000E+00 -0.17078064278E+04  0.17078064278E+04  0.25500000920E-02 0.  1.
    10030    2    1    2    0    0  0.00000000000E+00  0.00000000000E+00 -0.22126654760E+03  0.31943463081E+04  0.31866737283E+04 0.  0.
        1    1    3    3  502    0  0.59643321117E+02  0.13130794594E+04  0.79208335568E+03  0.15346436182E+04  0.50400001928E-02 0. -1.
       -1    1    3    3    0  502 -0.59643321117E+02 -0.13130794594E+04 -0.10133499033E+04  0.16597026899E+04  0.50400001928E-02 0.  1.
</event>
<event>
 5   0  0.5317728E-07  0.3218334E+04  0.7818609E-02  0.8183992E-01
       -1   -1    0    0    0  501  0.00000000000E+00  0.00000000000E+00  0.24418306576E+04  0.24418306576E+04  0.50400001928E-02 0.  1.
        1   -1    0    0  501    0  0.00000000000E+00  0.00000000000E+00 -0.10604417205E+04  0.10604417205E+04  0.50400001928E-02 0. -1.
    10030    2    1    2    0    0  0.00000000000E+00  0.00000000000E+00  0.13813889371E+04  0.35022723781E+04  0.32183344162E+04 0.  0.
        2    1    3    3  502    0  0.10956109094E+04  0.51016460995E+03  0.18468730613E+04  0.22071636320E+04  0.25500000920E-02 0.  1.
       -2    1    3    3    0  502 -0.10956109094E+04 -0.51016460995E+03 -0.46548412419E+03  0.12951087460E+04  0.25500000920E-02 0. -1.
</event>
<event>
 5   0  0.1556396E-06  0.3229576E+04  0.7818609E-02  0.8181050E-01
       -2   -1    0    0    0  501  0.00000000000E+00  0.00000000000E+00  0.10230934235E+04  0.10230934235E+04  0.25500000920E-02 0. -1.
        2   -1    0    0  501    0  0.00000000000E+00  0.00000000000E+00 -0.25486825296E+04  0.25486825296E+04  0.25500000920E-02 0.  1.
    10030    2    1    2    0    0  0.00000000000E+00  0.00000000000E+00 -0.15255891061E+04  0.35717759531E+04  0.32295760308E+04 0.  0.
        3    1    3    3  502    0  0.82336921072E+02  0.11638176988E+04 -0.19974566974E+04  0.23132410754E+04  0.10100000352E+00 0.  1.
       -3    1    3    3    0  502 -0.82336921072E+02 -0.11638176988E+04  0.47186759131E+03  0.12585348778E+04  0.10100000352E+00 0. -1.
</event>
<event>
 5   0  0.5233813E-07  0.3198578E+04  0.7818609E-02  0.8189193E-01
        1   -1    0    0  501    0  0.00000000000E+00  0.00000000000E+00  0.15535464388E+04  0.15535464388E+04  0.50400001928E-02 0.  1.
       -1   -1    0    0    0  501  0.00000000000E+00  0.00000000000E+00 -0.16463787316E+04  0.16463787316E+04  0.50400001928E-02 0. -1.
    10030    2    1    2    0    0  0.00000000000E+00  0.00000000000E+00 -0.92832292774E+02  0.31999251705E+04  0.31985783189E+04 0.  0.
        4    1    3    3  502    0 -0.66530174741E+03 -0.77594068465E+03 -0.12769803682E+04  0.16356622007E+04  0.12699999809E+01 0. -1.
       -4    1    3    3    0  502  0.66530174741E+03  0.77594068465E+03  0.11841480754E+04  0.15642629698E+04  0.12699999809E+01 0.  1.
</event>
<event>
 5   0  0.5370912E-07  0.3151098E+04  0.7818609E-02  0.8201853E-01
        1   -1    0    0  501    0  0.00000000000E+00  0.00000000000E+00  0.29174035822E+04  0.29174035822E+04  0.50400001928E-02 0. -1.
       -1   -1    0    0    0  501  0.00000000000E+00  0.00000000000E+00 -0.85087779567E+03  0.85087779568E+03  0.50400001928E-02 0.  1.
    10030    2    1    2    0    0  0.00000000000E+00  0.00000000000E+00  0.20665257865E+04  0.37682813779E+04  0.31510975416E+04 0.  0.
        1    1    3    3  502    0  0.14673543953E+04  0.32023237690E+03  0.46390614801E+03  0.15719054077E+04  0.50400001928E-02 0.  1.
       -1    1    3    3    0  502 -0.14673543953E+04 -0.32023237690E+03  0.16026196385E+04  0.21963759702E+04  0.50400001928E-02 0. -1.
</event>
<event>
 5   0  0.5281187E-07  0.3236224E+04  0.7818609E-02  0.8179316E-01
       -1   -1    0    0    0  501  0.00000000000E+00  0.00000000000E+00  0.13095915719E+04  0.13095915719E+04  0.50400001928E-02 0.  1.
        1   -1    0    0  501    0  0.00000000000E+00  0.00000000000E+00 -0.19993148427E+04  0.19993148427E+04  0.50400001928E-02 0. -1.
    10030    2    1    2    0    0  0.00000000000E+00  0.00000000000E+00 -0.68972327081E+03  0.33089064146E+04  0.32362236435E+04 0.  0.
        5    1    3    3  502    0  0.19823157300E+03 -0.94102674203E+03 -0.16754093106E+04  0.19317985231E+04  0.46999998093E+01 0. -1.
       -5    1    3    3    0  502 -0.19823157300E+03  0.94102674203E+03  0.98568603984E+03  0.13771078915E+04  0.46999998093E+01 0.  1.
</event>
<event>
 5   0  0.1508771E-06  0.3189039E+04  0.7818609E-02  0.8191718E-01
       -2   -1    0    0    0  501  0.00000000000E+00  0.00000000000E+00  0.10113406897E+04  0.10113406897E+04  0.25500000920E-02 0.  1.
        2   -1    0    0  501    0  0.00000000000E+00  0.00000000000E+00 -0.25139817296E+04  0.25139817296E+04  0.25500000920E-02 0. -1.
    10030    2    1    2    0    0  0.00000000000E+00  0.00000000000E+00 -0.15026410399E+04  0.35253224193E+04  0.31890387369E+04 0.  0.
        4    1    3    3  502    0  0.57582166249E+02 -0.15878535181E+04 -0.89920270313E+03  0.18256948307E+04  0.12699999809E+01 0. -1.
       -4    1    3    3    0  502 -0.57582166249E+02  0.15878535181E+04 -0.60343833681E+03  0.16996275886E+04  0.12699999809E+01 0.  1.
</event>
<event>
 5   0  0.5317728E-07  0.3199604E+04  0.7818609E-02  0.8188922E-01
        1   -1    0    0  501    0  0.00000000000E+00  0.00000000000E+00  0.18468774398E+04  0.18468774398E+04  0.50400001928E-02 0. -1.
       -1   -1    0    0    0  501  0.00000000000E+00  0.00000000000E+00 -0.13857805101E+04  0.13857805101E+04  0.50400001928E-02 0.  1.
    10030    2    1    2    0    0  0.00000000000E+00  0.00000000000E+00  0.46109692966E+03  0.32326579499E+04  0.31996042009E+04 0.  0.
        2    1    3    3  502    0  0.95650770007E+03  0.42468751466E+03  0.14530485830E+04  0.17907028369E+04  0.25500000920E-02 0. -1.
       -2    1    3    3    0  502 -0.95650770007E+03 -0.42468751466E+03 -0.99195165334E+03  0.14419551130E+04  0.25500000920E-02 0.  1.
</event>
<event>
 5   0  0.1493485E-06  0.3224215E+04  0.7818609E-02  0.8182451E-01
       -2   -1    0    0    0  501  0.00000000000E+00  0.00000000000E+00  0.22055113379E+04  0.22055113379E+04  0.25500000920E-02 0. -1.
        2   -1    0    0  501    0  0.00000000000E+00  0.00000000000E+00 -0.11783618413E+04  0.11783618413E+04  0.25500000920E-02 0.  1.
    10030    2    1    2    0    0  0.00000000000E+00  0.00000000000E+00  0.10271494966E+04  0.33838731791E+04  0.32242148818E+04 0.  0.
        2    1    3    3  502    0  0.14986520295E+04 -0.17790591291E+03 -0.81310616691E+02  0.15113635684E+04  0.25500000920E-02 0.  1.
       -2    1    3    3    0  502 -0.14986520295E+04  0.17790591291E+03  0.11084601133E+04  0.18725096107E+04  0.25500000920E-02 0. -1.
</event>
<event>
 5   0  0.1538349E-06  0.3263928E+04  0.7818609E-02  0.8172135E-01
       -2   -1    0    0    0  501  0.00000000000E+00  0.00000000000E+00  0.18631963990E+04  0.18631963990E+04  0.25500000920E-02 0.  1.
        2   -1    0    0  501    0  0.00000000000E+00  0.00000000000E+00 -0.14294287990E+04  0.14294287991E+04  0.25500000920E-02 0. -1.
    10030    2    1    2    0    0  0.00000000000E+00  0.00000000000E+00  0.43376759997E+03  0.32926251981E+04  0.32639280574E+04 0.  0.
        1    1    3    3  502    0 -0.25149054516E+03 -0.40103416581E+03 -0.13586515728E+04  0.14387529297E+04  0.50400001928E-02 0. -1.
       -1    1    3    3    0  502  0.25149054516E+03  0.40103416581E+03  0.17924191728E+04  0.18538722684E+04  0.50400001928E-02 0.  1.
</event>
<event>
 5   0  0.1572769E-06  0.3175227E+04  0.7818609E-02  0.8195390E-01
       -2   -1    0    0    0  501  0.00000000000E+00  0.00000000000E+00  0.99939812953E+03  0.99939812953E+03  0.25500000920E-02 0.  1.
        2   -1    0    0  501    0  0.00000000000E+00  0.00000000000E+00 -0.25220346154E+04  0.25220346154E+04  0.25500000920E-02 0. -1.
    10030    2    1    2    0    0  0.00000000000E+00  0.00000000000E+00 -0.15226364859E+04  0.35214327449E+04  0.31752270327E+04 0.  0.
        5    1    3    3  502    0  0.99389273620E+03 -0.55634557514E+03 -0.19878667449E+04  0.22910651356E+04  0.46999998093E+01 0. -1.
       -5    1    3    3    0  502 -0.99389273620E+03  0.55634557514E+03  0.46523025907E+03  0.12303676093E+04  0.46999998093E+01 0.  1.
</event>
<event>
 5   0  0.5317728E-07  0.3258638E+04  0.7818609E-02  0.8173500E-01
        1   -1    0    0  501    0  0.00000000000E+00  0.00000000000E+00  0.17954524889E+04  0.17954524889E+04  0.50400001928E-02 0.  1.
       -1   -1    0    0    0  501  0.00000000000E+00  0.00000000000E+00 -0.14785581349E+04  0.14785581349E+04  0.50400001928E-02 0. -1.
    10030    2    1    2    0    0  0.00000000000E+00  0.00000000000E+00  0.31689435397E+03  0.32740106238E+04  0.32586382943E+04 0.  0.
        2    1    3    3  502    0  0.38209857663E+03 -0.15636196014E+04  0.41217622718E+03  0.16615639688E+04  0.25500000920E-02 0. -1.
       -2    1    3    3    0  502 -0.38209857663E+03  0.15636196014E+04 -0.95281873217E+02  0.16124466550E+04  0.25500000920E-02 0.  1.
</event>
<event>
 5   0  0.5233813E-07  0.3199186E+04  0.7818609E-02  0.8189032E-01
        1   -1    0    0  501    0  0.00000000000E+00  0.00000000000E+00  0.18372547876E+04  0.18372547876E+04  0.50400001928E-02 0.  1.
       -1   -1    0    0    0  501  0.00000000000E+00  0.00000000000E+00 -0.13926741957E+04  0.13926741957E+04  0.50400001928E-02 0. -1.
    10030    2    1    2    0    0  0.00000000000E+00  0.00000000000E+00  0.44458059188E+03  0.32299289834E+04  0.31991857300E+04 0.  0.
        4    1    3    3  502    0  0.15599251852E+04  0.34754141648E+03  0.15423255573E+03  0.16055967469E+04  0.12699999809E+01 0. -1.
       -4    1    3    3    0  502 -0.15599251852E+04 -0.34754141648E+03  0.29034803614E+03  0.16243322365E+04  0.12699999809E+01 0.  1.
</event>
<event>
 5   0  0.1508771E-06  0.3157915E+04  0.7818609E-02  0.8200021E-01
       -2   -1    0    0    0  501  0.00000000000E+00  0.00000000000E+00  0.12751181511E+04  0.12751181511E+04  0.25500000920E-02 0.  1.
        2   -1    0    0  501    0  0.00000000000E+00  0.00000000000E+00 -0.19551966328E+04  0.19551966328E+04  0.25500000920E-02 0. -1.
    10030    2    1    2    0    0  0.00000000000E+00  0.00000000000E+00 -0.68007848172E+03  0.32303147839E+04  0.31579149548E+04 0.  0.
        4    1    3    3  502    0  0.46471201360E+03  0.15089843508E+04 -0.35096475343E+03  0.16174575412E+04  0.12699999809E+01 0. -1.
       -4    1    3    3    0  502 -0.46471201360E+03 -0.15089843508E+04 -0.32911372829E+03  0.16128572427E+04  0.12699999809E+01 0.  1.
</event>
<event>
 5   0  0.1556396E-06  0.3187471E+04  0.7818609E-02  0.8192134E-01
        2   -1    0    0  501    0  0.00000000000E+00  0.00000000000E+00  0.17515246552E+04  0.17515246552E+04  0.25500000920E-02 0. -1.
       -2   -1    0    0    0  501  0.00000000000E+00  0.00000000000E+00 -0.14501614500E+04  0.14501614500E+04  0.25500000920E-02 0.  1.
    10030    2    1    2    0    0  0.00000000000E+00  0.00000000000E+00  0.30136320516E+03  0.32016861052E+04  0.31874714328E+04 0.  0.
        3    1    3    3  502    0 -0.21715248212E+03  0.49319962905E+03  0.16572344578E+04  0.17426494578E+04  0.10100000352E+00 0. -1.
       -3    1    3    3    0  502  0.21715248212E+03 -0.49319962905E+03 -0.13558712526E+04  0.14590366474E+04  0.10100000352E+00 0.  1.
</event>
<event>
 5   0  0.5370912E-07  0.3218722E+04  0.7818609E-02  0.8183890E-01
        1   -1    0    0  501    0  0.00000000000E+00  0.00000000000E+00  0.22910517630E+04  0.22910517630E+04  0.50400001928E-02 0.  1.
       -1   -1    0    0    0  501  0.00000000000E+00  0.00000000000E+00 -0.11305037088E+04  0.11305037088E+04  0.50400001928E-02 0. -1.
    10030    2    1    2    0    0  0.00000000000E+00  0.00000000000E+00  0.11605480541E+04  0.34215554718E+04  0.32187218054E+04 0.  0.
        1    1    3    3  502    0  0.72138854180E+03 -0.98492569628E+03 -0.53440568118E+03  0.13326925705E+04  0.50400001928E-02 0. -1.
       -1    1    3    3    0  502 -0.72138854180E+03  0.98492569628E+03  0.16949537353E+04  0.20888629013E+04  0.50400001928E-02 0.  1.
</event>
<event>
 5   0  0.5177039E-07  0.3202873E+04  0.7818609E-02  0.8188059E-01
       -1   -1    0    0    0  501  0.00000000000E+00  0.00000000000E+00  0.94931039720E+03  0.94931039721E+03  0.50400001928E-02 0. -1.
        1   -1    0    0  501    0  0.00000000000E+00  0.00000000000E+00 -0.27015394789E+04  0.27015394789E+04  0.50400001928E-02 0.  1.
    10030    2    1    2    0    0  0.00000000000E+00  0.00000000000E+00 -0.17522290817E+04  0.36508498761E+04  0.32028734073E+04 0.  0.
        3    1    3    3  502    0 -0.42198456814E+03 -0.66832086727E+03 -0.24637147894E+04  0.25873952792E+04  0.10100000352E+00 0.  1.
       -3    1    3    3    0  502  0.42198456814E+03  0.66832086727E+03  0.71148570763E+03  0.10634545969E+04  0.10100000352E+00 0. -1.
</event>
<event>
 5   0  0.5317728E-07  0.3208009E+04  0.7818609E-02  0.8186705E-01
       -1   -1    0    0    0  501  0.00000000000E+00  0.00000000000E+00  0.12932626598E+04  0.12932626598E+04  0.50400001928E-02 0.  1.
        1   -1    0    0  501    0  0.00000000000E+00  0.00000000000E+00 -0.19894104808E+04  0.19894104808E+04  0.50400001928E-02 0. -1.
    10030    2    1    2    0    0  0.00000000000E+00  0.00000000000E+00 -0.69614782104E+03  0.32826731406E+04  0.32080089089E+04 0.  0.
        2    1    3    3  502    0 -0.31286664954E+03  0.13264855451E+04 -0.12135612726E+04  0.18248781888E+04  0.25500000920E-02 0.  1.
       -2    1    3    3    0  502  0.31286664954E+03 -0.13264855451E+04  0.51741345152E+03  0.14577949518E+04  0.25500000920E-02 0. -1.
</event>
<event>
 5   0  0.5317728E-07  0.3240944E+04  0.7818609E-02  0.8178087E-01
        1   -1    0    0  501    0  0.00000000000E+00  0.00000000000E+00  0.28684870558E+04  0.28684870558E+04  0.50400001928E-02 0.  1.
       -1   -1    0    0    0  501  0.00000000000E+00  0.00000000000E+00 -0.91544058504E+03  0.91544058505E+03  0.50400001928E-02 0. -1.
    10030    2    1    2    0    0  0.00000000000E+00  0.00000000000E+00  0.19530464708E+04  0.37839276409E+04  0.32409439789E+04 0.  0.
        2    1    3    3  502    0  0.79871223491E+03 -0.50238536257E+03 -0.56161641252E+03  0.10980643340E+04  0.25500000920E-02 0. -1.
       -2    1    3    3    0  502 -0.79871223491E+03  0.50238536257E+03  0.25146628833E+04  0.26858633069E+04  0.25500000920E-02 0.  1.
</event>
<event>
 5   0  0.1572769E-06  0.3201147E+04  0.7818609E-02  0.8188514E-01
        2   -1    0    0  501    0  0.00000000000E+00  0.00000000000E+00  0.24854104538E+04  0.24854104538E+04  0.25500000920E-02 0. -1.
       -2   -1    0    0    0  501  0.00000000000E+00  0.00000000000E+00 -0.10307492668E+04  0.10307492668E+04  0.25500000920E-02 0.  1.
    10030    2    1    2    0    0  0.00000000000E+00  0.00000000000E+00  0.14546611870E+04  0.35161597205E+04  0.32011466714E+04 0.  0.
        5    1    3    3  502    0  0.81762080712E+03  0.34631235942E+03  0.21900584833E+04  0.23632211671E+04  0.46999998093E+01 0. -1.
       -5    1    3    3    0  502 -0.81762080712E+03 -0.34631235942E+03 -0.73539729632E+03  0.11529385534E+04  0.46999998093E+01 0.  1.
</event>
<event>
 5   0  0.5281187E-07  0.3197278E+04  0.7818609E-02  0.8189536E-01
       -1   -1    0    0    0  501  0.00000000000E+00  0.00000000000E+00  0.13296844679E+04  0.13296844679E+04  0.50400001928E-02 0.  1.
        1   -1    0    0  501    0  0.00000000000E+00  0.00000000000E+00 -0.19219952334E+04  0.19219952334E+04  0.50400001928E-02 0. -1.
    10030    2    1    2    0    0  0.00000000000E+00  0.00000000000E+00 -0.59231076553E+03  0.32516797013E+04  0.31972783484E+04 0.  0.
        5    1    3    3  502    0  0.10693186154E+04 -0.46443908634E+03 -0.14086037969E+04  0.18284782506E+04  0.46999998093E+01 0. -1.
       -5    1    3    3    0  502 -0.10693186154E+04  0.46443908634E+03  0.81629303140E+03  0.14232014507E+04  0.46999998093E+01 0.  1.
</event>
<event>
 5   0  0.5177039E-07  0.3217109E+04  0.7818609E-02  0.8184313E-01
        1   -1    0    0  501    0  0.00000000000E+00  0.00000000000E+00  0.21809923441E+04  0.21809923441E+04  0.50400001928E-02 0. -1.
       -1   -1    0    0    0  501  0.00000000000E+00  0.00000000000E+00 -0.11863628396E+04  0.11863628396E+04  0.50400001928E-02 0.  1.
    10030    2    1    2    0    0  0.00000000000E+00  0.00000000000E+00  0.99462950456E+03  0.33673551837E+04  0.32171094296E+04 0.  0.
        3    1    3    3  502    0  0.30808633765E+03 -0.96078451246E+03 -0.81395868878E+03  0.12963613802E+04  0.10100000352E+00 0.  1.
       -3    1    3    3    0  502 -0.30808633765E+03  0.96078451246E+03  0.18085881933E+04  0.20709938035E+04  0.10100000352E+00 0. -1.
</event>
<event>
 5   0  0.5281187E-07  0.3190506E+04  0.7818609E-02  0.8191329E-01
        1   -1    0    0  501    0  0.00000000000E+00  0.00000000000E+00  0.18779833648E+04  0.18779833648E+04  0.50400001928E-02 0.  1.
       -1   -1    0    0    0  501  0.00000000000E+00  0.00000000000E+00 -0.13550875700E+04  0.13550875700E+04  0.50400001928E-02 0. -1.
    10030    2    1    2    0    0  0.00000000000E+00  0.00000000000E+00  0.52289579479E+03  0.32330709348E+04  0.31905058623E+04 0.  0.
        5    1    3    3  502    0  0.11470366920E+04 -0.10739076998E+03  0.13796109303E+04  0.17973798595E+04  0.46999998093E+01 0.  1.
       -5    1    3    3    0  502 -0.11470366920E+04  0.10739076998E+03 -0.85671513554E+03  0.14356910753E+04  0.46999998093E+01 0. -1.
</event>
<event>
 5   0  0.5370912E-07  0.3191619E+04  0.7818609E-02  0.8191034E-01
        1   -1    0    0  501    0  0.00000000000E+00  0.00000000000E+00  0.92244543405E+03  0.92244543406E+03  0.50400001928E-02 0.  1.
       -1   -1    0    0    0  501  0.00000000000E+00  0.00000000000E+00 -0.27607138578E+04  0.27607138578E+04  0.50400001928E-02 0. -1.
    10030    2    1    2    0    0  0.00000000000E+00  0.00000000000E+00 -0.18382684238E+04  0.36831592919E+04  0.31916189578E+04 0.  0.
        1    1    3    3  502    0 -0.11912992199E+04  0.10609198644E+04 -0.86932291144E+03  0.18167187769E+04  0.50400001928E-02 0. -1.
       -1    1    3    3    0  502  0.11912992199E+04 -0.10609198644E+04 -0.96894551233E+03  0.18664405150E+04  0.50400001928E-02 0.  1.
</event>
<event>
 5   0  0.1493485E-06  0.3170185E+04  0.7818609E-02  0.8196736E-01
       -2   -1    0    0    0  501  0.00000000000E+00  0.00000000000E+00  0.13711709299E+04  0.13711709299E+04  0.25500000920E-02 0. -1.
        2   -1    0    0  501    0  0.00000000000E+00  0.00000000000E+00 -0.18323889380E+04  0.18323889380E+04  0.25500000920E-02 0.  1.
    10030    2    1    2    0    0  0.00000000000E+00  0.00000000000E+00 -0.46121800817E+03  0.32035598679E+04  0.31701851328E+04 0.  0.
        2    1    3    3  502    0  0.14323858400E+04 -0.20698785683E+02 -0.91625097101E+03  0.17004921277E+04  0.25500000920E-02 0.  1.
       -2    1    3    3    0  502 -0.14323858400E+04  0.20698785683E+02  0.45503296284E+03  0.15030677402E+04  0.25500000920E-02 0. -1.
</event>
<event>
 5   0  0.1538349E-06  0.3212286E+04  0.7818609E-02  0.8185580E-01
       -2   -1    0    0    0  501  0.00000000000E+00  0.00000000000E+00  0.13982031373E+04  0.13982031373E+04  0.25500000920E-02 0.  1.
        2   -1    0    0  501    0  0.00000000000E+00  0.00000000000E+00 -0.18450074293E+04  0.18450074293E+04  0.25500000920E-02 0. -1.
    10030    2    1    2    0    0  0.00000000000E+00  0.00000000000E+00 -0.44680429194E+03  0.32432105666E+04  0.32122859001E+04 0.  0.
        1    1    3    3  502    0  0.63106357017E+03  0.61144041918E+03 -0.15808134694E+04  0.18086104724E+04  0.50400001928E-02 0. -1.
       -1    1    3    3    0  502 -0.63106357017E+03 -0.61144041918E+03  0.11340091774E+04  0.14346000942E+04  0.50400001928E-02 0.  1.
</event>
<event>
 5   0  0.5281187E-07  0.3186827E+04  0.7818609E-02  0.8192305E-01
       -1   -1    0    0    0  501  0.00000000000E+00  0.00000000000E+00  0.15469450374E+04  0.15469450374E+04  0.50400001928E-02 0.  1.
        1   -1    0    0  501    0  0.00000000000E+00  0.00000000000E+00 -0.16412774689E+04  0.16412774689E+04  0.50400001928E-02 0. -1.
    10030    2    1    2    0    0  0.00000000000E+00  0.00000000000E+00 -0.94332431483E+02  0.31882225063E+04  0.31868266570E+04 0.  0.
        5    1    3    3  502    0  0.15036408866E+03 -0.14813232333E+04 -0.61487936212E+03  0.16109086258E+04  0.46999998093E+01 0. -1.
       -5    1    3    3    0  502 -0.15036408866E+03  0.14813232333E+04  0.52054693064E+03  0.15773138805E+04  0.46999998093E+01 0.  1.
</event>
<event>
 5   0  0.5317728E-07  0.3204249E+04  0.7818609E-02  0.8187696E-01
       -1   -1    0    0    0  501  0.00000000000E+00  0.00000000000E+00  0.92829889820E+03  0.92829889821E+03  0.50400001928E-02 0. -1.
        1   -1    0    0  501    0  0.00000000000E+00  0.00000000000E+00 -0.27650604626E+04  0.27650604626E+04  0.50400001928E-02 0.  1.
    10030    2    1    2    0    0  0.00000000000E+00  0.00000000000E+00 -0.18367615644E+04  0.36933593608E+04  0.32042487924E+04 0.  0.
        2    1    3    3  502    0  0.95017053141E+03  0.12864247350E+04 -0.10282752742E+04  0.19013318167E+04  0.25500000920E-02 0.  1.
       -2    1    3    3    0  502 -0.95017053141E+03 -0.12864247350E+04 -0.80848629021E+03  0.17920275442E+04  0.25500000920E-02 0. -1.
</event>
<event>
 5   0  0.5177039E-07  0.3198450E+04  0.7818609E-02  0.8189227E-01
        1   -1    0    0  501    0  0.00000000000E+00  0.00000000000E+00  0.20396799118E+04  0.20396799118E+04  0.50400001928E-02 0. -1.
       -1   -1    0    0    0  501  0.00000000000E+00  0.00000000000E+00 -0.12538830288E+04  0.12538830288E+04  0.50400001928E-02 0.  1.
    10030    2    1    2    0    0  0.00000000000E+00  0.00000000000E+00  0.78579688306E+03  0.32935629406E+04  0.31984496404E+04 0.  0.
        3    1    3    3  502    0 -0.94497590833E+03  0.92792979731E+03  0.13159284786E+04  0.18670031995E+04  0.10100000352E+00 0. -1.
       -3    1    3    3    0  502  0.94497590833E+03 -0.92792979731E+03 -0.53013159554E+03  0.14265597411E+04  0.10100000352E+00 0.  1.
</event>
<event>
 5   0  0.1493485E-06  0.3174015E+04  0.7818609E-02  0.8195714E-01
       -2   -1    0    0    0  501  0.00000000000E+00  0.00000000000E+00  0.11314755155E+04  0.11314755155E+04  0.25500000920E-02 0. -1.
        2   -1    0    0  501    0  0.00000000000E+00  0.00000000000E+00 -0.22259361284E+04  0.22259361284E+04  0.25500000920E-02 0.  1.
    10030    2    1    2    0    0  0.00000000000E+00  0.00000000000E+00 -0.10944606129E+04  0.33574116439E+04  0.31740146366E+04 0.  0.
        2    1    3    3  502    0 -0.10272732809E+04 -0.11780020047E+04 -0.25636346005E+03  0.15838880454E+04  0.25500000920E-02 0.  1.
       -2    1    3    3    0  502  0.10272732809E+04  0.11780020047E+04 -0.83809715281E+03  0.17735235985E+04  0.25500000920E-02 0. -1.
</event>
<event>
 5   0  0.1538349E-06  0.3244956E+04  0.7818609E-02  0.8177044E-01
        2   -1    0    0  501    0  0.00000000000E+00  0.00000000000E+00  0.21781370929E+04  0.21781370929E+04  0.25500000920E-02 0.  1.
       -2   -1    0    0    0  501  0.00000000000E+00  0.00000000000E+00 -0.12085720571E+04  0.12085720571E+04  0.25500000920E-02 0. -1.
    10030    2    1    2    0    0  0.00000000000E+00  0.00000000000E+00  0.96956503587E+03  0.33867091500E+04  0.32449564724E+04 0.  0.
        1    1    3    3  502    0  0.12480074698E+02  0.66692321927E+03  0.20284096046E+04  0.21352723144E+04  0.50400001928E-02 0.  1.
       -1    1    3    3    0  502 -0.12480074698E+02 -0.66692321927E+03 -0.10588445687E+04  0.12514368356E+04  0.50400001928E-02 0. -1.
</event>
<event>
 5   0  0.5370912E-07  0.3207768E+04  0.7818609E-02  0.8186769E-01
       -1   -1    0    0    0  501  0.00000000000E+00  0.00000000000E+00  0.13855209451E+04  0.13855209452E+04  0.50400001928E-02 0.  1.
        1   -1    0    0  501    0  0.00000000000E+00  0.00000000000E+00 -0.18566615149E+04  0.18566615149E+04  0.50400001928E-02 0. -1.
    10030    2    1    2    0    0  0.00000000000E+00  0.00000000000E+00 -0.47114056979E+03  0.32421824601E+04  0.32077677079E+04 0.  0.
        1    1    3    3  502    0  0.43424778584E+03 -0.14750038792E+04 -0.69679468435E+03  0.16881144556E+04  0.50400001928E-02 0. -1.
       -1    1    3    3    0  502 -0.43424778584E+03  0.14750038792E+04  0.22565411456E+03  0.15540680045E+04  0.50400001928E-02 0.  1.
</event>
<event>
 5   0  0.1493485E-06  0.3244363E+04  0.7818609E-02  0.8177198E-01
        2   -1    0    0  501    0  0.00000000000E+00  0.00000000000E+00  0.19906245820E+04  0.19906245820E+04  0.25500000920E-02 0.  1.
       -2   -1    0    0    0  501  0.00000000000E+00  0.00000000000E+00 -0.13219333340E+04  0.13219333340E+04  0.25500000920E-02 0. -1.
    10030    2    1    2    0    0  0.00000000000E+00  0.00000000000E+00  0.66869124798E+03  0.33125579160E+04  0.32443631057E+04 0.  0.
        2    1    3    3  502    0  0.11145270353E+04 -0.49716254015E+03  0.14255149636E+04  0.18765484313E+04  0.25500000920E-02 0.  1.
       -2    1    3    3    0  502 -0.11145270353E+04  0.49716254015E+03 -0.75682371558E+03  0.14360094847E+04  0.25500000920E-02 0. -1.
</event>
<event>
 5   0  0.5233813E-07  0.2972166E+04  0.7818609E-02  0.8251724E-01
        1   -1    0    0  501    0  0.00000000000E+00  0.00000000000E+00  0.20839631174E+04  0.20839631174E+04  0.50400001928E-02 0.  1.
       -1   -1    0    0    0  501  0.00000000000E+00  0.00000000000E+00 -0.10597324096E+04  0.10597324097E+04  0.50400001928E-02 0. -1.
    10030    2    1    2    0    0  0.00000000000E+00  0.00000000000E+00  0.10242307078E+04  0.31436955271E+04  0.29721663857E+04 0.  0.
        4    1    3    3  502    0 -0.78095413854E+03  0.88501519824E+03 -0.44293480288E+03  0.12606879551E+04  0.12699999809E+01 0. -1.
       -4    1    3    3    0  502  0.78095413854E+03 -0.88501519824E+03  0.14671655107E+04  0.18830075720E+04  0.12699999809E+01 0.  1.
</event>
<event>
 5   0  0.5177039E-07  0.3161822E+04  0.7818609E-02  0.8198973E-01
        1   -1    0    0  501    0  0.00000000000E+00  0.00000000000E+00  0.13198625438E+04  0.13198625438E+04  0.50400001928E-02 0. -1.
       -1   -1    0    0    0  501  0.00000000000E+00  0.00000000000E+00 -0.18935908374E+04  0.18935908374E+04  0.50400001928E-02 0.  1.
    10030    2    1    2    0    0  0.00000000000E+00  0.00000000000E+00 -0.57372829366E+03  0.32134533812E+04  0.31618220188E+04 0.  0.
        3    1    3    3  502    0  0.78976891734E+03 -0.11462438147E+04 -0.10485486410E+04  0.17427174436E+04  0.10100000352E+00 0.  1.
       -3    1    3    3    0  502 -0.78976891734E+03  0.11462438147E+04  0.47482034734E+03  0.14707359376E+04  0.10100000352E+00 0. -1.
</event>
<event>
 5   0  0.1572769E-06  0.3209275E+04  0.7818609E-02  0.8186372E-01
        2   -1    0    0  501    0  0.00000000000E+00  0.00000000000E+00  0.13164254068E+04  0.13164254068E+04  0.25500000920E-02 0. -1.
       -2   -1    0    0    0  501  0.00000000000E+00  0.00000000000E+00 -0.19559495233E+04  0.19559495233E+04  0.25500000920E-02 0.  1.
    10030    2    1    2    0    0  0.00000000000E+00  0.00000000000E+00 -0.63952411650E+03  0.32723749302E+04  0.32092750876E+04 0.  0.
        5    1    3    3  502    0  0.11515055615E+04  0.28058577080E+03 -0.14227637059E+04  0.18517483862E+04  0.46999998093E+01 0.  1.
       -5    1    3    3    0  502 -0.11515055615E+04 -0.28058577080E+03  0.78323958944E+03  0.14206265440E+04  0.46999998093E+01 0. -1.
</event>
<event>
 5   0  0.1493485E-06  0.3228997E+04  0.7818609E-02  0.8181201E-01
        2   -1    0    0  501    0  0.00000000000E+00  0.00000000000E+00  0.86424225798E+03  0.86424225798E+03  0.25500000920E-02 0.  1.
       -2   -1    0    0    0  501  0.00000000000E+00  0.00000000000E+00 -0.30160593681E+04  0.30160593681E+04  0.25500000920E-02 0. -1.
    10030    2    1    2    0    0  0.00000000000E+00  0.00000000000E+00 -0.21518171101E+04  0.38803016261E+04  0.32289973419E+04 0.  0.
        2    1    3    3  502    0 -0.33099771301E+03  0.15631518455E+04 -0.79768656265E+03  0.17858631052E+04  0.25500000920E-02 0. -1.
       -2    1    3    3    0  502  0.33099771301E+03 -0.15631518455E+04 -0.13541305474E+04  0.20944385209E+04  0.25500000920E-02 0.  1.
</event>
<event>
 5   0  0.4995625E-07  0.3206326E+04  0.7818609E-02  0.8187149E-01
        3   -1    0    0  501    0  0.00000000000E+00  0.00000000000E+00  0.17430168138E+04  0.17430168167E+04  0.10100000352E+00 0. -1.
       -3   -1    0    0    0  501  0.00000000000E+00  0.00000000000E+00 -0.14745303184E+04  0.14745303219E+04  0.10100000352E+00 0.  1.
    10030    2    1    2    0    0  0.00000000000E+00  0.00000000000E+00  0.26848649542E+03  0.32175471386E+04  0.32063257150E+04 0.  0.
        4    1    3    3  502    0  0.99457726179E+03 -0.11769249402E+04  0.57827720355E+03  0.16458257446E+04  0.12699999809E+01 0.  1.
       -4    1    3    3    0  502 -0.99457726179E+03  0.11769249402E+04 -0.30979070813E+03  0.15717213940E+04  0.12699999809E+01 0. -1.
</event>
<event>
 5   0  0.5281187E-07  0.3201495E+04  0.7818609E-02  0.8188422E-01
        1   -1    0    0  501    0  0.00000000000E+00  0.00000000000E+00  0.21747166508E+04  0.21747166508E+04  0.50400001928E-02 0. -1.
       -1   -1    0    0    0  501  0.00000000000E+00  0.00000000000E+00 -0.11782652772E+04  0.11782652772E+04  0.50400001928E-02 0.  1.
    10030    2    1    2    0    0  0.00000000000E+00  0.00000000000E+00  0.99645137361E+03  0.33529819280E+04  0.32014953490E+04 0.  0.
        5    1    3    3  502    0 -0.69876833275E+03 -0.16875086435E+03  0.19961521679E+04  0.21216502078E+04  0.46999998093E+01 0. -1.
       -5    1    3    3    0  502  0.69876833275E+03  0.16875086435E+03 -0.99970079428E+03  0.12313317202E+04  0.46999998093E+01 0.  1.
</event>
<event>
 5   0  0.5317728E-07  0.3199777E+04  0.7818609E-02  0.8188876E-01
       -1   -1    0    0    0  501  0.00000000000E+00  0.00000000000E+00  0.26126942255E+04  0.26126942256E+04  0.50400001928E-02 0. -1.
        1   -1    0    0  501    0  0.00000000000E+00  0.00000000000E+00 -0.97969505840E+03  0.97969505842E+03  0.50400001928E-02 0.  1.
    10030    2    1    2    0    0  0.00000000000E+00  0.00000000000E+00  0.16329991671E+04  0.35923892840E+04  0.31997772559E+04 0.  0.
        2    1    3    3  502    0  0.61177754275E+03  0.60988157480E+03  0.23283624687E+04  0.24834450030E+04  0.25500000920E-02 0. -1.
       -2    1    3    3    0  502 -0.61177754275E+03 -0.60988157480E+03 -0.69536330159E+03  0.11089442810E+04  0.25500000920E-02 0.  1.
</event>
<event>
 5   0  0.5370912E-07  0.3186534E+04  0.7818609E-02  0.8192383E-01
       -1   -1    0    0    0  501  0.00000000000E+00  0.00000000000E+00  0.12954503353E+04  0.12954503354E+04  0.50400001928E-02 0. -1.
        1   -1    0    0  501    0  0.00000000000E+00  0.00000000000E+00 -0.19595503432E+04  0.19595503432E+04  0.50400001928E-02 0.  1.
    10030    2    1    2    0    0  0.00000000000E+00  0.00000000000E+00 -0.66410000788E+03  0.32550006786E+04  0.31865342611E+04 0.  0.
        1    1    3    3  502    0  0.23228487590E+02  0.44387715985E+03 -0.18949350785E+04  0.19463672437E+04  0.50400001928E-02 0.  1.
       -1    1    3    3    0  502 -0.23228487590E+02 -0.44387715985E+03  0.12308350706E+04  0.13086334348E+04  0.50400001928E-02 0. -1.
</event>
<event>
 5   0  0.1493485E-06  0.3194788E+04  0.7818609E-02  0.8190195E-01
        2   -1    0    0  501    0  0.00000000000E+00  0.00000000000E+00  0.26169585328E+04  0.26169585328E+04  0.25500000920E-02 0. -1.
       -2   -1    0    0    0  501  0.00000000000E+00  0.00000000000E+00 -0.97505081513E+03  0.97505081514E+03  0.25500000920E-02 0.  1.
    10030    2    1    2    0    0  0.00000000000E+00  0.00000000000E+00  0.16419077176E+04  0.35920093479E+04  0.31947879745E+04 0.  0.
        2    1    3    3  502    0 -0.17699766564E+03  0.90090397047E+03  0.22906575241E+04  0.24678063195E+04  0.25500000920E-02 0. -1.
       -2    1    3    3    0  502  0.17699766564E+03 -0.90090397047E+03 -0.64874980650E+03  0.11242030284E+04  0.25500000920E-02 0.  1.
</event>
<event>
 5   0  0.5370912E-07  0.3200681E+04  0.7818609E-02  0.8188637E-01
       -1   -1    0    0    0  501  0.00000000000E+00  0.00000000000E+00  0.12002799338E+04  0.12002799338E+04  0.50400001928E-02 0. -1.
        1   -1    0    0  501    0  0.00000000000E+00  0.00000000000E+00 -0.21337432378E+04  0.21337432378E+04  0.50400001928E-02 0.  1.
    10030    2    1    2    0    0  0.00000000000E+00  0.00000000000E+00 -0.93346330396E+03  0.33340231716E+04  0.32006806727E+04 0.  0.
        1    1    3    3  502    0 -0.77637723850E+03  0.32592283874E+03  0.95088466266E+03  0.12701058834E+04  0.50400001928E-02 0. -1.
       -1    1    3    3    0  502  0.77637723850E+03 -0.32592283874E+03 -0.18843479666E+04  0.20639172882E+04  0.50400001928E-02 0.  1.
</event>
<event>
 5   0  0.1572769E-06  0.3192384E+04  0.7818609E-02  0.8190832E-01
        2   -1    0    0  501    0  0.00000000000E+00  0.00000000000E+00  0.12328127136E+04  0.12328127136E+04  0.25500000920E-02 0. -1.
       -2   -1    0    0    0  501  0.00000000000E+00  0.00000000000E+00 -0.20666791867E+04  0.20666791867E+04  0.25500000920E-02 0.  1.
    10030    2    1    2    0    0  0.00000000000E+00  0.00000000000E+00 -0.83386647305E+03  0.32994919003E+04  0.31923836714E+04 0.  0.
        5    1    3    3  502    0 -0.49330341265E+03 -0.64738085664E+03 -0.18360844599E+04  0.20084019678E+04  0.46999998093E+01 0.  1.
       -5    1    3    3    0  502  0.49330341265E+03  0.64738085664E+03  0.10022179869E+04  0.12910899325E+04  0.46999998093E+01 0. -1.
</event>
<event>
 5   0  0.5177039E-07  0.3201516E+04  0.7818609E-02  0.8188417E-01
        1   -1    0    0  501    0  0.00000000000E+00  0.00000000000E+00  0.20356955676E+04  0.20356955676E+04  0.50400001928E-02 0.  1.
       -1   -1    0    0    0  501  0.00000000000E+00  0.00000000000E+00 -0.12587470325E+04  0.12587470325E+04  0.50400001928E-02 0. -1.
    10030    2    1    2    0    0  0.00000000000E+00  0.00000000000E+00  0.77694853512E+03  0.32944426002E+04  0.32015157378E+04 0.  0.
        3    1    3    3  502    0 -0.17063821331E+03 -0.11456373838E+04  0.15254539763E+04  0.19153621744E+04  0.10100000352E+00 0.  1.
       -3    1    3    3    0  502  0.17063821331E+03  0.11456373838E+04 -0.74850544116E+03  0.13790804258E+04  0.10100000352E+00 0. -1.
</event>
<event>
 5   0  0.4995625E-07  0.3225425E+04  0.7818609E-02  0.8182135E-01
       -3   -1    0    0    0  501  0.00000000000E+00  0.00000000000E+00  0.14006984966E+04  0.14006985002E+04  0.10100000352E+00 0. -1.
        3   -1    0    0  501    0  0.00000000000E+00  0.00000000000E+00 -0.18568174922E+04  0.18568174949E+04  0.10100000352E+00 0.  1.
    10030    2    1    2    0    0  0.00000000000E+00  0.00000000000E+00 -0.45611899555E+03  0.32575159951E+04  0.32254249209E+04 0.  0.
        2    1    3    3  502    0  0.14079437190E+04 -0.39849670361E+03  0.45672518480E+03  0.15328741087E+04  0.25500000920E-02 0.  1.
       -2    1    3    3    0  502 -0.14079437190E+04  0.39849670361E+03 -0.91284418036E+03  0.17246418864E+04  0.25500000920E-02 0. -1.
</event>
<event>
 5   0  0.5281187E-07  0.3190433E+04  0.7818609E-02  0.8191348E-01
        1   -1    0    0  501    0  0.00000000000E+00  0.00000000000E+00  0.22888109670E+04  0.22888109670E+04  0.50400001928E-02 0.  1.
       -1   -1    0    0    0  501  0.00000000000E+00  0.00000000000E+00 -0.11118064980E+04  0.11118064980E+04  0.50400001928E-02 0. -1.
    10030    2    1    2    0    0  0.00000000000E+00  0.00000000000E+00  0.11770044690E+04  0.34006174650E+04  0.31904325135E+04 0.  0.
        5    1    3    3  502    0 -0.12933557518E+03  0.34929638784E+03  0.22418041287E+04  0.22725411986E+04  0.46999998093E+01 0.  1.
       -5    1    3    3    0  502  0.12933557518E+03 -0.34929638784E+03 -0.10647996597E+04  0.11280762665E+04  0.46999998093E+01 0. -1.
</event>
<event>
 5   0  0.1493485E-06  0.3201298E+04  0.7818609E-02  0.8188474E-01
       -2   -1    0    0    0  501  0.00000000000E+00  0.00000000000E+00  0.10953786340E+04  0.10953786340E+04  0.25500000920E-02 0.  1.
        2   -1    0    0  501    0  0.00000000000E+00  0.00000000000E+00 -0.23389882859E+04  0.23389882859E+04  0.25500000920E-02 0. -1.
    10030    2    1    2    0    0  0.00000000000E+00  0.00000000000E+00 -0.12436096519E+04  0.34343669198E+04  0.32012983575E+04 0.  0.
        2    1    3    3  502    0  0.12356237855E+04  0.10114477951E+03 -0.17079796059E+04  0.21104953778E+04  0.25500000920E-02 0. -1.
       -2    1    3    3    0  502 -0.12356237855E+04 -0.10114477951E+03  0.46436995393E+03  0.13238715420E+04  0.25500000920E-02 0.  1.
</event>
<event>
 5   0  0.4995625E-07  0.3164816E+04  0.7818609E-02  0.8198172E-01
        3   -1    0    0  501    0  0.00000000000E+00  0.00000000000E+00  0.14898880484E+04  0.14898880519E+04  0.10100000352E+00 0.  1.
       -3   -1    0    0    0  501  0.00000000000E+00  0.00000000000E+00 -0.16806727949E+04  0.16806727980E+04  0.10100000352E+00 0. -1.
    10030    2    1    2    0    0  0.00000000000E+00  0.00000000000E+00 -0.19078474649E+03  0.31705608498E+04  0.31648155211E+04 0.  0.
        4    1    3    3  502    0 -0.14510052439E+04 -0.28466889249E+03  0.46915535709E+03  0.15513094334E+04  0.12699999809E+01 0.  1.
       -4    1    3    3    0  502  0.14510052439E+04  0.28466889249E+03 -0.65994010358E+03  0.16192514164E+04  0.12699999809E+01 0. -1.
</event>
<event>
 5   0  0.5370912E-07  0.3115856E+04  0.7818609E-02  0.8211400E-01
       -1   -1    0    0    0  501  0.00000000000E+00  0.00000000000E+00  0.17933495645E+04  0.17933495645E+04  0.50400001928E-02 0.  1.
        1   -1    0    0  501    0  0.00000000000E+00  0.00000000000E+00 -0.13534110606E+04  0.13534110606E+04  0.50400001928E-02 0. -1.
    10030    2    1    2    0    0  0.00000000000E+00  0.00000000000E+00  0.43993850396E+03  0.31467606251E+04  0.31158556681E+04 0.  0.
        1    1    3    3  502    0  0.95937131635E+03  0.10158982018E+04 -0.47584682937E+03  0.14761004993E+04  0.50400001928E-02 0. -1.
       -1    1    3    3    0  502 -0.95937131635E+03 -0.10158982018E+04  0.91578533334E+03  0.16706601258E+04  0.50400001928E-02 0.  1.
</event>
<event>
 5   0  0.1493485E-06  0.3193426E+04  0.7818609E-02  0.8190556E-01
        2   -1    0    0  501    0  0.00000000000E+00  0.00000000000E+00  0.20004571452E+04  0.20004571452E+04  0.25500000920E-02 0.  1.
       -2   -1    0    0    0  501  0.00000000000E+00  0.00000000000E+00 -0.12744548886E+04  0.12744548886E+04  0.25500000920E-02 0. -1.
    10030    2    1    2    0    0  0.00000000000E+00  0.00000000000E+00  0.72600225660E+03  0.32749120338E+04  0.31934259899E+04 0.  0.
        2    1    3    3  502    0  0.78506812491E+03 -0.13881511662E+04  0.28227290840E+03  0.16195596981E+04  0.25500000920E-02 0.  1.
       -2    1    3    3    0  502 -0.78506812491E+03  0.13881511662E+04  0.44372934821E+03  0.16553523357E+04  0.25500000920E-02 0. -1.
</event>
<event>
 5   0  0.5317728E-07  0.3225487E+04  0.7818609E-02  0.8182118E-01
       -1   -1    0    0    0  501  0.00000000000E+00  0.00000000000E+00  0.11351595635E+04  0.11351595635E+04  0.50400001928E-02 0.  1.
        1   -1    0    0  501    0  0.00000000000E+00  0.00000000000E+00 -0.22912570912E+04  0.22912570912E+04  0.50400001928E-02 0. -1.
    10030    2    1    2    0    0  0.00000000000E+00  0.00000000000E+00 -0.11560975277E+04  0.34264166548E+04  0.32254874978E+04 0.  0.
        2    1    3    3  502    0  0.10620193157E+04  0.12423068314E+03 -0.18605789071E+04  0.21459431863E+04  0.25500000920E-02 0. -1.
       -2    1    3    3    0  502 -0.10620193157E+04 -0.12423068314E+03  0.70448137936E+03  0.12804734684E+04  0.25500000920E-02 0.  1.
</event>
<event>
 5   0  0.5317728E-07  0.3241345E+04  0.7818609E-02  0.8177983E-01
        1   -1    0    0  501    0  0.00000000000E+00  0.00000000000E+00  0.18553577149E+04  0.18553577149E+04  0.50400001928E-02 0. -1.
       -1   -1    0    0    0  501  0.00000000000E+00  0.00000000000E+00 -0.14156728594E+04  0.14156728594E+04  0.50400001928E-02 0.  1.
    10030    2    1    2    0    0  0.00000000000E+00  0.00000000000E+00  0.43968485549E+03  0.32710305744E+04  0.32413451292E+04 0.  0.
        2    1    3    3  502    0  0.14558349893E+04  0.38133259222E+03 -0.38708852288E+03  0.15539329414E+04  0.25500000920E-02 0.  1.
       -2    1    3    3    0  502 -0.14558349893E+04 -0.38133259222E+03  0.82677337837E+03  0.17170976330E+04  0.25500000920E-02 0. -1.
</event>
<event>
 5   0  0.5233813E-07  0.3207451E+04  0.7818609E-02  0.8186852E-01
       -1   -1    0    0    0  501  0.00000000000E+00  0.00000000000E+00  0.18469966304E+04  0.18469966304E+04  0.50400001928E-02 0.  1.
        1   -1    0    0  501    0  0.00000000000E+00  0.00000000000E+00 -0.13924961162E+04  0.13924961162E+04  0.50400001928E-02 0. -1.
    10030    2    1    2    0    0  0.00000000000E+00  0.00000000000E+00  0.45450051420E+03  0.32394927467E+04  0.32074510968E+04 0.  0.
        4    1    3    3  502    0  0.14663026068E+04 -0.30173348710E+03  0.80818982294E+03  0.17012521374E+04  0.12699999809E+01 0.  1.
       -4    1    3    3    0  502 -0.14663026068E+04  0.30173348710E+03 -0.35368930875E+03  0.15382406093E+04  0.12699999809E+01 0. -1.
</event>
<event>
 5   0  0.5233813E-07  0.3241542E+04  0.7818609E-02  0.8177931E-01
       -1   -1    0    0    0  501  0.00000000000E+00  0.00000000000E+00  0.10285330827E+04  0.10285330827E+04  0.50400001928E-02 0. -1.
        1   -1    0    0  501    0  0.00000000000E+00  0.00000000000E+00 -0.25540243881E+04  0.25540243881E+04  0.50400001928E-02 0.  1.
    10030    2    1    2    0    0  0.00000000000E+00  0.00000000000E+00 -0.15254913054E+04  0.35825574708E+04  0.32415419646E+04 0.  0.
        4    1    3    3  502    0  0.54944516438E+03  0.15224034412E+04 -0.85714008028E+03  0.18314728927E+04  0.12699999809E+01 0. -1.
       -4    1    3    3    0  502 -0.54944516438E+03 -0.15224034412E+04 -0.66835122515E+03  0.17510845781E+04  0.12699999809E+01 0.  1.
</event>
<event>
 5   0  0.5281187E-07  0.3245114E+04  0.7818609E-02  0.8177003E-01
        1   -1    0    0  501    0  0.00000000000E+00  0.00000000000E+00  0.21304652481E+04  0.21304652481E+04  0.50400001928E-02 0.  1.
       -1   -1    0    0    0  501  0.00000000000E+00  0.00000000000E+00 -0.12357350396E+04  0.12357350396E+04  0.50400001928E-02 0. -1.
    10030    2    1    2    0    0  0.00000000000E+00  0.00000000000E+00  0.89473020849E+03  0.33662002876E+04  0.32451135928E+04 0.  0.
        5    1    3    3  502    0 -0.45576428252E+03 -0.11265327808E+04 -0.66786577432E+03  0.13866737071E+04  0.46999998093E+01 0. -1.
       -5    1    3    3    0  502  0.45576428252E+03  0.11265327808E+04  0.15625959828E+04  0.19795265805E+04  0.46999998093E+01 0.  1.
</event>
<event>
 5   0  0.5177039E-07  0.3205487E+04  0.7818609E-02  0.8187370E-01
       -1   -1    0    0    0  501  0.00000000000E+00  0.00000000000E+00  0.12052816963E+04  0.12052816963E+04  0.50400001928E-02 0.  1.
        1   -1    0    0  501    0  0.00000000000E+00  0.00000000000E+00 -0.21312744273E+04  0.21312744273E+04  0.50400001928E-02 0. -1.
    10030    2    1    2    0    0  0.00000000000E+00  0.00000000000E+00 -0.92599273103E+03  0.33365561236E+04  0.32054865821E+04 0.  0.
        3    1    3    3  502    0 -0.48643385530E+03  0.15151430930E+04 -0.26410873915E+03  0.16130808796E+04  0.10100000352E+00 0.  1.
       -3    1    3    3    0  502  0.48643385530E+03 -0.15151430930E+04 -0.66188399188E+03  0.17234752440E+04  0.10100000352E+00 0. -1.
</event>
<event>
 5   0  0.1572769E-06  0.3194128E+04  0.7818609E-02  0.8190370E-01
       -2   -1    0    0    0  501  0.00000000000E+00  0.00000000000E+00  0.13578962437E+04  0.13578962437E+04  0.25500000920E-02 0.  1.
        2   -1    0    0  501    0  0.00000000000E+00  0.00000000000E+00 -0.18783572116E+04  0.18783572116E+04  0.25500000920E-02 0. -1.
    10030    2    1    2    0    0  0.00000000000E+00  0.00000000000E+00 -0.52046096789E+03  0.32362534553E+04  0.31941284896E+04 0.  0.
        5    1    3    3  502    0  0.71179255930E+03 -0.13353047278E+04 -0.77775524834E+03  0.17013561297E+04  0.46999998093E+01 0.  1.
       -5    1    3    3    0  502 -0.71179255930E+03  0.13353047278E+04  0.25729428045E+03  0.15348973257E+04  0.46999998093E+01 0. -1.
</event>
<event>
 5   0  0.5281187E-07  0.3209641E+04  0.7818609E-02  0.8186276E-01
       -1   -1    0    0    0  501  0.00000000000E+00  0.00000000000E+00  0.12610014251E+04  0.12610014251E+04  0.50400001928E-02 0.  1.
        1   -1    0    0  501    0  0.00000000000E+00  0.00000000000E+00 -0.20423835444E+04  0.20423835444E+04  0.50400001928E-02 0. -1.
    10030    2    1    2    0    0  0.00000000000E+00  0.00000000000E+00 -0.78138211928E+03  0.33033849695E+04  0.32096408273E+04 0.  0.
        5    1    3    3  502    0  0.26212143531E+02 -0.11592756445E+04  0.75113490524E+03  0.13816051651E+04  0.46999998093E+01 0.  1.
       -5    1    3    3    0  502 -0.26212143531E+02  0.11592756445E+04 -0.15325170245E+04  0.19217798044E+04  0.46999998093E+01 0. -1.
</event>
<event>
 5   0  0.1538349E-06  0.3221309E+04  0.7818609E-02  0.8183212E-01
       -2   -1    0    0    0  501  0.00000000000E+00  0.00000000000E+00  0.17079347863E+04  0.17079347863E+04  0.25500000920E-02 0. -1.
        2   -1    0    0  501    0  0.00000000000E+00  0.00000000000E+00 -0.15189147404E+04  0.15189147404E+04  0.25500000920E-02 0.  1.
    10030    2    1    2    0    0  0.00000000000E+00  0.00000000000E+00  0.18902004591E+03  0.32268495268E+04  0.32213086301E+04 0.  0.
        1    1    3    3  502    0  0.96152391204E+03 -0.41578480214E+03 -0.11310330174E+04  0.15416357940E+04  0.50400001928E-02 0.  1.
       -1    1    3    3    0  502 -0.96152391204E+03  0.41578480214E+03  0.13200530633E+04  0.16852137327E+04  0.50400001928E-02 0. -1.
</event>
<event>
 5   0  0.5177039E-07  0.3158213E+04  0.7818609E-02  0.8199941E-01
       -1   -1    0    0    0  501  0.00000000000E+00  0.00000000000E+00  0.96274715702E+03  0.96274715703E+03  0.50400001928E-02 0. -1.
        1   -1    0    0  501    0  0.00000000000E+00  0.00000000000E+00 -0.25900654171E+04  0.25900654171E+04  0.50400001928E-02 0.  1.
    10030    2    1    2    0    0  0.00000000000E+00  0.00000000000E+00 -0.16273182601E+04  0.35528125741E+04  0.31582134930E+04 0.  0.
        3    1    3    3  502    0 -0.41323819768E+03  0.64967822389E+03 -0.23645851594E+04  0.24867872022E+04  0.10100000352E+00 0.  1.
       -3    1    3    3    0  502  0.41323819768E+03 -0.64967822389E+03  0.73726689932E+03  0.10660253720E+04  0.10100000352E+00 0. -1.
</event>
<event>
 5   0  0.5233813E-07  0.3196362E+04  0.7818609E-02  0.8189779E-01
        1   -1    0    0  501    0  0.00000000000E+00  0.00000000000E+00  0.25608379658E+04  0.25608379658E+04  0.50400001928E-02 0. -1.
       -1   -1    0    0    0  501  0.00000000000E+00  0.00000000000E+00 -0.99740099063E+03  0.99740099064E+03  0.50400001928E-02 0.  1.
    10030    2    1    2    0    0  0.00000000000E+00  0.00000000000E+00  0.15634369752E+04  0.35582389565E+04  0.31963618844E+04 0.  0.
        4    1    3    3  502    0  0.96711066037E+03  0.82206907431E+03  0.18627876063E+04  0.22541250790E+04  0.12699999809E+01 0. -1.
       -4    1    3    3    0  502 -0.96711066037E+03 -0.82206907431E+03 -0.29935063113E+03  0.13041138775E+04  0.12699999809E+01 0.  1.
</event>
<event>
 5   0  0.1538349E-06  0.3174929E+04  0.7818609E-02  0.8195470E-01
        2   -1    0    0  501    0  0.00000000000E+00  0.00000000000E+00  0.23748728027E+04  0.23748728027E+04  0.25500000920E-02 0. -1.
       -2   -1    0    0    0  501  0.00000000000E+00  0.00000000000E+00 -0.10611276919E+04  0.10611276919E+04  0.25500000920E-02 0.  1.
    10030    2    1    2    0    0  0.00000000000E+00  0.00000000000E+00  0.13137451108E+04  0.34360004946E+04  0.31749288469E+04 0.  0.
        1    1    3    3  502    0 -0.20679828983E+03 -0.47957033902E+02  0.23594421854E+04  0.23689729496E+04  0.50400001928E-02 0. -1.
       -1    1    3    3    0  502  0.20679828983E+03  0.47957033902E+02 -0.10456970746E+04  0.10670275450E+04  0.50400001928E-02 0.  1.
</event>
<event>
 5   0  0.1556396E-06  0.3168934E+04  0.7818609E-02  0.8197070E-01
        2   -1    0    0  501    0  0.00000000000E+00  0.00000000000E+00  0.17305462466E+04  0.17305462466E+04  0.25500000920E-02 0.  1.
       -2   -1    0    0    0  501  0.00000000000E+00  0.00000000000E+00 -0.14507189223E+04  0.14507189223E+04  0.25500000920E-02 0. -1.
    10030    2    1    2    0    0  0.00000000000E+00  0.00000000000E+00  0.27982732439E+03  0.31812651689E+04  0.31689343230E+04 0.  0.
        3    1    3    3  502    0 -0.39845423045E+03 -0.82186892954E+03  0.14396724012E+04  0.17049606869E+04  0.10100000352E+00 0.  1.
       -3    1    3    3    0  502  0.39845423045E+03  0.82186892954E+03 -0.11598450768E+04  0.14763044820E+04  0.10100000352E+00 0. -1.
</event>
<event>
 5   0  0.1538349E-06  0.3177320E+04  0.7818609E-02  0.8194833E-01
        2   -1    0    0  501    0  0.00000000000E+00  0.00000000000E+00  0.23159901837E+04  0.23159901837E+04  0.25500000920E-02 0.  1.
       -2   -1    0    0    0  501  0.00000000000E+00  0.00000000000E+00 -0.10897460470E+04  0.10897460470E+04  0.25500000920E-02 0. -1.
    10030    2    1    2    0    0  0.00000000000E+00  0.00000000000E+00  0.12262441368E+04  0.34057362307E+04  0.31773203475E+04 0.  0.
        1    1    3    3  502    0 -0.13751441625E+04 -0.41824198986E+03  0.13384462528E+04  0.19640229636E+04  0.50400001928E-02 0.  1.
       -1    1    3    3    0  502  0.13751441625E+04  0.41824198986E+03 -0.11220211605E+03  0.14417132671E+04  0.50400001928E-02 0. -1.
</event>
<event>
 5   0  0.1556396E-06  0.3233211E+04  0.7818609E-02  0.8180101E-01
        2   -1    0    0  501    0  0.00000000000E+00  0.00000000000E+00  0.13739941815E+04  0.13739941815E+04  0.25500000920E-02 0.  1.
       -2   -1    0    0    0  501  0.00000000000E+00  0.00000000000E+00 -0.19020557317E+04  0.19020557317E+04  0.25500000920E-02 0. -1.
    10030    2    1    2    0    0  0.00000000000E+00  0.00000000000E+00 -0.52806155013E+03  0.32760499132E+04  0.32332111024E+04 0.  0.
        3    1    3    3  502    0  0.15922228148E+04 -0.25402558855E+03 -0.14538531802E+03  0.16189006741E+04  0.10100000352E+00 0. -1.
       -3    1    3    3    0  502 -0.15922228148E+04  0.25402558855E+03 -0.38267623211E+03  0.16571492391E+04  0.10100000352E+00 0.  1.
</event>
<event>
 5   0  0.1493485E-06  0.3177774E+04  0.7818609E-02  0.8194712E-01
       -2   -1    0    0    0  501  0.00000000000E+00  0.00000000000E+00  0.13136075565E+04  0.13136075565E+04  0.25500000920E-02 0.  1.
        2   -1    0    0  501    0  0.00000000000E+00  0.00000000000E+00 -0.19218534815E+04  0.19218534815E+04  0.25500000920E-02 0. -1.
    10030    2    1    2    0    0  0.00000000000E+00  0.00000000000E+00 -0.60824592509E+03  0.32354610380E+04  0.31777735953E+04 0.  0.
        2    1    3    3  502    0  0.79129095215E+03 -0.12396981297E+04 -0.91634431892E+03  0.17328242076E+04  0.25500000920E-02 0. -1.
       -2    1    3    3    0  502 -0.79129095215E+03  0.12396981297E+04  0.30809839383E+03  0.15026368304E+04  0.25500000920E-02 0.  1.
</event>
<event>
 5   0  0.1538349E-06  0.3163890E+04  0.7818609E-02  0.8198419E-01
        2   -1    0    0  501    0  0.00000000000E+00  0.00000000000E+00  0.22033120072E+04  0.22033120072E+04  0.25500000920E-02 0.  1.
       -2   -1    0    0    0  501  0.00000000000E+00  0.00000000000E+00 -0.11358129733E+04  0.11358129733E+04  0.25500000920E-02 0. -1.
    10030    2    1    2    0    0  0.00000000000E+00  0.00000000000E+00  0.10674990339E+04  0.33391249805E+04  0.31638902395E+04 0.  0.
        1    1    3    3  502    0 -0.62028656580E+02  0.14687988623E+04  0.11503448313E+04  0.18666844627E+04  0.50400001928E-02 0. -1.
       -1    1    3    3    0  502  0.62028656580E+02 -0.14687988623E+04 -0.82845797344E+02  0.14724405178E+04  0.50400001928E-02 0.  1.
</event>
<event>
 5   0  0.5281187E-07  0.3224805E+04  0.7818609E-02  0.8182297E-01
       -1   -1    0    0    0  501  0.00000000000E+00  0.00000000000E+00  0.22774555167E+04  0.22774555167E+04  0.50400001928E-02 0. -1.
        1   -1    0    0  501    0  0.00000000000E+00  0.00000000000E+00 -0.11415558319E+04  0.11415558319E+04  0.50400001928E-02 0.  1.
    10030    2    1    2    0    0  0.00000000000E+00  0.00000000000E+00  0.11358996847E+04  0.34190113486E+04  0.32248054993E+04 0.  0.
        5    1    3    3  502    0 -0.10690164876E+04 -0.28034777345E+03 -0.67682064293E+03  0.12959550137E+04  0.46999998093E+01 0.  1.
       -5    1    3    3    0  502  0.10690164876E+04  0.28034777345E+03  0.18127203277E+04  0.21230563349E+04  0.46999998093E+01 0. -1.
</event>
<event>
 5   0  0.5281187E-07  0.3201533E+04  0.7818609E-02  0.8188413E-01
       -1   -1    0    0    0  501  0.00000000000E+00  0.00000000000E+00  0.16721697880E+04  0.16721697880E+04  0.50400001928E-02 0.  1.
        1   -1    0    0  501    0  0.00000000000E+00  0.00000000000E+00 -0.15324117699E+04  0.15324117699E+04  0.50400001928E-02 0. -1.
    10030    2    1    2    0    0  0.00000000000E+00  0.00000000000E+00  0.13975801813E+03  0.32045815580E+04  0.32015325483E+04 0.  0.
        5    1    3    3  502    0 -0.36498275631E+03 -0.15264380395E+04 -0.24538932349E+03  0.15885413154E+04  0.46999998093E+01 0.  1.
       -5    1    3    3    0  502  0.36498275631E+03  0.15264380395E+04  0.38514734162E+03  0.16160402425E+04  0.46999998093E+01 0. -1.
</event>
<event>
 5   0  0.1493485E-06  0.3103117E+04  0.7818609E-02  0.8214883E-01
        2   -1    0    0  501    0  0.00000000000E+00  0.00000000000E+00  0.15911112295E+04  0.15911112295E+04  0.25500000920E-02 0.  1.
       -2   -1    0    0    0  501  0.00000000000E+00  0.00000000000E+00 -0.15129890624E+04  0.15129890624E+04  0.25500000920E-02 0. -1.
    10030    2    1    2    0    0  0.00000000000E+00  0.00000000000E+00  0.78122167132E+02  0.31041002918E+04  0.31031170698E+04 0.  0.
        2    1    3    3  502    0  0.81560510796E+03 -0.86412381335E+03 -0.95895851671E+03  0.15269325767E+04  0.25500000920E-02 0. -1.
       -2    1    3    3    0  502 -0.81560510796E+03  0.86412381335E+03  0.10370806838E+04  0.15771677152E+04  0.25500000920E-02 0.  1.
</event>
<event>
 5   0  0.5177039E-07  0.3204869E+04  0.7818609E-02  0.8187533E-01
       -1   -1    0    0    0  501  0.00000000000E+00  0.00000000000E+00  0.24398495767E+04  0.24398495767E+04  0.50400001928E-02 0. -1.
        1   -1    0    0  501    0  0.00000000000E+00  0.00000000000E+00 -0.10524402026E+04  0.10524402026E+04  0.50400001928E-02 0.  1.
    10030    2    1    2    0    0  0.00000000000E+00  0.00000000000E+00  0.13874093741E+04  0.34922897793E+04  0.32048686605E+04 0.  0.
        3    1    3    3  502    0 -0.11487528954E+03  0.14482633889E+04 -0.43046988011E+02  0.14534497684E+04  0.10100000352E+00 0.  1.
       -3    1    3    3    0  502  0.11487528954E+03 -0.14482633889E+04  0.14304563622E+04  0.20388400109E+04  0.10100000352E+00 0. -1.
</event>
<event>
 5   0  0.5281187E-07  0.3201557E+04  0.7818609E-02  0.8188406E-01
        1   -1    0    0  501    0  0.00000000000E+00  0.00000000000E+00  0.16280531582E+04  0.16280531582E+04  0.50400001928E-02 0. -1.
       -1   -1    0    0    0  501  0.00000000000E+00  0.00000000000E+00 -0.15739612164E+04  0.15739612164E+04  0.50400001928E-02 0.  1.
    10030    2    1    2    0    0  0.00000000000E+00  0.00000000000E+00  0.54091941846E+02  0.32020143746E+04  0.32015574517E+04 0.  0.
        5    1    3    3  502    0 -0.11761718840E+04 -0.90510429560E+03  0.62702853912E+03  0.16111427515E+04  0.46999998093E+01 0. -1.
       -5    1    3    3    0  502  0.11761718840E+04  0.90510429560E+03 -0.57293659728E+03  0.15908716231E+04  0.46999998093E+01 0.  1.
</event>
<event>
 5   0  0.1572769E-06  0.3127989E+04  0.7818609E-02  0.8208098E-01
       -2   -1    0    0    0  501  0.00000000000E+00  0.00000000000E+00  0.11527627379E+04  0.11527627379E+04  0.25500000920E-02 0.  1.
        2   -1    0    0  501    0  0.00000000000E+00  0.00000000000E+00 -0.21219275874E+04  0.21219275874E+04  0.25500000920E-02 0. -1.
    10030    2    1    2    0    0  0.00000000000E+00  0.00000000000E+00 -0.96916484956E+03  0.32746903253E+04  0.31279891658E+04 0.  0.
        5    1    3    3  502    0  0.71166285697E+03  0.60812659011E+03 -0.17962497495E+04  0.20255412176E+04  0.46999998093E+01 0. -1.
       -5    1    3    3    0  502 -0.71166285697E+03 -0.60812659011E+03  0.82708489996E+03  0.12491491077E+04  0.46999998093E+01 0.  1.
</event>
<event>
 5   0  0.1556396E-06  0.3189187E+04  0.7818609E-02  0.8191679E-01
        2   -1    0    0  501    0  0.00000000000E+00  0.00000000000E+00  0.20575195441E+04  0.20575195441E+04  0.25500000920E-02 0.  1.
       -2   -1    0    0    0  501  0.00000000000E+00  0.00000000000E+00 -0.12358218968E+04  0.12358218968E+04  0.25500000920E-02 0. -1.
    10030    2    1    2    0    0  0.00000000000E+00  0.00000000000E+00  0.82169764727E+03  0.32933414409E+04  0.31891865456E+04 0.  0.
        3    1    3    3  502    0  0.27881546566E+03  0.10627021649E+04  0.16042975851E+04  0.19444394326E+04  0.10100000352E+00 0.  1.
       -3    1    3    3    0  502 -0.27881546566E+03 -0.10627021649E+04 -0.78259993783E+03  0.13489020083E+04  0.10100000352E+00 0. -1.
</event>
<event>
 5   0  0.5281187E-07  0.3187932E+04  0.7818609E-02  0.8192012E-01
       -1   -1    0    0    0  501  0.00000000000E+00  0.00000000000E+00  0.23846720677E+04  0.23846720677E+04  0.50400001928E-02 0. -1.
        1   -1    0    0  501    0  0.00000000000E+00  0.00000000000E+00 -0.10654410862E+04  0.10654410862E+04  0.50400001928E-02 0.  1.
    10030    2    1    2    0    0  0.00000000000E+00  0.00000000000E+00  0.13192309815E+04  0.34501131539E+04  0.31879319930E+04 0.  0.
        5    1    3    3  502    0  0.58503288789E+03 -0.97376558620E+03 -0.55047532659E+03  0.12623502176E+04  0.46999998093E+01 0.  1.
       -5    1    3    3    0  502 -0.58503288789E+03  0.97376558620E+03  0.18697063081E+04  0.21877629363E+04  0.46999998093E+01 0. -1.
</event>
<event>
 5   0  0.1493485E-06  0.3081392E+04  0.7818609E-02  0.8220863E-01
       -2   -1    0    0    0  501  0.00000000000E+00  0.00000000000E+00  0.99561110211E+03  0.99561110212E+03  0.25500000920E-02 0. -1.
        2   -1    0    0  501    0  0.00000000000E+00  0.00000000000E+00 -0.23842076821E+04  0.23842076821E+04  0.25500000920E-02 0.  1.
    10030    2    1    2    0    0  0.00000000000E+00  0.00000000000E+00 -0.13885965800E+04  0.33798187842E+04  0.30813916584E+04 0.  0.
        2    1    3    3  502    0 -0.72633164935E+03  0.14676398929E+02 -0.21845474990E+04  0.23021774121E+04  0.25500000920E-02 0.  1.
       -2    1    3    3    0  502  0.72633164935E+03 -0.14676398929E+02  0.79595091896E+03  0.10776413721E+04  0.25500000920E-02 0. -1.
</event>
<event>
 5   0  0.5370912E-07  0.3510472E+04  0.7818609E-02  0.8111313E-01
       -1   -1    0    0    0  501  0.00000000000E+00  0.00000000000E+00  0.10517913292E+04  0.10517913292E+04  0.50400001928E-02 0.  1.
        1   -1    0    0  501    0  0.00000000000E+00  0.00000000000E+00 -0.29291494907E+04  0.29291494907E+04  0.50400001928E-02 0. -1.
    10030    2    1    2    0    0  0.00000000000E+00  0.00000000000E+00 -0.18773581615E+04  0.39809408200E+04  0.35104723536E+04 0.  0.
        1    1    3    3  502    0 -0.14695548490E+04  0.68116969105E+03 -0.17055225535E+04  0.23521034805E+04  0.50400001928E-02 0. -1.
       -1    1    3    3    0  502  0.14695548490E+04 -0.68116969105E+03 -0.17183560799E+03  0.16288373395E+04  0.50400001928E-02 0.  1.
</event>
<event>
 5   0  0.1538349E-06  0.3161134E+04  0.7818609E-02  0.8199158E-01
       -2   -1    0    0    0  501  0.00000000000E+00  0.00000000000E+00  0.11149398182E+04  0.11149398182E+04  0.25500000920E-02 0.  1.
        2   -1    0    0  501    0  0.00000000000E+00  0.00000000000E+00 -0.22406519854E+04  0.22406519854E+04  0.25500000920E-02 0. -1.
    10030    2    1    2    0    0  0.00000000000E+00  0.00000000000E+00 -0.11257121672E+04  0.33555918037E+04  0.31611340480E+04 0.  0.
        1    1    3    3  502    0 -0.96195383437E+02  0.26595746984E+03 -0.22135737029E+04  0.22315679389E+04  0.50400001928E-02 0. -1.
       -1    1    3    3    0  502  0.96195383437E+02 -0.26595746984E+03  0.10878615358E+04  0.11240238648E+04  0.50400001928E-02 0.  1.
</event>
<event>
 5   0  0.5317728E-07  0.3209367E+04  0.7818609E-02  0.8186348E-01
        1   -1    0    0  501    0  0.00000000000E+00  0.00000000000E+00  0.26728301691E+04  0.26728301691E+04  0.50400001928E-02 0.  1.
       -1   -1    0    0    0  501  0.00000000000E+00  0.00000000000E+00 -0.96340179662E+03  0.96340179663E+03  0.50400001928E-02 0. -1.
    10030    2    1    2    0    0  0.00000000000E+00  0.00000000000E+00  0.17094283725E+04  0.36362319658E+04  0.32093671569E+04 0.  0.
        2    1    3    3  502    0  0.11816518314E+03  0.33335274101E+03  0.26281208423E+04  0.26518118753E+04  0.25500000920E-02 0.  1.
       -2    1    3    3    0  502 -0.11816518314E+03 -0.33335274101E+03 -0.91869246977E+03  0.98442009044E+03  0.25500000920E-02 0. -1.
</event>
<event>
 5   0  0.5177039E-07  0.3199343E+04  0.7818609E-02  0.8188991E-01
        1   -1    0    0  501    0  0.00000000000E+00  0.00000000000E+00  0.16131530449E+04  0.16131530449E+04  0.50400001928E-02 0. -1.
       -1   -1    0    0    0  501  0.00000000000E+00  0.00000000000E+00 -0.15863021390E+04  0.15863021390E+04  0.50400001928E-02 0.  1.
    10030    2    1    2    0    0  0.00000000000E+00  0.00000000000E+00  0.26850905907E+02  0.31994551840E+04  0.31993425111E+04 0.  0.
        3    1    3    3  502    0 -0.80019921096E+02  0.87719994577E+03  0.13487871176E+04  0.16109343970E+04  0.10100000352E+00 0. -1.
       -3    1    3    3    0  502  0.80019921096E+02 -0.87719994577E+03 -0.13219362117E+04  0.15885207870E+04  0.10100000352E+00 0.  1.
</event>
<event>
 5   0  0.5281187E-07  0.3176079E+04  0.7818609E-02  0.8195163E-01
       -1   -1    0    0    0  501  0.00000000000E+00  0.00000000000E+00  0.15562900809E+04  0.15562900809E+04  0.50400001928E-02 0.  1.
        1   -1    0    0  501    0  0.00000000000E+00  0.00000000000E+00 -0.16204367076E+04  0.16204367076E+04  0.50400001928E-02 0. -1.
    10030    2    1    2    0    0  0.00000000000E+00  0.00000000000E+00 -0.64146626667E+02  0.31767267885E+04  0.31760790764E+04 0.  0.
        5    1    3    3  502    0  0.85010013487E+03 -0.28334645538E+03  0.12792592860E+04  0.15618840751E+04  0.46999998093E+01 0.  1.
       -5    1    3    3    0  502 -0.85010013487E+03  0.28334645538E+03 -0.13434059127E+04  0.16148427135E+04  0.46999998093E+01 0. -1.
</event>
<event>
 5   0  0.5317728E-07  0.3224406E+04  0.7818609E-02  0.8182401E-01
       -1   -1    0    0    0  501  0.00000000000E+00  0.00000000000E+00  0.17466852956E+04  0.17466852956E+04  0.50400001928E-02 0. -1.
        1   -1    0    0  501    0  0.00000000000E+00  0.00000000000E+00 -0.14880746843E+04  0.14880746843E+04  0.50400001928E-02 0.  1.
    10030    2    1    2    0    0  0.00000000000E+00  0.00000000000E+00  0.25861061127E+03  0.32347599799E+04  0.32244057871E+04 0.  0.
        2    1    3    3  502    0 -0.14809183504E+04  0.43472966575E+02  0.76710553914E+03  0.16683704527E+04  0.25500000920E-02 0.  1.
       -2    1    3    3    0  502  0.14809183504E+04 -0.43472966575E+02 -0.50849492787E+03  0.15663895272E+04  0.25500000920E-02 0. -1.
</event>
<event>
 5   0  0.1508771E-06  0.2937578E+04  0.7818609E-02  0.8261784E-01
       -2   -1    0    0    0  501  0.00000000000E+00  0.00000000000E+00  0.17985580400E+04  0.17985580400E+04  0.25500000920E-02 0.  1.
        2   -1    0    0  501    0  0.00000000000E+00  0.00000000000E+00 -0.11994835845E+04  0.11994835845E+04  0.25500000920E-02 0. -1.
    10030    2    1    2    0    0  0.00000000000E+00  0.00000000000E+00  0.59907445554E+03  0.29980416245E+04  0.29375778081E+04 0.  0.
        4    1    3    3  502    0 -0.16450997526E+03 -0.14239521874E+04  0.62649966258E+03  0.15643550761E+04  0.12699999809E+01 0.  1.
       -4    1    3    3    0  502  0.16450997526E+03  0.14239521874E+04 -0.27425207037E+02  0.14336865484E+04  0.12699999809E+01 0. -1.
</event>
<event>
 5   0  0.5233813E-07  0.3211454E+04  0.7818609E-02  0.8185799E-01
       -1   -1    0    0    0  501  0.00000000000E+00  0.00000000000E+00  0.13429846848E+04  0.13429846848E+04  0.50400001928E-02 0. -1.
        1   -1    0    0  501    0  0.00000000000E+00  0.00000000000E+00 -0.19198723628E+04  0.19198723628E+04  0.50400001928E-02 0.  1.
    10030    2    1    2    0    0  0.00000000000E+00  0.00000000000E+00 -0.57688767801E+03  0.32628570476E+04  0.32114539884E+04 0.  0.
        4    1    3    3  502    0 -0.35748458939E+03 -0.12223701195E+04  0.70515285625E+03  0.14557561967E+04  0.12699999809E+01 0. -1.
       -4    1    3    3    0  502  0.35748458939E+03  0.12223701195E+04 -0.12820405343E+04  0.18071008508E+04  0.12699999809E+01 0.  1.
</event>
<event>
 5   0  0.5281187E-07  0.3197176E+04  0.7818609E-02  0.8189563E-01
       -1   -1    0    0    0  501  0.00000000000E+00  0.00000000000E+00  0.14527124838E+04  0.14527124838E+04  0.50400001928E-02 0. -1.
        1   -1    0    0  501    0  0.00000000000E+00  0.00000000000E+00 -0.17591113588E+04  0.17591113588E+04  0.50400001928E-02 0.  1.
    10030    2    1    2    0    0  0.00000000000E+00  0.00000000000E+00 -0.30639887497E+03  0.32118238427E+04  0.31971756482E+04 0.  0.
        5    1    3    3  502    0 -0.76560061688E+03  0.13880394199E+04  0.54297630162E+02  0.15861172902E+04  0.46999998093E+01 0. -1.
       -5    1    3    3    0  502  0.76560061688E+03 -0.13880394199E+04 -0.36069650513E+03  0.16257065524E+04  0.46999998093E+01 0.  1.
</event>
<event>
 5   0  0.5317728E-07  0.3178323E+04  0.7818609E-02  0.8194565E-01
       -1   -1    0    0    0  501  0.00000000000E+00  0.00000000000E+00  0.18662211544E+04  0.18662211544E+04  0.50400001928E-02 0.  1.
        1   -1    0    0  501    0  0.00000000000E+00  0.00000000000E+00 -0.13532346149E+04  0.13532346149E+04  0.50400001928E-02 0. -1.
    10030    2    1    2    0    0  0.00000000000E+00  0.00000000000E+00  0.51298653952E+03  0.32194557694E+04  0.31783234985E+04 0.  0.
        2    1    3    3  502    0  0.89073297781E+03  0.10401978575E+04 -0.56017773655E+03  0.14795999179E+04  0.25500000920E-02 0. -1.
       -2    1    3    3    0  502 -0.89073297781E+03 -0.10401978575E+04  0.10731642761E+04  0.17398558515E+04  0.25500000920E-02 0.  1.
</event>
<event>
 5   0  0.1538349E-06  0.3199757E+04  0.7818609E-02  0.8188881E-01
       -2   -1    0    0    0  501  0.00000000000E+00  0.00000000000E+00  0.11250581784E+04  0.11250581784E+04  0.25500000920E-02 0. -1.
        2   -1    0    0  501    0  0.00000000000E+00  0.00000000000E+00 -0.22750919183E+04  0.22750919183E+04  0.25500000920E-02 0.  1.
    10030    2    1    2    0    0  0.00000000000E+00  0.00000000000E+00 -0.11500337399E+04  0.34001500966E+04  0.31997567215E+04 0.  0.
        1    1    3    3  502    0 -0.66118974764E+03 -0.14568567060E+04 -0.57212136053E+03  0.16990956993E+04  0.50400001928E-02 0.  1.
       -1    1    3    3    0  502  0.66118974764E+03  0.14568567060E+04 -0.57791237938E+03  0.17010543973E+04  0.50400001928E-02 0. -1.
</event>
<event>
 5   0  0.1556396E-06  0.3208379E+04  0.7818609E-02  0.8186608E-01
       -2   -1    0    0    0  501  0.00000000000E+00  0.00000000000E+00  0.13165235162E+04  0.13165235162E+04  0.25500000920E-02 0. -1.
        2   -1    0    0  501    0  0.00000000000E+00  0.00000000000E+00 -0.19547111552E+04  0.19547111552E+04  0.25500000920E-02 0.  1.
    10030    2    1    2    0    0  0.00000000000E+00  0.00000000000E+00 -0.63818763898E+03  0.32712346715E+04  0.32083785333E+04 0.  0.
        3    1    3    3  502    0 -0.13685914462E+04  0.71437989421E+03 -0.76357247450E+03  0.17223310117E+04  0.10100000352E+00 0.  1.
       -3    1    3    3    0  502  0.13685914462E+04 -0.71437989421E+03  0.12538483553E+03  0.15489036597E+04  0.10100000352E+00 0. -1.
</event>
<event>
 5   0  0.1556396E-06  0.3200280E+04  0.7818609E-02  0.8188743E-01
       -2   -1    0    0    0  501  0.00000000000E+00  0.00000000000E+00  0.13024941734E+04  0.13024941734E+04  0.25500000920E-02 0.  1.
        2   -1    0    0  501    0  0.00000000000E+00  0.00000000000E+00 -0.19658044126E+04  0.19658044126E+04  0.25500000920E-02 0. -1.
    10030    2    1    2    0    0  0.00000000000E+00  0.00000000000E+00 -0.66331023924E+03  0.32682985860E+04  0.32002804836E+04 0.  0.
        3    1    3    3  502    0 -0.76927484261E+03  0.82689264254E+03 -0.14892874273E+04  0.18690939722E+04  0.10100000352E+00 0. -1.
       -3    1    3    3    0  502  0.76927484261E+03 -0.82689264254E+03  0.82597718803E+03  0.13992046137E+04  0.10100000352E+00 0.  1.
</event>
<event>
 5   0  0.5233813E-07  0.3181820E+04  0.7818609E-02  0.8193635E-01
        1   -1    0    0  501    0  0.00000000000E+00  0.00000000000E+00  0.16338330303E+04  0.16338330303E+04  0.50400001928E-02 0. -1.
       -1   -1    0    0    0  501  0.00000000000E+00  0.00000000000E+00 -0.15491149935E+04  0.15491149935E+04  0.50400001928E-02 0.  1.
    10030    2    1    2    0    0  0.00000000000E+00  0.00000000000E+00  0.84718036850E+02  0.31829480238E+04  0.31818203872E+04 0.  0.
        4    1    3    3  502    0  0.10565410909E+04  0.29239127966E+03 -0.11109684342E+04  0.15607767976E+04  0.12699999809E+01 0.  1.
       -4    1    3    3    0  502 -0.10565410909E+04 -0.29239127966E+03  0.11956864711E+04  0.16221712262E+04  0.12699999809E+01 0. -1.
</event>
<event>
 5   0  0.1538349E-06  0.3199277E+04  0.7818609E-02  0.8189008E-01
        2   -1    0    0  501    0  0.00000000000E+00  0.00000000000E+00  0.16717771028E+04  0.16717771028E+04  0.25500000920E-02 0. -1.
       -2   -1    0    0    0  501  0.00000000000E+00  0.00000000000E+00 -0.15306130247E+04  0.15306130247E+04  0.25500000920E-02 0.  1.
    10030    2    1    2    0    0  0.00000000000E+00  0.00000000000E+00  0.14116407815E+03  0.32023901275E+04  0.31992772983E+04 0.  0.
        1    1    3    3  502    0  0.49367801752E+03 -0.89102785448E+03 -0.11639854184E+04  0.15467742811E+04  0.50400001928E-02 0.  1.
       -1    1    3    3    0  502 -0.49367801752E+03  0.89102785448E+03  0.13051494965E+04  0.16556158464E+04  0.50400001928E-02 0. -1.
</event>
<event>
 5   0  0.5317728E-07  0.3217018E+04  0.7818609E-02  0.8184337E-01
        1   -1    0    0  501    0  0.00000000000E+00  0.00000000000E+00  0.90794039314E+03  0.90794039316E+03  0.50400001928E-02 0. -1.
       -1   -1    0    0    0  501  0.00000000000E+00  0.00000000000E+00 -0.28496385371E+04  0.28496385371E+04  0.50400001928E-02 0.  1.
    10030    2    1    2    0    0  0.00000000000E+00  0.00000000000E+00 -0.19416981439E+04  0.37575789302E+04  0.32170184542E+04 0.  0.
        2    1    3    3  502    0 -0.29003770203E+02  0.12560152540E+04 -0.21440589012E+04  0.24850360378E+04  0.25500000920E-02 0.  1.
       -2    1    3    3    0  502  0.29003770203E+02 -0.12560152540E+04  0.20236075733E+03  0.12725428925E+04  0.25500000920E-02 0. -1.
</event>
<event>
 5   0  0.5370912E-07  0.3185473E+04  0.7818609E-02  0.8192664E-01
        1   -1    0    0  501    0  0.00000000000E+00  0.00000000000E+00  0.12641758181E+04  0.12641758181E+04  0.50400001928E-02 0.  1.
       -1   -1    0    0    0  501  0.00000000000E+00  0.00000000000E+00 -0.20066898341E+04  0.20066898341E+04  0.50400001928E-02 0. -1.
    10030    2    1    2    0    0  0.00000000000E+00  0.00000000000E+00 -0.74251401596E+03  0.32708656522E+04  0.31854725004E+04 0.  0.
        1    1    3    3  502    0 -0.16437504600E+03  0.51067592007E+03  0.11686111759E+04  0.12858697957E+04  0.50400001928E-02 0.  1.
       -1    1    3    3    0  502  0.16437504600E+03 -0.51067592007E+03 -0.19111251919E+04  0.19849958565E+04  0.50400001928E-02 0. -1.
</event>
<event>
 5   0  0.5281187E-07  0.3206084E+04  0.7818609E-02  0.8187212E-01
       -1   -1    0    0    0  501  0.00000000000E+00  0.00000000000E+00  0.23068141520E+04  0.23068141520E+04  0.50400001928E-02 0.  1.
        1   -1    0    0  501    0  0.00000000000E+00  0.00000000000E+00 -0.11139797530E+04  0.11139797531E+04  0.50400001928E-02 0. -1.
    10030    2    1    2    0    0  0.00000000000E+00  0.00000000000E+00  0.11928343990E+04  0.34207939051E+04  0.32060843778E+04 0.  0.
        5    1    3    3  502    0  0.15523671262E+04  0.93637125206E+02  0.18165480330E+03  0.15657688728E+04  0.46999998093E+01 0. -1.
       -5    1    3    3    0  502 -0.15523671262E+04 -0.93637125206E+02  0.10111795957E+04  0.18550250323E+04  0.46999998093E+01 0.  1.
</event>
<event>
 5   0  0.1493485E-06  0.3149999E+04  0.7818609E-02  0.8202148E-01
       -2   -1    0    0    0  501  0.00000000000E+00  0.00000000000E+00  0.12957188084E+04  0.12957188085E+04  0.25500000920E-02 0.  1.
        2   -1    0    0  501    0  0.00000000000E+00  0.00000000000E+00 -0.19144771338E+04  0.19144771338E+04  0.25500000920E-02 0. -1.
    10030    2    1    2    0    0  0.00000000000E+00  0.00000000000E+00 -0.61875832536E+03  0.32101959423E+04  0.31499993845E+04 0.  0.
        2    1    3    3  502    0 -0.36079175908E+03  0.10568454802E+03 -0.18680792447E+04  0.19055340410E+04  0.25500000920E-02 0. -1.
       -2    1    3    3    0  502  0.36079175908E+03 -0.10568454802E+03  0.12493209193E+04  0.13046619012E+04  0.25500000920E-02 0.  1.
</event>
<event>
 5   0  0.1538349E-06  0.3190721E+04  0.7818609E-02  0.8191272E-01
        2   -1    0    0  501    0  0.00000000000E+00  0.00000000000E+00  0.28447717392E+04  0.28447717392E+04  0.25500000920E-02 0. -1.
       -2   -1    0    0    0  501  0.00000000000E+00  0.00000000000E+00 -0.89468535573E+03  0.89468535574E+03  0.25500000920E-02 0.  1.
    10030    2    1    2    0    0  0.00000000000E+00  0.00000000000E+00  0.19500863835E+04  0.37394570949E+04  0.31907213075E+04 0.  0.
        1    1    3    3  502    0 -0.13040471587E+04 -0.23640938760E+03 -0.65807905132E+02  0.13269359710E+04  0.50400001928E-02 0. -1.
       -1    1    3    3    0  502  0.13040471587E+04  0.23640938760E+03  0.20158942886E+04  0.24125211240E+04  0.50400001928E-02 0.  1.
</event>
<event>
 5   0  0.1556396E-06  0.3205236E+04  0.7818609E-02  0.8187436E-01
       -2   -1    0    0    0  501  0.00000000000E+00  0.00000000000E+00  0.16562732657E+04  0.16562732657E+04  0.25500000920E-02 0. -1.
        2   -1    0    0  501    0  0.00000000000E+00  0.00000000000E+00 -0.15507010163E+04  0.15507010163E+04  0.25500000920E-02 0.  1.
    10030    2    1    2    0    0  0.00000000000E+00  0.00000000000E+00  0.10557224944E+03  0.32069742820E+04  0.32052361138E+04 0.  0.
        3    1    3    3  502    0 -0.26962295644E+03 -0.40004525764E+03  0.15818988637E+04  0.16538248916E+04  0.10100000352E+00 0. -1.
       -3    1    3    3    0  502  0.26962295644E+03  0.40004525764E+03 -0.14763266143E+04  0.15531493904E+04  0.10100000352E+00 0.  1.
</event>
<event>
 5   0  0.4995625E-07  0.3214425E+04  0.7818609E-02  0.8185018E-01
        3   -1    0    0  501    0  0.00000000000E+00  0.00000000000E+00  0.27406916175E+04  0.27406916194E+04  0.10100000352E+00 0.  1.
       -3   -1    0    0    0  501  0.00000000000E+00  0.00000000000E+00 -0.94251103256E+03  0.94251103798E+03  0.10100000352E+00 0. -1.
    10030    2    1    2    0    0  0.00000000000E+00  0.00000000000E+00  0.17981805849E+04  0.36832026573E+04  0.32144250495E+04 0.  0.
        3    1    3    3  502    0 -0.27248168806E+03 -0.10526529870E+03  0.27100199446E+04  0.27257173668E+04  0.10100000352E+00 0.  1.
       -3    1    3    3    0  502  0.27248168806E+03  0.10526529870E+03 -0.91183935969E+03  0.95748529050E+03  0.10100000352E+00 0. -1.
</event>
<event>
 5   0  0.5317728E-07  0.3222709E+04  0.7818609E-02  0.8182845E-01
        1   -1    0    0  501    0  0.00000000000E+00  0.00000000000E+00  0.29820791950E+04  0.29820791950E+04  0.50400001928E-02 0.  1.
       -1   -1    0    0    0  501  0.00000000000E+00  0.00000000000E+00 -0.87068899984E+03  0.87068899986E+03  0.50400001928E-02 0. -1.
    10030    2    1    2    0    0  0.00000000000E+00  0.00000000000E+00  0.21113901952E+04  0.38527681949E+04  0.32227091410E+04 0.  0.
        2    1    3    3  502    0  0.12865063573E+04  0.10132501435E+03  0.22092798562E+04  0.25585704698E+04  0.25500000920E-02 0.  1.
       -2    1    3    3    0  502 -0.12865063573E+04 -0.10132501435E+03 -0.97889660972E+02  0.12941977251E+04  0.25500000920E-02 0. -1.
</event>
<event>
 5   0  0.1508771E-06  0.3205838E+04  0.7818609E-02  0.8187277E-01
        2   -1    0    0  501    0  0.00000000000E+00  0.00000000000E+00  0.22088392856E+04  0.22088392856E+04  0.25500000920E-02 0.  1.
       -2   -1    0    0    0  501  0.00000000000E+00  0.00000000000E+00 -0.11632126604E+04  0.11632126604E+04  0.25500000920E-02 0. -1.
    10030    2    1    2    0    0  0.00000000000E+00  0.00000000000E+00  0.10456266252E+04  0.33720519459E+04  0.32058383127E+04 0.  0.
        4    1    3    3  502    0 -0.86029221347E+03 -0.94251093292E+03 -0.49748855497E+03  0.13696444891E+04  0.12699999809E+01 0. -1.
       -4    1    3    3    0  502  0.86029221347E+03  0.94251093292E+03  0.15431151801E+04  0.20024074569E+04  0.12699999809E+01 0.  1.
</event>
<event>
 5   0  0.1538349E-06  0.3180379E+04  0.7818609E-02  0.8194018E-01
        2   -1    0    0  501    0  0.00000000000E+00  0.00000000000E+00  0.27309969596E+04  0.27309969596E+04  0.25500000920E-02 0.  1.
       -2   -1    0    0    0  501  0.00000000000E+00  0.00000000000E+00 -0.92592646080E+03  0.92592646080E+03  0.25500000920E-02 0. -1.
    10030    2    1    2    0    0  0.00000000000E+00  0.00000000000E+00  0.18050704988E+04  0.36569234204E+04  0.31803788135E+04 0.  0.
        1    1    3    3  502    0  0.13618686096E+04 -0.79460726498E+03  0.11399025990E+04  0.19456270842E+04  0.50400001928E-02 0.  1.
       -1    1    3    3    0  502 -0.13618686096E+04  0.79460726498E+03  0.66516789985E+03  0.17112963363E+04  0.50400001928E-02 0. -1.
</event>
<event>
 5   0  0.5370912E-07  0.3195204E+04  0.7818609E-02  0.8190085E-01
        1   -1    0    0  501    0  0.00000000000E+00  0.00000000000E+00  0.20943213997E+04  0.20943213997E+04  0.50400001928E-02 0. -1.
       -1   -1    0    0    0  501  0.00000000000E+00  0.00000000000E+00 -0.12186913975E+04  0.12186913975E+04  0.50400001928E-02 0.  1.
    10030    2    1    2    0    0  0.00000000000E+00  0.00000000000E+00  0.87563000227E+03  0.33130127972E+04  0.31952035762E+04 0.  0.
        1    1    3    3  502    0 -0.48134911844E+03  0.49993018918E+03 -0.10542358443E+04  0.12621570359E+04  0.50400001928E-02 0.  1.
       -1    1    3    3    0  502  0.48134911844E+03 -0.49993018918E+03  0.19298658466E+04  0.20508557613E+04  0.50400001928E-02 0. -1.
</event>
<event>
 5   0  0.5281187E-07  0.3218157E+04  0.7818609E-02  0.8184038E-01
       -1   -1    0    0    0  501  0.00000000000E+00  0.00000000000E+00  0.21467952613E+04  0.21467952613E+04  0.50400001928E-02 0. -1.
        1   -1    0    0  501    0  0.00000000000E+00  0.00000000000E+00 -0.12060461756E+04  0.12060461756E+04  0.50400001928E-02 0.  1.
    10030    2    1    2    0    0  0.00000000000E+00  0.00000000000E+00  0.94074908572E+03  0.33528414370E+04  0.32181573702E+04 0.  0.
        5    1    3    3  502    0 -0.25397549403E+03 -0.68039815075E+03 -0.10255682644E+04  0.12566851436E+04  0.46999998093E+01 0.  1.
       -5    1    3    3    0  502  0.25397549403E+03  0.68039815075E+03  0.19663173501E+04  0.20961562934E+04  0.46999998093E+01 0. -1.
</event>
<event>
 5   0  0.1572769E-06  0.3148984E+04  0.7818609E-02  0.8202422E-01
       -2   -1    0    0    0  501  0.00000000000E+00  0.00000000000E+00  0.11864710215E+04  0.11864710215E+04  0.25500000920E-02 0. -1.
        2   -1    0    0  501    0  0.00000000000E+00  0.00000000000E+00 -0.20894106786E+04  0.20894106786E+04  0.25500000920E-02 0.  1.
    10030    2    1    2    0    0  0.00000000000E+00  0.00000000000E+00 -0.90293965709E+03  0.32758817000E+04  0.31489841042E+04 0.  0.
        5    1    3    3  502    0 -0.14326761035E+04  0.16331888609E+03  0.20628256551E+03  0.14566428742E+04  0.46999998093E+01 0.  1.
       -5    1    3    3    0  502  0.14326761035E+04 -0.16331888609E+03 -0.11092222226E+04  0.18192388258E+04  0.46999998093E+01 0. -1.
</event>
<event>
 5   0  0.1572769E-06  0.3197160E+04  0.7818609E-02  0.8189568E-01
        2   -1    0    0  501    0  0.00000000000E+00  0.00000000000E+00  0.20419294066E+04  0.20419294066E+04  0.25500000920E-02 0.  1.
       -2   -1    0    0    0  501  0.00000000000E+00  0.00000000000E+00 -0.12514919816E+04  0.12514919816E+04  0.25500000920E-02 0. -1.
    10030    2    1    2    0    0  0.00000000000E+00  0.00000000000E+00  0.79043742506E+03  0.32934213882E+04  0.31971601645E+04 0.  0.
        5    1    3    3  502    0  0.15890657416E+04 -0.17397341349E+03  0.38874379514E+03  0.16451566819E+04  0.46999998093E+01 0.  1.
       -5    1    3    3    0  502 -0.15890657416E+04  0.17397341349E+03  0.40169362992E+03  0.16482647063E+04  0.46999998093E+01 0. -1.
</event>
<event>
 5   0  0.1572769E-06  0.3212541E+04  0.7818609E-02  0.8185513E-01
        2   -1    0    0  501    0  0.00000000000E+00  0.00000000000E+00  0.19566010826E+04  0.19566010826E+04  0.25500000920E-02 0. -1.
       -2   -1    0    0    0  501  0.00000000000E+00  0.00000000000E+00 -0.13186666864E+04  0.13186666864E+04  0.25500000920E-02 0.  1.
    10030    2    1    2    0    0  0.00000000000E+00  0.00000000000E+00  0.63793439627E+03  0.32752677690E+04  0.32125408425E+04 0.  0.
        5    1    3    3  502    0 -0.69046466997E+03 -0.11009918100E+03 -0.11553737965E+04  0.13504717657E+04  0.46999998093E+01 0.  1.
       -5    1    3    3    0  502  0.69046466997E+03  0.11009918100E+03  0.17933081928E+04  0.19247960033E+04  0.46999998093E+01 0. -1.
</event>
<event>
 5   0  0.1508771E-06  0.3194104E+04  0.7818609E-02  0.8190376E-01
        2   -1    0    0  501    0  0.00000000000E+00  0.00000000000E+00  0.16638055031E+04  0.16638055031E+04  0.25500000920E-02 0.  1.
       -2   -1    0    0    0  501  0.00000000000E+00  0.00000000000E+00 -0.15329768535E+04  0.15329768535E+04  0.25500000920E-02 0. -1.
    10030    2    1    2    0    0  0.00000000000E+00  0.00000000000E+00  0.13082864962E+03  0.31967823565E+04  0.31941041466E+04 0.  0.
        4    1    3    3  502    0 -0.85107380783E+03  0.10884578810E+04  0.86702692809E+03  0.16311972572E+04  0.12699999809E+01 0.  1.
       -4    1    3    3    0  502  0.85107380783E+03 -0.10884578810E+04 -0.73619827847E+03  0.15655850993E+04  0.12699999809E+01 0. -1.
</event>
<event>
 5   0  0.1508771E-06  0.3192917E+04  0.7818609E-02  0.8190690E-01
       -2   -1    0    0    0  501  0.00000000000E+00  0.00000000000E+00  0.94205209745E+03  0.94205209745E+03  0.25500000920E-02 0. -1.
        2   -1    0    0  501    0  0.00000000000E+00  0.00000000000E+00 -0.27054558498E+04  0.27054558498E+04  0.25500000920E-02 0.  1.
    10030    2    1    2    0    0  0.00000000000E+00  0.00000000000E+00 -0.17634037523E+04  0.36475079472E+04  0.31929173856E+04 0.  0.
        4    1    3    3  502    0  0.67918961342E+03  0.13977376803E+04 -0.12994262776E+04  0.20257046719E+04  0.12699999809E+01 0.  1.
       -4    1    3    3    0  502 -0.67918961342E+03 -0.13977376803E+04 -0.46397747475E+03  0.16218032753E+04  0.12699999809E+01 0. -1.
</event>
<event>
 5   0  0.5281187E-07  0.3202034E+04  0.7818609E-02  0.8188280E-01
       -1   -1    0    0    0  501  0.00000000000E+00  0.00000000000E+00  0.10562886110E+04  0.10562886110E+04  0.50400001928E-02 0.  1.
        1   -1    0    0  501    0  0.00000000000E+00  0.00000000000E+00 -0.24266622085E+04  0.24266622085E+04  0.50400001928E-02 0. -1.
    10030    2    1    2    0    0  0.00000000000E+00  0.00000000000E+00 -0.13703735976E+04  0.34829508195E+04  0.32020341370E+04 0.  0.
        5    1    3    3  502    0 -0.36757083930E+03 -0.14914511357E+04 -0.11761122726E+04  0.19346309674E+04  0.46999998093E+01 0.  1.
       -5    1    3    3    0  502  0.36757083930E+03  0.14914511357E+04 -0.19426132496E+03  0.15483198522E+04  0.46999998093E+01 0. -1.
</event>
<event>
 5   0  0.1556396E-06  0.3216578E+04  0.7818609E-02  0.8184453E-01
        2   -1    0    0  501    0  0.00000000000E+00  0.00000000000E+00  0.16288445344E+04  0.16288445344E+04  0.25500000920E-02 0. -1.
       -2   -1    0    0    0  501  0.00000000000E+00  0.00000000000E+00 -0.15879931169E+04  0.15879931169E+04  0.25500000920E-02 0.  1.
    10030    2    1    2    0    0  0.00000000000E+00  0.00000000000E+00  0.40851417427E+02  0.32168376513E+04  0.32165782497E+04 0.  0.
        3    1    3    3  502    0  0.11179950912E+03 -0.14357003137E+04  0.73662547180E+03  0.16175140237E+04  0.10100000352E+00 0.  1.
       -3    1    3    3    0  502 -0.11179950912E+03  0.14357003137E+04 -0.69577405438E+03  0.15993236276E+04  0.10100000352E+00 0. -1.
</event>
<event>
 5   0  0.1493485E-06  0.3205640E+04  0.7818609E-02  0.8187329E-01
        2   -1    0    0  501    0  0.00000000000E+00  0.00000000000E+00  0.18926755635E+04  0.18926755635E+04  0.25500000920E-02 0. -1.
       -2   -1    0    0    0  501  0.00000000000E+00  0.00000000000E+00 -0.13573550185E+04  0.13573550185E+04  0.25500000920E-02 0.  1.
    10030    2    1    2    0    0  0.00000000000E+00  0.00000000000E+00  0.53532054495E+03  0.32500305820E+04  0.32056404506E+04 0.  0.
        2    1    3    3  502    0 -0.15665180865E+04 -0.11599997917E+03 -0.55497579566E+02  0.15717871650E+04  0.25500000920E-02 0.  1.
       -2    1    3    3    0  502  0.15665180865E+04  0.11599997917E+03  0.59081812452E+03  0.16782434171E+04  0.25500000920E-02 0. -1.
</event>
<event>
 5   0  0.5177039E-07  0.3186793E+04  0.7818609E-02  0.8192314E-01
       -1   -1    0    0    0  501  0.00000000000E+00  0.00000000000E+00  0.15078389906E+04  0.15078389906E+04  0.50400001928E-02 0. -1.
        1   -1    0    0  501    0  0.00000000000E+00  0.00000000000E+00 -0.16838086382E+04  0.16838086382E+04  0.50400001928E-02 0.  1.
    10030    2    1    2    0    0  0.00000000000E+00  0.00000000000E+00 -0.17596964763E+03  0.31916476288E+04  0.31867929442E+04 0.  0.
        3    1    3    3  502    0  0.47327524322E+03 -0.13185826828E+04  0.67229119621E+03  0.15539064354E+04  0.10100000352E+00 0. -1.
       -3    1    3    3    0  502 -0.47327524322E+03  0.13185826828E+04 -0.84826084385E+03  0.16377411934E+04  0.10100000352E+00 0.  1.
</event>
<event>
 5   0  0.1572769E-06  0.3220815E+04  0.7818609E-02  0.8183342E-01
        2   -1    0    0  501    0  0.00000000000E+00  0.00000000000E+00  0.21836701177E+04  0.21836701177E+04  0.25500000920E-02 0. -1.
       -2   -1    0    0    0  501  0.00000000000E+00  0.00000000000E+00 -0.11876392987E+04  0.11876392987E+04  0.25500000920E-02 0.  1.
    10030    2    1    2    0    0  0.00000000000E+00  0.00000000000E+00  0.99603081899E+03  0.33713094164E+04  0.32208150815E+04 0.  0.
        5    1    3    3  502    0 -0.75629697559E+03 -0.19764225839E+03  0.19717599156E+04  0.21210626658E+04  0.46999998093E+01 0. -1.
       -5    1    3    3    0  502  0.75629697559E+03  0.19764225839E+03 -0.97572909657E+03  0.12502467506E+04  0.46999998093E+01 0.  1.
</event>
<event>
 5   0  0.1493485E-06  0.3204985E+04  0.7818609E-02  0.8187502E-01
        2   -1    0    0  501    0  0.00000000000E+00  0.00000000000E+00  0.14277572279E+04  0.14277572279E+04  0.25500000920E-02 0.  1.
       -2   -1    0    0    0  501  0.00000000000E+00  0.00000000000E+00 -0.17986121514E+04  0.17986121514E+04  0.25500000920E-02 0. -1.
    10030    2    1    2    0    0  0.00000000000E+00  0.00000000000E+00 -0.37085492350E+03  0.32263693794E+04  0.32049845550E+04 0.  0.
        2    1    3    3  502    0 -0.64699854709E+03  0.35207015561E+03 -0.16180962479E+04  0.17778627568E+04  0.25500000920E-02 0. -1.
       -2    1    3    3    0  502  0.64699854709E+03 -0.35207015561E+03  0.12472413244E+04  0.14485066226E+04  0.25500000920E-02 0.  1.
</event>
<event>
 5   0  0.5370912E-07  0.3232417E+04  0.7818609E-02  0.8180308E-01
       -1   -1    0    0    0  501  0.00000000000E+00  0.00000000000E+00  0.19882615055E+04  0.19882615055E+04  0.50400001928E-02 0. -1.
        1   -1    0    0  501    0  0.00000000000E+00  0.00000000000E+00 -0.13137756415E+04  0.13137756415E+04  0.50400001928E-02 0.  1.
    10030    2    1    2    0    0  0.00000000000E+00  0.00000000000E+00  0.67448586398E+03  0.33020371470E+04  0.32324167645E+04 0.  0.
        1    1    3    3  502    0  0.98494129962E+03  0.10118756720E+04 -0.46590166245E+03  0.14869653992E+04  0.50400001928E-02 0.  1.
       -1    1    3    3    0  502 -0.98494129962E+03 -0.10118756720E+04  0.11403875264E+04  0.18150717478E+04  0.50400001928E-02 0. -1.
</event>
<event>
 5   0  0.1572769E-06  0.3176402E+04  0.7818609E-02  0.8195077E-01
       -2   -1    0    0    0  501  0.00000000000E+00  0.00000000000E+00  0.16128900574E+04  0.16128900574E+04  0.25500000920E-02 0.  1.
        2   -1    0    0  501    0  0.00000000000E+00  0.00000000000E+00 -0.15638895104E+04  0.15638895104E+04  0.25500000920E-02 0. -1.
    10030    2    1    2    0    0  0.00000000000E+00  0.00000000000E+00  0.49000547027E+02  0.31767795678E+04  0.31764016385E+04 0.  0.
        5    1    3    3  502    0 -0.34510379694E+03 -0.62277633787E+03  0.14443215200E+04  0.16102899555E+04  0.46999998093E+01 0.  1.
       -5    1    3    3    0  502  0.34510379694E+03  0.62277633787E+03 -0.13953209730E+04  0.15664896123E+04  0.46999998093E+01 0. -1.
</event>
<event>
 5   0  0.1572769E-06  0.3212173E+04  0.7818609E-02  0.8185610E-01
        2   -1    0    0  501    0  0.00000000000E+00  0.00000000000E+00  0.25579262475E+04  0.25579262475E+04  0.25500000920E-02 0. -1.
       -2   -1    0    0    0  501  0.00000000000E+00  0.00000000000E+00 -0.10084395638E+04  0.10084395638E+04  0.25500000920E-02 0.  1.
    10030    2    1    2    0    0  0.00000000000E+00  0.00000000000E+00  0.15494866837E+04  0.35663658113E+04  0.32121731144E+04 0.  0.
        5    1    3    3  502    0  0.14467750477E+03  0.10551131528E+04  0.21095102611E+04  0.23631019820E+04  0.46999998093E+01 0. -1.
       -5    1    3    3    0  502 -0.14467750477E+03 -0.10551131528E+04 -0.56002357739E+03  0.12032638293E+04  0.46999998093E+01 0.  1.
</event>
<event>
 5   0  0.1556396E-06  0.3207567E+04  0.7818609E-02  0.8186822E-01
       -2   -1    0    0    0  501  0.00000000000E+00  0.00000000000E+00  0.12464060503E+04  0.12464060503E+04  0.25500000920E-02 0.  1.
        2   -1    0    0  501    0  0.00000000000E+00  0.00000000000E+00 -0.20636305876E+04  0.20636305876E+04  0.25500000920E-02 0. -1.
    10030    2    1    2    0    0  0.00000000000E+00  0.00000000000E+00 -0.81722453734E+03  0.33100366379E+04  0.32075670842E+04 0.  0.
        3    1    3    3  502    0 -0.39122740099E+02  0.15678606291E+04 -0.75458998371E+03  0.17404377596E+04  0.10100000352E+00 0.  1.
       -3    1    3    3    0  502  0.39122740099E+02 -0.15678606291E+04 -0.62634553627E+02  0.15695988783E+04  0.10100000352E+00 0. -1.
</event>
<event>
 5   0  0.5317728E-07  0.3213491E+04  0.7818609E-02  0.8185263E-01
       -1   -1    0    0    0  501  0.00000000000E+00  0.00000000000E+00  0.22365223058E+04  0.22365223058E+04  0.50400001928E-02 0.  1.
        1   -1    0    0  501    0  0.00000000000E+00  0.00000000000E+00 -0.11543059769E+04  0.11543059769E+04  0.50400001928E-02 0. -1.
    10030    2    1    2    0    0  0.00000000000E+00  0.00000000000E+00  0.10822163289E+04  0.33908282827E+04  0.32134909772E+04 0.  0.
        2    1    3    3  502    0 -0.95306437577E+03 -0.11109495766E+04  0.12403150277E+04  0.19185729160E+04  0.25500000920E-02 0.  1.
       -2    1    3    3    0  502  0.95306437577E+03  0.11109495766E+04 -0.15809869878E+03  0.14722553667E+04  0.25500000920E-02 0. -1.
</event>
<event>
 5   0  0.5281187E-07  0.3099555E+04  0.7818609E-02  0.8215860E-01
       -1   -1    0    0    0  501  0.00000000000E+00  0.00000000000E+00  0.14654708698E+04  0.14654708699E+04  0.50400001928E-02 0. -1.
        1   -1    0    0  501    0  0.00000000000E+00  0.00000000000E+00 -0.16389339475E+04  0.16389339475E+04  0.50400001928E-02 0.  1.
    10030    2    1    2    0    0  0.00000000000E+00  0.00000000000E+00 -0.17346307762E+03  0.31044048173E+04  0.30995547794E+04 0.  0.
        5    1    3    3  502    0  0.55317910886E+03  0.34391017348E+03  0.13217073113E+04  0.14735038652E+04  0.46999998093E+01 0. -1.
       -5    1    3    3    0  502 -0.55317910886E+03 -0.34391017348E+03 -0.14951703889E+04  0.16309009522E+04  0.46999998093E+01 0.  1.
</event>
<event>
 5   0  0.1493485E-06  0.3185752E+04  0.7818609E-02  0.8192590E-01
        2   -1    0    0  501    0  0.00000000000E+00  0.00000000000E+00  0.19617649908E+04  0.19617649908E+04  0.25500000920E-02 0. -1.
       -2   -1    0    0    0  501  0.00000000000E+00  0.00000000000E+00 -0.12933523043E+04  0.12933523043E+04  0.25500000920E-02 0.  1.
    10030    2    1    2    0    0  0.00000000000E+00  0.00000000000E+00  0.66841268648E+03  0.32551172952E+04  0.31857515732E+04 0.  0.
        2    1    3    3  502    0 -0.13052458247E+04  0.71879407204E+03  0.90942202613E+03  0.17456746554E+04  0.25500000920E-02 0. -1.
       -2    1    3    3    0  502  0.13052458247E+04 -0.71879407204E+03 -0.24100933965E+03  0.15094426398E+04  0.25500000920E-02 0.  1.
</event>
<event>
 5   0  0.1538349E-06  0.3189588E+04  0.7818609E-02  0.8191572E-01
       -2   -1    0    0    0  501  0.00000000000E+00  0.00000000000E+00  0.31387456188E+04  0.31387456188E+04  0.25500000920E-02 0. -1.
        2   -1    0    0  501    0  0.00000000000E+00  0.00000000000E+00 -0.81031325914E+03  0.81031325915E+03  0.25500000920E-02 0.  1.
    10030    2    1    2    0    0  0.00000000000E+00  0.00000000000E+00  0.23284323597E+04  0.39490588779E+04  0.31895875545E+04 0.  0.
        1    1    3    3  502    0  0.77116610225E+03 -0.70286554614E+03  0.26574861971E+04  0.28549868688E+04  0.50400001928E-02 0. -1.
       -1    1    3    3    0  502 -0.77116610225E+03  0.70286554614E+03 -0.32905383746E+03  0.10940720091E+04  0.50400001928E-02 0.  1.
</event>
<event>
 5   0  0.5233813E-07  0.3074363E+04  0.7818609E-02  0.8222809E-01
        1   -1    0    0  501    0  0.00000000000E+00  0.00000000000E+00  0.21642511177E+04  0.21642511177E+04  0.50400001928E-02 0. -1.
       -1   -1    0    0    0  501  0.00000000000E+00  0.00000000000E+00 -0.10917987120E+04  0.10917987120E+04  0.50400001928E-02 0.  1.
    10030    2    1    2    0    0  0.00000000000E+00  0.00000000000E+00  0.10724524057E+04  0.32560498298E+04  0.30743627521E+04 0.  0.
        4    1    3    3  502    0 -0.96364842896E+03 -0.11950494567E+04  0.45307881284E+03  0.16006384733E+04  0.12699999809E+01 0.  1.
       -4    1    3    3    0  502  0.96364842896E+03  0.11950494567E+04  0.61937359283E+03  0.16554113565E+04  0.12699999809E+01 0. -1.
</event>
<event>
 5   0  0.5177039E-07  0.3207544E+04  0.7818609E-02  0.8186828E-01
        1   -1    0    0  501    0  0.00000000000E+00  0.00000000000E+00  0.18781373920E+04  0.18781373920E+04  0.50400001928E-02 0. -1.
       -1   -1    0    0    0  501  0.00000000000E+00  0.00000000000E+00 -0.13694866846E+04  0.13694866846E+04  0.50400001928E-02 0.  1.
    10030    2    1    2    0    0  0.00000000000E+00  0.00000000000E+00  0.50865070735E+03  0.32476240766E+04  0.32075437021E+04 0.  0.
        3    1    3    3  502    0 -0.12074182692E+04 -0.44862498312E+03  0.12217546978E+04  0.17753331530E+04  0.10100000352E+00 0. -1.
       -3    1    3    3    0  502  0.12074182692E+04  0.44862498312E+03 -0.71310399048E+03  0.14722909236E+04  0.10100000352E+00 0.  1.
</event>
<event>
 5   0  0.1493485E-06  0.3203799E+04  0.7818609E-02  0.8187815E-01
        2   -1    0    0  501    0  0.00000000000E+00  0.00000000000E+00  0.12817712139E+04  0.12817712139E+04  0.25500000920E-02 0.  1.
       -2   -1    0    0    0  501  0.00000000000E+00  0.00000000000E+00 -0.20019813921E+04  0.20019813921E+04  0.25500000920E-02 0. -1.
    10030    2    1    2    0    0  0.00000000000E+00  0.00000000000E+00 -0.72021017825E+03  0.32837526060E+04  0.32037990693E+04 0.  0.
        2    1    3    3  502    0 -0.75554493185E+03  0.89636457223E+02  0.10847552506E+04  0.13249818083E+04  0.25500000920E-02 0.  1.
       -2    1    3    3    0  502  0.75554493185E+03 -0.89636457223E+02 -0.18049654289E+04  0.19587707977E+04  0.25500000920E-02 0. -1.
</event>
<event>
 5   0  0.5370912E-07  0.3142159E+04  0.7818609E-02  0.8204262E-01
        1   -1    0    0  501    0  0.00000000000E+00  0.00000000000E+00  0.16882473643E+04  0.16882473643E+04  0.50400001928E-02 0. -1.
       -1   -1    0    0    0  501  0.00000000000E+00  0.00000000000E+00 -0.14620433789E+04  0.14620433789E+04  0.50400001928E-02 0.  1.
    10030    2    1    2    0    0  0.00000000000E+00  0.00000000000E+00  0.22620398535E+03  0.31502907432E+04  0.31421590545E+04 0.  0.
        1    1    3    3  502    0  0.13851525488E+04 -0.25325972521E+03 -0.58548154243E+03  0.15249841666E+04  0.50400001928E-02 0.  1.
       -1    1    3    3    0  502 -0.13851525488E+04  0.25325972521E+03  0.81168552778E+03  0.16253065766E+04  0.50400001928E-02 0. -1.
</event>
<event>
 5   0  0.5370912E-07  0.3195510E+04  0.7818609E-02  0.8190004E-01
       -1   -1    0    0    0  501  0.00000000000E+00  0.00000000000E+00  0.15986355638E+04  0.15986355638E+04  0.50400001928E-02 0. -1.
        1   -1    0    0  501    0  0.00000000000E+00  0.00000000000E+00 -0.15968753904E+04  0.15968753904E+04  0.50400001928E-02 0.  1.
    10030    2    1    2    0    0  0.00000000000E+00  0.00000000000E+00  0.17601733451E+01  0.31955109542E+04  0.31955104694E+04 0.  0.
        1    1    3    3  502    0 -0.12206207876E+04  0.65606977537E+03  0.79616577413E+03  0.15981935418E+04  0.50400001928E-02 0. -1.
       -1    1    3    3    0  502  0.12206207876E+04 -0.65606977537E+03 -0.79440560078E+03  0.15973174124E+04  0.50400001928E-02 0.  1.
</event>
<event>
 5   0  0.5317728E-07  0.3212871E+04  0.7818609E-02  0.8185426E-01
        1   -1    0    0  501    0  0.00000000000E+00  0.00000000000E+00  0.22506914938E+04  0.22506914938E+04  0.50400001928E-02 0.  1.
       -1   -1    0    0    0  501  0.00000000000E+00  0.00000000000E+00 -0.11465965114E+04  0.11465965114E+04  0.50400001928E-02 0. -1.
    10030    2    1    2    0    0  0.00000000000E+00  0.00000000000E+00  0.11040949823E+04  0.33972880052E+04  0.32128709996E+04 0.  0.
        2    1    3    3  502    0  0.41115414545E+03 -0.83322636243E+03  0.19377334997E+04  0.21489823215E+04  0.25500000920E-02 0.  1.
       -2    1    3    3    0  502 -0.41115414545E+03  0.83322636243E+03 -0.83363851733E+03  0.12483056837E+04  0.25500000920E-02 0. -1.
</event>
<event>
 5   0  0.1508771E-06  0.3138917E+04  0.7818609E-02  0.8205138E-01
       -2   -1    0    0    0  501  0.00000000000E+00  0.00000000000E+00  0.21599868999E+04  0.21599868999E+04  0.25500000920E-02 0. -1.
        2   -1    0    0  501    0  0.00000000000E+00  0.00000000000E+00 -0.11403771765E+04  0.11403771765E+04  0.25500000920E-02 0.  1.
    10030    2    1    2    0    0  0.00000000000E+00  0.00000000000E+00  0.10196097233E+04  0.33003640764E+04  0.31389168592E+04 0.  0.
        4    1    3    3  502    0  0.92808002095E+03 -0.42967570189E+03  0.17615168617E+04  0.20368841403E+04  0.12699999809E+01 0. -1.
       -4    1    3    3    0  502 -0.92808002095E+03  0.42967570189E+03 -0.74190713836E+03  0.12634799361E+04  0.12699999809E+01 0.  1.
</event>
<event>
 5   0  0.1572769E-06  0.3190867E+04  0.7818609E-02  0.8191233E-01
        2   -1    0    0  501    0  0.00000000000E+00  0.00000000000E+00  0.19637166957E+04  0.19637166957E+04  0.25500000920E-02 0. -1.
       -2   -1    0    0    0  501  0.00000000000E+00  0.00000000000E+00 -0.12962194326E+04  0.12962194327E+04  0.25500000920E-02 0.  1.
    10030    2    1    2    0    0  0.00000000000E+00  0.00000000000E+00  0.66749726309E+03  0.32599361284E+04  0.31908668046E+04 0.  0.
        5    1    3    3  502    0  0.81347689707E+03 -0.12703548142E+04  0.86445376156E+03  0.17386340650E+04  0.46999998093E+01 0. -1.
       -5    1    3    3    0  502 -0.81347689707E+03  0.12703548142E+04 -0.19695649847E+03  0.15213020634E+04  0.46999998093E+01 0.  1.
</event>
<event>
 5   0  0.1508771E-06  0.3200030E+04  0.7818609E-02  0.8188809E-01
       -2   -1    0    0    0  501  0.00000000000E+00  0.00000000000E+00  0.95217342524E+03  0.95217342524E+03  0.25500000920E-02 0. -1.
        2   -1    0    0  501    0  0.00000000000E+00  0.00000000000E+00 -0.26886357113E+04  0.26886357113E+04  0.25500000920E-02 0.  1.
    10030    2    1    2    0    0  0.00000000000E+00  0.00000000000E+00 -0.17364622861E+04  0.36408091365E+04  0.32000296714E+04 0.  0.
        4    1    3    3  502    0 -0.11056414196E+03  0.15505831187E+04 -0.12992439456E+04  0.20259735636E+04  0.12699999809E+01 0. -1.
       -4    1    3    3    0  502  0.11056414196E+03 -0.15505831187E+04 -0.43721834046E+03  0.16148355729E+04  0.12699999809E+01 0.  1.
</event>
<event>
 5   0  0.1538349E-06  0.3212434E+04  0.7818609E-02  0.8185541E-01
        2   -1    0    0  501    0  0.00000000000E+00  0.00000000000E+00  0.28296808963E+04  0.28296808963E+04  0.25500000920E-02 0.  1.
       -2   -1    0    0    0  501  0.00000000000E+00  0.00000000000E+00 -0.91174006862E+03  0.91174006862E+03  0.25500000920E-02 0. -1.
    10030    2    1    2    0    0  0.00000000000E+00  0.00000000000E+00  0.19179408277E+04  0.37414209649E+04  0.32124342512E+04 0.  0.
        1    1    3    3  502    0  0.94815307046E+03 -0.10752608517E+04  0.11528620376E+03  0.14382180131E+04  0.50400001928E-02 0. -1.
       -1    1    3    3    0  502 -0.94815307046E+03  0.10752608517E+04  0.18026546239E+04  0.23032029519E+04  0.50400001928E-02 0.  1.
</event>
<event>
 5   0  0.1572769E-06  0.3193158E+04  0.7818609E-02  0.8190626E-01
        2   -1    0    0  501    0  0.00000000000E+00  0.00000000000E+00  0.16041304537E+04  0.16041304537E+04  0.25500000920E-02 0. -1.
       -2   -1    0    0    0  501  0.00000000000E+00  0.00000000000E+00 -0.15890630129E+04  0.15890630129E+04  0.25500000920E-02 0.  1.
    10030    2    1    2    0    0  0.00000000000E+00  0.00000000000E+00  0.15067440751E+02  0.31931934666E+04  0.31931579177E+04 0.  0.
        5    1    3    3  502    0 -0.64193073618E+03  0.29631178713E+02  0.14690865818E+04  0.16034932341E+04  0.46999998093E+01 0. -1.
       -5    1    3    3    0  502  0.64193073618E+03 -0.29631178713E+02 -0.14540191411E+04  0.15897002325E+04  0.46999998093E+01 0.  1.
</event>
<event>
 5   0  0.1556396E-06  0.3207106E+04  0.7818609E-02  0.8186943E-01
        2   -1    0    0  501    0  0.00000000000E+00  0.00000000000E+00  0.21368057267E+04  0.21368057267E+04  0.25500000920E-02 0.  1.
       -2   -1    0    0    0  501  0.00000000000E+00  0.00000000000E+00 -0.12033769349E+04  0.12033769349E+04  0.25500000920E-02 0. -1.
    10030    2    1    2    0    0  0.00000000000E+00  0.00000000000E+00  0.93342879172E+03  0.33401826616E+04  0.32071063131E+04 0.  0.
        3    1    3    3  502    0  0.14231797213E+04 -0.15606877320E+03  0.12188900922E+04  0.18802901500E+04  0.10100000352E+00 0.  1.
       -3    1    3    3    0  502 -0.14231797213E+04  0.15606877320E+03 -0.28546130051E+03  0.14598925116E+04  0.10100000352E+00 0. -1.
</event>
<event>
 5   0  0.1508771E-06  0.3197479E+04  0.7818609E-02  0.8189483E-01
        2   -1    0    0  501    0  0.00000000000E+00  0.00000000000E+00  0.27756277389E+04  0.27756277389E+04  0.25500000920E-02 0. -1.
       -2   -1    0    0    0  501  0.00000000000E+00  0.00000000000E+00 -0.92086103757E+03  0.92086103757E+03  0.25500000920E-02 0.  1.
    10030    2    1    2    0    0  0.00000000000E+00  0.00000000000E+00  0.18547667014E+04  0.36964887765E+04  0.31974786564E+04 0.  0.
        4    1    3    3  502    0 -0.97730111967E+02  0.62113744729E+03  0.26266800639E+04  0.27008910890E+04  0.12699999809E+01 0. -1.
       -4    1    3    3    0  502  0.97730111967E+02 -0.62113744729E+03 -0.77191336258E+03  0.99559768754E+03  0.12699999809E+01 0.  1.
</event>
<event>
 5   0  0.5177039E-07  0.3205308E+04  0.7818609E-02  0.8187417E-01
        1   -1    0    0  501    0  0.00000000000E+00  0.00000000000E+00  0.17591801781E+04  0.17591801781E+04  0.50400001928E-02 0. -1.
       -1   -1    0    0    0  501  0.00000000000E+00  0.00000000000E+00 -0.14600553597E+04  0.14600553597E+04  0.50400001928E-02 0.  1.
    10030    2    1    2    0    0  0.00000000000E+00  0.00000000000E+00  0.29912481846E+03  0.32192355378E+04  0.32053083769E+04 0.  0.
        3    1    3    3  502    0  0.14807027917E+04  0.43418414570E+03  0.58446098027E+03  0.16500276596E+04  0.10100000352E+00 0. -1.
       -3    1    3    3    0  502 -0.14807027917E+04 -0.43418414570E+03 -0.28533616181E+03  0.15692078783E+04  0.10100000352E+00 0.  1.
</event>
<event>
 5   0  0.5317728E-07  0.3187312E+04  0.7818609E-02  0.8192176E-01
       -1   -1    0    0    0  501  0.00000000000E+00  0.00000000000E+00  0.24435779746E+04  0.24435779746E+04  0.50400001928E-02 0.  1.
        1   -1    0    0  501    0  0.00000000000E+00  0.00000000000E+00 -0.10393528403E+04  0.10393528404E+04  0.50400001928E-02 0. -1.
    10030    2    1    2    0    0  0.00000000000E+00  0.00000000000E+00  0.14042251343E+04  0.34829308150E+04  0.31873121645E+04 0.  0.
        2    1    3    3  502    0 -0.15189987807E+04 -0.30473680377E+03  0.29394809271E+03  0.15769043397E+04  0.25500000920E-02 0. -1.
       -2    1    3    3    0  502  0.15189987807E+04  0.30473680377E+03  0.11102770416E+04  0.19060264753E+04  0.25500000920E-02 0.  1.
</event>
<event>
 5   0  0.5281187E-07  0.3240508E+04  0.7818609E-02  0.8178200E-01
        1   -1    0    0  501    0  0.00000000000E+00  0.00000000000E+00  0.89592325760E+03  0.89592325761E+03  0.50400001928E-02 0.  1.
       -1   -1    0    0    0  501  0.00000000000E+00  0.00000000000E+00 -0.29301869704E+04  0.29301869704E+04  0.50400001928E-02 0. -1.
    10030    2    1    2    0    0  0.00000000000E+00  0.00000000000E+00 -0.20342637128E+04  0.38261102280E+04  0.32405077725E+04 0.  0.
        5    1    3    3  502    0 -0.12951589006E+04  0.97316316390E+03 -0.10487574388E+04  0.19298697824E+04  0.46999998093E+01 0. -1.
       -5    1    3    3    0  502  0.12951589006E+04 -0.97316316390E+03 -0.98550627399E+03  0.18962404456E+04  0.46999998093E+01 0.  1.
</event>
<event>
 5   0  0.1508771E-06  0.3172429E+04  0.7818609E-02  0.8196137E-01
        2   -1    0    0  501    0  0.00000000000E+00  0.00000000000E+00  0.21313891705E+04  0.21313891705E+04  0.25500000920E-02 0. -1.
       -2   -1    0    0    0  501  0.00000000000E+00  0.00000000000E+00 -0.11804868740E+04  0.11804868740E+04  0.25500000920E-02 0.  1.
    10030    2    1    2    0    0  0.00000000000E+00  0.00000000000E+00  0.95090229648E+03  0.33118760445E+04  0.31724293147E+04 0.  0.
        4    1    3    3  502    0 -0.55086788022E+03 -0.85333889368E+03  0.17473786761E+04  0.20211324894E+04  0.12699999809E+01 0. -1.
       -4    1    3    3    0  502  0.55086788022E+03  0.85333889368E+03 -0.79647637965E+03  0.12907435551E+04  0.12699999809E+01 0.  1.
</event>
<event>
 5   0  0.5370912E-07  0.3198573E+04  0.7818609E-02  0.8189194E-01
        1   -1    0    0  501    0  0.00000000000E+00  0.00000000000E+00  0.13491832701E+04  0.13491832701E+04  0.50400001928E-02 0. -1.
       -1   -1    0    0    0  501  0.00000000000E+00  0.00000000000E+00 -0.18957526616E+04  0.18957526616E+04  0.50400001928E-02 0.  1.
    10030    2    1    2    0    0  0.00000000000E+00  0.00000000000E+00 -0.54656939156E+03  0.32449359317E+04  0.31985732915E+04 0.  0.
        1    1    3    3  502    0  0.71503320963E+03  0.81813412154E+03  0.91722476169E+03  0.14219413473E+04  0.50400001928E-02 0. -1.
       -1    1    3    3    0  502 -0.71503320963E+03 -0.81813412154E+03 -0.14637941532E+04  0.18229945844E+04  0.50400001928E-02 0.  1.
</event>
<event>
 5   0  0.5281187E-07  0.3165205E+04  0.7818609E-02  0.8198067E-01
       -1   -1    0    0    0  501  0.00000000000E+00  0.00000000000E+00  0.14043266697E+04  0.14043266697E+04  0.50400001928E-02 0.  1.
        1   -1    0    0  501    0  0.00000000000E+00  0.00000000000E+00 -0.17835096117E+04  0.17835096117E+04  0.50400001928E-02 0. -1.
    10030    2    1    2    0    0  0.00000000000E+00  0.00000000000E+00 -0.37918294200E+03  0.31878362815E+04  0.31652046464E+04 0.  0.
        5    1    3    3  502    0 -0.10840209943E+04  0.10846499909E+04 -0.58359306291E+03  0.16407833714E+04  0.46999998093E+01 0. -1.
       -5    1    3    3    0  502  0.10840209943E+04 -0.10846499909E+04  0.20441012091E+03  0.15470529100E+04  0.46999998093E+01 0.  1.
</event>
<event>
 5   0  0.5370912E-07  0.3179178E+04  0.7818609E-02  0.8194338E-01
       -1   -1    0    0    0  501  0.00000000000E+00  0.00000000000E+00  0.15485317306E+04  0.15485317306E+04  0.50400001928E-02 0. -1.
        1   -1    0    0  501    0  0.00000000000E+00  0.00000000000E+00 -0.16317348510E+04  0.16317348510E+04  0.50400001928E-02 0.  1.
    10030    2    1    2    0    0  0.00000000000E+00  0.00000000000E+00 -0.83203120386E+02  0.31802665816E+04  0.31791780024E+04 0.  0.
        1    1    3    3  502    0 -0.11294849051E+04  0.83570986257E+03  0.70205467378E+03  0.15706775259E+04  0.50400001928E-02 0. -1.
       -1    1    3    3    0  502  0.11294849051E+04 -0.83570986257E+03 -0.78525779417E+03  0.16095890558E+04  0.50400001928E-02 0.  1.
</event>
<event>
 5   0  0.5317728E-07  0.3277453E+04  0.7818609E-02  0.8168656E-01
       -1   -1    0    0    0  501  0.00000000000E+00  0.00000000000E+00  0.10413280906E+04  0.10413280906E+04  0.50400001928E-02 0. -1.
        1   -1    0    0  501    0  0.00000000000E+00  0.00000000000E+00 -0.25788459263E+04  0.25788459263E+04  0.50400001928E-02 0.  1.
    10030    2    1    2    0    0  0.00000000000E+00  0.00000000000E+00 -0.15375178357E+04  0.36201740169E+04  0.32774530992E+04 0.  0.
        2    1    3    3  502    0 -0.83764643819E+03 -0.10898179348E+04 -0.17542860728E+04  0.22286485393E+04  0.25500000920E-02 0.  1.
       -2    1    3    3    0  502  0.83764643819E+03  0.10898179348E+04  0.21676823710E+03  0.13915254776E+04  0.25500000920E-02 0. -1.
</event>
<event>
 5   0  0.1572769E-06  0.3185044E+04  0.7818609E-02  0.8192778E-01
       -2   -1    0    0    0  501  0.00000000000E+00  0.00000000000E+00  0.13880225401E+04  0.13880225401E+04  0.25500000920E-02 0.  1.
        2   -1    0    0  501    0  0.00000000000E+00  0.00000000000E+00 -0.18271501645E+04  0.18271501645E+04  0.25500000920E-02 0. -1.
    10030    2    1    2    0    0  0.00000000000E+00  0.00000000000E+00 -0.43912762438E+03  0.32151727046E+04  0.31850435555E+04 0.  0.
        5    1    3    3  502    0  0.60048288524E+03 -0.46024445837E+03  0.11950124800E+04  0.14143838143E+04  0.46999998093E+01 0.  1.
       -5    1    3    3    0  502 -0.60048288524E+03  0.46024445837E+03 -0.16341401043E+04  0.18007888903E+04  0.46999998093E+01 0. -1.
</event>
<event>
 5   0  0.1508771E-06  0.3193064E+04  0.7818609E-02  0.8190651E-01
        2   -1    0    0  501    0  0.00000000000E+00  0.00000000000E+00  0.14551282414E+04  0.14551282414E+04  0.25500000920E-02 0.  1.
       -2   -1    0    0    0  501  0.00000000000E+00  0.00000000000E+00 -0.17516765919E+04  0.17516765919E+04  0.25500000920E-02 0. -1.
    10030    2    1    2    0    0  0.00000000000E+00  0.00000000000E+00 -0.29654835045E+03  0.32068048333E+04  0.31930637818E+04 0.  0.
        4    1    3    3  502    0 -0.15104935286E+04 -0.38074530680E+03 -0.49957195186E+03  0.16358885770E+04  0.12699999809E+01 0. -1.
       -4    1    3    3    0  502  0.15104935286E+04  0.38074530680E+03  0.20302360141E+03  0.15709162562E+04  0.12699999809E+01 0.  1.
</event>
<event>
 5   0  0.5177039E-07  0.3189354E+04  0.7818609E-02  0.8191635E-01
        1   -1    0    0  501    0  0.00000000000E+00  0.00000000000E+00  0.13620580816E+04  0.13620580816E+04  0.50400001928E-02 0. -1.
       -1   -1    0    0    0  501  0.00000000000E+00  0.00000000000E+00 -0.18670233473E+04  0.18670233473E+04  0.50400001928E-02 0.  1.
    10030    2    1    2    0    0  0.00000000000E+00  0.00000000000E+00 -0.50496526577E+03  0.32290814289E+04  0.31893536892E+04 0.  0.
        3    1    3    3  502    0  0.62421841723E+03  0.52515385079E+03 -0.16397913432E+04  0.18314887001E+04  0.10100000352E+00 0.  1.
       -3    1    3    3    0  502 -0.62421841723E+03 -0.52515385079E+03  0.11348260774E+04  0.13975927288E+04  0.10100000352E+00 0. -1.
</event>
<event>
 5   0  0.5317728E-07  0.3207219E+04  0.7818609E-02  0.8186913E-01
       -1   -1    0    0    0  501  0.00000000000E+00  0.00000000000E+00  0.11682689453E+04  0.11682689453E+04  0.50400001928E-02 0.  1.
        1   -1    0    0  501    0  0.00000000000E+00  0.00000000000E+00 -0.22011748031E+04  0.22011748031E+04  0.50400001928E-02 0. -1.
    10030    2    1    2    0    0  0.00000000000E+00  0.00000000000E+00 -0.10329058577E+04  0.33694437484E+04  0.32072194597E+04 0.  0.
        2    1    3    3  502    0  0.12001294680E+04  0.10461666273E+04 -0.71795866986E+03  0.17464936311E+04  0.25500000920E-02 0.  1.
       -2    1    3    3    0  502 -0.12001294680E+04 -0.10461666273E+04 -0.31494718788E+03  0.16229501173E+04  0.25500000920E-02 0. -1.
</event>
<event>
 5   0  0.1508771E-06  0.3198789E+04  0.7818609E-02  0.8189137E-01
       -2   -1    0    0    0  501  0.00000000000E+00  0.00000000000E+00  0.10070539270E+04  0.10070539270E+04  0.25500000920E-02 0.  1.
        2   -1    0    0  501    0  0.00000000000E+00  0.00000000000E+00 -0.25401455069E+04  0.25401455069E+04  0.25500000920E-02 0. -1.
    10030    2    1    2    0    0  0.00000000000E+00  0.00000000000E+00 -0.15330915800E+04  0.35471994339E+04  0.31987894635E+04 0.  0.
        4    1    3    3  502    0 -0.71410606738E+02 -0.12502171416E+04 -0.18698617322E+04  0.22504503741E+04  0.12699999809E+01 0. -1.
       -4    1    3    3    0  502  0.71410606738E+02  0.12502171416E+04  0.33677015220E+03  0.12967490599E+04  0.12699999809E+01 0.  1.
</event>
<event>
 5   0  0.5370912E-07  0.3215492E+04  0.7818609E-02  0.8184738E-01
       -1   -1    0    0    0  501  0.00000000000E+00  0.00000000000E+00  0.11194937761E+04  0.11194937761E+04  0.50400001928E-02 0. -1.
        1   -1    0    0  501    0  0.00000000000E+00  0.00000000000E+00 -0.23089422512E+04  0.23089422512E+04  0.50400001928E-02 0.  1.
    10030    2    1    2    0    0  0.00000000000E+00  0.00000000000E+00 -0.11894484751E+04  0.34284360273E+04  0.32154915516E+04 0.  0.
        1    1    3    3  502    0  0.44884780078E+03 -0.15306884394E+04 -0.80896648805E+03  0.17885464001E+04  0.50400001928E-02 0.  1.
       -1    1    3    3    0  502 -0.44884780078E+03  0.15306884394E+04 -0.38048198704E+03  0.16398896271E+04  0.50400001928E-02 0. -1.
</event>
<event>
 5   0  0.1508771E-06  0.3228809E+04  0.7818609E-02  0.8181250E-01
        2   -1    0    0  501    0  0.00000000000E+00  0.00000000000E+00  0.17945168722E+04  0.17945168722E+04  0.25500000920E-02 0. -1.
       -2   -1    0    0    0  501  0.00000000000E+00  0.00000000000E+00 -0.14523697956E+04  0.14523697956E+04  0.25500000920E-02 0.  1.
    10030    2    1    2    0    0  0.00000000000E+00  0.00000000000E+00  0.34214707660E+03  0.32468866678E+04  0.32288091321E+04 0.  0.
        4    1    3    3  502    0  0.50732373961E+03 -0.84538475237E+03 -0.11144608621E+04  0.14879776149E+04  0.12699999809E+01 0.  1.
       -4    1    3    3    0  502 -0.50732373961E+03  0.84538475237E+03  0.14566079387E+04  0.17589090529E+04  0.12699999809E+01 0. -1.
</event>
<event>
 5   0  0.5370912E-07  0.3177117E+04  0.7818609E-02  0.8194887E-01
       -1   -1    0    0    0  501  0.00000000000E+00  0.00000000000E+00  0.16486198307E+04  0.16486198308E+04  0.50400001928E-02 0. -1.
        1   -1    0    0  501    0  0.00000000000E+00  0.00000000000E+00 -0.15306852898E+04  0.15306852899E+04  0.50400001928E-02 0.  1.
    10030    2    1    2    0    0  0.00000000000E+00  0.00000000000E+00  0.11793454090E+03  0.31793051206E+04  0.31771170098E+04 0.  0.
        1    1    3    3  502    0  0.48211507108E+03 -0.99837019656E+02 -0.14524092166E+04  0.15335888969E+04  0.50400001928E-02 0.  1.
       -1    1    3    3    0  502 -0.48211507108E+03  0.99837019656E+02  0.15703437575E+04  0.16457162237E+04  0.50400001928E-02 0. -1.
</event>
<event>
 5   0  0.5370912E-07  0.3201753E+04  0.7818609E-02  0.8188354E-01
       -1   -1    0    0    0  501  0.00000000000E+00  0.00000000000E+00  0.10179349654E+04  0.10179349654E+04  0.50400001928E-02 0.  1.
        1   -1    0    0  501    0  0.00000000000E+00  0.00000000000E+00 -0.25176513874E+04  0.25176513874E+04  0.50400001928E-02 0. -1.
    10030    2    1    2    0    0  0.00000000000E+00  0.00000000000E+00 -0.14997164221E+04  0.35355863528E+04  0.32017528811E+04 0.  0.
        1    1    3    3  502    0 -0.64956017325E+03  0.14369820670E+04 -0.10542021683E+04  0.18968890562E+04  0.50400001928E-02 0.  1.
       -1    1    3    3    0  502  0.64956017325E+03 -0.14369820670E+04 -0.44551425373E+03  0.16386972966E+04  0.50400001928E-02 0. -1.
</event>
<event>
 5   0  0.1556396E-06  0.3258364E+04  0.7818609E-02  0.8173571E-01
       -2   -1    0    0    0  501  0.00000000000E+00  0.00000000000E+00  0.13329587668E+04  0.13329587668E+04  0.25500000920E-02 0. -1.
        2   -1    0    0  501    0  0.00000000000E+00  0.00000000000E+00 -0.19912350720E+04  0.19912350720E+04  0.25500000920E-02 0.  1.
    10030    2    1    2    0    0  0.00000000000E+00  0.00000000000E+00 -0.65827630517E+03  0.33241938388E+04  0.32583641576E+04 0.  0.
        3    1    3    3  502    0 -0.56597877496E+03 -0.34942443210E+03  0.11881222413E+04  0.13616401426E+04  0.10100000352E+00 0. -1.
       -3    1    3    3    0  502  0.56597877496E+03  0.34942443210E+03 -0.18463985465E+04  0.19625536961E+04  0.10100000352E+00 0.  1.
</event>
<event>
 5   0  0.5281187E-07  0.3202965E+04  0.7818609E-02  0.8188035E-01
        1   -1    0    0  501    0  0.00000000000E+00  0.00000000000E+00  0.24108657879E+04  0.24108657880E+04  0.50400001928E-02 0. -1.
       -1   -1    0    0    0  501  0.00000000000E+00  0.00000000000E+00 -0.10638276669E+04  0.10638276669E+04  0.50400001928E-02 0.  1.
    10030    2    1    2    0    0  0.00000000000E+00  0.00000000000E+00  0.13470381211E+04  0.34746934548E+04  0.32029647056E+04 0.  0.
        5    1    3    3  502    0 -0.60119966505E+03  0.13544980980E+04  0.14872665958E+02  0.14820085765E+04  0.46999998093E+01 0.  1.
       -5    1    3    3    0  502  0.60119966505E+03 -0.13544980980E+04  0.13321654551E+04  0.19926848783E+04  0.46999998093E+01 0. -1.
</event>
<event>
 5   0  0.1556396E-06  0.3182515E+04  0.7818609E-02  0.8193450E-01
        2   -1    0    0  501    0  0.00000000000E+00  0.00000000000E+00  0.17267207612E+04  0.17267207612E+04  0.25500000920E-02 0. -1.
       -2   -1    0    0    0  501  0.00000000000E+00  0.00000000000E+00 -0.14664214275E+04  0.14664214275E+04  0.25500000920E-02 0.  1.
    10030    2    1    2    0    0  0.00000000000E+00  0.00000000000E+00  0.26029933372E+03  0.31931421888E+04  0.31825149323E+04 0.  0.
        3    1    3    3  502    0  0.11178197364E+04 -0.11260911467E+04  0.93396208555E+01  0.15867228720E+04  0.10100000352E+00 0.  1.
       -3    1    3    3    0  502 -0.11178197364E+04  0.11260911467E+04  0.25095971286E+03  0.16064193168E+04  0.10100000352E+00 0. -1.
</event>
<event>
 5   0  0.1508771E-06  0.3225619E+04  0.7818609E-02  0.8182084E-01
        2   -1    0    0  501    0  0.00000000000E+00  0.00000000000E+00  0.17499447605E+04  0.17499447605E+04  0.25500000920E-02 0. -1.
       -2   -1    0    0    0  501  0.00000000000E+00  0.00000000000E+00 -0.14864207103E+04  0.14864207103E+04  0.25500000920E-02 0.  1.
    10030    2    1    2    0    0  0.00000000000E+00  0.00000000000E+00  0.26352405016E+03  0.32363654708E+04  0.32256187833E+04 0.  0.
        4    1    3    3  502    0  0.27786437853E+03 -0.72358001437E+03 -0.12872965528E+04  0.15026345789E+04  0.12699999809E+01 0.  1.
       -4    1    3    3    0  502 -0.27786437853E+03  0.72358001437E+03  0.15508206029E+04  0.17337308919E+04  0.12699999809E+01 0. -1.
</event>
<event>
 5   0  0.1556396E-06  0.3199332E+04  0.7818609E-02  0.8188994E-01
        2   -1    0    0  501    0  0.00000000000E+00  0.00000000000E+00  0.26194157074E+04  0.26194157074E+04  0.25500000920E-02 0.  1.
       -2   -1    0    0    0  501  0.00000000000E+00  0.00000000000E+00 -0.97690903789E+03  0.97690903789E+03  0.25500000920E-02 0. -1.
    10030    2    1    2    0    0  0.00000000000E+00  0.00000000000E+00  0.16425066695E+04  0.35963247453E+04  0.31993317293E+04 0.  0.
        3    1    3    3  502    0 -0.90422604071E+03 -0.37611587744E+03  0.22430526753E+04  0.24475238917E+04  0.10100000352E+00 0.  1.
       -3    1    3    3    0  502  0.90422604071E+03  0.37611587744E+03 -0.60054600580E+03  0.11488008536E+04  0.10100000352E+00 0. -1.
</event>
<event>
 5   0  0.1538349E-06  0.3209305E+04  0.7818609E-02  0.8186364E-01
        2   -1    0    0  501    0  0.00000000000E+00  0.00000000000E+00  0.18186881141E+04  0.18186881141E+04  0.25500000920E-02 0.  1.
       -2   -1    0    0    0  501  0.00000000000E+00  0.00000000000E+00 -0.14158058550E+04  0.14158058550E+04  0.25500000920E-02 0. -1.
    10030    2    1    2    0    0  0.00000000000E+00  0.00000000000E+00  0.40288225912E+03  0.32344939691E+04  0.32093047723E+04 0.  0.
        1    1    3    3  502    0 -0.12092575490E+03 -0.14743276950E+04 -0.42524642761E+03  0.15391880050E+04  0.50400001928E-02 0. -1.
       -1    1    3    3    0  502  0.12092575490E+03  0.14743276950E+04  0.82812868673E+03  0.16953059642E+04  0.50400001928E-02 0.  1.
</event>
<event>
 5   0  0.5317728E-07  0.3453674E+04  0.7818609E-02  0.8124857E-01
       -1   -1    0    0    0  501  0.00000000000E+00  0.00000000000E+00  0.13632332436E+04  0.13632332436E+04  0.50400001928E-02 0.  1.
        1   -1    0    0  501    0  0.00000000000E+00  0.00000000000E+00 -0.21874212384E+04  0.21874212384E+04  0.50400001928E-02 0. -1.
    10030    2    1    2    0    0  0.00000000000E+00  0.00000000000E+00 -0.82418799481E+03  0.35506544820E+04  0.34536736093E+04 0.  0.
        2    1    3    3  502    0 -0.89609826618E+03 -0.11468045182E+04 -0.13676076553E+04  0.19971237829E+04  0.25500000920E-02 0. -1.
       -2    1    3    3    0  502  0.89609826618E+03  0.11468045182E+04  0.54341966045E+03  0.15535306991E+04  0.25500000920E-02 0.  1.
</event>
<event>
 5   0  0.5233813E-07  0.3249495E+04  0.7818609E-02  0.8175867E-01
        1   -1    0    0  501    0  0.00000000000E+00  0.00000000000E+00  0.18762038588E+04  0.18762038588E+04  0.50400001928E-02 0.  1.
       -1   -1    0    0    0  501  0.00000000000E+00  0.00000000000E+00 -0.14069920253E+04  0.14069920253E+04  0.50400001928E-02 0. -1.
    10030    2    1    2    0    0  0.00000000000E+00  0.00000000000E+00  0.46921183347E+03  0.32831958841E+04  0.32494946482E+04 0.  0.
        4    1    3    3  502    0 -0.66439765612E+03 -0.11702111422E+04 -0.68532245748E+03  0.15101280894E+04  0.12699999809E+01 0. -1.
       -4    1    3    3    0  502  0.66439765612E+03  0.11702111422E+04  0.11545342910E+04  0.17730677947E+04  0.12699999809E+01 0.  1.
</event>
<event>
 5   0  0.1572769E-06  0.3210180E+04  0.7818609E-02  0.8186134E-01
       -2   -1    0    0    0  501  0.00000000000E+00  0.00000000000E+00  0.14484905825E+04  0.14484905825E+04  0.25500000920E-02 0. -1.
        2   -1    0    0  501    0  0.00000000000E+00  0.00000000000E+00 -0.17786192426E+04  0.17786192426E+04  0.25500000920E-02 0.  1.
    10030    2    1    2    0    0  0.00000000000E+00  0.00000000000E+00 -0.33012866013E+03  0.32271098251E+04  0.32101795730E+04 0.  0.
        5    1    3    3  502    0  0.61066341249E+03  0.14637907181E+04 -0.41273343498E+03  0.16388911032E+04  0.46999998093E+01 0.  1.
       -5    1    3    3    0  502 -0.61066341249E+03 -0.14637907181E+04  0.82604774854E+02  0.15882187219E+04  0.46999998093E+01 0. -1.
</event>
<event>
 5   0  0.5370912E-07  0.3174699E+04  0.7818609E-02  0.8195531E-01
       -1   -1    0    0    0  501  0.00000000000E+00  0.00000000000E+00  0.12886579508E+04  0.12886579508E+04  0.50400001928E-02 0. -1.
        1   -1    0    0  501    0  0.00000000000E+00  0.00000000000E+00 -0.19552735645E+04  0.19552735645E+04  0.50400001928E-02 0.  1.
    10030    2    1    2    0    0  0.00000000000E+00  0.00000000000E+00 -0.66661561365E+03  0.32439315153E+04  0.31746992455E+04 0.  0.
        1    1    3    3  502    0 -0.29380774055E+02  0.39090534151E+03 -0.19050352942E+04  0.19449497906E+04  0.50400001928E-02 0.  1.
       -1    1    3    3    0  502  0.29380774055E+02 -0.39090534151E+03  0.12384196805E+04  0.12989817247E+04  0.50400001928E-02 0. -1.
</event>
<event>
 5   0  0.5233813E-07  0.3201044E+04  0.7818609E-02  0.8188542E-01
        1   -1    0    0  501    0  0.00000000000E+00  0.00000000000E+00  0.13227231564E+04  0.13227231564E+04  0.50400001928E-02 0.  1.
       -1   -1    0    0    0  501  0.00000000000E+00  0.00000000000E+00 -0.19366640602E+04  0.19366640602E+04  0.50400001928E-02 0. -1.
    10030    2    1    2    0    0  0.00000000000E+00  0.00000000000E+00 -0.61394090380E+03  0.32593872166E+04  0.32010438289E+04 0.  0.
        4    1    3    3  502    0 -0.12797088319E+04  0.31341742833E+03 -0.12322595939E+04  0.18039818454E+04  0.12699999809E+01 0. -1.
       -4    1    3    3    0  502  0.12797088319E+04 -0.31341742833E+03  0.61831869012E+03  0.14554053712E+04  0.12699999809E+01 0.  1.
</event>
<event>
 5   0  0.5281187E-07  0.3196963E+04  0.7818609E-02  0.8189620E-01
       -1   -1    0    0    0  501  0.00000000000E+00  0.00000000000E+00  0.11311280228E+04  0.11311280228E+04  0.50400001928E-02 0.  1.
        1   -1    0    0  501    0  0.00000000000E+00  0.00000000000E+00 -0.22589333675E+04  0.22589333675E+04  0.50400001928E-02 0. -1.
    10030    2    1    2    0    0  0.00000000000E+00  0.00000000000E+00 -0.11278053447E+04  0.33900613903E+04  0.31969628297E+04 0.  0.
        5    1    3    3  502    0  0.37944909859E+03  0.11903241478E+03  0.10778257326E+04  0.11488606243E+04  0.46999998093E+01 0.  1.
       -5    1    3    3    0  502 -0.37944909859E+03 -0.11903241478E+03 -0.22056310773E+04  0.22412007660E+04  0.46999998093E+01 0. -1.
</event>
<event>
 5   0  0.1508771E-06  0.3179658E+04  0.7818609E-02  0.8194210E-01
       -2   -1    0    0    0  501  0.00000000000E+00  0.00000000000E+00  0.15237974253E+04  0.15237974253E+04  0.25500000920E-02 0.  1.
        2   -1    0    0  501    0  0.00000000000E+00  0.00000000000E+00 -0.16587218578E+04  0.16587218578E+04  0.25500000920E-02 0. -1.
    10030    2    1    2    0    0  0.00000000000E+00  0.00000000000E+00 -0.13492443248E+03  0.31825192831E+04  0.31796579037E+04 0.  0.
        4    1    3    3  502    0  0.98472712508E+03 -0.10032222382E+04  0.67577730980E+03  0.15597496451E+04  0.12699999809E+01 0.  1.
       -4    1    3    3    0  502 -0.98472712508E+03  0.10032222382E+04 -0.81070174228E+03  0.16227696380E+04  0.12699999809E+01 0. -1.
</event>
<event>
 5   0  0.5370912E-07  0.3195756E+04  0.7818609E-02  0.8189939E-01
       -1   -1    0    0    0  501  0.00000000000E+00  0.00000000000E+00  0.12780270133E+04  0.12780270134E+04  0.50400001928E-02 0. -1.
        1   -1    0    0  501    0  0.00000000000E+00  0.00000000000E+00 -0.19977775903E+04  0.19977775903E+04  0.50400001928E-02 0.  1.
    10030    2    1    2    0    0  0.00000000000E+00  0.00000000000E+00 -0.71975057694E+03  0.32758046036E+04  0.31957557648E+04 0.  0.
        1    1    3    3  502    0  0.39196912201E+03  0.84133567676E+03 -0.16931194914E+04  0.19308389694E+04  0.50400001928E-02 0.  1.
       -1    1    3    3    0  502 -0.39196912201E+03 -0.84133567676E+03  0.97336891446E+03  0.13449656342E+04  0.50400001928E-02 0. -1.
</event>
<event>
 5   0  0.1493485E-06  0.3166934E+04  0.7818609E-02  0.8197605E-01
       -2   -1    0    0    0  501  0.00000000000E+00  0.00000000000E+00  0.10148213891E+04  0.10148213892E+04  0.25500000920E-02 0. -1.
        2   -1    0    0  501    0  0.00000000000E+00  0.00000000000E+00 -0.24707471635E+04  0.24707471635E+04  0.25500000920E-02 0.  1.
    10030    2    1    2    0    0  0.00000000000E+00  0.00000000000E+00 -0.14559257744E+04  0.34855685527E+04  0.31669335760E+04 0.  0.
        2    1    3    3  502    0 -0.99176832728E+03 -0.11776379821E+04 -0.11352364846E+04  0.19129029008E+04  0.25500000920E-02 0.  1.
       -2    1    3    3    0  502  0.99176832728E+03  0.11776379821E+04 -0.32068928980E+03  0.15726656519E+04  0.25500000920E-02 0. -1.
</event>
<event>
 5   0  0.1572769E-06  0.3204501E+04  0.7818609E-02  0.8187629E-01
       -2   -1    0    0    0  501  0.00000000000E+00  0.00000000000E+00  0.15270982059E+04  0.15270982059E+04  0.25500000920E-02 0.  1.
        2   -1    0    0  501    0  0.00000000000E+00  0.00000000000E+00 -0.16811013205E+04  0.16811013205E+04  0.25500000920E-02 0. -1.
    10030    2    1    2    0    0  0.00000000000E+00  0.00000000000E+00 -0.15400311461E+03  0.32081995264E+04  0.32045010910E+04 0.  0.
        5    1    3    3  502    0  0.13839987274E+04  0.26763778496E+03  0.68552192923E+03  0.15674963690E+04  0.46999998093E+01 0.  1.
       -5    1    3    3    0  502 -0.13839987274E+04 -0.26763778496E+03 -0.83952504384E+03  0.16407031574E+04  0.46999998093E+01 0. -1.
</event>
<event>
 5   0  0.5177039E-07  0.3177726E+04  0.7818609E-02  0.8194725E-01
        1   -1    0    0  501    0  0.00000000000E+00  0.00000000000E+00  0.14663057407E+04  0.14663057407E+04  0.50400001928E-02 0.  1.
       -1   -1    0    0    0  501  0.00000000000E+00  0.00000000000E+00 -0.17216638111E+04  0.17216638111E+04  0.50400001928E-02 0. -1.
    10030    2    1    2    0    0  0.00000000000E+00  0.00000000000E+00 -0.25535807036E+03  0.31879695518E+04  0.31777259352E+04 0.  0.
        3    1    3    3  502    0  0.87325877897E+03  0.19865834535E+03  0.11889690528E+04  0.14885205581E+04  0.10100000352E+00 0.  1.
       -3    1    3    3    0  502 -0.87325877897E+03 -0.19865834535E+03 -0.14443271232E+04  0.16994489937E+04  0.10100000352E+00 0. -1.
</event>
<event>
 5   0  0.5281187E-07  0.3194357E+04  0.7818609E-02  0.8190309E-01
       -1   -1    0    0    0  501  0.00000000000E+00  0.00000000000E+00  0.15089101238E+04  0.15089101238E+04  0.50400001928E-02 0.  1.
        1   -1    0    0  501    0  0.00000000000E+00  0.00000000000E+00 -0.16906102153E+04  0.16906102153E+04  0.50400001928E-02 0. -1.
    10030    2    1    2    0    0  0.00000000000E+00  0.00000000000E+00 -0.18170009156E+03  0.31995203391E+04  0.31943568174E+04 0.  0.
        5    1    3    3  502    0  0.59773623825E+01  0.10289036939E+04 -0.13144130920E+04  0.16692460593E+04  0.46999998093E+01 0. -1.
       -5    1    3    3    0  502 -0.59773623825E+01 -0.10289036939E+04  0.11327130004E+04  0.15302742798E+04  0.46999998093E+01 0.  1.
</event>
<event>
 5   0  0.1493485E-06  0.3198820E+04  0.7818609E-02  0.8189129E-01
       -2   -1    0    0    0  501  0.00000000000E+00  0.00000000000E+00  0.18678147162E+04  0.18678147162E+04  0.25500000920E-02 0. -1.
        2   -1    0    0  501    0  0.00000000000E+00  0.00000000000E+00 -0.13695750118E+04  0.13695750118E+04  0.25500000920E-02 0.  1.
    10030    2    1    2    0    0  0.00000000000E+00  0.00000000000E+00  0.49823970433E+03  0.32373897280E+04  0.31988200087E+04 0.  0.
        2    1    3    3  502    0  0.10173146569E+04 -0.85236941511E+02 -0.99695182057E+03  0.14269223454E+04  0.25500000920E-02 0.  1.
       -2    1    3    3    0  502 -0.10173146569E+04  0.85236941511E+02  0.14951915249E+04  0.18104673826E+04  0.25500000920E-02 0. -1.
</event>
<event>
 5   0  0.5233813E-07  0.3162143E+04  0.7818609E-02  0.8198887E-01
        1   -1    0    0  501    0  0.00000000000E+00  0.00000000000E+00  0.22413472306E+04  0.22413472306E+04  0.50400001928E-02 0. -1.
       -1   -1    0    0    0  501  0.00000000000E+00  0.00000000000E+00 -0.11153055807E+04  0.11153055807E+04  0.50400001928E-02 0.  1.
    10030    2    1    2    0    0  0.00000000000E+00  0.00000000000E+00  0.11260416499E+04  0.33566528113E+04  0.31621429914E+04 0.  0.
        4    1    3    3  502    0 -0.53017536730E+03  0.54602625797E+03 -0.90806590469E+03  0.11848273691E+04  0.12699999809E+01 0.  1.
       -4    1    3    3    0  502  0.53017536730E+03 -0.54602625797E+03  0.20341075546E+04  0.21718254422E+04  0.12699999809E+01 0. -1.
</event>
<event>
 5   0  0.1556396E-06  0.3195794E+04  0.7818609E-02  0.8189929E-01
        2   -1    0    0  501    0  0.00000000000E+00  0.00000000000E+00  0.15423119535E+04  0.15423119535E+04  0.25500000920E-02 0. -1.
       -2   -1    0    0    0  501  0.00000000000E+00  0.00000000000E+00 -0.16554849798E+04  0.16554849798E+04  0.25500000920E-02 0.  1.
    10030    2    1    2    0    0  0.00000000000E+00  0.00000000000E+00 -0.11317302629E+03  0.31977969334E+04  0.31957936562E+04 0.  0.
        3    1    3    3  502    0 -0.62969542970E+02  0.38817067891E+03 -0.16063093022E+04  0.16537446066E+04  0.10100000352E+00 0.  1.
       -3    1    3    3    0  502  0.62969542970E+02 -0.38817067891E+03  0.14931362759E+04  0.15440523268E+04  0.10100000352E+00 0. -1.
</event>
<event>
 5   0  0.1572769E-06  0.3186736E+04  0.7818609E-02  0.8192329E-01
       -2   -1    0    0    0  501  0.00000000000E+00  0.00000000000E+00  0.18606658291E+04  0.18606658291E+04  0.25500000920E-02 0.  1.
        2   -1    0    0  501    0  0.00000000000E+00  0.00000000000E+00 -0.13644693714E+04  0.13644693714E+04  0.25500000920E-02 0. -1.
    10030    2    1    2    0    0  0.00000000000E+00  0.00000000000E+00  0.49619645762E+03  0.32251352005E+04  0.31867359691E+04 0.  0.
        5    1    3    3  502    0  0.71030499570E+03  0.85185025002E+00 -0.11953647948E+04  0.13904866038E+04  0.46999998093E+01 0. -1.
       -5    1    3    3    0  502 -0.71030499570E+03 -0.85185025002E+00  0.16915612525E+04  0.18346485967E+04  0.46999998093E+01 0.  1.
</event>
<event>
 5   0  0.1508771E-06  0.3191270E+04  0.7818609E-02  0.8191127E-01
       -2   -1    0    0    0  501  0.00000000000E+00  0.00000000000E+00  0.16007376551E+04  0.16007376551E+04  0.25500000920E-02 0.  1.
        2   -1    0    0  501    0  0.00000000000E+00  0.00000000000E+00 -0.15905486254E+04  0.15905486254E+04  0.25500000920E-02 0. -1.
    10030    2    1    2    0    0  0.00000000000E+00  0.00000000000E+00  0.10189029694E+02  0.31912862805E+04  0.31912700149E+04 0.  0.
        4    1    3    3  502    0  0.16697278167E+03  0.14125583567E+04 -0.71799176837E+03  0.15933344951E+04  0.12699999809E+01 0. -1.
       -4    1    3    3    0  502 -0.16697278167E+03 -0.14125583567E+04  0.72818079806E+03  0.15979517854E+04  0.12699999809E+01 0.  1.
</event>
<event>
 5   0  0.5233813E-07  0.3185060E+04  0.7818609E-02  0.8192774E-01
       -1   -1    0    0    0  501  0.00000000000E+00  0.00000000000E+00  0.17567382077E+04  0.17567382077E+04  0.50400001928E-02 0.  1.
        1   -1    0    0  501    0  0.00000000000E+00  0.00000000000E+00 -0.14436706790E+04  0.14436706790E+04  0.50400001928E-02 0. -1.
    10030    2    1    2    0    0  0.00000000000E+00  0.00000000000E+00  0.31306752869E+03  0.32004088868E+04  0.31850597742E+04 0.  0.
        4    1    3    3  502    0 -0.12749438200E+04 -0.49526345096E+03  0.97617437698E+03  0.16803825925E+04  0.12699999809E+01 0. -1.
       -4    1    3    3    0  502  0.12749438200E+04  0.49526345096E+03 -0.66310684828E+03  0.15200262943E+04  0.12699999809E+01 0.  1.
</event>
<event>
 5   0  0.1538349E-06  0.3073867E+04  0.7818609E-02  0.8222947E-01
        2   -1    0    0  501    0  0.00000000000E+00  0.00000000000E+00  0.20968262523E+04  0.20968262523E+04  0.25500000920E-02 0.  1.
       -2   -1    0    0    0  501  0.00000000000E+00  0.00000000000E+00 -0.11265426780E+04  0.11265426780E+04  0.25500000920E-02 0. -1.
    10030    2    1    2    0    0  0.00000000000E+00  0.00000000000E+00  0.97028357430E+03  0.32233689303E+04  0.30738667906E+04 0.  0.
        1    1    3    3  502    0 -0.80820431288E+03  0.33560891249E+03  0.18100543642E+04  0.20105035078E+04  0.50400001928E-02 0.  1.
       -1    1    3    3    0  502  0.80820431288E+03 -0.33560891249E+03 -0.83977078990E+03  0.12128654225E+04  0.50400001928E-02 0. -1.
</event>
<event>
 5   0  0.5370912E-07  0.3205914E+04  0.7818609E-02  0.8187257E-01
       -1   -1    0    0    0  501  0.00000000000E+00  0.00000000000E+00  0.14687792248E+04  0.14687792248E+04  0.50400001928E-02 0. -1.
        1   -1    0    0  501    0  0.00000000000E+00  0.00000000000E+00 -0.17493922601E+04  0.17493922601E+04  0.50400001928E-02 0.  1.
    10030    2    1    2    0    0  0.00000000000E+00  0.00000000000E+00 -0.28061303524E+03  0.32181714849E+04  0.32059139150E+04 0.  0.
        1    1    3    3  502    0 -0.29810076677E+03  0.56167209416E+03  0.13367579641E+04  0.14802910062E+04  0.50400001928E-02 0. -1.
       -1    1    3    3    0  502  0.29810076677E+03 -0.56167209416E+03 -0.16173709994E+04  0.17378804787E+04  0.50400001928E-02 0.  1.
</event>
<event>
 5   0  0.1508771E-06  0.3192914E+04  0.7818609E-02  0.8190691E-01
        2   -1    0    0  501    0  0.00000000000E+00  0.00000000000E+00  0.16372498399E+04  0.16372498399E+04  0.25500000920E-02 0. -1.
       -2   -1    0    0    0  501  0.00000000000E+00  0.00000000000E+00 -0.15566809602E+04  0.15566809602E+04  0.25500000920E-02 0.  1.
    10030    2    1    2    0    0  0.00000000000E+00  0.00000000000E+00  0.80568879673E+02  0.31939308001E+04  0.31929144384E+04 0.  0.
        4    1    3    3  502    0  0.78101939713E+03 -0.12083085037E+04  0.73236686994E+03  0.16144236073E+04  0.12699999809E+01 0. -1.
       -4    1    3    3    0  502 -0.78101939713E+03  0.12083085037E+04 -0.65179799027E+03  0.15795071927E+04  0.12699999809E+01 0.  1.
</event>
<event>
 5   0  0.5370912E-07  0.3200008E+04  0.7818609E-02  0.8188815E-01
        1   -1    0    0  501    0  0.00000000000E+00  0.00000000000E+00  0.20520294865E+04  0.20520294865E+04  0.50400001928E-02 0.  1.
       -1   -1    0    0    0  501  0.00000000000E+00  0.00000000000E+00 -0.12475513035E+04  0.12475513035E+04  0.50400001928E-02 0. -1.
    10030    2    1    2    0    0  0.00000000000E+00  0.00000000000E+00  0.80447818300E+03  0.32995807900E+04  0.32000075379E+04 0.  0.
        1    1    3    3  502    0  0.10427002218E+04 -0.33893643402E+03  0.16037931721E+04  0.19427439867E+04  0.50400001928E-02 0.  1.
       -1    1    3    3    0  502 -0.10427002218E+04  0.33893643402E+03 -0.79931498914E+03  0.13568368033E+04  0.50400001928E-02 0. -1.
</event>
<event>
 5   0  0.1572769E-06  0.3199438E+04  0.7818609E-02  0.8188966E-01
       -2   -1    0    0    0  501  0.00000000000E+00  0.00000000000E+00  0.12722332792E+04  0.12722332792E+04  0.25500000920E-02 0.  1.
        2   -1    0    0  501    0  0.00000000000E+00  0.00000000000E+00 -0.20115031359E+04  0.20115031359E+04  0.25500000920E-02 0. -1.
    10030    2    1    2    0    0  0.00000000000E+00  0.00000000000E+00 -0.73926985674E+03  0.32837364151E+04  0.31994382199E+04 0.  0.
        5    1    3    3  502    0  0.10931018830E+04 -0.22715594950E+03 -0.15455122540E+04  0.19065942855E+04  0.46999998093E+01 0. -1.
       -5    1    3    3    0  502 -0.10931018830E+04  0.22715594950E+03  0.80624239726E+03  0.13771421296E+04  0.46999998093E+01 0.  1.
</event>
<event>
 5   0  0.1572769E-06  0.2872477E+04  0.7818609E-02  0.8281114E-01
        2   -1    0    0  501    0  0.00000000000E+00  0.00000000000E+00  0.16036584073E+04  0.16036584073E+04  0.25500000920E-02 0.  1.
       -2   -1    0    0    0  501  0.00000000000E+00  0.00000000000E+00 -0.12862969124E+04  0.12862969124E+04  0.25500000920E-02 0. -1.
    10030    2    1    2    0    0  0.00000000000E+00  0.00000000000E+00  0.31736149492E+03  0.28899553198E+04  0.28724768810E+04 0.  0.
        5    1    3    3  502    0  0.62650915895E+03 -0.86677942292E+03  0.11231264978E+04  0.15508886209E+04  0.46999998093E+01 0.  1.
       -5    1    3    3    0  502 -0.62650915895E+03  0.86677942292E+03 -0.80576500288E+03  0.13390666989E+04  0.46999998093E+01 0. -1.
</event>
<event>
 5   0  0.1493485E-06  0.3164315E+04  0.7818609E-02  0.8198306E-01
        2   -1    0    0  501    0  0.00000000000E+00  0.00000000000E+00  0.16325819237E+04  0.16325819237E+04  0.25500000920E-02 0.  1.
       -2   -1    0    0    0  501  0.00000000000E+00  0.00000000000E+00 -0.15332901925E+04  0.15332901925E+04  0.25500000920E-02 0. -1.
    10030    2    1    2    0    0  0.00000000000E+00  0.00000000000E+00  0.99291731190E+02  0.31658721162E+04  0.31643146822E+04 0.  0.
        2    1    3    3  502    0 -0.12543750570E+04  0.70558811728E+03 -0.60787656210E+03  0.15623140817E+04  0.25500000920E-02 0. -1.
       -2    1    3    3    0  502  0.12543750570E+04 -0.70558811728E+03  0.70716829329E+03  0.16035580345E+04  0.25500000920E-02 0.  1.
</event>
<event>
 5   0  0.1493485E-06  0.3193108E+04  0.7818609E-02  0.8190640E-01
       -2   -1    0    0    0  501  0.00000000000E+00  0.00000000000E+00  0.99261286097E+03  0.99261286097E+03  0.25500000920E-02 0. -1.
        2   -1    0    0  501    0  0.00000000000E+00  0.00000000000E+00 -0.25679550123E+04  0.25679550123E+04  0.25500000920E-02 0.  1.
    10030    2    1    2    0    0  0.00000000000E+00  0.00000000000E+00 -0.15753421513E+04  0.35605678732E+04  0.31931083111E+04 0.  0.
        2    1    3    3  502    0 -0.87801219029E+03 -0.10763082446E+04 -0.16654304094E+04  0.21686408860E+04  0.25500000920E-02 0.  1.
       -2    1    3    3    0  502  0.87801219029E+03  0.10763082446E+04  0.90088258126E+02  0.13919269873E+04  0.25500000920E-02 0. -1.
</event>
<event>
 5   0  0.1538349E-06  0.3104470E+04  0.7818609E-02  0.8214512E-01
        2   -1    0    0  501    0  0.00000000000E+00  0.00000000000E+00  0.24526416897E+04  0.24526416897E+04  0.25500000920E-02 0. -1.
       -2   -1    0    0    0  501  0.00000000000E+00  0.00000000000E+00 -0.98238285351E+03  0.98238285351E+03  0.25500000920E-02 0.  1.
    10030    2    1    2    0    0  0.00000000000E+00  0.00000000000E+00  0.14702588362E+04  0.34350245433E+04  0.31044697723E+04 0.  0.
        1    1    3    3  502    0  0.11271538617E+04 -0.10389348824E+04  0.46506825857E+03  0.16019207231E+04  0.50400001928E-02 0.  1.
       -1    1    3    3    0  502 -0.11271538617E+04  0.10389348824E+04  0.10051905777E+04  0.18331038201E+04  0.50400001928E-02 0. -1.
</event>
<event>
 5   0  0.5281187E-07  0.3189053E+04  0.7818609E-02  0.8191714E-01
        1   -1    0    0  501    0  0.00000000000E+00  0.00000000000E+00  0.19471136904E+04  0.19471136904E+04  0.50400001928E-02 0. -1.
       -1   -1    0    0    0  501  0.00000000000E+00  0.00000000000E+00 -0.13057868750E+04  0.13057868751E+04  0.50400001928E-02 0.  1.
    10030    2    1    2    0    0  0.00000000000E+00  0.00000000000E+00  0.64132681539E+03  0.32529005655E+04  0.31890534654E+04 0.  0.
        5    1    3    3  502    0  0.87928187245E+03  0.46670476329E+03  0.15912110677E+04  0.18769455771E+04  0.46999998093E+01 0. -1.
       -5    1    3    3    0  502 -0.87928187245E+03 -0.46670476329E+03 -0.94988425234E+03  0.13759549884E+04  0.46999998093E+01 0.  1.
</event>
<event>
 5   0  0.5177039E-07  0.3010455E+04  0.7818609E-02  0.8240752E-01
       -1   -1    0    0    0  501  0.00000000000E+00  0.00000000000E+00  0.11172716447E+04  0.11172716447E+04  0.50400001928E-02 0. -1.
        1   -1    0    0  501    0  0.00000000000E+00  0.00000000000E+00 -0.20278957405E+04  0.20278957405E+04  0.50400001928E-02 0.  1.
    10030    2    1    2    0    0  0.00000000000E+00  0.00000000000E+00 -0.91062409575E+03  0.31451673852E+04  0.30104553870E+04 0.  0.
        3    1    3    3  502    0 -0.81734131077E+03  0.10584158989E+04  0.26656225730E+03  0.13635785568E+04  0.10100000352E+00 0. -1.
       -3    1    3    3    0  502  0.81734131077E+03 -0.10584158989E+04 -0.11771863531E+04  0.17815888284E+04  0.10100000352E+00 0.  1.
</event>
<event>
 5   0  0.1556396E-06  0.3165031E+04  0.7818609E-02  0.8198114E-01
        2   -1    0    0  501    0  0.00000000000E+00  0.00000000000E+00  0.18487816844E+04  0.18487816844E+04  0.25500000920E-02 0.  1.
       -2   -1    0    0    0  501  0.00000000000E+00  0.00000000000E+00 -0.13545973274E+04  0.13545973274E+04  0.25500000920E-02 0. -1.
    10030    2    1    2    0    0  0.00000000000E+00  0.00000000000E+00  0.49418435694E+03  0.32033790118E+04  0.31650306341E+04 0.  0.
        3    1    3    3  502    0  0.67325028751E+03  0.51283023238E+03  0.16004903062E+04  0.18104778450E+04  0.10100000352E+00 0.  1.
       -3    1    3    3    0  502 -0.67325028751E+03 -0.51283023238E+03 -0.11063059493E+04  0.13929011668E+04  0.10100000352E+00 0. -1.
</event>
<event>
 5   0  0.5370912E-07  0.3199086E+04  0.7818609E-02  0.8189059E-01
        1   -1    0    0  501    0  0.00000000000E+00  0.00000000000E+00  0.15433677366E+04  0.15433677366E+04  0.50400001928E-02 0. -1.
       -1   -1    0    0    0  501  0.00000000000E+00  0.00000000000E+00 -0.16577625522E+04  0.16577625522E+04  0.50400001928E-02 0.  1.
    10030    2    1    2    0    0  0.00000000000E+00  0.00000000000E+00 -0.11439481553E+03  0.32011302888E+04  0.31990856431E+04 0.  0.
        1    1    3    3  502    0 -0.82208688222E+03 -0.12113441397E+04 -0.70209032703E+03  0.16236108813E+04  0.50400001928E-02 0.  1.
       -1    1    3    3    0  502  0.82208688222E+03  0.12113441397E+04  0.58769551149E+03  0.15775194075E+04  0.50400001928E-02 0. -1.
</event>
<event>
 5   0  0.1493485E-06  0.3217929E+04  0.7818609E-02  0.8184098E-01
       -2   -1    0    0    0  501  0.00000000000E+00  0.00000000000E+00  0.13169912150E+04  0.13169912150E+04  0.25500000920E-02 0. -1.
        2   -1    0    0  501    0  0.00000000000E+00  0.00000000000E+00 -0.19656677512E+04  0.19656677512E+04  0.25500000920E-02 0.  1.
    10030    2    1    2    0    0  0.00000000000E+00  0.00000000000E+00 -0.64867653626E+03  0.32826589662E+04  0.32179292472E+04 0.  0.
        2    1    3    3  502    0 -0.11301471933E+04  0.94936415566E+03 -0.97772367707E+03  0.17704430427E+04  0.25500000920E-02 0.  1.
       -2    1    3    3    0  502  0.11301471933E+04 -0.94936415566E+03  0.32904714081E+03  0.15122159236E+04  0.25500000920E-02 0. -1.
</event>
<event>
 5   0  0.5233813E-07  0.3154321E+04  0.7818609E-02  0.8200986E-01
       -1   -1    0    0    0  501  0.00000000000E+00  0.00000000000E+00  0.89293789131E+03  0.89293789132E+03  0.50400001928E-02 0. -1.
        1   -1    0    0  501    0  0.00000000000E+00  0.00000000000E+00 -0.27856754183E+04  0.27856754183E+04  0.50400001928E-02 0.  1.
    10030    2    1    2    0    0  0.00000000000E+00  0.00000000000E+00 -0.18927375270E+04  0.36786133096E+04  0.31543209310E+04 0.  0.
        4    1    3    3  502    0 -0.31454983843E+03  0.86255073619E+03 -0.24418981611E+04  0.26087935172E+04  0.12699999809E+01 0.  1.
       -4    1    3    3    0  502  0.31454983843E+03 -0.86255073619E+03  0.54916063408E+03  0.10698197924E+04  0.12699999809E+01 0. -1.
</event>
<event>
 5   0  0.5370912E-07  0.3177701E+04  0.7818609E-02  0.8194731E-01
       -1   -1    0    0    0  501  0.00000000000E+00  0.00000000000E+00  0.15666411847E+04  0.15666411847E+04  0.50400001928E-02 0.  1.
        1   -1    0    0  501    0  0.00000000000E+00  0.00000000000E+00 -0.16113743689E+04  0.16113743689E+04  0.50400001928E-02 0. -1.
    10030    2    1    2    0    0  0.00000000000E+00  0.00000000000E+00 -0.44733184148E+02  0.31780155536E+04  0.31777007098E+04 0.  0.
        1    1    3    3  502    0 -0.11095354349E+04 -0.11034775936E+04  0.25282202254E+03  0.15851342706E+04  0.50400001928E-02 0. -1.
       -1    1    3    3    0  502  0.11095354349E+04  0.11034775936E+04 -0.29755520669E+03  0.15928812830E+04  0.50400001928E-02 0.  1.
</event>
<event>
 5   0  0.5317728E-07  0.3217328E+04  0.7818609E-02  0.8184256E-01
       -1   -1    0    0    0  501  0.00000000000E+00  0.00000000000E+00  0.86687181493E+03  0.86687181494E+03  0.50400001928E-02 0.  1.
        1   -1    0    0  501    0  0.00000000000E+00  0.00000000000E+00 -0.29852169086E+04  0.29852169086E+04  0.50400001928E-02 0. -1.
    10030    2    1    2    0    0  0.00000000000E+00  0.00000000000E+00 -0.21183450937E+04  0.38520887235E+04  0.32173283324E+04 0.  0.
        2    1    3    3  502    0  0.25875804935E+03 -0.54065499193E+03 -0.28465274994E+04  0.29089486680E+04  0.25500000920E-02 0. -1.
       -2    1    3    3    0  502 -0.25875804935E+03  0.54065499193E+03  0.72818240570E+03  0.94314005555E+03  0.25500000920E-02 0.  1.
</event>
<event>
 5   0  0.5177039E-07  0.3180768E+04  0.7818609E-02  0.8193915E-01
       -1   -1    0    0    0  501  0.00000000000E+00  0.00000000000E+00  0.12685267928E+04  0.12685267928E+04  0.50400001928E-02 0. -1.
        1   -1    0    0  501    0  0.00000000000E+00  0.00000000000E+00 -0.19939044454E+04  0.19939044454E+04  0.50400001928E-02 0.  1.
    10030    2    1    2    0    0  0.00000000000E+00  0.00000000000E+00 -0.72537765254E+03  0.32624312382E+04  0.31807679647E+04 0.  0.
        3    1    3    3  502    0 -0.13139181886E+04  0.89499641293E+03 -0.40765051664E+03  0.16412125211E+04  0.10100000352E+00 0.  1.
       -3    1    3    3    0  502  0.13139181886E+04 -0.89499641293E+03 -0.31772713590E+03  0.16212187171E+04  0.10100000352E+00 0. -1.
</event>
<event>
 5   0  0.1508771E-06  0.3201113E+04  0.7818609E-02  0.8188523E-01
       -2   -1    0    0    0  501  0.00000000000E+00  0.00000000000E+00  0.28945375093E+04  0.28945375093E+04  0.25500000920E-02 0. -1.
        2   -1    0    0  501    0  0.00000000000E+00  0.00000000000E+00 -0.88503968268E+03  0.88503968269E+03  0.25500000920E-02 0.  1.
    10030    2    1    2    0    0  0.00000000000E+00  0.00000000000E+00  0.20094978266E+04  0.37795771920E+04  0.32011126558E+04 0.  0.
        4    1    3    3  502    0 -0.29083059554E+03 -0.14160382714E+04  0.18159490946E+04  0.23210815471E+04  0.12699999809E+01 0.  1.
       -4    1    3    3    0  502  0.29083059554E+03  0.14160382714E+04  0.19354873202E+03  0.14584956448E+04  0.12699999809E+01 0. -1.
</event>
<event>
 5   0  0.1508771E-06  0.3201928E+04  0.7818609E-02  0.8188308E-01
       -2   -1    0    0    0  501  0.00000000000E+00  0.00000000000E+00  0.11296505472E+04  0.11296505472E+04  0.25500000920E-02 0.  1.
        2   -1    0    0  501    0  0.00000000000E+00  0.00000000000E+00 -0.22689196009E+04  0.22689196009E+04  0.25500000920E-02 0. -1.
    10030    2    1    2    0    0  0.00000000000E+00  0.00000000000E+00 -0.11392690537E+04  0.33985701481E+04  0.32019283370E+04 0.  0.
        4    1    3    3  502    0  0.52414484057E+03  0.66128786627E+03  0.87445565639E+03  0.12151970062E+04  0.12699999809E+01 0.  1.
       -4    1    3    3    0  502 -0.52414484057E+03 -0.66128786627E+03 -0.20137247101E+04  0.21833731419E+04  0.12699999809E+01 0. -1.
</event>
<event>
 5   0  0.5317728E-07  0.3199185E+04  0.7818609E-02  0.8189033E-01
       -1   -1    0    0    0  501  0.00000000000E+00  0.00000000000E+00  0.11753145694E+04  0.11753145694E+04  0.50400001928E-02 0.  1.
        1   -1    0    0  501    0  0.00000000000E+00  0.00000000000E+00 -0.21770303626E+04  0.21770303626E+04  0.50400001928E-02 0. -1.
    10030    2    1    2    0    0  0.00000000000E+00  0.00000000000E+00 -0.10017157932E+04  0.33523449320E+04  0.31991845856E+04 0.  0.
        2    1    3    3  502    0 -0.21900646511E+03 -0.10496540166E+04 -0.17446804893E+04  0.20478396901E+04  0.25500000920E-02 0. -1.
       -2    1    3    3    0  502  0.21900646511E+03  0.10496540166E+04  0.74296469613E+03  0.13045052419E+04  0.25500000920E-02 0.  1.
</event>
<event>
 5   0  0.1508771E-06  0.3213426E+04  0.7818609E-02  0.8185280E-01
        2   -1    0    0  501    0  0.00000000000E+00  0.00000000000E+00  0.14955120799E+04  0.14955120799E+04  0.25500000920E-02 0.  1.
       -2   -1    0    0    0  501  0.00000000000E+00  0.00000000000E+00 -0.17261825206E+04  0.17261825206E+04  0.25500000920E-02 0. -1.
    10030    2    1    2    0    0  0.00000000000E+00  0.00000000000E+00 -0.23067044067E+03  0.32216946005E+04  0.32134260917E+04 0.  0.
        4    1    3    3  502    0  0.37462746225E+03 -0.79576018753E+03  0.12327231065E+04  0.15143275345E+04  0.12699999809E+01 0. -1.
       -4    1    3    3    0  502 -0.37462746225E+03  0.79576018753E+03 -0.14633935471E+04  0.17073670660E+04  0.12699999809E+01 0.  1.
</event>
<event>
 5   0  0.1538349E-06  0.3240488E+04  0.7818609E-02  0.8178206E-01
        2   -1    0    0  501    0  0.00000000000E+00  0.00000000000E+00  0.85004665823E+03  0.85004665823E+03  0.25500000920E-02 0. -1.
       -2   -1    0    0    0  501  0.00000000000E+00  0.00000000000E+00 -0.30882892558E+04  0.30882892558E+04  0.25500000920E-02 0.  1.
    10030    2    1    2    0    0  0.00000000000E+00  0.00000000000E+00 -0.22382425975E+04  0.39383359140E+04  0.32404875939E+04 0.  0.
        1    1    3    3  502    0  0.83560973553E+03 -0.61382471425E+03  0.39406163150E+03  0.11091929406E+04  0.50400001928E-02 0. -1.
       -1    1    3    3    0  502 -0.83560973553E+03  0.61382471425E+03 -0.26323042291E+04  0.28291429735E+04  0.50400001928E-02 0.  1.
</event>
<event>
 5   0  0.1508771E-06  0.3206649E+04  0.7818609E-02  0.8187063E-01
       -2   -1    0    0    0  501  0.00000000000E+00  0.00000000000E+00  0.12631040716E+04  0.12631040716E+04  0.25500000920E-02 0. -1.
        2   -1    0    0  501    0  0.00000000000E+00  0.00000000000E+00 -0.20351839170E+04  0.20351839170E+04  0.25500000920E-02 0.  1.
    10030    2    1    2    0    0  0.00000000000E+00  0.00000000000E+00 -0.77207984546E+03  0.32982879886E+04  0.32066487753E+04 0.  0.
        4    1    3    3  502    0  0.15536419862E+04 -0.13764649968E+03 -0.40821310323E+01  0.15597333929E+04  0.12699999809E+01 0. -1.
       -4    1    3    3    0  502 -0.15536419862E+04  0.13764649968E+03 -0.76799771443E+03  0.17385545957E+04  0.12699999809E+01 0.  1.
</event>
<event>
 5   0  0.5177039E-07  0.3210116E+04  0.7818609E-02  0.8186151E-01
        1   -1    0    0  501    0  0.00000000000E+00  0.00000000000E+00  0.18405543628E+04  0.18405543629E+04  0.50400001928E-02 0. -1.
       -1   -1    0    0    0  501  0.00000000000E+00  0.00000000000E+00 -0.13996930360E+04  0.13996930360E+04  0.50400001928E-02 0.  1.
    10030    2    1    2    0    0  0.00000000000E+00  0.00000000000E+00  0.44086132686E+03  0.32402473989E+04  0.32101159631E+04 0.  0.
        3    1    3    3  502    0 -0.20015725553E+02  0.59227995282E+03 -0.12852189442E+04  0.14152681430E+04  0.10100000352E+00 0.  1.
       -3    1    3    3    0  502  0.20015725553E+02 -0.59227995282E+03  0.17260802711E+04  0.18249792558E+04  0.10100000352E+00 0. -1.
</event>
<event>
 5   0  0.1572769E-06  0.3155953E+04  0.7818609E-02  0.8200548E-01
       -2   -1    0    0    0  501  0.00000000000E+00  0.00000000000E+00  0.96466417377E+03  0.96466417377E+03  0.25500000920E-02 0.  1.
        2   -1    0    0  501    0  0.00000000000E+00  0.00000000000E+00 -0.25812195887E+04  0.25812195887E+04  0.25500000920E-02 0. -1.
    10030    2    1    2    0    0  0.00000000000E+00  0.00000000000E+00 -0.16165554149E+04  0.35458837625E+04  0.31559531440E+04 0.  0.
        5    1    3    3  502    0  0.30587255227E+03 -0.28479766749E+03  0.90134187050E+03  0.99353257982E+03  0.46999998093E+01 0.  1.
       -5    1    3    3    0  502 -0.30587255227E+03  0.28479766749E+03 -0.25178972854E+04  0.25523511826E+04  0.46999998093E+01 0. -1.
</event>
<event>
 5   0  0.5281187E-07  0.3211909E+04  0.7818609E-02  0.8185679E-01
        1   -1    0    0  501    0  0.00000000000E+00  0.00000000000E+00  0.18300470185E+04  0.18300470185E+04  0.50400001928E-02 0.  1.
       -1   -1    0    0    0  501  0.00000000000E+00  0.00000000000E+00 -0.14093024600E+04  0.14093024600E+04  0.50400001928E-02 0. -1.
    10030    2    1    2    0    0  0.00000000000E+00  0.00000000000E+00  0.42074455853E+03  0.32393494785E+04  0.32119089433E+04 0.  0.
        5    1    3    3  502    0  0.13675356366E+04  0.77003080370E+03 -0.13307564072E+03  0.15750658311E+04  0.46999998093E+01 0. -1.
       -5    1    3    3    0  502 -0.13675356366E+04 -0.77003080370E+03  0.55382019925E+03  0.16642836474E+04  0.46999998093E+01 0.  1.
</event>
<event>
 5   0  0.5177039E-07  0.3178410E+04  0.7818609E-02  0.8194542E-01
       -1   -1    0    0    0  501  0.00000000000E+00  0.00000000000E+00  0.12609246694E+04  0.12609246694E+04  0.50400001928E-02 0. -1.
        1   -1    0    0  501    0  0.00000000000E+00  0.00000000000E+00 -0.20029533486E+04  0.20029533486E+04  0.50400001928E-02 0.  1.
    10030    2    1    2    0    0  0.00000000000E+00  0.00000000000E+00 -0.74202867914E+03  0.32638780180E+04  0.31784104763E+04 0.  0.
        3    1    3    3  502    0 -0.35550739962E+03  0.49916681751E+03  0.11347091017E+04  0.12896192378E+04  0.10100000352E+00 0. -1.
       -3    1    3    3    0  502  0.35550739962E+03 -0.49916681751E+03 -0.18767377808E+04  0.19742587802E+04  0.10100000352E+00 0.  1.
</event>
<event>
 5   0  0.1556396E-06  0.3193943E+04  0.7818609E-02  0.8190419E-01
       -2   -1    0    0    0  501  0.00000000000E+00  0.00000000000E+00  0.17370560693E+04  0.17370560693E+04  0.25500000920E-02 0. -1.
        2   -1    0    0  501    0  0.00000000000E+00  0.00000000000E+00 -0.14681843807E+04  0.14681843807E+04  0.25500000920E-02 0.  1.
    10030    2    1    2    0    0  0.00000000000E+00  0.00000000000E+00  0.26887168858E+03  0.32052404500E+04  0.31939433867E+04 0.  0.
        3    1    3    3  502    0 -0.94978444689E+03  0.11572688592E+04  0.69224075092E+03  0.16494117058E+04  0.10100000352E+00 0. -1.
       -3    1    3    3    0  502  0.94978444689E+03 -0.11572688592E+04 -0.42336906234E+03  0.15558287441E+04  0.10100000352E+00 0.  1.
</event>
<event>
 5   0  0.5370912E-07  0.3212258E+04  0.7818609E-02  0.8185587E-01
        1   -1    0    0  501    0  0.00000000000E+00  0.00000000000E+00  0.18461456019E+04  0.18461456019E+04  0.50400001928E-02 0. -1.
       -1   -1    0    0    0  501  0.00000000000E+00  0.00000000000E+00 -0.13973171517E+04  0.13973171517E+04  0.50400001928E-02 0.  1.
    10030    2    1    2    0    0  0.00000000000E+00  0.00000000000E+00  0.44882845022E+03  0.32434627536E+04  0.32122583421E+04 0.  0.
        1    1    3    3  502    0 -0.29713264508E+02 -0.15994158273E+04  0.79362722629E+02  0.16016592360E+04  0.50400001928E-02 0.  1.
       -1    1    3    3    0  502  0.29713264508E+02  0.15994158273E+04  0.36946572759E+03  0.16418035176E+04  0.50400001928E-02 0. -1.
</event>
<event>
 5   0  0.5233813E-07  0.3200575E+04  0.7818609E-02  0.8188665E-01
       -1   -1    0    0    0  501  0.00000000000E+00  0.00000000000E+00  0.10908426575E+04  0.10908426575E+04  0.50400001928E-02 0. -1.
        1   -1    0    0  501    0  0.00000000000E+00  0.00000000000E+00 -0.23476527972E+04  0.23476527972E+04  0.50400001928E-02 0.  1.
    10030    2    1    2    0    0  0.00000000000E+00  0.00000000000E+00 -0.12568101398E+04  0.34384954547E+04  0.32005748335E+04 0.  0.
        4    1    3    3  502    0 -0.19561138856E+02 -0.14429423322E+04  0.11471690760E+03  0.14476279888E+04  0.12699999809E+01 0. -1.
       -4    1    3    3    0  502  0.19561138856E+02  0.14429423322E+04 -0.13715270474E+04  0.19908674659E+04  0.12699999809E+01 0.  1.
</event>
<event>
 5   0  0.5281187E-07  0.3189691E+04  0.7818609E-02  0.8191545E-01
        1   -1    0    0  501    0  0.00000000000E+00  0.00000000000E+00  0.25976823571E+04  0.25976823571E+04  0.50400001928E-02 0.  1.
       -1   -1    0    0    0  501  0.00000000000E+00  0.00000000000E+00 -0.97915461095E+03  0.97915461097E+03  0.50400001928E-02 0. -1.
    10030    2    1    2    0    0  0.00000000000E+00  0.00000000000E+00  0.16185277461E+04  0.35768369680E+04  0.31896913065E+04 0.  0.
        5    1    3    3  502    0  0.32001927430E+03 -0.14727039107E+04  0.13943604995E+04  0.20531761827E+04  0.46999998093E+01 0.  1.
       -5    1    3    3    0  502 -0.32001927430E+03  0.14727039107E+04  0.22416724658E+03  0.15236607854E+04  0.46999998093E+01 0. -1.
</event>
<event>
 5   0  0.5233813E-07  0.3204242E+04  0.7818609E-02  0.8187698E-01
        1   -1    0    0  501    0  0.00000000000E+00  0.00000000000E+00  0.12656604783E+04  0.12656604783E+04  0.50400001928E-02 0. -1.
       -1   -1    0    0    0  501  0.00000000000E+00  0.00000000000E+00 -0.20280254291E+04  0.20280254291E+04  0.50400001928E-02 0.  1.
    10030    2    1    2    0    0  0.00000000000E+00  0.00000000000E+00 -0.76236495085E+03  0.32936859074E+04  0.32042419601E+04 0.  0.
        4    1    3    3  502    0 -0.13695826146E+04  0.59932991374E+03  0.21095067131E+03  0.15097863035E+04  0.12699999809E+01 0. -1.
       -4    1    3    3    0  502  0.13695826146E+04 -0.59932991374E+03 -0.97331562216E+03  0.17838996039E+04  0.12699999809E+01 0.  1.
</event>
<event>
 5   0  0.5370912E-07  0.3254723E+04  0.7818609E-02  0.8174513E-01
        1   -1    0    0  501    0  0.00000000000E+00  0.00000000000E+00  0.21905233685E+04  0.21905233685E+04  0.50400001928E-02 0.  1.
       -1   -1    0    0    0  501  0.00000000000E+00  0.00000000000E+00 -0.12089832874E+04  0.12089832874E+04  0.50400001928E-02 0. -1.
    10030    2    1    2    0    0  0.00000000000E+00  0.00000000000E+00  0.98154008116E+03  0.33995066559E+04  0.32547234249E+04 0.  0.
        1    1    3    3  502    0 -0.96004833046E+03  0.12502538178E+04  0.68458992068E+02  0.15778193938E+04  0.50400001928E-02 0.  1.
       -1    1    3    3    0  502  0.96004833046E+03 -0.12502538178E+04  0.91308108909E+03  0.18216872621E+04  0.50400001928E-02 0. -1.
</event>
<event>
 5   0  0.1508771E-06  0.3210814E+04  0.7818609E-02  0.8185967E-01
       -2   -1    0    0    0  501  0.00000000000E+00  0.00000000000E+00  0.20256473752E+04  0.20256473752E+04  0.25500000920E-02 0. -1.
        2   -1    0    0  501    0  0.00000000000E+00  0.00000000000E+00 -0.12723497365E+04  0.12723497365E+04  0.25500000920E-02 0.  1.
    10030    2    1    2    0    0  0.00000000000E+00  0.00000000000E+00  0.75329763869E+03  0.32979971117E+04  0.32108141672E+04 0.  0.
        4    1    3    3  502    0  0.92433834202E+03  0.10871511804E+03  0.17202613887E+04  0.19558939659E+04  0.12699999809E+01 0. -1.
       -4    1    3    3    0  502 -0.92433834202E+03 -0.10871511804E+03 -0.96696374999E+03  0.13421031459E+04  0.12699999809E+01 0.  1.
</event>
<event>
 5   0  0.5233813E-07  0.3240813E+04  0.7818609E-02  0.8178121E-01
        1   -1    0    0  501    0  0.00000000000E+00  0.00000000000E+00  0.22445587871E+04  0.22445587871E+04  0.50400001928E-02 0. -1.
       -1   -1    0    0    0  501  0.00000000000E+00  0.00000000000E+00 -0.11698143373E+04  0.11698143373E+04  0.50400001928E-02 0.  1.
    10030    2    1    2    0    0  0.00000000000E+00  0.00000000000E+00  0.10747444499E+04  0.34143731244E+04  0.32408128919E+04 0.  0.
        4    1    3    3  502    0 -0.14016218222E+03 -0.39655592481E+03  0.21860465242E+04  0.22261408441E+04  0.12699999809E+01 0. -1.
       -4    1    3    3    0  502  0.14016218222E+03  0.39655592481E+03 -0.11113020743E+04  0.11882322804E+04  0.12699999809E+01 0.  1.
</event>
<event>
 5   0  0.5370912E-07  0.3379299E+04  0.7818609E-02  0.8143006E-01
        1   -1    0    0  501    0  0.00000000000E+00  0.00000000000E+00  0.22463735117E+04  0.22463735117E+04  0.50400001928E-02 0.  1.
       -1   -1    0    0    0  501  0.00000000000E+00  0.00000000000E+00 -0.12709000000E+04  0.12709000000E+04  0.50400001928E-02 0. -1.
    10030    2    1    2    0    0  0.00000000000E+00  0.00000000000E+00  0.97547351173E+03  0.35172735116E+04  0.33792993924E+04 0.  0.
        1    1    3    3  502    0  0.17579234980E+01  0.44216043146E+03 -0.12096151325E+04  0.12878966210E+04  0.50400001928E-02 0. -1.
       -1    1    3    3    0  502 -0.17579234980E+01 -0.44216043146E+03  0.21850886443E+04  0.22293768907E+04  0.50400001928E-02 0.  1.
</event>
<event>
 5   0  0.5177039E-07  0.2914415E+04  0.7818609E-02  0.8268601E-01
       -1   -1    0    0    0  501  0.00000000000E+00  0.00000000000E+00  0.90118582774E+03  0.90118582775E+03  0.50400001928E-02 0.  1.
        1   -1    0    0  501    0  0.00000000000E+00  0.00000000000E+00 -0.23562886772E+04  0.23562886772E+04  0.50400001928E-02 0. -1.
    10030    2    1    2    0    0  0.00000000000E+00  0.00000000000E+00 -0.14551028495E+04  0.32574745050E+04  0.29144151811E+04 0.  0.
        3    1    3    3  502    0 -0.52817908537E+03  0.41104930582E+03  0.71923464601E+03  0.98246280554E+03  0.10100000352E+00 0.  1.
       -3    1    3    3    0  502  0.52817908537E+03 -0.41104930582E+03 -0.21743374955E+04  0.22750116994E+04  0.10100000352E+00 0. -1.
</event>
<event>
 5   0  0.5177039E-07  0.3192795E+04  0.7818609E-02  0.8190723E-01
       -1   -1    0    0    0  501  0.00000000000E+00  0.00000000000E+00  0.20555533727E+04  0.20555533727E+04  0.50400001928E-02 0.  1.
        1   -1    0    0  501    0  0.00000000000E+00  0.00000000000E+00 -0.12398049627E+04  0.12398049627E+04  0.50400001928E-02 0. -1.
    10030    2    1    2    0    0  0.00000000000E+00  0.00000000000E+00  0.81574840998E+03  0.32953583355E+04  0.31927951846E+04 0.  0.
        3    1    3    3  502    0 -0.70922530031E+03 -0.13863942048E+04  0.45312563300E+02  0.15579289638E+04  0.10100000352E+00 0.  1.
       -3    1    3    3    0  502  0.70922530031E+03  0.13863942048E+04  0.77043584668E+03  0.17374293717E+04  0.10100000352E+00 0. -1.
</event>
<event>
 5   0  0.1508771E-06  0.3223608E+04  0.7818609E-02  0.8182610E-01
        2   -1    0    0  501    0  0.00000000000E+00  0.00000000000E+00  0.16120218423E+04  0.16120218423E+04  0.25500000920E-02 0. -1.
       -2   -1    0    0    0  501  0.00000000000E+00  0.00000000000E+00 -0.16115865202E+04  0.16115865202E+04  0.25500000920E-02 0.  1.
    10030    2    1    2    0    0  0.00000000000E+00  0.00000000000E+00  0.43532218806E+00  0.32236083625E+04  0.32236083331E+04 0.  0.
        4    1    3    3  502    0 -0.12282787980E+04 -0.71608877065E+03 -0.75903139935E+03  0.16117016508E+04  0.12699999809E+01 0.  1.
       -4    1    3    3    0  502  0.12282787980E+04  0.71608877065E+03  0.75946672154E+03  0.16119067117E+04  0.12699999809E+01 0. -1.
</event>
<event>
 5   0  0.5317728E-07  0.3213969E+04  0.7818609E-02  0.8185138E-01
       -1   -1    0    0    0  501  0.00000000000E+00  0.00000000000E+00  0.93531701645E+03  0.93531701646E+03  0.50400001928E-02 0.  1.
        1   -1    0    0  501    0  0.00000000000E+00  0.00000000000E+00 -0.27609875664E+04  0.27609875664E+04  0.50400001928E-02 0. -1.
    10030    2    1    2    0    0  0.00000000000E+00  0.00000000000E+00 -0.18256705500E+04  0.36963045829E+04  0.32139686701E+04 0.  0.
        2    1    3    3  502    0  0.59416308469E+03  0.84758542354E+03  0.50085321158E+03  0.11499064140E+04  0.25500000920E-02 0.  1.
       -2    1    3    3    0  502 -0.59416308469E+03 -0.84758542354E+03 -0.23265237616E+04  0.25463981689E+04  0.25500000920E-02 0. -1.
</event>
<event>
 5   0  0.5233813E-07  0.3130286E+04  0.7818609E-02  0.8207475E-01
       -1   -1    0    0    0  501  0.00000000000E+00  0.00000000000E+00  0.10072288513E+04  0.10072288513E+04  0.50400001928E-02 0.  1.
        1   -1    0    0  501    0  0.00000000000E+00  0.00000000000E+00 -0.24320915593E+04  0.24320915593E+04  0.50400001928E-02 0. -1.
    10030    2    1    2    0    0  0.00000000000E+00  0.00000000000E+00 -0.14248627080E+04  0.34393204106E+04  0.31302861131E+04 0.  0.
        4    1    3    3  502    0  0.66112319406E+03  0.62652257673E+03 -0.21109031675E+04  0.22990276667E+04  0.12699999809E+01 0. -1.
       -4    1    3    3    0  502 -0.66112319406E+03 -0.62652257673E+03  0.68604045945E+03  0.11402927439E+04  0.12699999809E+01 0.  1.
</event>
<event>
 5   0  0.1508771E-06  0.3201303E+04  0.7818609E-02  0.8188473E-01
        2   -1    0    0  501    0  0.00000000000E+00  0.00000000000E+00  0.20462519598E+04  0.20462519598E+04  0.25500000920E-02 0.  1.
       -2   -1    0    0    0  501  0.00000000000E+00  0.00000000000E+00 -0.12520866638E+04  0.12520866638E+04  0.25500000920E-02 0. -1.
    10030    2    1    2    0    0  0.00000000000E+00  0.00000000000E+00  0.79416529604E+03  0.32983386236E+04  0.32013027284E+04 0.  0.
        4    1    3    3  502    0  0.95749271954E+03 -0.80981968132E+03  0.14219617881E+04  0.18959370148E+04  0.12699999809E+01 0.  1.
       -4    1    3    3    0  502 -0.95749271954E+03  0.80981968132E+03 -0.62779649206E+03  0.14024016089E+04  0.12699999809E+01 0. -1.
</event>
<event>
 5   0  0.1572769E-06  0.3244325E+04  0.7818609E-02  0.8177208E-01
        2   -1    0    0  501    0  0.00000000000E+00  0.00000000000E+00  0.26276539170E+04  0.26276539170E+04  0.25500000920E-02 0. -1.
       -2   -1    0    0    0  501  0.00000000000E+00  0.00000000000E+00 -0.10014297782E+04  0.10014297782E+04  0.25500000920E-02 0.  1.
    10030    2    1    2    0    0  0.00000000000E+00  0.00000000000E+00  0.16262241388E+04  0.36290836952E+04  0.32443248168E+04 0.  0.
        5    1    3    3  502    0 -0.10807680372E+04 -0.10985587404E+04  0.24659292536E+03  0.15606796652E+04  0.46999998093E+01 0.  1.
       -5    1    3    3    0  502  0.10807680372E+04  0.10985587404E+04  0.13796312134E+04  0.20684040300E+04  0.46999998093E+01 0. -1.
</event>
<event>
 5   0  0.5233813E-07  0.3206728E+04  0.7818609E-02  0.8187043E-01
        1   -1    0    0  501    0  0.00000000000E+00  0.00000000000E+00  0.82210296722E+03  0.82210296723E+03  0.50400001928E-02 0. -1.
       -1   -1    0    0    0  501  0.00000000000E+00  0.00000000000E+00 -0.31270722677E+04  0.31270722677E+04  0.50400001928E-02 0.  1.
    10030    2    1    2    0    0  0.00000000000E+00  0.00000000000E+00 -0.23049693005E+04  0.39491752350E+04  0.32067275469E+04 0.  0.
        4    1    3    3  502    0  0.15759084725E+04 -0.29335365577E+03 -0.11092951128E+04  0.19493796811E+04  0.12699999809E+01 0. -1.
       -4    1    3    3    0  502 -0.15759084725E+04  0.29335365577E+03 -0.11956741877E+04  0.19997955538E+04  0.12699999809E+01 0.  1.
</event>
<event>
 5   0  0.1508771E-06  0.3210280E+04  0.7818609E-02  0.8186107E-01
        2   -1    0    0  501    0  0.00000000000E+00  0.00000000000E+00  0.13454014086E+04  0.13454014086E+04  0.25500000920E-02 0.  1.
       -2   -1    0    0    0  501  0.00000000000E+00  0.00000000000E+00 -0.19150230413E+04  0.19150230413E+04  0.25500000920E-02 0. -1.
    10030    2    1    2    0    0  0.00000000000E+00  0.00000000000E+00 -0.56962163272E+03  0.32604244499E+04  0.32102801730E+04 0.  0.
        4    1    3    3  502    0  0.77816356994E+02  0.12679750434E+04 -0.12812871499E+04  0.18043044282E+04  0.12699999809E+01 0. -1.
       -4    1    3    3    0  502 -0.77816356994E+02 -0.12679750434E+04  0.71166551721E+03  0.14561200217E+04  0.12699999809E+01 0.  1.
</event>
<event>
 5   0  0.1556396E-06  0.3185832E+04  0.7818609E-02  0.8192569E-01
       -2   -1    0    0    0  501  0.00000000000E+00  0.00000000000E+00  0.12019185153E+04  0.12019185153E+04  0.25500000920E-02 0.  1.
        2   -1    0    0  501    0  0.00000000000E+00  0.00000000000E+00 -0.21111091324E+04  0.21111091324E+04  0.25500000920E-02 0. -1.
    10030    2    1    2    0    0  0.00000000000E+00  0.00000000000E+00 -0.90919061710E+03  0.33130276477E+04  0.31858318562E+04 0.  0.
        3    1    3    3  502    0 -0.48508595201E+03  0.14014340935E+04 -0.10592341585E+04  0.18224442137E+04  0.10100000352E+00 0. -1.
       -3    1    3    3    0  502  0.48508595201E+03 -0.14014340935E+04  0.15004354138E+03  0.14905834340E+04  0.10100000352E+00 0.  1.
</event>
<event>
 5   0  0.5281187E-07  0.3200984E+04  0.7818609E-02  0.8188557E-01
        1   -1    0    0  501    0  0.00000000000E+00  0.00000000000E+00  0.25666945366E+04  0.25666945366E+04  0.50400001928E-02 0.  1.
       -1   -1    0    0    0  501  0.00000000000E+00  0.00000000000E+00 -0.99800544497E+03  0.99800544498E+03  0.50400001928E-02 0. -1.
    10030    2    1    2    0    0  0.00000000000E+00  0.00000000000E+00  0.15686890917E+04  0.35646999816E+04  0.32009843006E+04 0.  0.
        5    1    3    3  502    0 -0.12331968567E+04 -0.19317539116E+03  0.18998966635E+04  0.22732621145E+04  0.46999998093E+01 0.  1.
       -5    1    3    3    0  502  0.12331968567E+04  0.19317539116E+03 -0.33120757182E+03  0.12914378672E+04  0.46999998093E+01 0. -1.
</event>
<event>
 5   0  0.1493485E-06  0.3196043E+04  0.7818609E-02  0.8189863E-01
       -2   -1    0    0    0  501  0.00000000000E+00  0.00000000000E+00  0.15416205151E+04  0.15416205151E+04  0.25500000920E-02 0. -1.
        2   -1    0    0  501    0  0.00000000000E+00  0.00000000000E+00 -0.16564857560E+04  0.16564857560E+04  0.25500000920E-02 0.  1.
    10030    2    1    2    0    0  0.00000000000E+00  0.00000000000E+00 -0.11486524084E+03  0.31981062711E+04  0.31960428185E+04 0.  0.
        2    1    3    3  502    0 -0.12062186798E+04  0.78510718384E+03 -0.75237047669E+03  0.16240129704E+04  0.25500000920E-02 0.  1.
       -2    1    3    3    0  502  0.12062186798E+04 -0.78510718384E+03  0.63750523585E+03  0.15740933007E+04  0.25500000920E-02 0. -1.
</event>
<event>
 5   0  0.5281187E-07  0.3187133E+04  0.7818609E-02  0.8192224E-01
       -1   -1    0    0    0  501  0.00000000000E+00  0.00000000000E+00  0.23718724829E+04  0.23718724829E+04  0.50400001928E-02 0. -1.
        1   -1    0    0  501    0  0.00000000000E+00  0.00000000000E+00 -0.10706534341E+04  0.10706534341E+04  0.50400001928E-02 0.  1.
    10030    2    1    2    0    0  0.00000000000E+00  0.00000000000E+00  0.13012190488E+04  0.34425259171E+04  0.31871325164E+04 0.  0.
        5    1    3    3  502    0 -0.12938248424E+04  0.12257314365E+03 -0.34547217563E+03  0.13447602064E+04  0.46999998093E+01 0.  1.
       -5    1    3    3    0  502  0.12938248424E+04 -0.12257314365E+03  0.16466912244E+04  0.20977657107E+04  0.46999998093E+01 0. -1.
</event>
<event>
 5   0  0.1493485E-06  0.3165481E+04  0.7818609E-02  0.8197993E-01
        2   -1    0    0  501    0  0.00000000000E+00  0.00000000000E+00  0.19088600965E+04  0.19088600965E+04  0.25500000920E-02 0. -1.
       -2   -1    0    0    0  501  0.00000000000E+00  0.00000000000E+00 -0.13123371016E+04  0.13123371016E+04  0.25500000920E-02 0.  1.
    10030    2    1    2    0    0  0.00000000000E+00  0.00000000000E+00  0.59652299485E+03  0.32211971981E+04  0.31654812755E+04 0.  0.
        2    1    3    3  502    0 -0.51081031521E+03 -0.12014840599E+04 -0.61223664593E+03  0.14419864198E+04  0.25500000920E-02 0.  1.
       -2    1    3    3    0  502  0.51081031521E+03  0.12014840599E+04  0.12087596408E+04  0.17792107783E+04  0.25500000920E-02 0. -1.
</event>
<event>
 5   0  0.5177039E-07  0.3184879E+04  0.7818609E-02  0.8192822E-01
        1   -1    0    0  501    0  0.00000000000E+00  0.00000000000E+00  0.19255361712E+04  0.19255361712E+04  0.50400001928E-02 0. -1.
       -1   -1    0    0    0  501  0.00000000000E+00  0.00000000000E+00 -0.13169650587E+04  0.13169650587E+04  0.50400001928E-02 0.  1.
    10030    2    1    2    0    0  0.00000000000E+00  0.00000000000E+00  0.60857111255E+03  0.32425012299E+04  0.31848791856E+04 0.  0.
        3    1    3    3  502    0 -0.14880228349E+04 -0.56636300502E+03  0.33456992845E+03  0.16269345586E+04  0.10100000352E+00 0.  1.
       -3    1    3    3    0  502  0.14880228349E+04  0.56636300502E+03  0.27400118409E+03  0.16155666714E+04  0.10100000352E+00 0. -1.
</event>
<event>
 5   0  0.1556396E-06  0.3194145E+04  0.7818609E-02  0.8190365E-01
       -2   -1    0    0    0  501  0.00000000000E+00  0.00000000000E+00  0.98696567357E+03  0.98696567357E+03  0.25500000920E-02 0.  1.
        2   -1    0    0  501    0  0.00000000000E+00  0.00000000000E+00 -0.25843252250E+04  0.25843252250E+04  0.25500000920E-02 0. -1.
    10030    2    1    2    0    0  0.00000000000E+00  0.00000000000E+00 -0.15973595514E+04  0.35712908986E+04  0.31941448223E+04 0.  0.
        3    1    3    3  502    0 -0.53797619289E+03  0.11254666957E+04  0.31634160291E+03  0.12869210105E+04  0.10100000352E+00 0.  1.
       -3    1    3    3    0  502  0.53797619289E+03 -0.11254666957E+04 -0.19137011543E+04  0.22843698881E+04  0.10100000352E+00 0. -1.
</event>
<event>
 5   0  0.5233813E-07  0.3189902E+04  0.7818609E-02  0.8191489E-01
       -1   -1    0    0    0  501  0.00000000000E+00  0.00000000000E+00  0.13704362370E+04  0.13704362370E+04  0.50400001928E-02 0.  1.
        1   -1    0    0  501    0  0.00000000000E+00  0.00000000000E+00 -0.18562476573E+04  0.18562476573E+04  0.50400001928E-02 0. -1.
    10030    2    1    2    0    0  0.00000000000E+00  0.00000000000E+00 -0.48581142037E+03  0.32266838943E+04  0.31899022270E+04 0.  0.
        4    1    3    3  502    0 -0.60738003479E+03  0.14141992620E+04  0.18024475781E+03  0.15496321644E+04  0.12699999809E+01 0.  1.
       -4    1    3    3    0  502  0.60738003479E+03 -0.14141992620E+04 -0.66605617818E+03  0.16770517299E+04  0.12699999809E+01 0. -1.
</event>
<event>
 5   0  0.5370912E-07  0.3233195E+04  0.7818609E-02  0.8180105E-01
       -1   -1    0    0    0  501  0.00000000000E+00  0.00000000000E+00  0.85769413969E+03  0.85769413970E+03  0.50400001928E-02 0.  1.
        1   -1    0    0  501    0  0.00000000000E+00  0.00000000000E+00 -0.30469930700E+04  0.30469930700E+04  0.50400001928E-02 0. -1.
    10030    2    1    2    0    0  0.00000000000E+00  0.00000000000E+00 -0.21892989303E+04  0.39046872097E+04  0.32331953853E+04 0.  0.
        1    1    3    3  502    0  0.15620231386E+04 -0.31554924083E+03 -0.14229548162E+04  0.21364194387E+04  0.50400001928E-02 0.  1.
       -1    1    3    3    0  502 -0.15620231386E+04  0.31554924083E+03 -0.76634411408E+03  0.17682677710E+04  0.50400001928E-02 0. -1.
</event>
<event>
 5   0  0.1493485E-06  0.3022741E+04  0.7818609E-02  0.8237267E-01
        2   -1    0    0  501    0  0.00000000000E+00  0.00000000000E+00  0.10740927410E+04  0.10740927410E+04  0.25500000920E-02 0.  1.
       -2   -1    0    0    0  501  0.00000000000E+00  0.00000000000E+00 -0.21266706364E+04  0.21266706364E+04  0.25500000920E-02 0. -1.
    10030    2    1    2    0    0  0.00000000000E+00  0.00000000000E+00 -0.10525778954E+04  0.32007633774E+04  0.30227414663E+04 0.  0.
        2    1    3    3  502    0  0.12635132163E+04 -0.48225018072E+03 -0.12407174176E+04  0.18353230219E+04  0.25500000920E-02 0. -1.
       -2    1    3    3    0  502 -0.12635132163E+04  0.48225018072E+03  0.18813952225E+03  0.13654403554E+04  0.25500000920E-02 0.  1.
</event>
<event>
 5   0  0.5177039E-07  0.3199496E+04  0.7818609E-02  0.8188950E-01
        1   -1    0    0  501    0  0.00000000000E+00  0.00000000000E+00  0.15392164140E+04  0.15392164140E+04  0.50400001928E-02 0. -1.
       -1   -1    0    0    0  501  0.00000000000E+00  0.00000000000E+00 -0.16626602064E+04  0.16626602064E+04  0.50400001928E-02 0.  1.
    10030    2    1    2    0    0  0.00000000000E+00  0.00000000000E+00 -0.12344379245E+03  0.32018766204E+04  0.31994961357E+04 0.  0.
        3    1    3    3  502    0  0.71222468472E+03 -0.13139991000E+04  0.50908501222E+03  0.15789316629E+04  0.10100000352E+00 0. -1.
       -3    1    3    3    0  502 -0.71222468472E+03  0.13139991000E+04 -0.63252880467E+03  0.16229449575E+04  0.10100000352E+00 0.  1.
</event>
<event>
 5   0  0.1508771E-06  0.3200201E+04  0.7818609E-02  0.8188764E-01
       -2   -1    0    0    0  501  0.00000000000E+00  0.00000000000E+00  0.88887902406E+03  0.88887902407E+03  0.25500000920E-02 0. -1.
        2   -1    0    0  501    0  0.00000000000E+00  0.00000000000E+00 -0.28803937206E+04  0.28803937206E+04  0.25500000920E-02 0.  1.
    10030    2    1    2    0    0  0.00000000000E+00  0.00000000000E+00 -0.19915146965E+04  0.37692727446E+04  0.32002009682E+04 0.  0.
        4    1    3    3  502    0 -0.40700813885E+02  0.78897931562E+03  0.64314327084E+03  0.10187147768E+04  0.12699999809E+01 0. -1.
       -4    1    3    3    0  502  0.40700813885E+02 -0.78897931562E+03 -0.26346579673E+04  0.27505579678E+04  0.12699999809E+01 0.  1.
</event>
<event>
 5   0  0.1556396E-06  0.3226923E+04  0.7818609E-02  0.8181743E-01
        2   -1    0    0  501    0  0.00000000000E+00  0.00000000000E+00  0.25174946259E+04  0.25174946259E+04  0.25500000920E-02 0. -1.
       -2   -1    0    0    0  501  0.00000000000E+00  0.00000000000E+00 -0.10340669511E+04  0.10340669511E+04  0.25500000920E-02 0.  1.
    10030    2    1    2    0    0  0.00000000000E+00  0.00000000000E+00  0.14834276747E+04  0.35515615770E+04  0.32269229878E+04 0.  0.
        3    1    3    3  502    0 -0.97227255298E+03  0.22290926717E+03 -0.65403821082E+03  0.11927985790E+04  0.10100000352E+00 0.  1.
       -3    1    3    3    0  502  0.97227255298E+03 -0.22290926717E+03  0.21374658856E+04  0.23587629980E+04  0.10100000352E+00 0. -1.
</event>
<event>
 5   0  0.1572769E-06  0.3205906E+04  0.7818609E-02  0.8187259E-01
        2   -1    0    0  501    0  0.00000000000E+00  0.00000000000E+00  0.13945216255E+04  0.13945216255E+04  0.25500000920E-02 0.  1.
       -2   -1    0    0    0  501  0.00000000000E+00  0.00000000000E+00 -0.18425372412E+04  0.18425372412E+04  0.25500000920E-02 0. -1.
    10030    2    1    2    0    0  0.00000000000E+00  0.00000000000E+00 -0.44801561573E+03  0.32370588667E+04  0.32059058181E+04 0.  0.
        5    1    3    3  502    0  0.10925456746E+04 -0.78147197309E+03 -0.11071968493E+04  0.17407646161E+04  0.46999998093E+01 0. -1.
       -5    1    3    3    0  502 -0.10925456746E+04  0.78147197309E+03  0.65918123352E+03  0.14962942506E+04  0.46999998093E+01 0.  1.
</event>
<event>
 5   0  0.5233813E-07  0.3188678E+04  0.7818609E-02  0.8191814E-01
        1   -1    0    0  501    0  0.00000000000E+00  0.00000000000E+00  0.24899460965E+04  0.24899460965E+04  0.50400001928E-02 0.  1.
       -1   -1    0    0    0  501  0.00000000000E+00  0.00000000000E+00 -0.10208724214E+04  0.10208724214E+04  0.50400001928E-02 0. -1.
    10030    2    1    2    0    0  0.00000000000E+00  0.00000000000E+00  0.14690736751E+04  0.35108185179E+04  0.31886782847E+04 0.  0.
        4    1    3    3  502    0  0.42408115450E+03  0.60275114802E+03  0.22911410778E+04  0.24067577409E+04  0.12699999809E+01 0.  1.
       -4    1    3    3    0  502 -0.42408115450E+03 -0.60275114802E+03 -0.82206740269E+03  0.11040607771E+04  0.12699999809E+01 0. -1.
</event>
<event>
 5   0  0.5177039E-07  0.3237029E+04  0.7818609E-02  0.8179106E-01
       -1   -1    0    0    0  501  0.00000000000E+00  0.00000000000E+00  0.17931518038E+04  0.17931518038E+04  0.50400001928E-02 0. -1.
        1   -1    0    0  501    0  0.00000000000E+00  0.00000000000E+00 -0.14608856420E+04  0.14608856421E+04  0.50400001928E-02 0.  1.
    10030    2    1    2    0    0  0.00000000000E+00  0.00000000000E+00  0.33226616177E+03  0.32540374459E+04  0.32370293321E+04 0.  0.
        3    1    3    3  502    0  0.39708795996E+03  0.96485345154E+03  0.14099574607E+04  0.17540242536E+04  0.10100000352E+00 0. -1.
       -3    1    3    3    0  502 -0.39708795996E+03 -0.96485345154E+03 -0.10776912990E+04  0.15000131923E+04  0.10100000352E+00 0.  1.
</event>
<event>
 5   0  0.5281187E-07  0.3208636E+04  0.7818609E-02  0.8186540E-01
       -1   -1    0    0    0  501  0.00000000000E+00  0.00000000000E+00  0.19633352463E+04  0.19633352463E+04  0.50400001928E-02 0. -1.
        1   -1    0    0  501    0  0.00000000000E+00  0.00000000000E+00 -0.13109507384E+04  0.13109507384E+04  0.50400001928E-02 0.  1.
    10030    2    1    2    0    0  0.00000000000E+00  0.00000000000E+00  0.65238450791E+03  0.32742859848E+04  0.32086357169E+04 0.  0.
        5    1    3    3  502    0  0.30765603046E+03  0.29184659094E+03 -0.12527167184E+04  0.13225535650E+04  0.46999998093E+01 0.  1.
       -5    1    3    3    0  502 -0.30765603046E+03 -0.29184659094E+03  0.19051012263E+04  0.19517324197E+04  0.46999998093E+01 0. -1.
</event>
<event>
 5   0  0.1508771E-06  0.3200922E+04  0.7818609E-02  0.8188574E-01
       -2   -1    0    0    0  501  0.00000000000E+00  0.00000000000E+00  0.24751736871E+04  0.24751736871E+04  0.25500000920E-02 0. -1.
        2   -1    0    0  501    0  0.00000000000E+00  0.00000000000E+00 -0.10348670462E+04  0.10348670462E+04  0.25500000920E-02 0.  1.
    10030    2    1    2    0    0  0.00000000000E+00  0.00000000000E+00  0.14403066409E+04  0.35100407333E+04  0.32009221686E+04 0.  0.
        4    1    3    3  502    0  0.48645672379E+03 -0.14833288442E+03 -0.94390331095E+03  0.10721930153E+04  0.12699999809E+01 0.  1.
       -4    1    3    3    0  502 -0.48645672379E+03  0.14833288442E+03  0.23842099518E+04  0.24378477180E+04  0.12699999809E+01 0. -1.
</event>
<event>
 5   0  0.1508771E-06  0.3252272E+04  0.7818609E-02  0.8175147E-01
       -2   -1    0    0    0  501  0.00000000000E+00  0.00000000000E+00  0.21210993049E+04  0.21210993049E+04  0.25500000920E-02 0.  1.
        2   -1    0    0  501    0  0.00000000000E+00  0.00000000000E+00 -0.12466738272E+04  0.12466738272E+04  0.25500000920E-02 0. -1.
    10030    2    1    2    0    0  0.00000000000E+00  0.00000000000E+00  0.87442547771E+03  0.33677731321E+04  0.32522724291E+04 0.  0.
        4    1    3    3  502    0 -0.27646548228E+03  0.10413459008E+03  0.20930768301E+04  0.21138234093E+04  0.12699999809E+01 0.  1.
       -4    1    3    3    0  502  0.27646548228E+03 -0.10413459008E+03 -0.12186513524E+04  0.12539497228E+04  0.12699999809E+01 0. -1.
</event>
<event>
 5   0  0.1572769E-06  0.3196061E+04  0.7818609E-02  0.8189858E-01
        2   -1    0    0  501    0  0.00000000000E+00  0.00000000000E+00  0.19030180354E+04  0.19030180354E+04  0.25500000920E-02 0.  1.
       -2   -1    0    0    0  501  0.00000000000E+00  0.00000000000E+00 -0.13419220573E+04  0.13419220573E+04  0.25500000920E-02 0. -1.
    10030    2    1    2    0    0  0.00000000000E+00  0.00000000000E+00  0.56109597812E+03  0.32449400927E+04  0.31960612492E+04 0.  0.
        5    1    3    3  502    0  0.13139228423E+04  0.49092419967E+03  0.10579472486E+04  0.17568933594E+04  0.46999998093E+01 0.  1.
       -5    1    3    3    0  502 -0.13139228423E+04 -0.49092419967E+03 -0.49685127051E+03  0.14880467333E+04  0.46999998093E+01 0. -1.
</event>
<event>
 5   0  0.1508771E-06  0.3200923E+04  0.7818609E-02  0.8188573E-01
        2   -1    0    0  501    0  0.00000000000E+00  0.00000000000E+00  0.18283002920E+04  0.18283002920E+04  0.25500000920E-02 0. -1.
       -2   -1    0    0    0  501  0.00000000000E+00  0.00000000000E+00 -0.14010153599E+04  0.14010153599E+04  0.25500000920E-02 0.  1.
    10030    2    1    2    0    0  0.00000000000E+00  0.00000000000E+00  0.42728493212E+03  0.32293156519E+04  0.32009228617E+04 0.  0.
        4    1    3    3  502    0 -0.14306530035E+04 -0.67883207445E+03  0.44785288538E+03  0.16456472348E+04  0.12699999809E+01 0.  1.
       -4    1    3    3    0  502  0.14306530035E+04  0.67883207445E+03 -0.20567953256E+02  0.15836684171E+04  0.12699999809E+01 0. -1.
</event>
<event>
 5   0  0.1493485E-06  0.3194829E+04  0.7818609E-02  0.8190184E-01
        2   -1    0    0  501    0  0.00000000000E+00  0.00000000000E+00  0.97186644964E+03  0.97186644965E+03  0.25500000920E-02 0.  1.
       -2   -1    0    0    0  501  0.00000000000E+00  0.00000000000E+00 -0.26255997628E+04  0.26255997628E+04  0.25500000920E-02 0. -1.
    10030    2    1    2    0    0  0.00000000000E+00  0.00000000000E+00 -0.16537333132E+04  0.35974662125E+04  0.31948285210E+04 0.  0.
        2    1    3    3  502    0  0.60759339318E+03  0.87630046418E+03  0.51242517737E+03  0.11830688050E+04  0.25500000920E-02 0.  1.
       -2    1    3    3    0  502 -0.60759339318E+03 -0.87630046418E+03 -0.21661584905E+04  0.24143974075E+04  0.25500000920E-02 0. -1.
</event>
<event>
 5   0  0.1572769E-06  0.3225946E+04  0.7818609E-02  0.8181998E-01
       -2   -1    0    0    0  501  0.00000000000E+00  0.00000000000E+00  0.15540313477E+04  0.15540313477E+04  0.25500000920E-02 0. -1.
        2   -1    0    0  501    0  0.00000000000E+00  0.00000000000E+00 -0.16741497810E+04  0.16741497810E+04  0.25500000920E-02 0.  1.
    10030    2    1    2    0    0  0.00000000000E+00  0.00000000000E+00 -0.12011843327E+03  0.32281811287E+04  0.32259455919E+04 0.  0.
        5    1    3    3  502    0 -0.13253449096E+04  0.25942017975E+03 -0.94261210695E+03  0.16469297596E+04  0.46999998093E+01 0. -1.
       -5    1    3    3    0  502  0.13253449096E+04 -0.25942017975E+03  0.82249367368E+03  0.15812513691E+04  0.46999998093E+01 0.  1.
</event>
<event>
 5   0  0.1572769E-06  0.3242072E+04  0.7818609E-02  0.8177794E-01
       -2   -1    0    0    0  501  0.00000000000E+00  0.00000000000E+00  0.15499404006E+04  0.15499404006E+04  0.25500000920E-02 0.  1.
        2   -1    0    0  501    0  0.00000000000E+00  0.00000000000E+00 -0.16953929936E+04  0.16953929936E+04  0.25500000920E-02 0. -1.
    10030    2    1    2    0    0  0.00000000000E+00  0.00000000000E+00 -0.14545259308E+03  0.32453333942E+04  0.32420722359E+04 0.  0.
        5    1    3    3  502    0  0.15859435737E+04  0.15521308773E+02 -0.40814255668E+03  0.16376997180E+04  0.46999998093E+01 0. -1.
       -5    1    3    3    0  502 -0.15859435737E+04 -0.15521308773E+02  0.26268996360E+03  0.16076336762E+04  0.46999998093E+01 0.  1.
</event>
<event>
 5   0  0.5317728E-07  0.3191800E+04  0.7818609E-02  0.8190986E-01
       -1   -1    0    0    0  501  0.00000000000E+00  0.00000000000E+00  0.23818242326E+04  0.23818242326E+04  0.50400001928E-02 0. -1.
        1   -1    0    0  501    0  0.00000000000E+00  0.00000000000E+00 -0.10693051949E+04  0.10693051949E+04  0.50400001928E-02 0.  1.
    10030    2    1    2    0    0  0.00000000000E+00  0.00000000000E+00  0.13125190377E+04  0.34511294275E+04  0.31918001349E+04 0.  0.
        2    1    3    3  502    0 -0.11815183866E+04  0.30926649599E+03  0.17669842474E+04  0.21479908738E+04  0.25500000920E-02 0. -1.
       -2    1    3    3    0  502  0.11815183866E+04 -0.30926649599E+03 -0.45446520968E+03  0.13031385537E+04  0.25500000920E-02 0.  1.
</event>
<event>
 5   0  0.5317728E-07  0.3231952E+04  0.7818609E-02  0.8180429E-01
       -1   -1    0    0    0  501  0.00000000000E+00  0.00000000000E+00  0.10913225111E+04  0.10913225111E+04  0.50400001928E-02 0. -1.
        1   -1    0    0  501    0  0.00000000000E+00  0.00000000000E+00 -0.23928564933E+04  0.23928564933E+04  0.50400001928E-02 0.  1.
    10030    2    1    2    0    0  0.00000000000E+00  0.00000000000E+00 -0.13015339822E+04  0.34841790044E+04  0.32319518295E+04 0.  0.
        2    1    3    3  502    0 -0.11113612885E+04 -0.11649819084E+04 -0.50189025839E+03  0.16864757905E+04  0.25500000920E-02 0.  1.
       -2    1    3    3    0  502  0.11113612885E+04  0.11649819084E+04 -0.79964372376E+03  0.17977032139E+04  0.25500000920E-02 0. -1.
</event>
<event>
 5   0  0.5317728E-07  0.3132795E+04  0.7818609E-02  0.8206795E-01
        1   -1    0    0  501    0  0.00000000000E+00  0.00000000000E+00  0.19044163889E+04  0.19044163889E+04  0.50400001928E-02 0. -1.
       -1   -1    0    0    0  501  0.00000000000E+00  0.00000000000E+00 -0.12883744456E+04  0.12883744456E+04  0.50400001928E-02 0.  1.
    10030    2    1    2    0    0  0.00000000000E+00  0.00000000000E+00  0.61604194331E+03  0.31927908345E+04  0.31327951795E+04 0.  0.
        2    1    3    3  502    0 -0.42658899031E+03 -0.21166045193E+03 -0.12128113179E+04  0.13029541843E+04  0.25500000920E-02 0.  1.
       -2    1    3    3    0  502  0.42658899031E+03  0.21166045193E+03  0.18288532612E+04  0.18898366502E+04  0.25500000920E-02 0. -1.
</event>
<event>
 5   0  0.5281187E-07  0.3179883E+04  0.7818609E-02  0.8194150E-01
        1   -1    0    0  501    0  0.00000000000E+00  0.00000000000E+00  0.20279004653E+04  0.20279004653E+04  0.50400001928E-02 0.  1.
       -1   -1    0    0    0  501  0.00000000000E+00  0.00000000000E+00 -0.12465667009E+04  0.12465667009E+04  0.50400001928E-02 0. -1.
    10030    2    1    2    0    0  0.00000000000E+00  0.00000000000E+00  0.78133376444E+03  0.32744671662E+04  0.31798825090E+04 0.  0.
        5    1    3    3  502    0  0.13261184545E+04 -0.75796274002E+03 -0.63815152830E+02  0.15287877990E+04  0.46999998093E+01 0. -1.
       -5    1    3    3    0  502 -0.13261184545E+04  0.75796274002E+03  0.84514891727E+03  0.17456793672E+04  0.46999998093E+01 0.  1.
</event>
<event>
 5   0  0.1556396E-06  0.3180802E+04  0.7818609E-02  0.8193906E-01
       -2   -1    0    0    0  501  0.00000000000E+00  0.00000000000E+00  0.99290827386E+03  0.99290827386E+03  0.25500000920E-02 0.  1.
        2   -1    0    0  501    0  0.00000000000E+00  0.00000000000E+00 -0.25474406980E+04  0.25474406980E+04  0.25500000920E-02 0. -1.
    10030    2    1    2    0    0  0.00000000000E+00  0.00000000000E+00 -0.15545324242E+04  0.35403489719E+04  0.31808017519E+04 0.  0.
        3    1    3    3  502    0  0.74645701826E+03  0.98652116633E+03  0.33518753827E+03  0.12817069820E+04  0.10100000352E+00 0.  1.
       -3    1    3    3    0  502 -0.74645701826E+03 -0.98652116633E+03 -0.18897199624E+04  0.22586419899E+04  0.10100000352E+00 0. -1.
</event>
<event>
 5   0  0.5370912E-07  0.2998715E+04  0.7818609E-02  0.8244098E-01
       -1   -1    0    0    0  501  0.00000000000E+00  0.00000000000E+00  0.11260554998E+04  0.11260554998E+04  0.50400001928E-02 0. -1.
        1   -1    0    0  501    0  0.00000000000E+00  0.00000000000E+00 -0.19964141692E+04  0.19964141692E+04  0.50400001928E-02 0.  1.
    10030    2    1    2    0    0  0.00000000000E+00  0.00000000000E+00 -0.87035866940E+03  0.31224696691E+04  0.29987151617E+04 0.  0.
        1    1    3    3  502    0 -0.15089432578E+03 -0.58426448709E+03  0.99403195776E+03  0.11628558043E+04  0.50400001928E-02 0. -1.
       -1    1    3    3    0  502  0.15089432578E+03  0.58426448709E+03 -0.18643906272E+04  0.19596138648E+04  0.50400001928E-02 0.  1.
</event>
<event>
 5   0  0.5317728E-07  0.3180497E+04  0.7818609E-02  0.8193987E-01
       -1   -1    0    0    0  501  0.00000000000E+00  0.00000000000E+00  0.14310553921E+04  0.14310553921E+04  0.50400001928E-02 0. -1.
        1   -1    0    0  501    0  0.00000000000E+00  0.00000000000E+00 -0.17671502927E+04  0.17671502928E+04  0.50400001928E-02 0.  1.
    10030    2    1    2    0    0  0.00000000000E+00  0.00000000000E+00 -0.33609490061E+03  0.31982056849E+04  0.31804967884E+04 0.  0.
        2    1    3    3  502    0  0.78629923061E+03 -0.13608997480E+04 -0.41141847997E+03  0.16246783589E+04  0.25500000920E-02 0. -1.
       -2    1    3    3    0  502 -0.78629923061E+03  0.13608997480E+04  0.75323579360E+02  0.15735273260E+04  0.25500000920E-02 0.  1.
</event>
<event>
 5   0  0.5281187E-07  0.3184877E+04  0.7818609E-02  0.8192822E-01
       -1   -1    0    0    0  501  0.00000000000E+00  0.00000000000E+00  0.14895113479E+04  0.14895113479E+04  0.50400001928E-02 0. -1.
        1   -1    0    0  501    0  0.00000000000E+00  0.00000000000E+00 -0.17024783335E+04  0.17024783335E+04  0.50400001928E-02 0.  1.
    10030    2    1    2    0    0  0.00000000000E+00  0.00000000000E+00 -0.21296698558E+03  0.31919896815E+04  0.31848772644E+04 0.  0.
        5    1    3    3  502    0 -0.12205421614E+04 -0.58169649903E+03 -0.94963786813E+03  0.16522494229E+04  0.46999998093E+01 0.  1.
       -5    1    3    3    0  502  0.12205421614E+04  0.58169649903E+03  0.73667088256E+03  0.15397402586E+04  0.46999998093E+01 0. -1.
</event>
<event>
 5   0  0.1493485E-06  0.3235036E+04  0.7818609E-02  0.8179625E-01
        2   -1    0    0  501    0  0.00000000000E+00  0.00000000000E+00  0.22830626460E+04  0.22830626460E+04  0.25500000920E-02 0.  1.
       -2   -1    0    0    0  501  0.00000000000E+00  0.00000000000E+00 -0.11459891462E+04  0.11459891462E+04  0.25500000920E-02 0. -1.
    10030    2    1    2    0    0  0.00000000000E+00  0.00000000000E+00  0.11370734998E+04  0.34290517923E+04  0.32350363290E+04 0.  0.
        2    1    3    3  502    0  0.52489514730E+03 -0.13031482449E+04 -0.28119871220E+03  0.14327536354E+04  0.25500000920E-02 0. -1.
       -2    1    3    3    0  502 -0.52489514730E+03  0.13031482449E+04  0.14182722120E+04  0.19962981569E+04  0.25500000920E-02 0.  1.
</event>
<event>
 5   0  0.1508771E-06  0.3184732E+04  0.7818609E-02  0.8192861E-01
       -2   -1    0    0    0  501  0.00000000000E+00  0.00000000000E+00  0.14532869762E+04  0.14532869762E+04  0.25500000920E-02 0. -1.
        2   -1    0    0  501    0  0.00000000000E+00  0.00000000000E+00 -0.17447550341E+04  0.17447550341E+04  0.25500000920E-02 0.  1.
    10030    2    1    2    0    0  0.00000000000E+00  0.00000000000E+00 -0.29146805787E+03  0.31980420104E+04  0.31847321820E+04 0.  0.
        4    1    3    3  502    0  0.34053346815E+03 -0.15506797562E+04 -0.26895548091E+03  0.16102513509E+04  0.12699999809E+01 0. -1.
       -4    1    3    3    0  502 -0.34053346815E+03  0.15506797562E+04 -0.22512576965E+02  0.15877906595E+04  0.12699999809E+01 0.  1.
</event>
<event>
 5   0  0.5177039E-07  0.3208059E+04  0.7818609E-02  0.8186692E-01
       -1   -1    0    0    0  501  0.00000000000E+00  0.00000000000E+00  0.14699354866E+04  0.14699354866E+04  0.50400001928E-02 0. -1.
        1   -1    0    0  501    0  0.00000000000E+00  0.00000000000E+00 -0.17503559251E+04  0.17503559251E+04  0.50400001928E-02 0.  1.
    10030    2    1    2    0    0  0.00000000000E+00  0.00000000000E+00 -0.28042043853E+03  0.32202914116E+04  0.32080587828E+04 0.  0.
        3    1    3    3  502    0  0.47433156643E+03  0.34716737515E+03 -0.16383469192E+04  0.17406022691E+04  0.10100000352E+00 0.  1.
       -3    1    3    3    0  502 -0.47433156643E+03 -0.34716737515E+03  0.13579264807E+04  0.14796891425E+04  0.10100000352E+00 0. -1.
</event>
<event>
 5   0  0.1493485E-06  0.3268459E+04  0.7818609E-02  0.8170968E-01
        2   -1    0    0  501    0  0.00000000000E+00  0.00000000000E+00  0.21487787350E+04  0.21487787350E+04  0.25500000920E-02 0. -1.
       -2   -1    0    0    0  501  0.00000000000E+00  0.00000000000E+00 -0.12428947290E+04  0.12428947290E+04  0.25500000920E-02 0.  1.
    10030    2    1    2    0    0  0.00000000000E+00  0.00000000000E+00  0.90588400594E+03  0.33916734640E+04  0.32684588194E+04 0.  0.
        2    1    3    3  502    0  0.41700127685E+03 -0.14222371065E+03 -0.11801020795E+04  0.12596660537E+04  0.25500000920E-02 0.  1.
       -2    1    3    3    0  502 -0.41700127685E+03  0.14222371065E+03  0.20859860855E+04  0.21320074103E+04  0.25500000920E-02 0. -1.
</event>
<event>
 5   0  0.5281187E-07  0.3172280E+04  0.7818609E-02  0.8196177E-01
        1   -1    0    0  501    0  0.00000000000E+00  0.00000000000E+00  0.23764466484E+04  0.23764466484E+04  0.50400001928E-02 0.  1.
       -1   -1    0    0    0  501  0.00000000000E+00  0.00000000000E+00 -0.10586560525E+04  0.10586560525E+04  0.50400001928E-02 0. -1.
    10030    2    1    2    0    0  0.00000000000E+00  0.00000000000E+00  0.13177905959E+04  0.34351027010E+04  0.31722797026E+04 0.  0.
        5    1    3    3  502    0 -0.56706094140E+03  0.13284700913E+04  0.13684938923E+04  0.19897709712E+04  0.46999998093E+01 0. -1.
       -5    1    3    3    0  502  0.56706094140E+03 -0.13284700913E+04 -0.50703296415E+02  0.14453317297E+04  0.46999998093E+01 0.  1.
</event>
<event>
 5   0  0.5233813E-07  0.3364331E+04  0.7818609E-02  0.8146716E-01
        1   -1    0    0  501    0  0.00000000000E+00  0.00000000000E+00  0.21529147585E+04  0.21529147585E+04  0.50400001928E-02 0.  1.
       -1   -1    0    0    0  501  0.00000000000E+00  0.00000000000E+00 -0.13143490628E+04  0.13143490628E+04  0.50400001928E-02 0. -1.
    10030    2    1    2    0    0  0.00000000000E+00  0.00000000000E+00  0.83856569574E+03  0.34672638214E+04  0.33643314315E+04 0.  0.
        4    1    3    3  502    0 -0.65811653911E+03 -0.12364153577E+04 -0.54079807078E+03  0.15014341418E+04  0.12699999809E+01 0. -1.
       -4    1    3    3    0  502  0.65811653911E+03  0.12364153577E+04  0.13793637665E+04  0.19658296796E+04  0.12699999809E+01 0.  1.
</event>
<event>
 5   0  0.5317728E-07  0.3183491E+04  0.7818609E-02  0.8193191E-01
        1   -1    0    0  501    0  0.00000000000E+00  0.00000000000E+00  0.23456378296E+04  0.23456378296E+04  0.50400001928E-02 0.  1.
       -1   -1    0    0    0  501  0.00000000000E+00  0.00000000000E+00 -0.10801552984E+04  0.10801552984E+04  0.50400001928E-02 0. -1.
    10030    2    1    2    0    0  0.00000000000E+00  0.00000000000E+00  0.12654825312E+04  0.34257931280E+04  0.31834906186E+04 0.  0.
        2    1    3    3  502    0  0.10528954630E+04  0.98631758606E+03 -0.90932709438E+02  0.14455725489E+04  0.25500000920E-02 0. -1.
       -2    1    3    3    0  502 -0.10528954630E+04 -0.98631758606E+03  0.13564152406E+04  0.19802205790E+04  0.25500000920E-02 0.  1.
</event>
<event>
 5   0  0.5281187E-07  0.3200143E+04  0.7818609E-02  0.8188779E-01
        1   -1    0    0  501    0  0.00000000000E+00  0.00000000000E+00  0.15005760326E+04  0.15005760327E+04  0.50400001928E-02 0.  1.
       -1   -1    0    0    0  501  0.00000000000E+00  0.00000000000E+00 -0.17061637938E+04  0.17061637938E+04  0.50400001928E-02 0. -1.
    10030    2    1    2    0    0  0.00000000000E+00  0.00000000000E+00 -0.20558776115E+03  0.32067398265E+04  0.32001428073E+04 0.  0.
        5    1    3    3  502    0  0.12228010352E+04  0.10318570111E+04 -0.87427871523E+02  0.16023847808E+04  0.46999998093E+01 0. -1.
       -5    1    3    3    0  502 -0.12228010352E+04 -0.10318570111E+04 -0.11815988963E+03  0.16043550457E+04  0.46999998093E+01 0.  1.
</event>
<event>
 5   0  0.5370912E-07  0.3226166E+04  0.7818609E-02  0.8181941E-01
        1   -1    0    0  501    0  0.00000000000E+00  0.00000000000E+00  0.19615351250E+04  0.19615351250E+04  0.50400001928E-02 0.  1.
       -1   -1    0    0    0  501  0.00000000000E+00  0.00000000000E+00 -0.13265310473E+04  0.13265310473E+04  0.50400001928E-02 0. -1.
    10030    2    1    2    0    0  0.00000000000E+00  0.00000000000E+00  0.63500407773E+03  0.32880661723E+04  0.32261662968E+04 0.  0.
        1    1    3    3  502    0 -0.27204466226E+03 -0.26735288877E+03 -0.12799091612E+04  0.13355348465E+04  0.50400001928E-02 0. -1.
       -1    1    3    3    0  502  0.27204466226E+03  0.26735288877E+03  0.19149132389E+04  0.19525313257E+04  0.50400001928E-02 0.  1.
</event>
<event>
 5   0  0.1556396E-06  0.3203326E+04  0.7818609E-02  0.8187939E-01
       -2   -1    0    0    0  501  0.00000000000E+00  0.00000000000E+00  0.15193463323E+04  0.15193463323E+04  0.25500000920E-02 0.  1.
        2   -1    0    0  501    0  0.00000000000E+00  0.00000000000E+00 -0.16884390151E+04  0.16884390151E+04  0.25500000920E-02 0. -1.
    10030    2    1    2    0    0  0.00000000000E+00  0.00000000000E+00 -0.16909268284E+03  0.32077853475E+04  0.32033255376E+04 0.  0.
        3    1    3    3  502    0  0.42024636489E+03  0.15450479753E+04 -0.12388667762E+03  0.16059664294E+04  0.10100000352E+00 0. -1.
       -3    1    3    3    0  502 -0.42024636489E+03 -0.15450479753E+04 -0.45206005223E+02  0.16018189181E+04  0.10100000352E+00 0.  1.
</event>
<event>
 5   0  0.1556396E-06  0.3232605E+04  0.7818609E-02  0.8180259E-01
       -2   -1    0    0    0  501  0.00000000000E+00  0.00000000000E+00  0.12522035787E+04  0.12522035787E+04  0.25500000920E-02 0.  1.
        2   -1    0    0  501    0  0.00000000000E+00  0.00000000000E+00 -0.20862690577E+04  0.20862690577E+04  0.25500000920E-02 0. -1.
    10030    2    1    2    0    0  0.00000000000E+00  0.00000000000E+00 -0.83406547908E+03  0.33384726364E+04  0.32326048816E+04 0.  0.
        3    1    3    3  502    0  0.49337132499E+03 -0.14095988392E+04 -0.10553770147E+04  0.18287167099E+04  0.10100000352E+00 0. -1.
       -3    1    3    3    0  502 -0.49337132499E+03  0.14095988392E+04  0.22131153560E+03  0.15097559265E+04  0.10100000352E+00 0.  1.
</event>
<event>
 5   0  0.5281187E-07  0.3190005E+04  0.7818609E-02  0.8191462E-01
       -1   -1    0    0    0  501  0.00000000000E+00  0.00000000000E+00  0.12263200464E+04  0.12263200465E+04  0.50400001928E-02 0.  1.
        1   -1    0    0  501    0  0.00000000000E+00  0.00000000000E+00 -0.20745264146E+04  0.20745264146E+04  0.50400001928E-02 0. -1.
    10030    2    1    2    0    0  0.00000000000E+00  0.00000000000E+00 -0.84820636815E+03  0.33008464610E+04  0.31900052220E+04 0.  0.
        5    1    3    3  502    0 -0.20449148535E+03  0.26888111128E+03  0.11888727939E+04  0.12359427291E+04  0.46999998093E+01 0.  1.
       -5    1    3    3    0  502  0.20449148535E+03 -0.26888111128E+03 -0.20370791621E+04  0.20649037319E+04  0.46999998093E+01 0. -1.
</event>
<event>
 5   0  0.5177039E-07  0.3175731E+04  0.7818609E-02  0.8195256E-01
        1   -1    0    0  501    0  0.00000000000E+00  0.00000000000E+00  0.27289077110E+04  0.27289077110E+04  0.50400001928E-02 0. -1.
       -1   -1    0    0    0  501  0.00000000000E+00  0.00000000000E+00 -0.92392876540E+03  0.92392876542E+03  0.50400001928E-02 0.  1.
    10030    2    1    2    0    0  0.00000000000E+00  0.00000000000E+00  0.18049789456E+04  0.36528364764E+04  0.31757306765E+04 0.  0.
        3    1    3    3  502    0  0.27478916349E+03 -0.15575144232E+04  0.10649784705E+04  0.19067090538E+04  0.10100000352E+00 0. -1.
       -3    1    3    3    0  502 -0.27478916349E+03  0.15575144232E+04  0.74000047512E+03  0.17461274227E+04  0.10100000352E+00 0.  1.
</event>
<event>
 5   0  0.5177039E-07  0.3196072E+04  0.7818609E-02  0.8189855E-01
        1   -1    0    0  501    0  0.00000000000E+00  0.00000000000E+00  0.22845397722E+04  0.22845397722E+04  0.50400001928E-02 0. -1.
       -1   -1    0    0    0  501  0.00000000000E+00  0.00000000000E+00 -0.11178266424E+04  0.11178266425E+04  0.50400001928E-02 0.  1.
    10030    2    1    2    0    0  0.00000000000E+00  0.00000000000E+00  0.11667131297E+04  0.34023664146E+04  0.31960722289E+04 0.  0.
        3    1    3    3  502    0 -0.76802658373E+03 -0.13160759792E+04  0.70825848228E+02  0.15254301450E+04  0.10100000352E+00 0. -1.
       -3    1    3    3    0  502  0.76802658373E+03  0.13160759792E+04  0.10958872815E+04  0.18769362696E+04  0.10100000352E+00 0.  1.
</event>
<event>
 5   0  0.1493485E-06  0.2932357E+04  0.7818609E-02  0.8263315E-01
       -2   -1    0    0    0  501  0.00000000000E+00  0.00000000000E+00  0.92923337265E+03  0.92923337265E+03  0.25500000920E-02 0. -1.
        2   -1    0    0  501    0  0.00000000000E+00  0.00000000000E+00 -0.23133906946E+04  0.23133906946E+04  0.25500000920E-02 0.  1.
    10030    2    1    2    0    0  0.00000000000E+00  0.00000000000E+00 -0.13841573219E+04  0.32426240672E+04  0.29323573025E+04 0.  0.
        2    1    3    3  502    0 -0.51958070785E+03 -0.46284779612E+03  0.73500824709E+03  0.10121409574E+04  0.25500000920E-02 0. -1.
       -2    1    3    3    0  502  0.51958070785E+03  0.46284779612E+03 -0.21191655690E+04  0.22304831098E+04  0.25500000920E-02 0.  1.
</event>
<event>
 5   0  0.1493485E-06  0.3226834E+04  0.7818609E-02  0.8181766E-01
       -2   -1    0    0    0  501  0.00000000000E+00  0.00000000000E+00  0.11300372398E+04  0.11300372398E+04  0.25500000920E-02 0.  1.
        2   -1    0    0  501    0  0.00000000000E+00  0.00000000000E+00 -0.23035648402E+04  0.23035648402E+04  0.25500000920E-02 0. -1.
    10030    2    1    2    0    0  0.00000000000E+00  0.00000000000E+00 -0.11735276004E+04  0.34336020800E+04  0.32268337756E+04 0.  0.
        2    1    3    3  502    0 -0.60773911440E+03  0.12684278480E+04 -0.14278955811E+04  0.20042808753E+04  0.25500000920E-02 0. -1.
       -2    1    3    3    0  502  0.60773911440E+03 -0.12684278480E+04  0.25436798070E+03  0.14293212047E+04  0.25500000920E-02 0.  1.
</event>
<event>
 5   0  0.5233813E-07  0.3151074E+04  0.7818609E-02  0.8201859E-01
        1   -1    0    0  501    0  0.00000000000E+00  0.00000000000E+00  0.18336360112E+04  0.18336360112E+04  0.50400001928E-02 0.  1.
       -1   -1    0    0    0  501  0.00000000000E+00  0.00000000000E+00 -0.13537676724E+04  0.13537676724E+04  0.50400001928E-02 0. -1.
    10030    2    1    2    0    0  0.00000000000E+00  0.00000000000E+00  0.47986833882E+03  0.31874036836E+04  0.31510742009E+04 0.  0.
        4    1    3    3  502    0 -0.91180419239E+03  0.46752193728E+03  0.14505415120E+04  0.17759605677E+04  0.12699999809E+01 0.  1.
       -4    1    3    3    0  502  0.91180419239E+03 -0.46752193728E+03 -0.97067317322E+03  0.14114431158E+04  0.12699999809E+01 0. -1.
</event>
<event>
 5   0  0.1538349E-06  0.3212089E+04  0.7818609E-02  0.8185632E-01
       -2   -1    0    0    0  501  0.00000000000E+00  0.00000000000E+00  0.11008595815E+04  0.11008595815E+04  0.25500000920E-02 0.  1.
        2   -1    0    0  501    0  0.00000000000E+00  0.00000000000E+00 -0.23430594980E+04  0.23430594980E+04  0.25500000920E-02 0. -1.
    10030    2    1    2    0    0  0.00000000000E+00  0.00000000000E+00 -0.12421999165E+04  0.34439190795E+04  0.32120893502E+04 0.  0.
        1    1    3    3  502    0  0.66833753655E+03  0.12957729239E+04 -0.13432686984E+04  0.19824412549E+04  0.50400001928E-02 0. -1.
       -1    1    3    3    0  502 -0.66833753655E+03 -0.12957729239E+04  0.10106878186E+03  0.14614778246E+04  0.50400001928E-02 0.  1.
</event>
<event>
 5   0  0.4995625E-07  0.3195502E+04  0.7818609E-02  0.8190006E-01
       -3   -1    0    0    0  501  0.00000000000E+00  0.00000000000E+00  0.97652273751E+03  0.97652274274E+03  0.10100000352E+00 0. -1.
        3   -1    0    0  501    0  0.00000000000E+00  0.00000000000E+00 -0.26141828326E+04  0.26141828346E+04  0.10100000352E+00 0.  1.
    10030    2    1    2    0    0  0.00000000000E+00  0.00000000000E+00 -0.16376600951E+04  0.35907055773E+04  0.31955024575E+04 0.  0.
        5    1    3    3  502    0 -0.13739599977E+04  0.66690944097E+03 -0.29147733636E+03  0.15548361346E+04  0.46999998093E+01 0. -1.
       -5    1    3    3    0  502  0.13739599977E+04 -0.66690944097E+03 -0.13461827587E+04  0.20358694427E+04  0.46999998093E+01 0.  1.
</event>
<event>
 5   0  0.1572769E-06  0.3164809E+04  0.7818609E-02  0.8198173E-01
        2   -1    0    0  501    0  0.00000000000E+00  0.00000000000E+00  0.17157062317E+04  0.17157062317E+04  0.25500000920E-02 0.  1.
       -2   -1    0    0    0  501  0.00000000000E+00  0.00000000000E+00 -0.14594596767E+04  0.14594596767E+04  0.25500000920E-02 0. -1.
    10030    2    1    2    0    0  0.00000000000E+00  0.00000000000E+00  0.25624655495E+03  0.31751659084E+04  0.31648090383E+04 0.  0.
        5    1    3    3  502    0  0.69313911670E+03 -0.13244099835E+04  0.64893510516E+03  0.16296142182E+04  0.46999998093E+01 0.  1.
       -5    1    3    3    0  502 -0.69313911670E+03  0.13244099835E+04 -0.39268855021E+03  0.15455516902E+04  0.46999998093E+01 0. -1.
</event>
<event>
 5   0  0.1572769E-06  0.3207413E+04  0.7818609E-02  0.8186862E-01
       -2   -1    0    0    0  501  0.00000000000E+00  0.00000000000E+00  0.36257075867E+04  0.36257075867E+04  0.25500000920E-02 0.  1.
        2   -1    0    0  501    0  0.00000000000E+00  0.00000000000E+00 -0.70934404932E+03  0.70934404933E+03  0.25500000920E-02 0. -1.
    10030    2    1    2    0    0  0.00000000000E+00  0.00000000000E+00  0.29163635374E+04  0.43350516360E+04  0.32074127276E+04 0.  0.
        5    1    3    3  502    0  0.16189136063E+02 -0.14650334040E+04  0.23395761811E+04  0.27604752780E+04  0.46999998093E+01 0.  1.
       -5    1    3    3    0  502 -0.16189136063E+02  0.14650334040E+04  0.57678735627E+03  0.15745763581E+04  0.46999998093E+01 0. -1.
</event>
<event>
 5   0  0.1493485E-06  0.3160957E+04  0.7818609E-02  0.8199205E-01
       -2   -1    0    0    0  501  0.00000000000E+00  0.00000000000E+00  0.12045439548E+04  0.12045439548E+04  0.25500000920E-02 0. -1.
        2   -1    0    0  501    0  0.00000000000E+00  0.00000000000E+00 -0.20737409630E+04  0.20737409630E+04  0.25500000920E-02 0.  1.
    10030    2    1    2    0    0  0.00000000000E+00  0.00000000000E+00 -0.86919700821E+03  0.32782849178E+04  0.31609569062E+04 0.  0.
        2    1    3    3  502    0 -0.59107161014E+02 -0.15280660345E+04 -0.20487480288E+02  0.15293460037E+04  0.25500000920E-02 0.  1.
       -2    1    3    3    0  502  0.59107161014E+02  0.15280660345E+04 -0.84870952792E+03  0.17489389140E+04  0.25500000920E-02 0. -1.
</event>
<event>
 5   0  0.5281187E-07  0.3199511E+04  0.7818609E-02  0.8188946E-01
       -1   -1    0    0    0  501  0.00000000000E+00  0.00000000000E+00  0.18246890651E+04  0.18246890651E+04  0.50400001928E-02 0. -1.
        1   -1    0    0  501    0  0.00000000000E+00  0.00000000000E+00 -0.14025496243E+04  0.14025496243E+04  0.50400001928E-02 0.  1.
    10030    2    1    2    0    0  0.00000000000E+00  0.00000000000E+00  0.42213944079E+03  0.32272386894E+04  0.31995105643E+04 0.  0.
        5    1    3    3  502    0 -0.12904015349E+03  0.16926309332E+03 -0.13881972869E+04  0.14044269840E+04  0.46999998093E+01 0.  1.
       -5    1    3    3    0  502  0.12904015349E+03 -0.16926309332E+03  0.18103367277E+04  0.18228117055E+04  0.46999998093E+01 0. -1.
</event>
<event>
 5   0  0.1556396E-06  0.3133753E+04  0.7818609E-02  0.8206535E-01
       -2   -1    0    0    0  501  0.00000000000E+00  0.00000000000E+00  0.12202489972E+04  0.12202489972E+04  0.25500000920E-02 0.  1.
        2   -1    0    0  501    0  0.00000000000E+00  0.00000000000E+00 -0.20119683170E+04  0.20119683170E+04  0.25500000920E-02 0. -1.
    10030    2    1    2    0    0  0.00000000000E+00  0.00000000000E+00 -0.79171931979E+03  0.32322173142E+04  0.31337532265E+04 0.  0.
        3    1    3    3  502    0  0.20401485418E+03 -0.14272289000E+04  0.23701403847E+03  0.14610886552E+04  0.10100000352E+00 0. -1.
       -3    1    3    3    0  502 -0.20401485418E+03  0.14272289000E+04 -0.10287333583E+04  0.17711286589E+04  0.10100000352E+00 0.  1.
</event>
<event>
 5   0  0.5177039E-07  0.3196949E+04  0.7818609E-02  0.8189623E-01
        1   -1    0    0  501    0  0.00000000000E+00  0.00000000000E+00  0.21179362356E+04  0.21179362356E+04  0.50400001928E-02 0.  1.
       -1   -1    0    0    0  501  0.00000000000E+00  0.00000000000E+00 -0.12064204119E+04  0.12064204119E+04  0.50400001928E-02 0. -1.
    10030    2    1    2    0    0  0.00000000000E+00  0.00000000000E+00  0.91151582370E+03  0.33243566475E+04  0.31969494871E+04 0.  0.
        3    1    3    3  502    0 -0.35657935220E+03 -0.65822067190E+03  0.19243886436E+04  0.20648668115E+04  0.10100000352E+00 0.  1.
       -3    1    3    3    0  502  0.35657935220E+03  0.65822067190E+03 -0.10128728199E+04  0.12594898360E+04  0.10100000352E+00 0. -1.
</event>
<event>
 5   0  0.1508771E-06  0.3205097E+04  0.7818609E-02  0.8187472E-01
       -2   -1    0    0    0  501  0.00000000000E+00  0.00000000000E+00  0.16565025438E+04  0.16565025438E+04  0.25500000920E-02 0. -1.
        2   -1    0    0  501    0  0.00000000000E+00  0.00000000000E+00 -0.15503518676E+04  0.15503518676E+04  0.25500000920E-02 0.  1.
    10030    2    1    2    0    0  0.00000000000E+00  0.00000000000E+00  0.10615067622E+03  0.32068544114E+04  0.32050970734E+04 0.  0.
        4    1    3    3  502    0 -0.12869664194E+04 -0.88583626148E+03 -0.30373167717E+03  0.15916164712E+04  0.12699999809E+01 0.  1.
       -4    1    3    3    0  502  0.12869664194E+04  0.88583626148E+03  0.40988235339E+03  0.16152379402E+04  0.12699999809E+01 0. -1.
</event>
<event>
 5   0  0.5317728E-07  0.3213597E+04  0.7818609E-02  0.8185235E-01
       -1   -1    0    0    0  501  0.00000000000E+00  0.00000000000E+00  0.13717330422E+04  0.13717330422E+04  0.50400001928E-02 0.  1.
        1   -1    0    0  501    0  0.00000000000E+00  0.00000000000E+00 -0.18821462350E+04  0.18821462350E+04  0.50400001928E-02 0. -1.
    10030    2    1    2    0    0  0.00000000000E+00  0.00000000000E+00 -0.51041319283E+03  0.32538792772E+04  0.32135974738E+04 0.  0.
        2    1    3    3  502    0  0.85166570522E+03 -0.87118729258E+03  0.80554160499E+03  0.14605475171E+04  0.25500000920E-02 0.  1.
       -2    1    3    3    0  502 -0.85166570522E+03  0.87118729258E+03 -0.13159547978E+04  0.17933317602E+04  0.25500000920E-02 0. -1.
</event>
<event>
 5   0  0.5370912E-07  0.3196776E+04  0.7818609E-02  0.8189669E-01
       -1   -1    0    0    0  501  0.00000000000E+00  0.00000000000E+00  0.10816632142E+04  0.10816632142E+04  0.50400001928E-02 0.  1.
        1   -1    0    0  501    0  0.00000000000E+00  0.00000000000E+00 -0.23619589722E+04  0.23619589722E+04  0.50400001928E-02 0. -1.
    10030    2    1    2    0    0  0.00000000000E+00  0.00000000000E+00 -0.12802957579E+04  0.34436221864E+04  0.31967759595E+04 0.  0.
        1    1    3    3  502    0  0.14613490803E+04 -0.55039853305E+03 -0.10076107505E+04  0.18584292035E+04  0.50400001928E-02 0. -1.
       -1    1    3    3    0  502 -0.14613490803E+04  0.55039853305E+03 -0.27268500740E+03  0.15851929829E+04  0.50400001928E-02 0.  1.
</event>
<event>
 5   0  0.1572769E-06  0.3209483E+04  0.7818609E-02  0.8186317E-01
       -2   -1    0    0    0  501  0.00000000000E+00  0.00000000000E+00  0.12760782713E+04  0.12760782713E+04  0.25500000920E-02 0.  1.
        2   -1    0    0  501    0  0.00000000000E+00  0.00000000000E+00 -0.20180540961E+04  0.20180540961E+04  0.25500000920E-02 0. -1.
    10030    2    1    2    0    0  0.00000000000E+00  0.00000000000E+00 -0.74197582478E+03  0.32941323674E+04  0.32094828133E+04 0.  0.
        5    1    3    3  502    0  0.46835356332E+03 -0.59029699937E+03 -0.18251720831E+04  0.19746090323E+04  0.46999998093E+01 0. -1.
       -5    1    3    3    0  502 -0.46835356332E+03  0.59029699937E+03  0.10831962583E+04  0.13195233350E+04  0.46999998093E+01 0.  1.
</event>
<event>
 5   0  0.5281187E-07  0.3182098E+04  0.7818609E-02  0.8193561E-01
        1   -1    0    0  501    0  0.00000000000E+00  0.00000000000E+00  0.14870589313E+04  0.14870589313E+04  0.50400001928E-02 0. -1.
       -1   -1    0    0    0  501  0.00000000000E+00  0.00000000000E+00 -0.17023106559E+04  0.17023106559E+04  0.50400001928E-02 0.  1.
    10030    2    1    2    0    0  0.00000000000E+00  0.00000000000E+00 -0.21525172466E+03  0.31893695872E+04  0.31820975879E+04 0.  0.
        5    1    3    3  502    0  0.38925708868E+02 -0.63223995765E+03 -0.15704719999E+04  0.16934128166E+04  0.46999998093E+01 0.  1.
       -5    1    3    3    0  502 -0.38925708868E+02  0.63223995765E+03  0.13552202753E+04  0.14959567706E+04  0.46999998093E+01 0. -1.
</event>
<event>
 5   0  0.1556396E-06  0.3195258E+04  0.7818609E-02  0.8190071E-01
       -2   -1    0    0    0  501  0.00000000000E+00  0.00000000000E+00  0.17836938584E+04  0.17836938584E+04  0.25500000920E-02 0. -1.
        2   -1    0    0  501    0  0.00000000000E+00  0.00000000000E+00 -0.14309737870E+04  0.14309737870E+04  0.25500000920E-02 0.  1.
    10030    2    1    2    0    0  0.00000000000E+00  0.00000000000E+00  0.35272007142E+03  0.32146676454E+04  0.31952584593E+04 0.  0.
        3    1    3    3  502    0 -0.11134037353E+04 -0.10112941084E+04 -0.36546074830E+03  0.15478841107E+04  0.10100000352E+00 0. -1.
       -3    1    3    3    0  502  0.11134037353E+04  0.10112941084E+04  0.71818081972E+03  0.16667835347E+04  0.10100000352E+00 0.  1.
</event>
<event>
 5   0  0.1538349E-06  0.3140063E+04  0.7818609E-02  0.8204828E-01
       -2   -1    0    0    0  501  0.00000000000E+00  0.00000000000E+00  0.19464745809E+04  0.19464745809E+04  0.25500000920E-02 0.  1.
        2   -1    0    0  501    0  0.00000000000E+00  0.00000000000E+00 -0.12663918785E+04  0.12663918785E+04  0.25500000920E-02 0. -1.
    10030    2    1    2    0    0  0.00000000000E+00  0.00000000000E+00  0.68008270237E+03  0.32128664595E+04  0.31400634395E+04 0.  0.
        1    1    3    3  502    0 -0.31015625313E+03  0.85479163152E+03 -0.96952938031E+03  0.13292301734E+04  0.50400001928E-02 0. -1.
       -1    1    3    3    0  502  0.31015625313E+03 -0.85479163152E+03  0.16496120827E+04  0.18836362860E+04  0.50400001928E-02 0.  1.
</event>
<event>
 5   0  0.5317728E-07  0.3196988E+04  0.7818609E-02  0.8189613E-01
        1   -1    0    0  501    0  0.00000000000E+00  0.00000000000E+00  0.17445328203E+04  0.17445328203E+04  0.50400001928E-02 0.  1.
       -1   -1    0    0    0  501  0.00000000000E+00  0.00000000000E+00 -0.14646803523E+04  0.14646803523E+04  0.50400001928E-02 0. -1.
    10030    2    1    2    0    0  0.00000000000E+00  0.00000000000E+00  0.27985246801E+03  0.32092131726E+04  0.31969879235E+04 0.  0.
        2    1    3    3  502    0  0.62243097503E+03 -0.81215082920E+03 -0.10928471405E+04  0.14971052603E+04  0.25500000920E-02 0. -1.
       -2    1    3    3    0  502 -0.62243097503E+03  0.81215082920E+03  0.13726996085E+04  0.17121079122E+04  0.25500000920E-02 0.  1.
</event>
<event>
 5   0  0.5317728E-07  0.3203939E+04  0.7818609E-02  0.8187778E-01
       -1   -1    0    0    0  501  0.00000000000E+00  0.00000000000E+00  0.10305213375E+04  0.10305213375E+04  0.50400001928E-02 0.  1.
        1   -1    0    0  501    0  0.00000000000E+00  0.00000000000E+00 -0.24902985928E+04  0.24902985928E+04  0.50400001928E-02 0. -1.
    10030    2    1    2    0    0  0.00000000000E+00  0.00000000000E+00 -0.14597772553E+04  0.35208199303E+04  0.32039387239E+04 0.  0.
        2    1    3    3  502    0 -0.36030488886E+02 -0.12881244218E+04 -0.17757211260E+04  0.21940255786E+04  0.25500000920E-02 0. -1.
       -2    1    3    3    0  502  0.36030488886E+02  0.12881244218E+04  0.31594387073E+03  0.13267943517E+04  0.25500000920E-02 0.  1.
</event>
<event>
 5   0  0.1556396E-06  0.3222800E+04  0.7818609E-02  0.8182822E-01
        2   -1    0    0  501    0  0.00000000000E+00  0.00000000000E+00  0.17475103589E+04  0.17475103589E+04  0.25500000920E-02 0. -1.
       -2   -1    0    0    0  501  0.00000000000E+00  0.00000000000E+00 -0.14858906942E+04  0.14858906942E+04  0.25500000920E-02 0.  1.
    10030    2    1    2    0    0  0.00000000000E+00  0.00000000000E+00  0.26161966465E+03  0.32334010531E+04  0.32227996402E+04 0.  0.
        3    1    3    3  502    0 -0.14042593567E+04  0.74769297625E+03  0.38781696962E+03  0.16374953862E+04  0.10100000352E+00 0. -1.
       -3    1    3    3    0  502  0.14042593567E+04 -0.74769297625E+03 -0.12619730496E+03  0.15959056669E+04  0.10100000352E+00 0.  1.
</event>
<event>
 5   0  0.1556396E-06  0.3196204E+04  0.7818609E-02  0.8189820E-01
        2   -1    0    0  501    0  0.00000000000E+00  0.00000000000E+00  0.13856668210E+04  0.13856668210E+04  0.25500000920E-02 0.  1.
       -2   -1    0    0    0  501  0.00000000000E+00  0.00000000000E+00 -0.18431056398E+04  0.18431056398E+04  0.25500000920E-02 0. -1.
    10030    2    1    2    0    0  0.00000000000E+00  0.00000000000E+00 -0.45743881888E+03  0.32287724608E+04  0.31962042066E+04 0.  0.
        3    1    3    3  502    0 -0.24231294394E+03  0.15467842060E+04  0.94972504599E+02  0.15685269298E+04  0.10100000352E+00 0.  1.
       -3    1    3    3    0  502  0.24231294394E+03 -0.15467842060E+04 -0.55241132348E+03  0.16602455310E+04  0.10100000352E+00 0. -1.
</event>
<event>
 5   0  0.5233813E-07  0.3174708E+04  0.7818609E-02  0.8195529E-01
        1   -1    0    0  501    0  0.00000000000E+00  0.00000000000E+00  0.15494630538E+04  0.15494630538E+04  0.50400001928E-02 0. -1.
       -1   -1    0    0    0  501  0.00000000000E+00  0.00000000000E+00 -0.16261715632E+04  0.16261715632E+04  0.50400001928E-02 0.  1.
    10030    2    1    2    0    0  0.00000000000E+00  0.00000000000E+00 -0.76708509426E+02  0.31756346170E+04  0.31747080221E+04 0.  0.
        4    1    3    3  502    0 -0.51331013408E+03 -0.14669527548E+04 -0.36133154525E+03  0.15956189323E+04  0.12699999809E+01 0.  1.
       -4    1    3    3    0  502  0.51331013408E+03  0.14669527548E+04  0.28462303583E+03  0.15800156847E+04  0.12699999809E+01 0. -1.
</event>
<event>
 5   0  0.5233813E-07  0.3209106E+04  0.7818609E-02  0.8186417E-01
        1   -1    0    0  501    0  0.00000000000E+00  0.00000000000E+00  0.10119781429E+04  0.10119781429E+04  0.50400001928E-02 0.  1.
       -1   -1    0    0    0  501  0.00000000000E+00  0.00000000000E+00 -0.25441159388E+04  0.25441159388E+04  0.50400001928E-02 0. -1.
    10030    2    1    2    0    0  0.00000000000E+00  0.00000000000E+00 -0.15321377959E+04  0.35560940817E+04  0.32091056219E+04 0.  0.
        4    1    3    3  502    0  0.55547020036E+03 -0.56511620224E+02  0.90085919174E+03  0.10598535762E+04  0.12699999809E+01 0.  1.
       -4    1    3    3    0  502 -0.55547020036E+03  0.56511620224E+02 -0.24329969877E+04  0.24962405056E+04  0.12699999809E+01 0. -1.
</event>
<event>
 5   0  0.5370912E-07  0.3185491E+04  0.7818609E-02  0.8192660E-01
       -1   -1    0    0    0  501  0.00000000000E+00  0.00000000000E+00  0.27667143116E+04  0.27667143116E+04  0.50400001928E-02 0.  1.
        1   -1    0    0  501    0  0.00000000000E+00  0.00000000000E+00 -0.91691357146E+03  0.91691357148E+03  0.50400001928E-02 0. -1.
    10030    2    1    2    0    0  0.00000000000E+00  0.00000000000E+00  0.18498007401E+04  0.36836278831E+04  0.31854907946E+04 0.  0.
        1    1    3    3  502    0 -0.13882287531E+03 -0.46817747862E+03  0.26780134595E+04  0.27221715654E+04  0.50400001928E-02 0.  1.
       -1    1    3    3    0  502  0.13882287531E+03  0.46817747862E+03 -0.82821271938E+03  0.96145631766E+03  0.50400001928E-02 0. -1.
</event>
<event>
 5   0  0.5370912E-07  0.3308827E+04  0.7818609E-02  0.8160653E-01
        1   -1    0    0  501    0  0.00000000000E+00  0.00000000000E+00  0.23462065439E+04  0.23462065439E+04  0.50400001928E-02 0.  1.
       -1   -1    0    0    0  501  0.00000000000E+00  0.00000000000E+00 -0.11665998962E+04  0.11665998962E+04  0.50400001928E-02 0. -1.
    10030    2    1    2    0    0  0.00000000000E+00  0.00000000000E+00  0.11796066477E+04  0.35128064401E+04  0.33088271702E+04 0.  0.
        1    1    3    3  502    0  0.45099664661E+03 -0.17082203336E+02  0.22795887167E+04  0.23238361591E+04  0.50400001928E-02 0.  1.
       -1    1    3    3    0  502 -0.45099664661E+03  0.17082203336E+02 -0.10999820690E+04  0.11889702810E+04  0.50400001928E-02 0. -1.
</event>
<event>
 5   0  0.5317728E-07  0.3201849E+04  0.7818609E-02  0.8188329E-01
       -1   -1    0    0    0  501  0.00000000000E+00  0.00000000000E+00  0.11726861998E+04  0.11726861998E+04  0.50400001928E-02 0. -1.
        1   -1    0    0  501    0  0.00000000000E+00  0.00000000000E+00 -0.21855453112E+04  0.21855453112E+04  0.50400001928E-02 0.  1.
    10030    2    1    2    0    0  0.00000000000E+00  0.00000000000E+00 -0.10128591114E+04  0.33582315109E+04  0.32018487318E+04 0.  0.
        2    1    3    3  502    0  0.39980956853E+03  0.58815984948E+03  0.99791000481E+03  0.12253995582E+04  0.25500000920E-02 0. -1.
       -2    1    3    3    0  502 -0.39980956853E+03 -0.58815984948E+03 -0.20107691162E+04  0.21328319527E+04  0.25500000920E-02 0.  1.
</event>
<event>
 5   0  0.5281187E-07  0.3200627E+04  0.7818609E-02  0.8188652E-01
        1   -1    0    0  501    0  0.00000000000E+00  0.00000000000E+00  0.12002304482E+04  0.12002304482E+04  0.50400001928E-02 0. -1.
       -1   -1    0    0    0  501  0.00000000000E+00  0.00000000000E+00 -0.21337592980E+04  0.21337592980E+04  0.50400001928E-02 0.  1.
    10030    2    1    2    0    0  0.00000000000E+00  0.00000000000E+00 -0.93352884974E+03  0.33339897462E+04  0.32006267378E+04 0.  0.
        5    1    3    3  502    0  0.16534312594E+03  0.10149839699E+04 -0.17440079881E+04  0.20246275610E+04  0.46999998093E+01 0.  1.
       -5    1    3    3    0  502 -0.16534312594E+03 -0.10149839699E+04  0.81047913832E+03  0.13093621852E+04  0.46999998093E+01 0. -1.
</event>
<event>
 5   0  0.5317728E-07  0.2867272E+04  0.7818609E-02  0.8282682E-01
        1   -1    0    0  501    0  0.00000000000E+00  0.00000000000E+00  0.62880691453E+03  0.62880691455E+03  0.50400001928E-02 0.  1.
       -1   -1    0    0    0  501  0.00000000000E+00  0.00000000000E+00 -0.32685902323E+04  0.32685902323E+04  0.50400001928E-02 0. -1.
    10030    2    1    2    0    0  0.00000000000E+00  0.00000000000E+00 -0.26397833178E+04  0.38973971469E+04  0.28672719710E+04 0.  0.
        2    1    3    3  502    0  0.78305457942E+03 -0.11703350067E+04 -0.95401401958E+03  0.17008824920E+04  0.25500000920E-02 0. -1.
       -2    1    3    3    0  502 -0.78305457942E+03  0.11703350067E+04 -0.16857692982E+04  0.21965146548E+04  0.25500000920E-02 0.  1.
</event>
<event>
 5   0  0.1538349E-06  0.3193185E+04  0.7818609E-02  0.8190619E-01
        2   -1    0    0  501    0  0.00000000000E+00  0.00000000000E+00  0.29617360903E+04  0.29617360903E+04  0.25500000920E-02 0.  1.
       -2   -1    0    0    0  501  0.00000000000E+00  0.00000000000E+00 -0.86068007853E+03  0.86068007853E+03  0.25500000920E-02 0. -1.
    10030    2    1    2    0    0  0.00000000000E+00  0.00000000000E+00  0.21010560117E+04  0.38224161688E+04  0.31931847743E+04 0.  0.
        1    1    3    3  502    0 -0.89786305453E+03  0.99881293708E+03  0.20839694204E+04  0.24792567220E+04  0.50400001928E-02 0.  1.
       -1    1    3    3    0  502  0.89786305453E+03 -0.99881293708E+03  0.17086591275E+02  0.13431594468E+04  0.50400001928E-02 0. -1.
</event>
<event>
 5   0  0.1538349E-06  0.3210824E+04  0.7818609E-02  0.8185964E-01
        2   -1    0    0  501    0  0.00000000000E+00  0.00000000000E+00  0.22233906285E+04  0.22233906285E+04  0.25500000920E-02 0.  1.
       -2   -1    0    0    0  501  0.00000000000E+00  0.00000000000E+00 -0.11591973120E+04  0.11591973120E+04  0.25500000920E-02 0. -1.
    10030    2    1    2    0    0  0.00000000000E+00  0.00000000000E+00  0.10641933166E+04  0.33825879405E+04  0.32108244674E+04 0.  0.
        1    1    3    3  502    0  0.12806704175E+04 -0.92388934366E+03  0.83681036360E+03  0.17871597081E+04  0.50400001928E-02 0.  1.
       -1    1    3    3    0  502 -0.12806704175E+04  0.92388934366E+03  0.22738295297E+03  0.15954282324E+04  0.50400001928E-02 0. -1.
</event>
<event>
 5   0  0.1493485E-06  0.3127375E+04  0.7818609E-02  0.8208265E-01
        2   -1    0    0  501    0  0.00000000000E+00  0.00000000000E+00  0.17385964696E+04  0.17385964696E+04  0.25500000920E-02 0.  1.
       -2   -1    0    0    0  501  0.00000000000E+00  0.00000000000E+00 -0.14063745474E+04  0.14063745474E+04  0.25500000920E-02 0. -1.
    10030    2    1    2    0    0  0.00000000000E+00  0.00000000000E+00  0.33222192227E+03  0.31449710170E+04  0.31273745046E+04 0.  0.
        2    1    3    3  502    0  0.11415725839E+04 -0.52256181597E+03  0.11034817380E+04  0.16715055375E+04  0.25500000920E-02 0.  1.
       -2    1    3    3    0  502 -0.11415725839E+04  0.52256181597E+03 -0.77125981576E+03  0.14734654795E+04  0.25500000920E-02 0. -1.
</event>
<event>
 5   0  0.5233813E-07  0.3201240E+04  0.7818609E-02  0.8188490E-01
        1   -1    0    0  501    0  0.00000000000E+00  0.00000000000E+00  0.21725282998E+04  0.21725282999E+04  0.50400001928E-02 0.  1.
       -1   -1    0    0    0  501  0.00000000000E+00  0.00000000000E+00 -0.11792639571E+04  0.11792639571E+04  0.50400001928E-02 0. -1.
    10030    2    1    2    0    0  0.00000000000E+00  0.00000000000E+00  0.99326434272E+03  0.33517922570E+04  0.32012399597E+04 0.  0.
        4    1    3    3  502    0  0.14862602278E+04 -0.58734538830E+03  0.59050719779E+03  0.17037148921E+04  0.12699999809E+01 0.  1.
       -4    1    3    3    0  502 -0.14862602278E+04  0.58734538830E+03  0.40275714493E+03  0.16480773649E+04  0.12699999809E+01 0. -1.
</event>
<event>
 5   0  0.5233813E-07  0.3198456E+04  0.7818609E-02  0.8189225E-01
        1   -1    0    0  501    0  0.00000000000E+00  0.00000000000E+00  0.20779749199E+04  0.20779749199E+04  0.50400001928E-02 0.  1.
       -1   -1    0    0    0  501  0.00000000000E+00  0.00000000000E+00 -0.12307800390E+04  0.12307800390E+04  0.50400001928E-02 0. -1.
    10030    2    1    2    0    0  0.00000000000E+00  0.00000000000E+00  0.84719488089E+03  0.33087549589E+04  0.31984559105E+04 0.  0.
        4    1    3    3  502    0  0.80051977187E+03  0.25862067466E+03 -0.98338286713E+03  0.12941252006E+04  0.12699999809E+01 0. -1.
       -4    1    3    3    0  502 -0.80051977187E+03 -0.25862067466E+03  0.18305777480E+04  0.20146297583E+04  0.12699999809E+01 0.  1.
</event>
<event>
 5   0  0.5370912E-07  0.3193178E+04  0.7818609E-02  0.8190621E-01
        1   -1    0    0  501    0  0.00000000000E+00  0.00000000000E+00  0.25717834093E+04  0.25717834093E+04  0.50400001928E-02 0.  1.
       -1   -1    0    0    0  501  0.00000000000E+00  0.00000000000E+00 -0.99117877786E+03  0.99117877787E+03  0.50400001928E-02 0. -1.
    10030    2    1    2    0    0  0.00000000000E+00  0.00000000000E+00  0.15806046315E+04  0.35629621872E+04  0.31931784395E+04 0.  0.
        1    1    3    3  502    0 -0.39193105063E+03 -0.11344471585E+04  0.19650894216E+04  0.23026412528E+04  0.50400001928E-02 0.  1.
       -1    1    3    3    0  502  0.39193105063E+03  0.11344471585E+04 -0.38448479016E+03  0.12603209344E+04  0.50400001928E-02 0. -1.
</event>
<event>
 5   0  0.5317728E-07  0.3189658E+04  0.7818609E-02  0.8191554E-01
        1   -1    0    0  501    0  0.00000000000E+00  0.00000000000E+00  0.12807142510E+04  0.12807142510E+04  0.50400001928E-02 0. -1.
       -1   -1    0    0    0  501  0.00000000000E+00  0.00000000000E+00 -0.19859848699E+04  0.19859848699E+04  0.50400001928E-02 0.  1.
    10030    2    1    2    0    0  0.00000000000E+00  0.00000000000E+00 -0.70527061891E+03  0.32666991210E+04  0.31896577404E+04 0.  0.
        2    1    3    3  502    0  0.13652852166E+03  0.76985804958E+03 -0.17762299128E+04  0.19406993989E+04  0.25500000920E-02 0. -1.
       -2    1    3    3    0  502 -0.13652852166E+03 -0.76985804958E+03  0.10709592939E+04  0.13259997221E+04  0.25500000920E-02 0.  1.
</event>
<event>
 5   0  0.5317728E-07  0.3182187E+04  0.7818609E-02  0.8193537E-01
       -1   -1    0    0    0  501  0.00000000000E+00  0.00000000000E+00  0.16188613877E+04  0.16188613877E+04  0.50400001928E-02 0. -1.
        1   -1    0    0  501    0  0.00000000000E+00  0.00000000000E+00 -0.15638020826E+04  0.15638020826E+04  0.50400001928E-02 0.  1.
    10030    2    1    2    0    0  0.00000000000E+00  0.00000000000E+00  0.55059305107E+02  0.31826634704E+04  0.31821871784E+04 0.  0.
        2    1    3    3  502    0 -0.62841648748E+03 -0.12661768510E+04  0.75802771186E+03  0.16039691742E+04  0.25500000920E-02 0.  1.
       -2    1    3    3    0  502  0.62841648748E+03  0.12661768510E+04 -0.70296840675E+03  0.15786942962E+04  0.25500000920E-02 0. -1.
</event>
<event>
 5   0  0.1556396E-06  0.3086864E+04  0.7818609E-02  0.8219352E-01
       -2   -1    0    0    0  501  0.00000000000E+00  0.00000000000E+00  0.14534705259E+04  0.14534705259E+04  0.25500000920E-02 0. -1.
        2   -1    0    0  501    0  0.00000000000E+00  0.00000000000E+00 -0.16389618593E+04  0.16389618593E+04  0.25500000920E-02 0.  1.
    10030    2    1    2    0    0  0.00000000000E+00  0.00000000000E+00 -0.18549133341E+03  0.30924323852E+04  0.30868642702E+04 0.  0.
        3    1    3    3  502    0  0.51106429489E+02 -0.53427197517E+03 -0.15424649330E+04  0.16331737478E+04  0.10100000352E+00 0.  1.
       -3    1    3    3    0  502 -0.51106429489E+02  0.53427197517E+03  0.13569735996E+04  0.14592586374E+04  0.10100000352E+00 0. -1.
</event>
<event>
 5   0  0.1538349E-06  0.3204406E+04  0.7818609E-02  0.8187654E-01
       -2   -1    0    0    0  501  0.00000000000E+00  0.00000000000E+00  0.10450651462E+04  0.10450651462E+04  0.25500000920E-02 0. -1.
        2   -1    0    0  501    0  0.00000000000E+00  0.00000000000E+00 -0.24563586191E+04  0.24563586191E+04  0.25500000920E-02 0.  1.
    10030    2    1    2    0    0  0.00000000000E+00  0.00000000000E+00 -0.14112934730E+04  0.35014237653E+04  0.32044062035E+04 0.  0.
        1    1    3    3  502    0 -0.16636976484E+03  0.98551648876E+03  0.66267610448E+03  0.11991919228E+04  0.50400001928E-02 0. -1.
       -1    1    3    3    0  502  0.16636976484E+03 -0.98551648876E+03 -0.20739695774E+04  0.23022318425E+04  0.50400001928E-02 0.  1.
</event>
<event>
 5   0  0.1556396E-06  0.3252458E+04  0.7818609E-02  0.8175099E-01
       -2   -1    0    0    0  501  0.00000000000E+00  0.00000000000E+00  0.22189176771E+04  0.22189176771E+04  0.25500000920E-02 0. -1.
        2   -1    0    0  501    0  0.00000000000E+00  0.00000000000E+00 -0.11918519560E+04  0.11918519560E+04  0.25500000920E-02 0.  1.
    10030    2    1    2    0    0  0.00000000000E+00  0.00000000000E+00  0.10270657211E+04  0.34107696331E+04  0.32524583771E+04 0.  0.
        3    1    3    3  502    0 -0.14390806957E+01  0.43455371392E+03 -0.11298379856E+04  0.12105258713E+04  0.10100000352E+00 0.  1.
       -3    1    3    3    0  502  0.14390806957E+01 -0.43455371392E+03  0.21569037067E+04  0.22002437618E+04  0.10100000352E+00 0. -1.
</event>
<event>
 5   0  0.5370912E-07  0.3216892E+04  0.7818609E-02  0.8184370E-01
        1   -1    0    0  501    0  0.00000000000E+00  0.00000000000E+00  0.13374711417E+04  0.13374711418E+04  0.50400001928E-02 0. -1.
       -1   -1    0    0    0  501  0.00000000000E+00  0.00000000000E+00 -0.19343211358E+04  0.19343211358E+04  0.50400001928E-02 0.  1.
    10030    2    1    2    0    0  0.00000000000E+00  0.00000000000E+00 -0.59684999405E+03  0.32717922776E+04  0.32168921014E+04 0.  0.
        1    1    3    3  502    0  0.91909204812E+03 -0.50570867270E+02 -0.16399546489E+04  0.18806219333E+04  0.50400001928E-02 0.  1.
       -1    1    3    3    0  502 -0.91909204812E+03  0.50570867270E+02  0.10431046549E+04  0.13911703442E+04  0.50400001928E-02 0. -1.
</event>
<event>
 5   0  0.1493485E-06  0.3224762E+04  0.7818609E-02  0.8182308E-01
        2   -1    0    0  501    0  0.00000000000E+00  0.00000000000E+00  0.13478429893E+04  0.13478429893E+04  0.25500000920E-02 0. -1.
       -2   -1    0    0    0  501  0.00000000000E+00  0.00000000000E+00 -0.19288388838E+04  0.19288388838E+04  0.25500000920E-02 0.  1.
    10030    2    1    2    0    0  0.00000000000E+00  0.00000000000E+00 -0.58099589445E+03  0.32766818731E+04  0.32247616761E+04 0.  0.
        2    1    3    3  502    0 -0.83828365759E+03  0.12801325384E+04 -0.80692611389E+03  0.17299099860E+04  0.25500000920E-02 0.  1.
       -2    1    3    3    0  502  0.83828365759E+03 -0.12801325384E+04  0.22593021944E+03  0.15467718870E+04  0.25500000920E-02 0. -1.
</event>
<event>
 5   0  0.1493485E-06  0.3178737E+04  0.7818609E-02  0.8194455E-01
        2   -1    0    0  501    0  0.00000000000E+00  0.00000000000E+00  0.14879751157E+04  0.14879751157E+04  0.25500000920E-02 0.  1.
       -2   -1    0    0    0  501  0.00000000000E+00  0.00000000000E+00 -0.16976705522E+04  0.16976705522E+04  0.25500000920E-02 0. -1.
    10030    2    1    2    0    0  0.00000000000E+00  0.00000000000E+00 -0.20969543649E+03  0.31856456679E+04  0.31787365643E+04 0.  0.
        2    1    3    3  502    0  0.11612567214E+04  0.73280865698E+03  0.69724544944E+03  0.15400249730E+04  0.25500000920E-02 0. -1.
       -2    1    3    3    0  502 -0.11612567214E+04 -0.73280865698E+03 -0.90694088593E+03  0.16456206948E+04  0.25500000920E-02 0.  1.
</event>
<event>
 5   0  0.5370912E-07  0.3195722E+04  0.7818609E-02  0.8189948E-01
        1   -1    0    0  501    0  0.00000000000E+00  0.00000000000E+00  0.14246754890E+04  0.14246754890E+04  0.50400001928E-02 0.  1.
       -1   -1    0    0    0  501  0.00000000000E+00  0.00000000000E+00 -0.17920994594E+04  0.17920994594E+04  0.50400001928E-02 0. -1.
    10030    2    1    2    0    0  0.00000000000E+00  0.00000000000E+00 -0.36742397038E+03  0.32167749483E+04  0.31957222492E+04 0.  0.
        1    1    3    3  502    0  0.74221656837E+03 -0.19506323317E+03  0.12270289779E+04  0.14472509153E+04  0.50400001928E-02 0.  1.
       -1    1    3    3    0  502 -0.74221656837E+03  0.19506323317E+03 -0.15944529482E+04  0.17695240330E+04  0.50400001928E-02 0. -1.
</event>
<event>
 5   0  0.5233813E-07  0.3162332E+04  0.7818609E-02  0.8198837E-01
       -1   -1    0    0    0  501  0.00000000000E+00  0.00000000000E+00  0.13517556325E+04  0.13517556325E+04  0.50400001928E-02 0. -1.
        1   -1    0    0  501    0  0.00000000000E+00  0.00000000000E+00 -0.18495098044E+04  0.18495098044E+04  0.50400001928E-02 0.  1.
    10030    2    1    2    0    0  0.00000000000E+00  0.00000000000E+00 -0.49775417194E+03  0.32012654369E+04  0.31623316053E+04 0.  0.
        4    1    3    3  502    0 -0.36716065518E+03  0.11192546332E+04  0.81888187984E+03  0.14346104094E+04  0.12699999809E+01 0. -1.
       -4    1    3    3    0  502  0.36716065518E+03 -0.11192546332E+04 -0.13166360518E+04  0.17666550276E+04  0.12699999809E+01 0.  1.
</event>
<event>
 5   0  0.5281187E-07  0.3205085E+04  0.7818609E-02  0.8187475E-01
       -1   -1    0    0    0  501  0.00000000000E+00  0.00000000000E+00  0.18196055933E+04  0.18196055933E+04  0.50400001928E-02 0.  1.
        1   -1    0    0  501    0  0.00000000000E+00  0.00000000000E+00 -0.14113733972E+04  0.14113733972E+04  0.50400001928E-02 0. -1.
    10030    2    1    2    0    0  0.00000000000E+00  0.00000000000E+00  0.40823219606E+03  0.32309789905E+04  0.32050852892E+04 0.  0.
        5    1    3    3  502    0  0.75944629726E+03  0.13608299239E+04  0.58063604946E+03  0.16630625581E+04  0.46999998093E+01 0.  1.
       -5    1    3    3    0  502 -0.75944629726E+03 -0.13608299239E+04 -0.17240385339E+03  0.15679164324E+04  0.46999998093E+01 0. -1.
</event>
<event>
 5   0  0.1508771E-06  0.3160858E+04  0.7818609E-02  0.8199232E-01
        2   -1    0    0  501    0  0.00000000000E+00  0.00000000000E+00  0.18280319576E+04  0.18280319576E+04  0.25500000920E-02 0.  1.
       -2   -1    0    0    0  501  0.00000000000E+00  0.00000000000E+00 -0.13663636430E+04  0.13663636430E+04  0.25500000920E-02 0. -1.
    10030    2    1    2    0    0  0.00000000000E+00  0.00000000000E+00  0.46166831459E+03  0.31943956007E+04  0.31608583677E+04 0.  0.
        4    1    3    3  502    0  0.17578772014E+03  0.10189515594E+04  0.14387526951E+04  0.17717715805E+04  0.12699999809E+01 0.  1.
       -4    1    3    3    0  502 -0.17578772014E+03 -0.10189515594E+04 -0.97708438053E+03  0.14226240201E+04  0.12699999809E+01 0. -1.
</event>
<event>
 5   0  0.5281187E-07  0.3189728E+04  0.7818609E-02  0.8191535E-01
       -1   -1    0    0    0  501  0.00000000000E+00  0.00000000000E+00  0.16508644764E+04  0.16508644765E+04  0.50400001928E-02 0. -1.
        1   -1    0    0  501    0  0.00000000000E+00  0.00000000000E+00 -0.15407628094E+04  0.15407628094E+04  0.50400001928E-02 0.  1.
    10030    2    1    2    0    0  0.00000000000E+00  0.00000000000E+00  0.11010166708E+03  0.31916272858E+04  0.31897276302E+04 0.  0.
        5    1    3    3  502    0  0.11107341573E+04  0.68714824978E+03 -0.86073487316E+03  0.15642217545E+04  0.46999998093E+01 0.  1.
       -5    1    3    3    0  502 -0.11107341573E+04 -0.68714824978E+03  0.97083654025E+03  0.16274055313E+04  0.46999998093E+01 0. -1.
</event>
<event>
 5   0  0.1538349E-06  0.3210624E+04  0.7818609E-02  0.8186017E-01
        2   -1    0    0  501    0  0.00000000000E+00  0.00000000000E+00  0.25183360938E+04  0.25183360938E+04  0.25500000920E-02 0.  1.
       -2   -1    0    0    0  501  0.00000000000E+00  0.00000000000E+00 -0.10233051223E+04  0.10233051223E+04  0.25500000920E-02 0. -1.
    10030    2    1    2    0    0  0.00000000000E+00  0.00000000000E+00  0.14950309715E+04  0.35416412161E+04  0.32106237553E+04 0.  0.
        1    1    3    3  502    0 -0.10762671675E+04  0.60806816948E+03  0.18772803185E+04  0.22477275877E+04  0.50400001928E-02 0.  1.
       -1    1    3    3    0  502  0.10762671675E+04 -0.60806816948E+03 -0.38224934694E+03  0.12939136284E+04  0.50400001928E-02 0. -1.
</event>
<event>
 5   0  0.5281187E-07  0.3197748E+04  0.7818609E-02  0.8189412E-01
       -1   -1    0    0    0  501  0.00000000000E+00  0.00000000000E+00  0.11981511433E+04  0.11981511433E+04  0.50400001928E-02 0. -1.
        1   -1    0    0  501    0  0.00000000000E+00  0.00000000000E+00 -0.21336191602E+04  0.21336191602E+04  0.50400001928E-02 0.  1.
    10030    2    1    2    0    0  0.00000000000E+00  0.00000000000E+00 -0.93546801689E+03  0.33317703036E+04  0.31977481053E+04 0.  0.
        5    1    3    3  502    0  0.86992141046E+03  0.12928230781E+04 -0.84082178187E+03  0.17706377751E+04  0.46999998093E+01 0.  1.
       -5    1    3    3    0  502 -0.86992141046E+03 -0.12928230781E+04 -0.94646235022E+02  0.15611325285E+04  0.46999998093E+01 0. -1.
</event>
<event>
 5   0  0.5177039E-07  0.3169762E+04  0.7818609E-02  0.8196849E-01
       -1   -1    0    0    0  501  0.00000000000E+00  0.00000000000E+00  0.92720567794E+03  0.92720567796E+03  0.50400001928E-02 0.  1.
        1   -1    0    0  501    0  0.00000000000E+00  0.00000000000E+00 -0.27090515699E+04  0.27090515699E+04  0.50400001928E-02 0. -1.
    10030    2    1    2    0    0  0.00000000000E+00  0.00000000000E+00 -0.17818458919E+04  0.36362572478E+04  0.31697621346E+04 0.  0.
        3    1    3    3  502    0 -0.14902377242E+04  0.38790712815E+03 -0.13210239926E+04  0.20288875804E+04  0.10100000352E+00 0. -1.
       -3    1    3    3    0  502  0.14902377242E+04 -0.38790712815E+03 -0.46082189934E+03  0.16073696674E+04  0.10100000352E+00 0.  1.
</event>
<event>
 5   0  0.5177039E-07  0.3173620E+04  0.7818609E-02  0.8195819E-01
       -1   -1    0    0    0  501  0.00000000000E+00  0.00000000000E+00  0.24541763187E+04  0.24541763187E+04  0.50400001928E-02 0. -1.
        1   -1    0    0  501    0  0.00000000000E+00  0.00000000000E+00 -0.10259922617E+04  0.10259922617E+04  0.50400001928E-02 0.  1.
    10030    2    1    2    0    0  0.00000000000E+00  0.00000000000E+00  0.14281840570E+04  0.34801685805E+04  0.31736199596E+04 0.  0.
        3    1    3    3  502    0  0.13098798997E+03 -0.41644870726E+03  0.23870262844E+04  0.24266194328E+04  0.10100000352E+00 0. -1.
       -3    1    3    3    0  502 -0.13098798997E+03  0.41644870726E+03 -0.95884222737E+03  0.10535491476E+04  0.10100000352E+00 0.  1.
</event>
<event>
 5   0  0.5281187E-07  0.3208830E+04  0.7818609E-02  0.8186489E-01
       -1   -1    0    0    0  501  0.00000000000E+00  0.00000000000E+00  0.14522012981E+04  0.14522012981E+04  0.50400001928E-02 0. -1.
        1   -1    0    0  501    0  0.00000000000E+00  0.00000000000E+00 -0.17725836570E+04  0.17725836570E+04  0.50400001928E-02 0.  1.
    10030    2    1    2    0    0  0.00000000000E+00  0.00000000000E+00 -0.32038235885E+03  0.32247849551E+04  0.32088304958E+04 0.  0.
        5    1    3    3  502    0 -0.12072573017E+04  0.52446562977E+03  0.76175322419E+03  0.15207973086E+04  0.46999998093E+01 0. -1.
       -5    1    3    3    0  502  0.12072573017E+04 -0.52446562977E+03 -0.10821355830E+04  0.17039876465E+04  0.46999998093E+01 0.  1.
</event>
<event>
 5   0  0.1508771E-06  0.3253914E+04  0.7818609E-02  0.8174722E-01
       -2   -1    0    0    0  501  0.00000000000E+00  0.00000000000E+00  0.19230402341E+04  0.19230402341E+04  0.25500000920E-02 0. -1.
        2   -1    0    0  501    0  0.00000000000E+00  0.00000000000E+00 -0.13764606783E+04  0.13764606783E+04  0.25500000920E-02 0.  1.
    10030    2    1    2    0    0  0.00000000000E+00  0.00000000000E+00  0.54657955584E+03  0.32995009124E+04  0.32539141138E+04 0.  0.
        4    1    3    3  502    0 -0.24334202069E+03 -0.16059635058E+04  0.17896216461E+03  0.16341245945E+04  0.12699999809E+01 0.  1.
       -4    1    3    3    0  502  0.24334202069E+03  0.16059635058E+04  0.36761739123E+03  0.16653763179E+04  0.12699999809E+01 0. -1.
</event>
<event>
 5   0  0.1556396E-06  0.3193553E+04  0.7818609E-02  0.8190522E-01
        2   -1    0    0  501    0  0.00000000000E+00  0.00000000000E+00  0.17044968951E+04  0.17044968951E+04  0.25500000920E-02 0. -1.
       -2   -1    0    0    0  501  0.00000000000E+00  0.00000000000E+00 -0.14958638823E+04  0.14958638823E+04  0.25500000920E-02 0.  1.
    10030    2    1    2    0    0  0.00000000000E+00  0.00000000000E+00  0.20863301282E+03  0.32003607774E+04  0.31935530952E+04 0.  0.
        3    1    3    3  502    0 -0.41591082557E+03 -0.10629562899E+04 -0.10146825394E+04  0.15272323186E+04  0.10100000352E+00 0.  1.
       -3    1    3    3    0  502  0.41591082557E+03  0.10629562899E+04  0.12233155522E+04  0.16731284588E+04  0.10100000352E+00 0. -1.
</event>
<event>
 5   0  0.1493485E-06  0.3194234E+04  0.7818609E-02  0.8190342E-01
        2   -1    0    0  501    0  0.00000000000E+00  0.00000000000E+00  0.20337135846E+04  0.20337135846E+04  0.25500000920E-02 0.  1.
       -2   -1    0    0    0  501  0.00000000000E+00  0.00000000000E+00 -0.12542490734E+04  0.12542490734E+04  0.25500000920E-02 0. -1.
    10030    2    1    2    0    0  0.00000000000E+00  0.00000000000E+00  0.77946451120E+03  0.32879626580E+04  0.31942344178E+04 0.  0.
        2    1    3    3  502    0  0.14882547702E+04 -0.20060259340E+03  0.94941443750E+03  0.17766630057E+04  0.25500000920E-02 0.  1.
       -2    1    3    3    0  502 -0.14882547702E+04  0.20060259340E+03 -0.16994992630E+03  0.15112996523E+04  0.25500000920E-02 0. -1.
</event>
<event>
 5   0  0.1538349E-06  0.3074738E+04  0.7818609E-02  0.8222705E-01
       -2   -1    0    0    0  501  0.00000000000E+00  0.00000000000E+00  0.29956943150E+04  0.29956943150E+04  0.25500000920E-02 0. -1.
        2   -1    0    0  501    0  0.00000000000E+00  0.00000000000E+00 -0.78896689854E+03  0.78896689854E+03  0.25500000920E-02 0.  1.
    10030    2    1    2    0    0  0.00000000000E+00  0.00000000000E+00  0.22067274164E+04  0.37846612135E+04  0.30747381369E+04 0.  0.
        1    1    3    3  502    0 -0.12212338544E+04  0.75503760583E+02  0.22490765151E+04  0.25603628875E+04  0.50400001928E-02 0.  1.
       -1    1    3    3    0  502  0.12212338544E+04 -0.75503760583E+02 -0.42349098647E+02  0.12242983260E+04  0.50400001928E-02 0. -1.
</event>
<event>
 5   0  0.1572769E-06  0.3199087E+04  0.7818609E-02  0.8189058E-01
       -2   -1    0    0    0  501  0.00000000000E+00  0.00000000000E+00  0.12772922851E+04  0.12772922851E+04  0.25500000920E-02 0.  1.
        2   -1    0    0  501    0  0.00000000000E+00  0.00000000000E+00 -0.20030964143E+04  0.20030964143E+04  0.25500000920E-02 0. -1.
    10030    2    1    2    0    0  0.00000000000E+00  0.00000000000E+00 -0.72580412921E+03  0.32803886993E+04  0.31990871174E+04 0.  0.
        5    1    3    3  502    0  0.10165917986E+04 -0.24832861127E+03 -0.16033527618E+04  0.19146509219E+04  0.46999998093E+01 0. -1.
       -5    1    3    3    0  502 -0.10165917986E+04  0.24832861127E+03  0.87754863257E+03  0.13657377774E+04  0.46999998093E+01 0.  1.
</event>
<event>
 5   0  0.1556396E-06  0.3188937E+04  0.7818609E-02  0.8191745E-01
       -2   -1    0    0    0  501  0.00000000000E+00  0.00000000000E+00  0.14772551665E+04  0.14772551665E+04  0.25500000920E-02 0. -1.
        2   -1    0    0  501    0  0.00000000000E+00  0.00000000000E+00 -0.17209818888E+04  0.17209818888E+04  0.25500000920E-02 0.  1.
    10030    2    1    2    0    0  0.00000000000E+00  0.00000000000E+00 -0.24372672224E+03  0.31982370553E+04  0.31889367423E+04 0.  0.
        3    1    3    3  502    0 -0.46394495492E+03  0.81777371654E+03  0.11696541654E+04  0.15006963882E+04  0.10100000352E+00 0. -1.
       -3    1    3    3    0  502  0.46394495492E+03 -0.81777371654E+03 -0.14133808877E+04  0.16975406671E+04  0.10100000352E+00 0.  1.
</event>
<event>
 5   0  0.5370912E-07  0.3208646E+04  0.7818609E-02  0.8186538E-01
        1   -1    0    0  501    0  0.00000000000E+00  0.00000000000E+00  0.13555018721E+04  0.13555018721E+04  0.50400001928E-02 0. -1.
       -1   -1    0    0    0  501  0.00000000000E+00  0.00000000000E+00 -0.18988185247E+04  0.18988185247E+04  0.50400001928E-02 0.  1.
    10030    2    1    2    0    0  0.00000000000E+00  0.00000000000E+00 -0.54331665263E+03  0.32543203968E+04  0.32086458608E+04 0.  0.
        1    1    3    3  502    0 -0.84147024792E+03 -0.70799462410E+03 -0.14564146387E+04  0.18249581271E+04  0.50400001928E-02 0.  1.
       -1    1    3    3    0  502  0.84147024792E+03  0.70799462410E+03  0.91309798607E+03  0.14293622697E+04  0.50400001928E-02 0. -1.
</event>
<event>
 5   0  0.5177039E-07  0.3110657E+04  0.7818609E-02  0.8212819E-01
       -1   -1    0    0    0  501  0.00000000000E+00  0.00000000000E+00  0.10222680980E+04  0.10222680980E+04  0.50400001928E-02 0. -1.
        1   -1    0    0  501    0  0.00000000000E+00  0.00000000000E+00 -0.23663523641E+04  0.23663523641E+04  0.50400001928E-02 0.  1.
    10030    2    1    2    0    0  0.00000000000E+00  0.00000000000E+00 -0.13440842661E+04  0.33886204621E+04  0.31106568634E+04 0.  0.
        3    1    3    3  502    0  0.90580015118E+03  0.11262680424E+04 -0.46165243154E+02  0.14460583865E+04  0.10100000352E+00 0. -1.
       -3    1    3    3    0  502 -0.90580015118E+03 -0.11262680424E+04 -0.12979190229E+04  0.19425620756E+04  0.10100000352E+00 0.  1.
</event>
<event>
 5   0  0.5281187E-07  0.3166272E+04  0.7818609E-02  0.8197782E-01
       -1   -1    0    0    0  501  0.00000000000E+00  0.00000000000E+00  0.12659849188E+04  0.12659849188E+04  0.50400001928E-02 0. -1.
        1   -1    0    0  501    0  0.00000000000E+00  0.00000000000E+00 -0.19797394836E+04  0.19797394836E+04  0.50400001928E-02 0.  1.
    10030    2    1    2    0    0  0.00000000000E+00  0.00000000000E+00 -0.71375456477E+03  0.32457244025E+04  0.31662724643E+04 0.  0.
        5    1    3    3  502    0 -0.63150428187E+03 -0.72326797817E+03  0.93343128957E+03  0.13391154874E+04  0.46999998093E+01 0. -1.
       -5    1    3    3    0  502  0.63150428187E+03  0.72326797817E+03 -0.16471858543E+04  0.19066089151E+04  0.46999998093E+01 0.  1.
</event>
<event>
 5   0  0.5177039E-07  0.3236552E+04  0.7818609E-02  0.8179230E-01
       -1   -1    0    0    0  501  0.00000000000E+00  0.00000000000E+00  0.15227728225E+04  0.15227728225E+04  0.50400001928E-02 0.  1.
        1   -1    0    0  501    0  0.00000000000E+00  0.00000000000E+00 -0.17197686040E+04  0.17197686040E+04  0.50400001928E-02 0. -1.
    10030    2    1    2    0    0  0.00000000000E+00  0.00000000000E+00 -0.19699578153E+03  0.32425414265E+04  0.32365518016E+04 0.  0.
        3    1    3    3  502    0  0.51917808206E+03  0.83989307110E+03  0.11860022229E+04  0.15432328194E+04  0.10100000352E+00 0.  1.
       -3    1    3    3    0  502 -0.51917808206E+03 -0.83989307110E+03 -0.13829980045E+04  0.16993086071E+04  0.10100000352E+00 0. -1.
</event>
<event>
 5   0  0.1493485E-06  0.3239239E+04  0.7818609E-02  0.8178530E-01
       -2   -1    0    0    0  501  0.00000000000E+00  0.00000000000E+00  0.93913782033E+03  0.93913782033E+03  0.25500000920E-02 0.  1.
        2   -1    0    0  501    0  0.00000000000E+00  0.00000000000E+00 -0.27931659656E+04  0.27931659656E+04  0.25500000920E-02 0. -1.
    10030    2    1    2    0    0  0.00000000000E+00  0.00000000000E+00 -0.18540281453E+04  0.37323037860E+04  0.32392392914E+04 0.  0.
        2    1    3    3  502    0  0.50698961366E+03  0.14719463436E+04 -0.14416605267E+04  0.21218033794E+04  0.25500000920E-02 0. -1.
       -2    1    3    3    0  502 -0.50698961366E+03 -0.14719463436E+04 -0.41236761863E+03  0.16105004066E+04  0.25500000920E-02 0.  1.
</event>
<event>
 5   0  0.1556396E-06  0.3186850E+04  0.7818609E-02  0.8192299E-01
        2   -1    0    0  501    0  0.00000000000E+00  0.00000000000E+00  0.16223058701E+04  0.16223058701E+04  0.25500000920E-02 0. -1.
       -2   -1    0    0    0  501  0.00000000000E+00  0.00000000000E+00 -0.15650582540E+04  0.15650582540E+04  0.25500000920E-02 0.  1.
    10030    2    1    2    0    0  0.00000000000E+00  0.00000000000E+00  0.57247616058E+02  0.31873641241E+04  0.31868499760E+04 0.  0.
        3    1    3    3  502    0 -0.27475910205E+03 -0.98462876811E+03 -0.11938731932E+04  0.15717250354E+04  0.10100000352E+00 0.  1.
       -3    1    3    3    0  502  0.27475910205E+03  0.98462876811E+03  0.12511208093E+04  0.16156390887E+04  0.10100000352E+00 0. -1.
</event>
<event>
 5   0  0.5177039E-07  0.3096510E+04  0.7818609E-02  0.8216696E-01
       -1   -1    0    0    0  501  0.00000000000E+00  0.00000000000E+00  0.77520354840E+03  0.77520354842E+03  0.50400001928E-02 0. -1.
        1   -1    0    0  501    0  0.00000000000E+00  0.00000000000E+00 -0.30922109167E+04  0.30922109167E+04  0.50400001928E-02 0.  1.
    10030    2    1    2    0    0  0.00000000000E+00  0.00000000000E+00 -0.23170073683E+04  0.38674144652E+04  0.30965095673E+04 0.  0.
        3    1    3    3  502    0 -0.92197946532E+03 -0.12312638766E+04 -0.93847406868E+03  0.18018852505E+04  0.10100000352E+00 0. -1.
       -3    1    3    3    0  502  0.92197946532E+03  0.12312638766E+04 -0.13785332997E+04  0.20655292147E+04  0.10100000352E+00 0.  1.
</event>
<event>
 5   0  0.5317728E-07  0.3163770E+04  0.7818609E-02  0.8198452E-01
       -1   -1    0    0    0  501  0.00000000000E+00  0.00000000000E+00  0.16105080834E+04  0.16105080834E+04  0.50400001928E-02 0.  1.
        1   -1    0    0  501    0  0.00000000000E+00  0.00000000000E+00 -0.15537705030E+04  0.15537705030E+04  0.50400001928E-02 0. -1.
    10030    2    1    2    0    0  0.00000000000E+00  0.00000000000E+00  0.56737580356E+02  0.31642785865E+04  0.31637698746E+04 0.  0.
        2    1    3    3  502    0 -0.22446123743E+03 -0.17866624588E+03  0.15842716787E+04  0.16100376475E+04  0.25500000920E-02 0.  1.
       -2    1    3    3    0  502  0.22446123743E+03  0.17866624588E+03 -0.15275340984E+04  0.15542409389E+04  0.25500000920E-02 0. -1.
</event>
<event>
 5   0  0.1493485E-06  0.3198475E+04  0.7818609E-02  0.8189220E-01
        2   -1    0    0  501    0  0.00000000000E+00  0.00000000000E+00  0.16120767051E+04  0.16120767051E+04  0.25500000920E-02 0.  1.
       -2   -1    0    0    0  501  0.00000000000E+00  0.00000000000E+00 -0.15865003645E+04  0.15865003645E+04  0.25500000920E-02 0. -1.
    10030    2    1    2    0    0  0.00000000000E+00  0.00000000000E+00  0.25576340579E+02  0.31985770696E+04  0.31984748117E+04 0.  0.
        2    1    3    3  502    0  0.29340234834E+03  0.46595002877E+03  0.15142907721E+04  0.16112947929E+04  0.25500000920E-02 0.  1.
       -2    1    3    3    0  502 -0.29340234834E+03 -0.46595002877E+03 -0.14887144315E+04  0.15872822767E+04  0.25500000920E-02 0. -1.
</event>
<event>
 5   0  0.5233813E-07  0.3208151E+04  0.7818609E-02  0.8186668E-01
       -1   -1    0    0    0  501  0.00000000000E+00  0.00000000000E+00  0.14881907164E+04  0.14881907164E+04  0.50400001928E-02 0.  1.
        1   -1    0    0  501    0  0.00000000000E+00  0.00000000000E+00 -0.17289837221E+04  0.17289837222E+04  0.50400001928E-02 0. -1.
    10030    2    1    2    0    0  0.00000000000E+00  0.00000000000E+00 -0.24079300575E+03  0.32171744386E+04  0.32081505726E+04 0.  0.
        4    1    3    3  502    0  0.93512519278E+03  0.12665518937E+04 -0.42857685695E+03  0.16316533213E+04  0.12699999809E+01 0. -1.
       -4    1    3    3    0  502 -0.93512519278E+03 -0.12665518937E+04  0.18778385121E+03  0.15855211173E+04  0.12699999809E+01 0.  1.
</event>
<event>
 5   0  0.1538349E-06  0.3214485E+04  0.7818609E-02  0.8185002E-01
        2   -1    0    0  501    0  0.00000000000E+00  0.00000000000E+00  0.14682876271E+04  0.14682876271E+04  0.25500000920E-02 0. -1.
       -2   -1    0    0    0  501  0.00000000000E+00  0.00000000000E+00 -0.17593472903E+04  0.17593472903E+04  0.25500000920E-02 0.  1.
    10030    2    1    2    0    0  0.00000000000E+00  0.00000000000E+00 -0.29105966318E+03  0.32276349174E+04  0.32144846294E+04 0.  0.
        1    1    3    3  502    0 -0.14244193067E+04  0.38751730526E+03 -0.78380939581E+03  0.16713758381E+04  0.50400001928E-02 0. -1.
       -1    1    3    3    0  502  0.14244193067E+04 -0.38751730526E+03  0.49274973263E+03  0.15562590794E+04  0.50400001928E-02 0.  1.
</event>
<event>
 5   0  0.5233813E-07  0.3200188E+04  0.7818609E-02  0.8188767E-01
        1   -1    0    0  501    0  0.00000000000E+00  0.00000000000E+00  0.17998882868E+04  0.17998882868E+04  0.50400001928E-02 0.  1.
       -1   -1    0    0    0  501  0.00000000000E+00  0.00000000000E+00 -0.14224780492E+04  0.14224780492E+04  0.50400001928E-02 0. -1.
    10030    2    1    2    0    0  0.00000000000E+00  0.00000000000E+00  0.37741023760E+03  0.32223663360E+04  0.32001884814E+04 0.  0.
        4    1    3    3  502    0 -0.60450621113E+03 -0.11169337439E+04 -0.79134949788E+03  0.14963971359E+04  0.12699999809E+01 0. -1.
       -4    1    3    3    0  502  0.60450621113E+03  0.11169337439E+04  0.11687597355E+04  0.17259692001E+04  0.12699999809E+01 0.  1.
</event>
<event>
 5   0  0.5177039E-07  0.3189281E+04  0.7818609E-02  0.8191654E-01
        1   -1    0    0  501    0  0.00000000000E+00  0.00000000000E+00  0.22757633155E+04  0.22757633155E+04  0.50400001928E-02 0. -1.
       -1   -1    0    0    0  501  0.00000000000E+00  0.00000000000E+00 -0.11173737538E+04  0.11173737538E+04  0.50400001928E-02 0.  1.
    10030    2    1    2    0    0  0.00000000000E+00  0.00000000000E+00  0.11583895617E+04  0.33931370692E+04  0.31892809212E+04 0.  0.
        3    1    3    3  502    0  0.13774742295E+04 -0.80019061556E+03  0.50293385988E+03  0.16705336728E+04  0.10100000352E+00 0.  1.
       -3    1    3    3    0  502 -0.13774742295E+04  0.80019061556E+03  0.65545570182E+03  0.17226033965E+04  0.10100000352E+00 0. -1.
</event>
<event>
 5   0  0.5317728E-07  0.3196035E+04  0.7818609E-02  0.8189865E-01
       -1   -1    0    0    0  501  0.00000000000E+00  0.00000000000E+00  0.11192487213E+04  0.11192487213E+04  0.50400001928E-02 0.  1.
        1   -1    0    0  501    0  0.00000000000E+00  0.00000000000E+00 -0.22815843329E+04  0.22815843329E+04  0.50400001928E-02 0. -1.
    10030    2    1    2    0    0  0.00000000000E+00  0.00000000000E+00 -0.11623356116E+04  0.34008330542E+04  0.31960352608E+04 0.  0.
        2    1    3    3  502    0  0.14266810140E+04  0.64917401480E+02 -0.13440664969E+04  0.19611597928E+04  0.25500000920E-02 0. -1.
       -2    1    3    3    0  502 -0.14266810140E+04 -0.64917401480E+02  0.18173088527E+03  0.14396732614E+04  0.25500000920E-02 0.  1.
</event>
<event>
 5   0  0.1538349E-06  0.2975841E+04  0.7818609E-02  0.8250663E-01
        2   -1    0    0  501    0  0.00000000000E+00  0.00000000000E+00  0.17829659356E+04  0.17829659356E+04  0.25500000920E-02 0.  1.
       -2   -1    0    0    0  501  0.00000000000E+00  0.00000000000E+00 -0.12416994737E+04  0.12416994737E+04  0.25500000920E-02 0. -1.
    10030    2    1    2    0    0  0.00000000000E+00  0.00000000000E+00  0.54126646189E+03  0.30246654093E+04  0.29758413021E+04 0.  0.
        1    1    3    3  502    0  0.34098199013E+03  0.80597270645E+02  0.17404373573E+04  0.17753554101E+04  0.50400001928E-02 0.  1.
       -1    1    3    3    0  502 -0.34098199013E+03 -0.80597270645E+02 -0.11991708954E+04  0.12493099992E+04  0.50400001928E-02 0. -1.
</event>
<event>
 5   0  0.1572769E-06  0.3170257E+04  0.7818609E-02  0.8196717E-01
       -2   -1    0    0    0  501  0.00000000000E+00  0.00000000000E+00  0.12071425171E+04  0.12071425171E+04  0.25500000920E-02 0. -1.
        2   -1    0    0  501    0  0.00000000000E+00  0.00000000000E+00 -0.20814711073E+04  0.20814711073E+04  0.25500000920E-02 0.  1.
    10030    2    1    2    0    0  0.00000000000E+00  0.00000000000E+00 -0.87432859022E+03  0.32886136244E+04  0.31702569434E+04 0.  0.
        5    1    3    3  502    0  0.13048697951E+04 -0.78226115760E+03  0.24411193406E+02  0.15215898584E+04  0.46999998093E+01 0. -1.
       -5    1    3    3    0  502 -0.13048697951E+04  0.78226115760E+03 -0.89873978362E+03  0.17670237660E+04  0.46999998093E+01 0.  1.
</event>
<event>
 5   0  0.5281187E-07  0.3197758E+04  0.7818609E-02  0.8189410E-01
       -1   -1    0    0    0  501  0.00000000000E+00  0.00000000000E+00  0.18031493270E+04  0.18031493270E+04  0.50400001928E-02 0. -1.
        1   -1    0    0  501    0  0.00000000000E+00  0.00000000000E+00 -0.14177494074E+04  0.14177494074E+04  0.50400001928E-02 0.  1.
    10030    2    1    2    0    0  0.00000000000E+00  0.00000000000E+00  0.38539991959E+03  0.32208987345E+04  0.31977578957E+04 0.  0.
        5    1    3    3  502    0 -0.10311605761E+04 -0.11373753510E+04 -0.25716055923E+03  0.15566208485E+04  0.46999998093E+01 0. -1.
       -5    1    3    3    0  502  0.10311605761E+04  0.11373753510E+04  0.64256047882E+03  0.16642778860E+04  0.46999998093E+01 0.  1.
</event>
<event>
 5   0  0.1508771E-06  0.3241475E+04  0.7818609E-02  0.8177949E-01
        2   -1    0    0  501    0  0.00000000000E+00  0.00000000000E+00  0.23178810227E+04  0.23178810227E+04  0.25500000920E-02 0. -1.
       -2   -1    0    0    0  501  0.00000000000E+00  0.00000000000E+00 -0.11332719387E+04  0.11332719387E+04  0.25500000920E-02 0.  1.
    10030    2    1    2    0    0  0.00000000000E+00  0.00000000000E+00  0.11846090841E+04  0.34511529614E+04  0.32414746769E+04 0.  0.
        4    1    3    3  502    0  0.34827135491E+02 -0.72184324668E+03  0.21368397975E+04  0.22557385786E+04  0.12699999809E+01 0. -1.
       -4    1    3    3    0  502 -0.34827135491E+02  0.72184324668E+03 -0.95223071341E+03  0.11954143828E+04  0.12699999809E+01 0.  1.
</event>
<event>
 5   0  0.5370912E-07  0.3190239E+04  0.7818609E-02  0.8191400E-01
       -1   -1    0    0    0  501  0.00000000000E+00  0.00000000000E+00  0.27673942347E+04  0.27673942347E+04  0.50400001928E-02 0. -1.
        1   -1    0    0  501    0  0.00000000000E+00  0.00000000000E+00 -0.91942294546E+03  0.91942294547E+03  0.50400001928E-02 0.  1.
    10030    2    1    2    0    0  0.00000000000E+00  0.00000000000E+00  0.18479712893E+04  0.36868171802E+04  0.31902387112E+04 0.  0.
        1    1    3    3  502    0  0.15147347723E+03  0.11535431858E+04 -0.33710926738E+03  0.12113004392E+04  0.50400001928E-02 0.  1.
       -1    1    3    3    0  502 -0.15147347723E+03 -0.11535431858E+04  0.21850805567E+04  0.24755167410E+04  0.50400001928E-02 0. -1.
</event>
<event>
 5   0  0.5281187E-07  0.3217865E+04  0.7818609E-02  0.8184115E-01
        1   -1    0    0  501    0  0.00000000000E+00  0.00000000000E+00  0.13179466989E+04  0.13179466989E+04  0.50400001928E-02 0.  1.
       -1   -1    0    0    0  501  0.00000000000E+00  0.00000000000E+00 -0.19641641586E+04  0.19641641586E+04  0.50400001928E-02 0. -1.
    10030    2    1    2    0    0  0.00000000000E+00  0.00000000000E+00 -0.64621745971E+03  0.32821108575E+04  0.32178649250E+04 0.  0.
        5    1    3    3  502    0  0.35492912849E+03 -0.88874637444E+03  0.99608028768E+03  0.13813192368E+04  0.46999998093E+01 0.  1.
       -5    1    3    3    0  502 -0.35492912849E+03  0.88874637444E+03 -0.16422977474E+04  0.19007916207E+04  0.46999998093E+01 0. -1.
</event>
<event>
 5   0  0.5317728E-07  0.3188574E+04  0.7818609E-02  0.8191841E-01
        1   -1    0    0  501    0  0.00000000000E+00  0.00000000000E+00  0.15422808730E+04  0.15422808730E+04  0.50400001928E-02 0.  1.
       -1   -1    0    0    0  501  0.00000000000E+00  0.00000000000E+00 -0.16480463953E+04  0.16480463953E+04  0.50400001928E-02 0. -1.
    10030    2    1    2    0    0  0.00000000000E+00  0.00000000000E+00 -0.10576552226E+03  0.31903272683E+04  0.31885736205E+04 0.  0.
        2    1    3    3  502    0 -0.14938567509E+04 -0.55659192725E+03 -0.34221295558E+02  0.15945449705E+04  0.25500000920E-02 0. -1.
       -2    1    3    3    0  502  0.14938567509E+04  0.55659192725E+03 -0.71544226700E+02  0.15957822978E+04  0.25500000920E-02 0.  1.
</event>
<event>
 5   0  0.5317728E-07  0.3158348E+04  0.7818609E-02  0.8199905E-01
        1   -1    0    0  501    0  0.00000000000E+00  0.00000000000E+00  0.18689491607E+04  0.18689491607E+04  0.50400001928E-02 0.  1.
       -1   -1    0    0    0  501  0.00000000000E+00  0.00000000000E+00 -0.13343280055E+04  0.13343280055E+04  0.50400001928E-02 0. -1.
    10030    2    1    2    0    0  0.00000000000E+00  0.00000000000E+00  0.53462115522E+03  0.32032771662E+04  0.31583484329E+04 0.  0.
        2    1    3    3  502    0 -0.58281948697E+02  0.11419835766E+04 -0.83734241339E+03  0.14172740003E+04  0.25500000920E-02 0. -1.
       -2    1    3    3    0  502  0.58281948697E+02 -0.11419835766E+04  0.13719635686E+04  0.17860031658E+04  0.25500000920E-02 0.  1.
</event>
<event>
 5   0  0.5281187E-07  0.3202230E+04  0.7818609E-02  0.8188229E-01
       -1   -1    0    0    0  501  0.00000000000E+00  0.00000000000E+00  0.12356655111E+04  0.12356655111E+04  0.50400001928E-02 0. -1.
        1   -1    0    0  501    0  0.00000000000E+00  0.00000000000E+00 -0.20746462322E+04  0.20746462322E+04  0.50400001928E-02 0.  1.
    10030    2    1    2    0    0  0.00000000000E+00  0.00000000000E+00 -0.83898072117E+03  0.33103117433E+04  0.32022297212E+04 0.  0.
        5    1    3    3  502    0  0.11891160379E+04  0.62749517450E+03 -0.13182006797E+04  0.18829291722E+04  0.46999998093E+01 0.  1.
       -5    1    3    3    0  502 -0.11891160379E+04 -0.62749517450E+03  0.47921995850E+03  0.14273825711E+04  0.46999998093E+01 0. -1.
</event>
<event>
 5   0  0.5281187E-07  0.3010477E+04  0.7818609E-02  0.8240745E-01
        1   -1    0    0  501    0  0.00000000000E+00  0.00000000000E+00  0.15387605384E+04  0.15387605384E+04  0.50400001928E-02 0.  1.
       -1   -1    0    0    0  501  0.00000000000E+00  0.00000000000E+00 -0.14724465683E+04  0.14724465683E+04  0.50400001928E-02 0. -1.
    10030    2    1    2    0    0  0.00000000000E+00  0.00000000000E+00  0.66313970096E+02  0.30112071067E+04  0.30104768221E+04 0.  0.
        5    1    3    3  502    0  0.73841745519E+03 -0.23928936262E+03 -0.12568073039E+04  0.14771954597E+04  0.46999998093E+01 0. -1.
       -5    1    3    3    0  502 -0.73841745519E+03  0.23928936262E+03  0.13231212740E+04  0.15340116469E+04  0.46999998093E+01 0.  1.
</event>
<event>
 5   0  0.5317728E-07  0.3237600E+04  0.7818609E-02  0.8178957E-01
       -1   -1    0    0    0  501  0.00000000000E+00  0.00000000000E+00  0.17106807869E+04  0.17106807869E+04  0.50400001928E-02 0. -1.
        1   -1    0    0  501    0  0.00000000000E+00  0.00000000000E+00 -0.15318540397E+04  0.15318540397E+04  0.50400001928E-02 0.  1.
    10030    2    1    2    0    0  0.00000000000E+00  0.00000000000E+00  0.17882674722E+03  0.32425348266E+04  0.32375998975E+04 0.  0.
        2    1    3    3  502    0 -0.12532845610E+04 -0.76904732513E+03 -0.58863947608E+03  0.15838725997E+04  0.25500000920E-02 0. -1.
       -2    1    3    3    0  502  0.12532845610E+04  0.76904732513E+03  0.76746622330E+03  0.16586622270E+04  0.25500000920E-02 0.  1.
</event>
<event>
 5   0  0.5317728E-07  0.3207339E+04  0.7818609E-02  0.8186882E-01
       -1   -1    0    0    0  501  0.00000000000E+00  0.00000000000E+00  0.18239557723E+04  0.18239557723E+04  0.50400001928E-02 0. -1.
        1   -1    0    0  501    0  0.00000000000E+00  0.00000000000E+00 -0.14099877600E+04  0.14099877600E+04  0.50400001928E-02 0.  1.
    10030    2    1    2    0    0  0.00000000000E+00  0.00000000000E+00  0.41396801225E+03  0.32339435323E+04  0.32073386561E+04 0.  0.
        2    1    3    3  502    0 -0.13010856495E+04 -0.76823757497E+03 -0.33482092212E+03  0.15476168417E+04  0.25500000920E-02 0.  1.
       -2    1    3    3    0  502  0.13010856495E+04  0.76823757497E+03  0.74878893437E+03  0.16863266905E+04  0.25500000920E-02 0. -1.
</event>
<event>
 5   0  0.5317728E-07  0.3170585E+04  0.7818609E-02  0.8196629E-01
        1   -1    0    0  501    0  0.00000000000E+00  0.00000000000E+00  0.25924553747E+04  0.25924553747E+04  0.50400001928E-02 0.  1.
       -1   -1    0    0    0  501  0.00000000000E+00  0.00000000000E+00 -0.96941032818E+03  0.96941032820E+03  0.50400001928E-02 0. -1.
    10030    2    1    2    0    0  0.00000000000E+00  0.00000000000E+00  0.16230450465E+04  0.35618657029E+04  0.31705854448E+04 0.  0.
        2    1    3    3  502    0  0.30523868028E+03  0.15349059281E+04  0.52721744800E+03  0.16513827834E+04  0.25500000920E-02 0. -1.
       -2    1    3    3    0  502 -0.30523868028E+03 -0.15349059281E+04  0.10958275985E+04  0.19104829195E+04  0.25500000920E-02 0.  1.
</event>
<event>
 5   0  0.1538349E-06  0.3217443E+04  0.7818609E-02  0.8184226E-01
       -2   -1    0    0    0  501  0.00000000000E+00  0.00000000000E+00  0.11031802677E+04  0.11031802677E+04  0.25500000920E-02 0. -1.
        2   -1    0    0  501    0  0.00000000000E+00  0.00000000000E+00 -0.23459314520E+04  0.23459314520E+04  0.25500000920E-02 0.  1.
    10030    2    1    2    0    0  0.00000000000E+00  0.00000000000E+00 -0.12427511843E+04  0.34491117197E+04  0.32174432627E+04 0.  0.
        1    1    3    3  502    0 -0.10632902564E+04 -0.11139731500E+04 -0.11201315996E+04  0.19042628886E+04  0.50400001928E-02 0. -1.
       -1    1    3    3    0  502  0.10632902564E+04  0.11139731500E+04 -0.12261958471E+03  0.15448488311E+04  0.50400001928E-02 0.  1.
</event>
<event>
 5   0  0.5281187E-07  0.3203046E+04  0.7818609E-02  0.8188013E-01
        1   -1    0    0  501    0  0.00000000000E+00  0.00000000000E+00  0.24977646148E+04  0.24977646148E+04  0.50400001928E-02 0.  1.
       -1   -1    0    0    0  501  0.00000000000E+00  0.00000000000E+00 -0.10268688464E+04  0.10268688464E+04  0.50400001928E-02 0. -1.
    10030    2    1    2    0    0  0.00000000000E+00  0.00000000000E+00  0.14708957684E+04  0.35246334612E+04  0.32030464677E+04 0.  0.
        5    1    3    3  502    0 -0.96605030555E+03 -0.11254600882E+04  0.70692237542E+02  0.14849017090E+04  0.46999998093E+01 0. -1.
       -5    1    3    3    0  502  0.96605030555E+03  0.11254600882E+04  0.14002035309E+04  0.20397317522E+04  0.46999998093E+01 0.  1.
</event>
<event>
 5   0  0.5317728E-07  0.3165690E+04  0.7818609E-02  0.8197938E-01
        1   -1    0    0  501    0  0.00000000000E+00  0.00000000000E+00  0.17769448419E+04  0.17769448419E+04  0.50400001928E-02 0.  1.
       -1   -1    0    0    0  501  0.00000000000E+00  0.00000000000E+00 -0.14099472309E+04  0.14099472309E+04  0.50400001928E-02 0. -1.
    10030    2    1    2    0    0  0.00000000000E+00  0.00000000000E+00  0.36699761105E+03  0.31868920728E+04  0.31656901044E+04 0.  0.
        2    1    3    3  502    0  0.12162991121E+04  0.97282217935E+03  0.46758007210E+03  0.16261604000E+04  0.25500000920E-02 0.  1.
       -2    1    3    3    0  502 -0.12162991121E+04 -0.97282217935E+03 -0.10058246105E+03  0.15607316727E+04  0.25500000920E-02 0. -1.
</event>
<event>
 5   0  0.5370912E-07  0.3188845E+04  0.7818609E-02  0.8191769E-01
       -1   -1    0    0    0  501  0.00000000000E+00  0.00000000000E+00  0.10137845626E+04  0.10137845626E+04  0.50400001928E-02 0.  1.
        1   -1    0    0  501    0  0.00000000000E+00  0.00000000000E+00 -0.25076163822E+04  0.25076163822E+04  0.50400001928E-02 0. -1.
    10030    2    1    2    0    0  0.00000000000E+00  0.00000000000E+00 -0.14938318195E+04  0.35214009448E+04  0.31888447923E+04 0.  0.
        1    1    3    3  502    0 -0.63619127814E+03  0.95225512102E+02 -0.23579555405E+04  0.24441279777E+04  0.50400001928E-02 0. -1.
       -1    1    3    3    0  502  0.63619127814E+03 -0.95225512102E+02  0.86412372094E+03  0.10772729671E+04  0.50400001928E-02 0.  1.
</event>
<event>
 5   0  0.1572769E-06  0.3202167E+04  0.7818609E-02  0.8188245E-01
       -2   -1    0    0    0  501  0.00000000000E+00  0.00000000000E+00  0.12314696466E+04  0.12314696466E+04  0.25500000920E-02 0. -1.
        2   -1    0    0  501    0  0.00000000000E+00  0.00000000000E+00 -0.20816338386E+04  0.20816338386E+04  0.25500000920E-02 0.  1.
    10030    2    1    2    0    0  0.00000000000E+00  0.00000000000E+00 -0.85016419195E+03  0.33131034852E+04  0.32021673208E+04 0.  0.
        5    1    3    3  502    0  0.14538969894E+04  0.51422461299E+03  0.20179712048E+02  0.15422946278E+04  0.46999998093E+01 0.  1.
       -5    1    3    3    0  502 -0.14538969894E+04 -0.51422461299E+03 -0.87034390400E+03  0.17708088574E+04  0.46999998093E+01 0. -1.
</event>
<event>
 5   0  0.1572769E-06  0.3232673E+04  0.7818609E-02  0.8180241E-01
       -2   -1    0    0    0  501  0.00000000000E+00  0.00000000000E+00  0.13151130347E+04  0.13151130347E+04  0.25500000920E-02 0.  1.
        2   -1    0    0  501    0  0.00000000000E+00  0.00000000000E+00 -0.19865542622E+04  0.19865542622E+04  0.25500000920E-02 0. -1.
    10030    2    1    2    0    0  0.00000000000E+00  0.00000000000E+00 -0.67144122741E+03  0.33016672969E+04  0.32326728287E+04 0.  0.
        5    1    3    3  502    0 -0.53594045076E+03  0.55770272604E+03 -0.17852565151E+04  0.19456174886E+04  0.46999998093E+01 0. -1.
       -5    1    3    3    0  502  0.53594045076E+03 -0.55770272604E+03  0.11138152877E+04  0.13560498083E+04  0.46999998093E+01 0.  1.
</event>
<event>
 5   0  0.1508771E-06  0.3209077E+04  0.7818609E-02  0.8186424E-01
       -2   -1    0    0    0  501  0.00000000000E+00  0.00000000000E+00  0.23844753046E+04  0.23844753046E+04  0.25500000920E-02 0.  1.
        2   -1    0    0  501    0  0.00000000000E+00  0.00000000000E+00 -0.10797108337E+04  0.10797108337E+04  0.25500000920E-02 0. -1.
    10030    2    1    2    0    0  0.00000000000E+00  0.00000000000E+00  0.13047644709E+04  0.34641861383E+04  0.32090770132E+04 0.  0.
        4    1    3    3  502    0  0.15401796401E+04  0.22955843811E+03  0.10700395520E+04  0.18894011369E+04  0.12699999809E+01 0. -1.
       -4    1    3    3    0  502 -0.15401796401E+04 -0.22955843811E+03  0.23472491886E+03  0.15747850014E+04  0.12699999809E+01 0.  1.
</event>
<event>
 5   0  0.5281187E-07  0.3202268E+04  0.7818609E-02  0.8188218E-01
       -1   -1    0    0    0  501  0.00000000000E+00  0.00000000000E+00  0.12102845910E+04  0.12102845911E+04  0.50400001928E-02 0. -1.
        1   -1    0    0  501    0  0.00000000000E+00  0.00000000000E+00 -0.21182044730E+04  0.21182044730E+04  0.50400001928E-02 0.  1.
    10030    2    1    2    0    0  0.00000000000E+00  0.00000000000E+00 -0.90791988194E+03  0.33284890640E+04  0.32022680927E+04 0.  0.
        5    1    3    3  502    0  0.48758365760E+03  0.15139809207E+04 -0.64486220988E+03  0.17163173982E+04  0.46999998093E+01 0. -1.
       -5    1    3    3    0  502 -0.48758365760E+03 -0.15139809207E+04 -0.26305767206E+03  0.16121716659E+04  0.46999998093E+01 0.  1.
</event>
<event>
 5   0  0.1493485E-06  0.3071028E+04  0.7818609E-02  0.8223734E-01
       -2   -1    0    0    0  501  0.00000000000E+00  0.00000000000E+00  0.20319060710E+04  0.20319060710E+04  0.25500000920E-02 0. -1.
        2   -1    0    0  501    0  0.00000000000E+00  0.00000000000E+00 -0.11603895322E+04  0.11603895322E+04  0.25500000920E-02 0.  1.
    10030    2    1    2    0    0  0.00000000000E+00  0.00000000000E+00  0.87151653877E+03  0.31922956032E+04  0.30710275383E+04 0.  0.
        2    1    3    3  502    0 -0.12067548341E+04  0.52621249814E+03 -0.38579602582E+03  0.13718583733E+04  0.25500000920E-02 0.  1.
       -2    1    3    3    0  502  0.12067548341E+04 -0.52621249814E+03  0.12573125646E+04  0.18204372299E+04  0.25500000920E-02 0. -1.
</event>
<event>
 5   0  0.5317728E-07  0.3182118E+04  0.7818609E-02  0.8193556E-01
       -1   -1    0    0    0  501  0.00000000000E+00  0.00000000000E+00  0.12668963865E+04  0.12668963865E+04  0.50400001928E-02 0.  1.
        1   -1    0    0  501    0  0.00000000000E+00  0.00000000000E+00 -0.19981656888E+04  0.19981656888E+04  0.50400001928E-02 0. -1.
    10030    2    1    2    0    0  0.00000000000E+00  0.00000000000E+00 -0.73126930238E+03  0.32650620753E+04  0.31821180938E+04 0.  0.
        2    1    3    3  502    0 -0.13151061532E+04  0.81337536991E+02 -0.12807039660E+04  0.18374772482E+04  0.25500000920E-02 0. -1.
       -2    1    3    3    0  502  0.13151061532E+04 -0.81337536991E+02  0.54943466367E+03  0.14275848271E+04  0.25500000920E-02 0.  1.
</event>
<event>
 5   0  0.1493485E-06  0.3224232E+04  0.7818609E-02  0.8182447E-01
       -2   -1    0    0    0  501  0.00000000000E+00  0.00000000000E+00  0.14420524546E+04  0.14420524546E+04  0.25500000920E-02 0. -1.
        2   -1    0    0  501    0  0.00000000000E+00  0.00000000000E+00 -0.18022350852E+04  0.18022350852E+04  0.25500000920E-02 0.  1.
    10030    2    1    2    0    0  0.00000000000E+00  0.00000000000E+00 -0.36018263051E+03  0.32442875398E+04  0.32242317090E+04 0.  0.
        2    1    3    3  502    0  0.11688321348E+04  0.42738293223E+03 -0.12112059094E+04  0.17366186931E+04  0.25500000920E-02 0.  1.
       -2    1    3    3    0  502 -0.11688321348E+04 -0.42738293223E+03  0.85102327885E+03  0.15076688467E+04  0.25500000920E-02 0. -1.
</event>
<event>
 5   0  0.5281187E-07  0.3210582E+04  0.7818609E-02  0.8186028E-01
        1   -1    0    0  501    0  0.00000000000E+00  0.00000000000E+00  0.13679094069E+04  0.13679094069E+04  0.50400001928E-02 0. -1.
       -1   -1    0    0    0  501  0.00000000000E+00  0.00000000000E+00 -0.18838664106E+04  0.18838664106E+04  0.50400001928E-02 0.  1.
    10030    2    1    2    0    0  0.00000000000E+00  0.00000000000E+00 -0.51595700373E+03  0.32517758174E+04  0.32105816198E+04 0.  0.
        5    1    3    3  502    0 -0.97206867227E+03  0.65859487357E+03  0.85072277651E+03  0.14499710492E+04  0.46999998093E+01 0. -1.
       -5    1    3    3    0  502  0.97206867227E+03 -0.65859487357E+03 -0.13666797802E+04  0.18018047682E+04  0.46999998093E+01 0.  1.
</event>
<event>
 5   0  0.1508771E-06  0.3194846E+04  0.7818609E-02  0.8190180E-01
       -2   -1    0    0    0  501  0.00000000000E+00  0.00000000000E+00  0.11079860076E+04  0.11079860076E+04  0.25500000920E-02 0. -1.
        2   -1    0    0  501    0  0.00000000000E+00  0.00000000000E+00 -0.23030622640E+04  0.23030622640E+04  0.25500000920E-02 0.  1.
    10030    2    1    2    0    0  0.00000000000E+00  0.00000000000E+00 -0.11950762564E+04  0.34110482716E+04  0.31948463270E+04 0.  0.
        4    1    3    3  502    0 -0.63572471769E+03  0.62253139650E+03 -0.20139925436E+04  0.22017853744E+04  0.12699999809E+01 0.  1.
       -4    1    3    3    0  502  0.63572471769E+03 -0.62253139650E+03  0.81891628722E+03  0.12092628973E+04  0.12699999809E+01 0. -1.
</event>
<event>
 5   0  0.5370912E-07  0.3194864E+04  0.7818609E-02  0.8190175E-01
        1   -1    0    0  501    0  0.00000000000E+00  0.00000000000E+00  0.22720366411E+04  0.22720366411E+04  0.50400001928E-02 0. -1.
       -1   -1    0    0    0  501  0.00000000000E+00  0.00000000000E+00 -0.11231286659E+04  0.11231286659E+04  0.50400001928E-02 0.  1.
    10030    2    1    2    0    0  0.00000000000E+00  0.00000000000E+00  0.11489079752E+04  0.33951653069E+04  0.31948643048E+04 0.  0.
        1    1    3    3  502    0 -0.14834325404E+04 -0.51547788299E+03  0.26371811639E+03  0.15924310958E+04  0.50400001928E-02 0. -1.
       -1    1    3    3    0  502  0.14834325404E+04  0.51547788299E+03  0.88518985883E+03  0.18027342112E+04  0.50400001928E-02 0.  1.
</event>
<event>
 5   0  0.5281187E-07  0.3197719E+04  0.7818609E-02  0.8189420E-01
        1   -1    0    0  501    0  0.00000000000E+00  0.00000000000E+00  0.23850741101E+04  0.23850741101E+04  0.50400001928E-02 0. -1.
       -1   -1    0    0    0  501  0.00000000000E+00  0.00000000000E+00 -0.10718120948E+04  0.10718120948E+04  0.50400001928E-02 0.  1.
    10030    2    1    2    0    0  0.00000000000E+00  0.00000000000E+00  0.13132620153E+04  0.34568862049E+04  0.31977187358E+04 0.  0.
        5    1    3    3  502    0  0.66908995313E+03 -0.16221592699E+03 -0.90335246760E+03  0.11358094660E+04  0.46999998093E+01 0.  1.
       -5    1    3    3    0  502 -0.66908995313E+03  0.16221592699E+03  0.22166144829E+04  0.23210767389E+04  0.46999998093E+01 0. -1.
</event>
<event>
 5   0  0.5370912E-07  0.3210936E+04  0.7818609E-02  0.8185935E-01
        1   -1    0    0  501    0  0.00000000000E+00  0.00000000000E+00  0.10388951569E+04  0.10388951569E+04  0.50400001928E-02 0. -1.
       -1   -1    0    0    0  501  0.00000000000E+00  0.00000000000E+00 -0.24810273297E+04  0.24810273297E+04  0.50400001928E-02 0.  1.
    10030    2    1    2    0    0  0.00000000000E+00  0.00000000000E+00 -0.14421321728E+04  0.35199224866E+04  0.32109358617E+04 0.  0.
        1    1    3    3  502    0  0.10384406850E+04  0.62076794500E+03 -0.18779987277E+04  0.22339630971E+04  0.50400001928E-02 0.  1.
       -1    1    3    3    0  502 -0.10384406850E+04 -0.62076794500E+03  0.43586655495E+03  0.12859593896E+04  0.50400001928E-02 0. -1.
</event>
<event>
 5   0  0.1493485E-06  0.3168811E+04  0.7818609E-02  0.8197103E-01
       -2   -1    0    0    0  501  0.00000000000E+00  0.00000000000E+00  0.10484616067E+04  0.10484616067E+04  0.25500000920E-02 0. -1.
        2   -1    0    0  501    0  0.00000000000E+00  0.00000000000E+00 -0.23943083615E+04  0.23943083615E+04  0.25500000920E-02 0.  1.
    10030    2    1    2    0    0  0.00000000000E+00  0.00000000000E+00 -0.13458467548E+04  0.34427699683E+04  0.31688107496E+04 0.  0.
        2    1    3    3  502    0 -0.13058936233E+03  0.51439775828E+03  0.94902016239E+03  0.10873352307E+04  0.25500000920E-02 0. -1.
       -2    1    3    3    0  502  0.13058936233E+03 -0.51439775828E+03 -0.22948669172E+04  0.23554347376E+04  0.25500000920E-02 0.  1.
</event>
<event>
 5   0  0.1538349E-06  0.3200652E+04  0.7818609E-02  0.8188645E-01
       -2   -1    0    0    0  501  0.00000000000E+00  0.00000000000E+00  0.20663605955E+04  0.20663605955E+04  0.25500000920E-02 0.  1.
        2   -1    0    0  501    0  0.00000000000E+00  0.00000000000E+00 -0.12393980212E+04  0.12393980212E+04  0.25500000920E-02 0. -1.
    10030    2    1    2    0    0  0.00000000000E+00  0.00000000000E+00  0.82696257428E+03  0.33057586166E+04  0.32006519543E+04 0.  0.
        1    1    3    3  502    0  0.16931403693E+03  0.56713212118E+03  0.19491631052E+04  0.20370426841E+04  0.50400001928E-02 0.  1.
       -1    1    3    3    0  502 -0.16931403693E+03 -0.56713212118E+03 -0.11222005309E+04  0.12687159326E+04  0.50400001928E-02 0. -1.
</event>
<event>
 5   0  0.5281187E-07  0.3210963E+04  0.7818609E-02  0.8185928E-01
       -1   -1    0    0    0  501  0.00000000000E+00  0.00000000000E+00  0.15045025760E+04  0.15045025760E+04  0.50400001928E-02 0.  1.
        1   -1    0    0  501    0  0.00000000000E+00  0.00000000000E+00 -0.17132377184E+04  0.17132377184E+04  0.50400001928E-02 0. -1.
    10030    2    1    2    0    0  0.00000000000E+00  0.00000000000E+00 -0.20873514235E+03  0.32177402944E+04  0.32109628217E+04 0.  0.
        5    1    3    3  502    0  0.90340716505E+03 -0.68416790693E+03 -0.12440094846E+04  0.16827988348E+04  0.46999998093E+01 0. -1.
       -5    1    3    3    0  502 -0.90340716505E+03  0.68416790693E+03  0.10352743422E+04  0.15349414596E+04  0.46999998093E+01 0.  1.
</event>
<event>
 5   0  0.1572769E-06  0.3000771E+04  0.7818609E-02  0.8243511E-01
        2   -1    0    0  501    0  0.00000000000E+00  0.00000000000E+00  0.19444998250E+04  0.19444998250E+04  0.25500000920E-02 0. -1.
       -2   -1    0    0    0  501  0.00000000000E+00  0.00000000000E+00 -0.11577045281E+04  0.11577045281E+04  0.25500000920E-02 0.  1.
    10030    2    1    2    0    0  0.00000000000E+00  0.00000000000E+00  0.78679529692E+03  0.31022043531E+04  0.30007707359E+04 0.  0.
        5    1    3    3  502    0  0.14740741365E+04  0.85352923335E+02  0.66877454448E+03  0.16209445280E+04  0.46999998093E+01 0. -1.
       -5    1    3    3    0  502 -0.14740741365E+04 -0.85352923335E+02  0.11802075244E+03  0.14812598251E+04  0.46999998093E+01 0.  1.
</event>
<event>
 5   0  0.1572769E-06  0.3223144E+04  0.7818609E-02  0.8182731E-01
       -2   -1    0    0    0  501  0.00000000000E+00  0.00000000000E+00  0.13628289359E+04  0.13628289359E+04  0.25500000920E-02 0.  1.
        2   -1    0    0  501    0  0.00000000000E+00  0.00000000000E+00 -0.19057159284E+04  0.19057159284E+04  0.25500000920E-02 0. -1.
    10030    2    1    2    0    0  0.00000000000E+00  0.00000000000E+00 -0.54288699249E+03  0.32685448644E+04  0.32231443101E+04 0.  0.
        5    1    3    3  502    0 -0.59213859850E+03 -0.60646128928E+03 -0.16614142070E+04  0.18651387810E+04  0.46999998093E+01 0. -1.
       -5    1    3    3    0  502  0.59213859850E+03  0.60646128928E+03  0.11185272145E+04  0.14034060834E+04  0.46999998093E+01 0.  1.
</event>
<event>
 5   0  0.1572769E-06  0.3146881E+04  0.7818609E-02  0.8202988E-01
        2   -1    0    0  501    0  0.00000000000E+00  0.00000000000E+00  0.11762534827E+04  0.11762534827E+04  0.25500000920E-02 0.  1.
       -2   -1    0    0    0  501  0.00000000000E+00  0.00000000000E+00 -0.21047460937E+04  0.21047460937E+04  0.25500000920E-02 0. -1.
    10030    2    1    2    0    0  0.00000000000E+00  0.00000000000E+00 -0.92849261106E+03  0.32809995764E+04  0.31468809465E+04 0.  0.
        5    1    3    3  502    0  0.14594841466E+04  0.30763048269E+03  0.58065862095E+02  0.14926902634E+04  0.46999998093E+01 0. -1.
       -5    1    3    3    0  502 -0.14594841466E+04 -0.30763048269E+03 -0.98655847316E+03  0.17883093130E+04  0.46999998093E+01 0.  1.
</event>
<event>
 5   0  0.5370912E-07  0.3198720E+04  0.7818609E-02  0.8189155E-01
        1   -1    0    0  501    0  0.00000000000E+00  0.00000000000E+00  0.17756326578E+04  0.17756326578E+04  0.50400001928E-02 0.  1.
       -1   -1    0    0    0  501  0.00000000000E+00  0.00000000000E+00 -0.14405866763E+04  0.14405866763E+04  0.50400001928E-02 0. -1.
    10030    2    1    2    0    0  0.00000000000E+00  0.00000000000E+00  0.33504598145E+03  0.32162193341E+04  0.31987202121E+04 0.  0.
        1    1    3    3  502    0  0.54189999648E+03 -0.86967561386E+03 -0.10671857601E+04  0.14794852909E+04  0.50400001928E-02 0. -1.
       -1    1    3    3    0  502 -0.54189999648E+03  0.86967561386E+03  0.14022317415E+04  0.17367340431E+04  0.50400001928E-02 0.  1.
</event>
<event>
 5   0  0.1508771E-06  0.3199753E+04  0.7818609E-02  0.8188883E-01
        2   -1    0    0  501    0  0.00000000000E+00  0.00000000000E+00  0.20871415568E+04  0.20871415568E+04  0.25500000920E-02 0.  1.
       -2   -1    0    0    0  501  0.00000000000E+00  0.00000000000E+00 -0.12263682733E+04  0.12263682733E+04  0.25500000920E-02 0. -1.
    10030    2    1    2    0    0  0.00000000000E+00  0.00000000000E+00  0.86077328349E+03  0.33135098301E+04  0.31997526074E+04 0.  0.
        4    1    3    3  502    0  0.11258589953E+04  0.80224185609E+03  0.12642805719E+04  0.18733812880E+04  0.12699999809E+01 0.  1.
       -4    1    3    3    0  502 -0.11258589953E+04 -0.80224185609E+03 -0.40350728839E+03  0.14401285421E+04  0.12699999809E+01 0. -1.
</event>
<event>
 5   0  0.5370912E-07  0.3127938E+04  0.7818609E-02  0.8208112E-01
        1   -1    0    0  501    0  0.00000000000E+00  0.00000000000E+00  0.19122751032E+04  0.19122751032E+04  0.50400001928E-02 0. -1.
       -1   -1    0    0    0  501  0.00000000000E+00  0.00000000000E+00 -0.12791037992E+04  0.12791037992E+04  0.50400001928E-02 0.  1.
    10030    2    1    2    0    0  0.00000000000E+00  0.00000000000E+00  0.63317130396E+03  0.31913789024E+04  0.31279375631E+04 0.  0.
        1    1    3    3  502    0  0.81109939628E+02 -0.55784962393E+03 -0.11718459883E+04  0.13003838070E+04  0.50400001928E-02 0.  1.
       -1    1    3    3    0  502 -0.81109939628E+02  0.55784962393E+03  0.18050172923E+04  0.18909950954E+04  0.50400001928E-02 0. -1.
</event>
<event>
 5   0  0.5177039E-07  0.3199840E+04  0.7818609E-02  0.8188859E-01
        1   -1    0    0  501    0  0.00000000000E+00  0.00000000000E+00  0.19465533175E+04  0.19465533175E+04  0.50400001928E-02 0. -1.
       -1   -1    0    0    0  501  0.00000000000E+00  0.00000000000E+00 -0.13150138214E+04  0.13150138214E+04  0.50400001928E-02 0.  1.
    10030    2    1    2    0    0  0.00000000000E+00  0.00000000000E+00  0.63153949612E+03  0.32615671390E+04  0.31998403190E+04 0.  0.
        3    1    3    3  502    0 -0.26932987057E+03 -0.14346780307E+04  0.98331161345E+03  0.17600401616E+04  0.10100000352E+00 0. -1.
       -3    1    3    3    0  502  0.26932987057E+03  0.14346780307E+04 -0.35177211733E+03  0.15015269774E+04  0.10100000352E+00 0.  1.
</event>
<event>
 5   0  0.5317728E-07  0.3175717E+04  0.7818609E-02  0.8195260E-01
       -1   -1    0    0    0  501  0.00000000000E+00  0.00000000000E+00  0.13003047849E+04  0.13003047849E+04  0.50400001928E-02 0. -1.
        1   -1    0    0  501    0  0.00000000000E+00  0.00000000000E+00 -0.19390022898E+04  0.19390022898E+04  0.50400001928E-02 0.  1.
    10030    2    1    2    0    0  0.00000000000E+00  0.00000000000E+00 -0.63869750490E+03  0.32393070746E+04  0.31757165839E+04 0.  0.
        2    1    3    3  502    0 -0.10119232453E+04  0.39987240433E+03  0.86027154615E+03  0.13870665908E+04  0.25500000920E-02 0. -1.
       -2    1    3    3    0  502  0.10119232453E+04 -0.39987240433E+03 -0.14989690510E+04  0.18522404839E+04  0.25500000920E-02 0.  1.
</event>
<event>
 5   0  0.1508771E-06  0.3146136E+04  0.7818609E-02  0.8203189E-01
        2   -1    0    0  501    0  0.00000000000E+00  0.00000000000E+00  0.21867485041E+04  0.21867485041E+04  0.25500000920E-02 0.  1.
       -2   -1    0    0    0  501  0.00000000000E+00  0.00000000000E+00 -0.11316085800E+04  0.11316085800E+04  0.25500000920E-02 0. -1.
    10030    2    1    2    0    0  0.00000000000E+00  0.00000000000E+00  0.10551399241E+04  0.33183570842E+04  0.31461362778E+04 0.  0.
        4    1    3    3  502    0  0.91019628861E+03  0.12478505689E+04  0.84214694210E+03  0.17592047666E+04  0.12699999809E+01 0.  1.
       -4    1    3    3    0  502 -0.91019628861E+03 -0.12478505689E+04  0.21299298198E+03  0.15591523175E+04  0.12699999809E+01 0. -1.
</event>
<event>
 5   0  0.5233813E-07  0.3194294E+04  0.7818609E-02  0.8190326E-01
        1   -1    0    0  501    0  0.00000000000E+00  0.00000000000E+00  0.21933281666E+04  0.21933281666E+04  0.50400001928E-02 0. -1.
       -1   -1    0    0    0  501  0.00000000000E+00  0.00000000000E+00 -0.11630175250E+04  0.11630175250E+04  0.50400001928E-02 0.  1.
    10030    2    1    2    0    0  0.00000000000E+00  0.00000000000E+00  0.10303106415E+04  0.33563456916E+04  0.31942943483E+04 0.  0.
        4    1    3    3  502    0 -0.14294254794E+04  0.47963108528E+03  0.10687365834E+04  0.18481078639E+04  0.12699999809E+01 0. -1.
       -4    1    3    3    0  502  0.14294254794E+04 -0.47963108528E+03 -0.38425941826E+02  0.15082378277E+04  0.12699999809E+01 0.  1.
</event>
<event>
 5   0  0.5177039E-07  0.3162455E+04  0.7818609E-02  0.8198804E-01
        1   -1    0    0  501    0  0.00000000000E+00  0.00000000000E+00  0.24196450933E+04  0.24196450933E+04  0.50400001928E-02 0. -1.
       -1   -1    0    0    0  501  0.00000000000E+00  0.00000000000E+00 -0.10333249845E+04  0.10333249845E+04  0.50400001928E-02 0.  1.
    10030    2    1    2    0    0  0.00000000000E+00  0.00000000000E+00  0.13863201089E+04  0.34529700778E+04  0.31624545711E+04 0.  0.
        3    1    3    3  502    0  0.87347025737E+03  0.44320822358E+03  0.20485216290E+04  0.22706441145E+04  0.10100000352E+00 0. -1.
       -3    1    3    3    0  502 -0.87347025737E+03 -0.44320822358E+03 -0.66220152016E+03  0.11823259633E+04  0.10100000352E+00 0.  1.
</event>
<event>
 5   0  0.1538349E-06  0.3220305E+04  0.7818609E-02  0.8183475E-01
        2   -1    0    0  501    0  0.00000000000E+00  0.00000000000E+00  0.18834924835E+04  0.18834924835E+04  0.25500000920E-02 0.  1.
       -2   -1    0    0    0  501  0.00000000000E+00  0.00000000000E+00 -0.13764807646E+04  0.13764807646E+04  0.25500000920E-02 0. -1.
    10030    2    1    2    0    0  0.00000000000E+00  0.00000000000E+00  0.50701171892E+03  0.32599732481E+04  0.32203050624E+04 0.  0.
        1    1    3    3  502    0 -0.13069507734E+04  0.72385878411E+03  0.86131781816E+03  0.17245173955E+04  0.50400001928E-02 0.  1.
       -1    1    3    3    0  502  0.13069507734E+04 -0.72385878411E+03 -0.35430609924E+03  0.15354558526E+04  0.50400001928E-02 0. -1.
</event>
<event>
 5   0  0.1572769E-06  0.3213708E+04  0.7818609E-02  0.8185206E-01
        2   -1    0    0  501    0  0.00000000000E+00  0.00000000000E+00  0.17541366478E+04  0.17541366478E+04  0.25500000920E-02 0.  1.
       -2   -1    0    0    0  501  0.00000000000E+00  0.00000000000E+00 -0.14719378804E+04  0.14719378804E+04  0.25500000920E-02 0. -1.
    10030    2    1    2    0    0  0.00000000000E+00  0.00000000000E+00  0.28219876743E+03  0.32260745282E+04  0.32137082502E+04 0.  0.
        5    1    3    3  502    0 -0.61785017517E+03  0.11742167383E+04  0.10509170505E+04  0.16926229717E+04  0.46999998093E+01 0.  1.
       -5    1    3    3    0  502  0.61785017517E+03 -0.11742167383E+04 -0.76871828308E+03  0.15334515565E+04  0.46999998093E+01 0. -1.
</event>
<event>
 5   0  0.5233813E-07  0.3228235E+04  0.7818609E-02  0.8181400E-01
       -1   -1    0    0    0  501  0.00000000000E+00  0.00000000000E+00  0.16597819868E+04  0.16597819868E+04  0.50400001928E-02 0. -1.
        1   -1    0    0  501    0  0.00000000000E+00  0.00000000000E+00 -0.15697095943E+04  0.15697095943E+04  0.50400001928E-02 0.  1.
    10030    2    1    2    0    0  0.00000000000E+00  0.00000000000E+00  0.90072392424E+02  0.32294915811E+04  0.32282352511E+04 0.  0.
        4    1    3    3  502    0  0.77283825847E+03 -0.10296788778E+04  0.10189943205E+04  0.16419100473E+04  0.12699999809E+01 0. -1.
       -4    1    3    3    0  502 -0.77283825847E+03  0.10296788778E+04 -0.92892192810E+03  0.15875815338E+04  0.12699999809E+01 0.  1.
</event>
<event>
 5   0  0.1508771E-06  0.3172782E+04  0.7818609E-02  0.8196043E-01
        2   -1    0    0  501    0  0.00000000000E+00  0.00000000000E+00  0.20473636389E+04  0.20473636389E+04  0.25500000920E-02 0. -1.
       -2   -1    0    0    0  501  0.00000000000E+00  0.00000000000E+00 -0.12292084275E+04  0.12292084275E+04  0.25500000920E-02 0.  1.
    10030    2    1    2    0    0  0.00000000000E+00  0.00000000000E+00  0.81815521136E+03  0.32765720663E+04  0.31727821476E+04 0.  0.
        4    1    3    3  502    0  0.13585439274E+04 -0.27685630241E+03 -0.38707884236E+03  0.14394869426E+04  0.12699999809E+01 0.  1.
       -4    1    3    3    0  502 -0.13585439274E+04  0.27685630241E+03  0.12052340537E+04  0.18370851238E+04  0.12699999809E+01 0. -1.
</event>
<event>
 5   0  0.1493485E-06  0.3227901E+04  0.7818609E-02  0.8181487E-01
       -2   -1    0    0    0  501  0.00000000000E+00  0.00000000000E+00  0.16944644266E+04  0.16944644266E+04  0.25500000920E-02 0. -1.
        2   -1    0    0  501    0  0.00000000000E+00  0.00000000000E+00 -0.15372626521E+04  0.15372626521E+04  0.25500000920E-02 0.  1.
    10030    2    1    2    0    0  0.00000000000E+00  0.00000000000E+00  0.15720177456E+03  0.32317270787E+04  0.32279014101E+04 0.  0.
        2    1    3    3  502    0  0.79297260540E+03  0.18690212903E+03 -0.13162836164E+04  0.15480117951E+04  0.25500000920E-02 0.  1.
       -2    1    3    3    0  502 -0.79297260540E+03 -0.18690212903E+03  0.14734853910E+04  0.16837152836E+04  0.25500000920E-02 0. -1.
</event>
<event>
 5   0  0.5370912E-07  0.3199538E+04  0.7818609E-02  0.8188939E-01
        1   -1    0    0  501    0  0.00000000000E+00  0.00000000000E+00  0.22489380550E+04  0.22489380550E+04  0.50400001928E-02 0. -1.
       -1   -1    0    0    0  501  0.00000000000E+00  0.00000000000E+00 -0.11379862994E+04  0.11379862994E+04  0.50400001928E-02 0.  1.
    10030    2    1    2    0    0  0.00000000000E+00  0.00000000000E+00  0.11109517556E+04  0.33869243544E+04  0.31995379008E+04 0.  0.
        1    1    3    3  502    0 -0.51279297018E+03  0.10206550613E+04  0.17411496727E+04  0.20823773835E+04  0.50400001928E-02 0. -1.
       -1    1    3    3    0  502  0.51279297018E+03 -0.10206550613E+04 -0.63019791710E+03  0.13045469709E+04  0.50400001928E-02 0.  1.
</event>
<event>
 5   0  0.1493485E-06  0.3212418E+04  0.7818609E-02  0.8185545E-01
        2   -1    0    0  501    0  0.00000000000E+00  0.00000000000E+00  0.21470450160E+04  0.21470450160E+04  0.25500000920E-02 0.  1.
       -2   -1    0    0    0  501  0.00000000000E+00  0.00000000000E+00 -0.12016081878E+04  0.12016081878E+04  0.25500000920E-02 0. -1.
    10030    2    1    2    0    0  0.00000000000E+00  0.00000000000E+00  0.94543682822E+03  0.33486532038E+04  0.32124177007E+04 0.  0.
        2    1    3    3  502    0 -0.35087794107E+03  0.23364877310E+03  0.20883514518E+04  0.21304738593E+04  0.25500000920E-02 0.  1.
       -2    1    3    3    0  502  0.35087794107E+03 -0.23364877310E+03 -0.11429146236E+04  0.12181793446E+04  0.25500000920E-02 0. -1.
</event>
<event>
 5   0  0.5317728E-07  0.3173142E+04  0.7818609E-02  0.8195947E-01
        1   -1    0    0  501    0  0.00000000000E+00  0.00000000000E+00  0.14240033659E+04  0.14240033659E+04  0.50400001928E-02 0. -1.
       -1   -1    0    0    0  501  0.00000000000E+00  0.00000000000E+00 -0.17676974351E+04  0.17676974351E+04  0.50400001928E-02 0.  1.
    10030    2    1    2    0    0  0.00000000000E+00  0.00000000000E+00 -0.34369406923E+03  0.31917008010E+04  0.31731417223E+04 0.  0.
        2    1    3    3  502    0  0.76900423826E+02 -0.78512555534E+02  0.14201702104E+04  0.14244161341E+04  0.25500000920E-02 0. -1.
       -2    1    3    3    0  502 -0.76900423826E+02  0.78512555534E+02 -0.17638642797E+04  0.17672846669E+04  0.25500000920E-02 0.  1.
</event>
<event>
 5   0  0.5233813E-07  0.3083398E+04  0.7818609E-02  0.8220309E-01
        1   -1    0    0  501    0  0.00000000000E+00  0.00000000000E+00  0.21098734313E+04  0.21098734313E+04  0.50400001928E-02 0.  1.
       -1   -1    0    0    0  501  0.00000000000E+00  0.00000000000E+00 -0.11265301546E+04  0.11265301546E+04  0.50400001928E-02 0. -1.
    10030    2    1    2    0    0  0.00000000000E+00  0.00000000000E+00  0.98334327677E+03  0.32364035859E+04  0.30833981532E+04 0.  0.
        4    1    3    3  502    0 -0.27681061711E+03 -0.39794853765E+03  0.20277993210E+04  0.20849361754E+04  0.12699999809E+01 0.  1.
       -4    1    3    3    0  502  0.27681061711E+03  0.39794853765E+03 -0.10444560442E+04  0.11514674105E+04  0.12699999809E+01 0. -1.
</event>
<event>
 5   0  0.1538349E-06  0.3204718E+04  0.7818609E-02  0.8187572E-01
       -2   -1    0    0    0  501  0.00000000000E+00  0.00000000000E+00  0.13437475624E+04  0.13437475624E+04  0.25500000920E-02 0.  1.
        2   -1    0    0  501    0  0.00000000000E+00  0.00000000000E+00 -0.19107413958E+04  0.19107413958E+04  0.25500000920E-02 0. -1.
    10030    2    1    2    0    0  0.00000000000E+00  0.00000000000E+00 -0.56699383338E+03  0.32544889582E+04  0.32047178304E+04 0.  0.
        1    1    3    3  502    0 -0.33096039083E+03  0.14519001561E+04  0.31730358239E+03  0.15225736130E+04  0.50400001928E-02 0. -1.
       -1    1    3    3    0  502  0.33096039083E+03 -0.14519001561E+04 -0.88429741577E+03  0.17319153453E+04  0.50400001928E-02 0.  1.
</event>
<event>
 5   0  0.1493485E-06  0.3155149E+04  0.7818609E-02  0.8200764E-01
       -2   -1    0    0    0  501  0.00000000000E+00  0.00000000000E+00  0.21015221202E+04  0.21015221202E+04  0.25500000920E-02 0. -1.
        2   -1    0    0  501    0  0.00000000000E+00  0.00000000000E+00 -0.11842566767E+04  0.11842566767E+04  0.25500000920E-02 0.  1.
    10030    2    1    2    0    0  0.00000000000E+00  0.00000000000E+00  0.91726544350E+03  0.32857787969E+04  0.31551491896E+04 0.  0.
        2    1    3    3  502    0 -0.26812592199E+03 -0.15071872587E+04  0.85551028582E+03  0.17536826372E+04  0.25500000920E-02 0. -1.
       -2    1    3    3    0  502  0.26812592199E+03  0.15071872587E+04  0.61755157674E+02  0.15320961597E+04  0.25500000920E-02 0.  1.
</event>
<event>
 5   0  0.5370912E-07  0.3187155E+04  0.7818609E-02  0.8192218E-01
        1   -1    0    0  501    0  0.00000000000E+00  0.00000000000E+00  0.18796401202E+04  0.18796401203E+04  0.50400001928E-02 0.  1.
       -1   -1    0    0    0  501  0.00000000000E+00  0.00000000000E+00 -0.13510504815E+04  0.13510504816E+04  0.50400001928E-02 0. -1.
    10030    2    1    2    0    0  0.00000000000E+00  0.00000000000E+00  0.52858963870E+03  0.32306906018E+04  0.31871546493E+04 0.  0.
        1    1    3    3  502    0 -0.17156207483E+02 -0.38033773789E+03  0.18328617615E+04  0.18719864763E+04  0.50400001928E-02 0.  1.
       -1    1    3    3    0  502  0.17156207483E+02  0.38033773789E+03 -0.13042721228E+04  0.13587041255E+04  0.50400001928E-02 0. -1.
</event>
<event>
 5   0  0.5317728E-07  0.3186742E+04  0.7818609E-02  0.8192327E-01
        1   -1    0    0  501    0  0.00000000000E+00  0.00000000000E+00  0.97794528713E+03  0.97794528714E+03  0.50400001928E-02 0. -1.
       -1   -1    0    0    0  501  0.00000000000E+00  0.00000000000E+00 -0.25960869033E+04  0.25960869034E+04  0.50400001928E-02 0.  1.
    10030    2    1    2    0    0  0.00000000000E+00  0.00000000000E+00 -0.16181416162E+04  0.35740321905E+04  0.31867418798E+04 0.  0.
        2    1    3    3  502    0 -0.86251664372E+03  0.25035753228E+03 -0.22851604489E+04  0.24553150780E+04  0.25500000920E-02 0.  1.
       -2    1    3    3    0  502  0.86251664372E+03 -0.25035753228E+03  0.66701883272E+03  0.11187171125E+04  0.25500000920E-02 0. -1.
</event>
<event>
 5   0  0.1538349E-06  0.3130804E+04  0.7818609E-02  0.8207334E-01
       -2   -1    0    0    0  501  0.00000000000E+00  0.00000000000E+00  0.93166809285E+03  0.93166809285E+03  0.25500000920E-02 0. -1.
        2   -1    0    0  501    0  0.00000000000E+00  0.00000000000E+00 -0.26302110082E+04  0.26302110082E+04  0.25500000920E-02 0.  1.
    10030    2    1    2    0    0  0.00000000000E+00  0.00000000000E+00 -0.16985429154E+04  0.35618791011E+04  0.31308041611E+04 0.  0.
        1    1    3    3  502    0  0.12415698503E+04  0.28160893970E+03  0.18701477966E+03  0.12867687500E+04  0.50400001928E-02 0. -1.
       -1    1    3    3    0  502 -0.12415698503E+04 -0.28160893970E+03 -0.18855576951E+04  0.22751103511E+04  0.50400001928E-02 0.  1.
</event>
<event>
 5   0  0.5317728E-07  0.3199243E+04  0.7818609E-02  0.8189017E-01
       -1   -1    0    0    0  501  0.00000000000E+00  0.00000000000E+00  0.86658029352E+03  0.86658029354E+03  0.50400001928E-02 0. -1.
        1   -1    0    0  501    0  0.00000000000E+00  0.00000000000E+00 -0.29527432152E+04  0.29527432152E+04  0.50400001928E-02 0.  1.
    10030    2    1    2    0    0  0.00000000000E+00  0.00000000000E+00 -0.20861629217E+04  0.38193235087E+04  0.31992430868E+04 0.  0.
        2    1    3    3  502    0  0.71126021653E+03  0.13840130112E+04 -0.14856107387E+04  0.21513768563E+04  0.25500000920E-02 0.  1.
       -2    1    3    3    0  502 -0.71126021653E+03 -0.13840130112E+04 -0.60055218297E+03  0.16679466524E+04  0.25500000920E-02 0. -1.
</event>
<event>
 5   0  0.5177039E-07  0.3192825E+04  0.7818609E-02  0.8190715E-01
        1   -1    0    0  501    0  0.00000000000E+00  0.00000000000E+00  0.16016099720E+04  0.16016099720E+04  0.50400001928E-02 0. -1.
       -1   -1    0    0    0  501  0.00000000000E+00  0.00000000000E+00 -0.15912322547E+04  0.15912322547E+04  0.50400001928E-02 0.  1.
    10030    2    1    2    0    0  0.00000000000E+00  0.00000000000E+00  0.10377717244E+02  0.31928422267E+04  0.31928253613E+04 0.  0.
        3    1    3    3  502    0  0.23636158574E+03 -0.75681926304E+03  0.13907975781E+04  0.16009247670E+04  0.10100000352E+00 0. -1.
       -3    1    3    3    0  502 -0.23636158574E+03  0.75681926304E+03 -0.13804198609E+04  0.15919174597E+04  0.10100000352E+00 0.  1.
</event>
<event>
 5   0  0.1508771E-06  0.3190274E+04  0.7818609E-02  0.8191390E-01
       -2   -1    0    0    0  501  0.00000000000E+00  0.00000000000E+00  0.10177520672E+04  0.10177520672E+04  0.25500000920E-02 0. -1.
        2   -1    0    0  501    0  0.00000000000E+00  0.00000000000E+00 -0.25000809366E+04  0.25000809366E+04  0.25500000920E-02 0.  1.
    10030    2    1    2    0    0  0.00000000000E+00  0.00000000000E+00 -0.14823288694E+04  0.35178330038E+04  0.31902743088E+04 0.  0.
        4    1    3    3  502    0  0.47546184104E+02  0.51932837880E+03 -0.24034245267E+04  0.24593522873E+04  0.12699999809E+01 0.  1.
       -4    1    3    3    0  502 -0.47546184104E+02 -0.51932837880E+03  0.92109565723E+03  0.10584807166E+04  0.12699999809E+01 0. -1.
</event>
<event>
 5   0  0.1508771E-06  0.3123308E+04  0.7818609E-02  0.8209370E-01
        2   -1    0    0  501    0  0.00000000000E+00  0.00000000000E+00  0.21984864371E+04  0.21984864371E+04  0.25500000920E-02 0.  1.
       -2   -1    0    0    0  501  0.00000000000E+00  0.00000000000E+00 -0.11092921033E+04  0.11092921033E+04  0.25500000920E-02 0. -1.
    10030    2    1    2    0    0  0.00000000000E+00  0.00000000000E+00  0.10891943338E+04  0.33077785403E+04  0.31233082741E+04 0.  0.
        4    1    3    3  502    0  0.12797412292E+04 -0.55253580408E+03 -0.20106749603E+03  0.14083547775E+04  0.12699999809E+01 0. -1.
       -4    1    3    3    0  502 -0.12797412292E+04  0.55253580408E+03  0.12902618298E+04  0.18994237628E+04  0.12699999809E+01 0.  1.
</event>
<event>
 5   0  0.1508771E-06  0.3221065E+04  0.7818609E-02  0.8183276E-01
        2   -1    0    0  501    0  0.00000000000E+00  0.00000000000E+00  0.18756416224E+04  0.18756416224E+04  0.25500000920E-02 0. -1.
       -2   -1    0    0    0  501  0.00000000000E+00  0.00000000000E+00 -0.13828948165E+04  0.13828948165E+04  0.25500000920E-02 0.  1.
    10030    2    1    2    0    0  0.00000000000E+00  0.00000000000E+00  0.49274680583E+03  0.32585364389E+04  0.32210650892E+04 0.  0.
        4    1    3    3  502    0  0.32446491238E+03 -0.87862447442E+03 -0.10790417912E+04  0.14288426248E+04  0.12699999809E+01 0.  1.
       -4    1    3    3    0  502 -0.32446491238E+03  0.87862447442E+03  0.15717885971E+04  0.18296938141E+04  0.12699999809E+01 0. -1.
</event>
<event>
 5   0  0.1556396E-06  0.3190383E+04  0.7818609E-02  0.8191362E-01
       -2   -1    0    0    0  501  0.00000000000E+00  0.00000000000E+00  0.12205588701E+04  0.12205588701E+04  0.25500000920E-02 0.  1.
        2   -1    0    0  501    0  0.00000000000E+00  0.00000000000E+00 -0.20848117344E+04  0.20848117344E+04  0.25500000920E-02 0. -1.
    10030    2    1    2    0    0  0.00000000000E+00  0.00000000000E+00 -0.86425286421E+03  0.33053706045E+04  0.31903827074E+04 0.  0.
        3    1    3    3  502    0  0.11185474719E+04 -0.97444272454E+03  0.17548230261E+03  0.14938142853E+04  0.10100000352E+00 0.  1.
       -3    1    3    3    0  502 -0.11185474719E+04  0.97444272454E+03 -0.10397351668E+04  0.18115563192E+04  0.10100000352E+00 0. -1.
</event>
<event>
 5   0  0.5370912E-07  0.3201330E+04  0.7818609E-02  0.8188466E-01
        1   -1    0    0  501    0  0.00000000000E+00  0.00000000000E+00  0.12308158703E+04  0.12308158703E+04  0.50400001928E-02 0. -1.
       -1   -1    0    0    0  501  0.00000000000E+00  0.00000000000E+00 -0.20816500729E+04  0.20816500729E+04  0.50400001928E-02 0.  1.
    10030    2    1    2    0    0  0.00000000000E+00  0.00000000000E+00 -0.85083420255E+03  0.33124659432E+04  0.32013296901E+04 0.  0.
        1    1    3    3  502    0 -0.15204458616E+04 -0.13949945235E+03 -0.92263240561E+03  0.17839468241E+04  0.50400001928E-02 0. -1.
       -1    1    3    3    0  502  0.15204458616E+04  0.13949945235E+03  0.71798203065E+02  0.15285191191E+04  0.50400001928E-02 0.  1.
</event>
<event>
 5   0  0.1493485E-06  0.3191209E+04  0.7818609E-02  0.8191143E-01
       -2   -1    0    0    0  501  0.00000000000E+00  0.00000000000E+00  0.12701342654E+04  0.12701342654E+04  0.25500000920E-02 0. -1.
        2   -1    0    0  501    0  0.00000000000E+00  0.00000000000E+00 -0.20044763891E+04  0.20044763891E+04  0.25500000920E-02 0.  1.
    10030    2    1    2    0    0  0.00000000000E+00  0.00000000000E+00 -0.73434212374E+03  0.32746106545E+04  0.31912092667E+04 0.  0.
        2    1    3    3  502    0  0.13497872527E+04  0.52004360023E+03  0.32391614442E+03  0.14823267664E+04  0.25500000920E-02 0. -1.
       -2    1    3    3    0  502 -0.13497872527E+04 -0.52004360023E+03 -0.10582582682E+04  0.17922838882E+04  0.25500000920E-02 0.  1.
</event>
<event>
 5   0  0.1538349E-06  0.3193742E+04  0.7818609E-02  0.8190472E-01
        2   -1    0    0  501    0  0.00000000000E+00  0.00000000000E+00  0.67046211802E+03  0.67046211802E+03  0.25500000920E-02 0.  1.
       -2   -1    0    0    0  501  0.00000000000E+00  0.00000000000E+00 -0.38033427701E+04  0.38033427701E+04  0.25500000920E-02 0. -1.
    10030    2    1    2    0    0  0.00000000000E+00  0.00000000000E+00 -0.31328806521E+04  0.44738048882E+04  0.31937421619E+04 0.  0.
        1    1    3    3  502    0 -0.13220272178E+04 -0.84230670377E+03 -0.11398026551E+04  0.19381399951E+04  0.50400001928E-02 0.  1.
       -1    1    3    3    0  502  0.13220272178E+04  0.84230670377E+03 -0.19930779970E+04  0.25356648931E+04  0.50400001928E-02 0. -1.
</event>
<event>
 5   0  0.5317728E-07  0.3015204E+04  0.7818609E-02  0.8239403E-01
        1   -1    0    0  501    0  0.00000000000E+00  0.00000000000E+00  0.14767693763E+04  0.14767693763E+04  0.50400001928E-02 0. -1.
       -1   -1    0    0    0  501  0.00000000000E+00  0.00000000000E+00 -0.15390779289E+04  0.15390779290E+04  0.50400001928E-02 0.  1.
    10030    2    1    2    0    0  0.00000000000E+00  0.00000000000E+00 -0.62308552647E+02  0.30158473053E+04  0.30152035774E+04 0.  0.
        2    1    3    3  502    0  0.14062814433E+04 -0.21424420861E+03 -0.53059551298E+03  0.15182422986E+04  0.25500000920E-02 0. -1.
       -2    1    3    3    0  502 -0.14062814433E+04  0.21424420861E+03  0.46828696033E+03  0.14976050067E+04  0.25500000920E-02 0.  1.
</event>
<event>
 5   0  0.5317728E-07  0.3210693E+04  0.7818609E-02  0.8185999E-01
        1   -1    0    0  501    0  0.00000000000E+00  0.00000000000E+00  0.29000579971E+04  0.29000579971E+04  0.50400001928E-02 0. -1.
       -1   -1    0    0    0  501  0.00000000000E+00  0.00000000000E+00 -0.88865022690E+03  0.88865022692E+03  0.50400001928E-02 0.  1.
    10030    2    1    2    0    0  0.00000000000E+00  0.00000000000E+00  0.20114077702E+04  0.37887082240E+04  0.32106928830E+04 0.  0.
        2    1    3    3  502    0 -0.14931646068E+04  0.42194841423E+03  0.14916064815E+04  0.21523175656E+04  0.25500000920E-02 0.  1.
       -2    1    3    3    0  502  0.14931646068E+04 -0.42194841423E+03  0.51980128866E+03  0.16363906584E+04  0.25500000920E-02 0. -1.
</event>
<event>
 5   0  0.1508771E-06  0.3187115E+04  0.7818609E-02  0.8192228E-01
        2   -1    0    0  501    0  0.00000000000E+00  0.00000000000E+00  0.17546736837E+04  0.17546736837E+04  0.25500000920E-02 0.  1.
       -2   -1    0    0    0  501  0.00000000000E+00  0.00000000000E+00 -0.14472347674E+04  0.14472347674E+04  0.25500000920E-02 0. -1.
    10030    2    1    2    0    0  0.00000000000E+00  0.00000000000E+00  0.30743891633E+03  0.32019084511E+04  0.31871145323E+04 0.  0.
        4    1    3    3  502    0 -0.26001618697E+03  0.14292273231E+04  0.81183574154E+03  0.16641448383E+04  0.12699999809E+01 0.  1.
       -4    1    3    3    0  502  0.26001618697E+03 -0.14292273231E+04 -0.50439682521E+03  0.15377636128E+04  0.12699999809E+01 0. -1.
</event>
<event>
 5   0  0.1508771E-06  0.3229305E+04  0.7818609E-02  0.8181120E-01
       -2   -1    0    0    0  501  0.00000000000E+00  0.00000000000E+00  0.12128529825E+04  0.12128529825E+04  0.25500000920E-02 0. -1.
        2   -1    0    0  501    0  0.00000000000E+00  0.00000000000E+00 -0.21495622936E+04  0.21495622936E+04  0.25500000920E-02 0.  1.
    10030    2    1    2    0    0  0.00000000000E+00  0.00000000000E+00 -0.93670931113E+03  0.33624152761E+04  0.32293052125E+04 0.  0.
        4    1    3    3  502    0  0.53554852960E+03 -0.12997493665E+04 -0.12954137787E+04  0.19116116536E+04  0.12699999809E+01 0.  1.
       -4    1    3    3    0  502 -0.53554852960E+03  0.12997493665E+04  0.35870446754E+03  0.14508036225E+04  0.12699999809E+01 0. -1.
</event>
<event>
 5   0  0.1508771E-06  0.3208020E+04  0.7818609E-02  0.8186702E-01
       -2   -1    0    0    0  501  0.00000000000E+00  0.00000000000E+00  0.95693666924E+03  0.95693666924E+03  0.25500000920E-02 0. -1.
        2   -1    0    0  501    0  0.00000000000E+00  0.00000000000E+00 -0.26886288608E+04  0.26886288608E+04  0.25500000920E-02 0.  1.
    10030    2    1    2    0    0  0.00000000000E+00  0.00000000000E+00 -0.17316921915E+04  0.36455655300E+04  0.32080196676E+04 0.  0.
        4    1    3    3  502    0  0.59837354514E+03  0.89190315939E+03 -0.22196805676E+04  0.24658721744E+04  0.12699999809E+01 0.  1.
       -4    1    3    3    0  502 -0.59837354514E+03 -0.89190315939E+03  0.48798837608E+03  0.11796933556E+04  0.12699999809E+01 0. -1.
</event>
<event>
 5   0  0.5177039E-07  0.3200276E+04  0.7818609E-02  0.8188744E-01
       -1   -1    0    0    0  501  0.00000000000E+00  0.00000000000E+00  0.13794604917E+04  0.13794604917E+04  0.50400001928E-02 0.  1.
        1   -1    0    0  501    0  0.00000000000E+00  0.00000000000E+00 -0.18561183305E+04  0.18561183305E+04  0.50400001928E-02 0. -1.
    10030    2    1    2    0    0  0.00000000000E+00  0.00000000000E+00 -0.47665783880E+03  0.32355788223E+04  0.32002761787E+04 0.  0.
        3    1    3    3  502    0  0.15011208139E+04 -0.24877637929E+03 -0.73895628155E+03  0.16915406531E+04  0.10100000352E+00 0. -1.
       -3    1    3    3    0  502 -0.15011208139E+04  0.24877637929E+03  0.26229844275E+03  0.15440381692E+04  0.10100000352E+00 0.  1.
</event>
<event>
 5   0  0.5281187E-07  0.3181749E+04  0.7818609E-02  0.8193654E-01
        1   -1    0    0  501    0  0.00000000000E+00  0.00000000000E+00  0.20478820189E+04  0.20478820189E+04  0.50400001928E-02 0.  1.
       -1   -1    0    0    0  501  0.00000000000E+00  0.00000000000E+00 -0.12358530126E+04  0.12358530126E+04  0.50400001928E-02 0. -1.
    10030    2    1    2    0    0  0.00000000000E+00  0.00000000000E+00  0.81202900631E+03  0.32837350316E+04  0.31817486781E+04 0.  0.
        5    1    3    3  502    0 -0.17254557804E+03 -0.82790058056E+03 -0.98464375981E+03  0.12979741028E+04  0.46999998093E+01 0. -1.
       -5    1    3    3    0  502  0.17254557804E+03  0.82790058056E+03  0.17966727661E+04  0.19857609288E+04  0.46999998093E+01 0.  1.
</event>
<event>
 5   0  0.1493485E-06  0.3247834E+04  0.7818609E-02  0.8176297E-01
       -2   -1    0    0    0  501  0.00000000000E+00  0.00000000000E+00  0.19524248629E+04  0.19524248629E+04  0.25500000920E-02 0. -1.
        2   -1    0    0  501    0  0.00000000000E+00  0.00000000000E+00 -0.13506823400E+04  0.13506823400E+04  0.25500000920E-02 0.  1.
    10030    2    1    2    0    0  0.00000000000E+00  0.00000000000E+00  0.60174252285E+03  0.33031072029E+04  0.32478336056E+04 0.  0.
        2    1    3    3  502    0  0.15733199182E+04 -0.20173981604E+03 -0.53003375132E+02  0.15870866001E+04  0.25500000920E-02 0.  1.
       -2    1    3    3    0  502 -0.15733199182E+04  0.20173981604E+03  0.65474589798E+03  0.17160206028E+04  0.25500000920E-02 0. -1.
</event>
<event>
 5   0  0.5317728E-07  0.3190045E+04  0.7818609E-02  0.8191451E-01
        1   -1    0    0  501    0  0.00000000000E+00  0.00000000000E+00  0.21591630865E+04  0.21591630866E+04  0.50400001928E-02 0.  1.
       -1   -1    0    0    0  501  0.00000000000E+00  0.00000000000E+00 -0.11782790840E+04  0.11782790840E+04  0.50400001928E-02 0. -1.
    10030    2    1    2    0    0  0.00000000000E+00  0.00000000000E+00  0.98088400255E+03  0.33374421706E+04  0.31900449551E+04 0.  0.
        2    1    3    3  502    0 -0.96215724222E+02  0.66717741296E+03  0.20028199066E+04  0.21132133693E+04  0.25500000920E-02 0.  1.
       -2    1    3    3    0  502  0.96215724222E+02 -0.66717741296E+03 -0.10219359040E+04  0.12242288013E+04  0.25500000920E-02 0. -1.
</event>
<event>
 5   0  0.5317728E-07  0.3202803E+04  0.7818609E-02  0.8188077E-01
       -1   -1    0    0    0  501  0.00000000000E+00  0.00000000000E+00  0.10885431722E+04  0.10885431722E+04  0.50400001928E-02 0. -1.
        1   -1    0    0  501    0  0.00000000000E+00  0.00000000000E+00 -0.23558892374E+04  0.23558892374E+04  0.50400001928E-02 0.  1.
    10030    2    1    2    0    0  0.00000000000E+00  0.00000000000E+00 -0.12673460652E+04  0.34444324097E+04  0.32028032371E+04 0.  0.
        2    1    3    3  502    0 -0.88767692631E+03  0.80653982544E+03  0.50751864356E+03  0.13023256079E+04  0.25500000920E-02 0. -1.
       -2    1    3    3    0  502  0.88767692631E+03 -0.80653982544E+03 -0.17748647088E+04  0.21421068017E+04  0.25500000920E-02 0.  1.
</event>
<event>
 5   0  0.5370912E-07  0.3208331E+04  0.7818609E-02  0.8186620E-01
       -1   -1    0    0    0  501  0.00000000000E+00  0.00000000000E+00  0.12545370965E+04  0.12545370965E+04  0.50400001928E-02 0. -1.
        1   -1    0    0  501    0  0.00000000000E+00  0.00000000000E+00 -0.20512324525E+04  0.20512324525E+04  0.50400001928E-02 0.  1.
    10030    2    1    2    0    0  0.00000000000E+00  0.00000000000E+00 -0.79669535607E+03  0.33057695490E+04  0.32083311582E+04 0.  0.
        1    1    3    3  502    0  0.32347910463E+03  0.10393399361E+03  0.12170372939E+04  0.12635746044E+04  0.50400001928E-02 0. -1.
       -1    1    3    3    0  502 -0.32347910463E+03 -0.10393399361E+03 -0.20137326500E+04  0.20421949446E+04  0.50400001928E-02 0.  1.
</event>
<event>
 5   0  0.1493485E-06  0.3203615E+04  0.7818609E-02  0.8187863E-01
        2   -1    0    0  501    0  0.00000000000E+00  0.00000000000E+00  0.20228675209E+04  0.20228675209E+04  0.25500000920E-02 0.  1.
       -2   -1    0    0    0  501  0.00000000000E+00  0.00000000000E+00 -0.12683911764E+04  0.12683911764E+04  0.25500000920E-02 0. -1.
    10030    2    1    2    0    0  0.00000000000E+00  0.00000000000E+00  0.75447634448E+03  0.32912586974E+04  0.32036150297E+04 0.  0.
        2    1    3    3  502    0  0.13606040056E+04 -0.74743392712E+03 -0.28388085587E+02  0.15526450395E+04  0.25500000920E-02 0. -1.
       -2    1    3    3    0  502 -0.13606040056E+04  0.74743392712E+03  0.78286443007E+03  0.17386136578E+04  0.25500000920E-02 0.  1.
</event>
<event>
 5   0  0.1508771E-06  0.3197613E+04  0.7818609E-02  0.8189448E-01
       -2   -1    0    0    0  501  0.00000000000E+00  0.00000000000E+00  0.84797895696E+03  0.84797895696E+03  0.25500000920E-02 0.  1.
        2   -1    0    0  501    0  0.00000000000E+00  0.00000000000E+00 -0.30144408879E+04  0.30144408879E+04  0.25500000920E-02 0. -1.
    10030    2    1    2    0    0  0.00000000000E+00  0.00000000000E+00 -0.21664619309E+04  0.38624198449E+04  0.31976131348E+04 0.  0.
        4    1    3    3  502    0 -0.33216457447E+03 -0.16475008928E+03  0.79532875274E+03  0.87751087417E+03  0.12699999809E+01 0.  1.
       -4    1    3    3    0  502  0.33216457447E+03  0.16475008928E+03 -0.29617906837E+04  0.29849089707E+04  0.12699999809E+01 0. -1.
</event>
<event>
 5   0  0.5370912E-07  0.3184842E+04  0.7818609E-02  0.8192832E-01
       -1   -1    0    0    0  501  0.00000000000E+00  0.00000000000E+00  0.11125444249E+04  0.11125444249E+04  0.50400001928E-02 0. -1.
        1   -1    0    0  501    0  0.00000000000E+00  0.00000000000E+00 -0.22792832354E+04  0.22792832354E+04  0.50400001928E-02 0.  1.
    10030    2    1    2    0    0  0.00000000000E+00  0.00000000000E+00 -0.11667388105E+04  0.33918276604E+04  0.31848415071E+04 0.  0.
        1    1    3    3  502    0  0.72328499351E+02 -0.21878152086E+03  0.10946952699E+04  0.11186842716E+04  0.50400001928E-02 0. -1.
       -1    1    3    3    0  502 -0.72328499351E+02  0.21878152086E+03 -0.22614340804E+04  0.22731433887E+04  0.50400001928E-02 0.  1.
</event>
<event>
 5   0  0.1538349E-06  0.3205394E+04  0.7818609E-02  0.8187394E-01
        2   -1    0    0  501    0  0.00000000000E+00  0.00000000000E+00  0.17328553369E+04  0.17328553369E+04  0.25500000920E-02 0. -1.
       -2   -1    0    0    0  501  0.00000000000E+00  0.00000000000E+00 -0.14823152304E+04  0.14823152304E+04  0.25500000920E-02 0.  1.
    10030    2    1    2    0    0  0.00000000000E+00  0.00000000000E+00  0.25054010644E+03  0.32151705673E+04  0.32053941149E+04 0.  0.
        1    1    3    3  502    0  0.15393956508E+03 -0.42537323318E+03 -0.14169492764E+04  0.14874088305E+04  0.50400001928E-02 0.  1.
       -1    1    3    3    0  502 -0.15393956508E+03  0.42537323318E+03  0.16674893828E+04  0.17277617368E+04  0.50400001928E-02 0. -1.
</event>
<event>
 5   0  0.5317728E-07  0.3196546E+04  0.7818609E-02  0.8189730E-01
        1   -1    0    0  501    0  0.00000000000E+00  0.00000000000E+00  0.17730863007E+04  0.17730863007E+04  0.50400001928E-02 0.  1.
       -1   -1    0    0    0  501  0.00000000000E+00  0.00000000000E+00 -0.14406952938E+04  0.14406952938E+04  0.50400001928E-02 0. -1.
    10030    2    1    2    0    0  0.00000000000E+00  0.00000000000E+00  0.33239100690E+03  0.32137815945E+04  0.31965463169E+04 0.  0.
        2    1    3    3  502    0 -0.91864007711E+03  0.85001418228E+02  0.14783579150E+04  0.17426034997E+04  0.25500000920E-02 0.  1.
       -2    1    3    3    0  502  0.91864007711E+03 -0.85001418228E+02 -0.11459669081E+04  0.14711780948E+04  0.25500000920E-02 0. -1.
</event>
<event>
 5   0  0.5370912E-07  0.3085337E+04  0.7818609E-02  0.8219774E-01
       -1   -1    0    0    0  501  0.00000000000E+00  0.00000000000E+00  0.12300548760E+04  0.12300548760E+04  0.50400001928E-02 0.  1.
        1   -1    0    0  501    0  0.00000000000E+00  0.00000000000E+00 -0.19347314167E+04  0.19347314167E+04  0.50400001928E-02 0. -1.
    10030    2    1    2    0    0  0.00000000000E+00  0.00000000000E+00 -0.70467654071E+03  0.31647862927E+04  0.30853368133E+04 0.  0.
        1    1    3    3  502    0  0.13373533418E+04 -0.53754146310E+03  0.21169498947E+03  0.14568045696E+04  0.50400001928E-02 0.  1.
       -1    1    3    3    0  502 -0.13373533418E+04  0.53754146310E+03 -0.91637153018E+03  0.17079817232E+04  0.50400001928E-02 0. -1.
</event>
<event>
 5   0  0.5177039E-07  0.3225417E+04  0.7818609E-02  0.8182137E-01
        1   -1    0    0  501    0  0.00000000000E+00  0.00000000000E+00  0.19603972386E+04  0.19603972386E+04  0.50400001928E-02 0.  1.
       -1   -1    0    0    0  501  0.00000000000E+00  0.00000000000E+00 -0.13266847749E+04  0.13266847749E+04  0.50400001928E-02 0. -1.
    10030    2    1    2    0    0  0.00000000000E+00  0.00000000000E+00  0.63371246368E+03  0.32870820135E+04  0.32254172872E+04 0.  0.
        3    1    3    3  502    0 -0.16379383895E+03  0.88246987588E+03  0.16823408578E+04  0.19067910939E+04  0.10100000352E+00 0.  1.
       -3    1    3    3    0  502  0.16379383895E+03 -0.88246987588E+03 -0.10486283942E+04  0.13802909196E+04  0.10100000352E+00 0. -1.
</event>
<event>
 5   0  0.5370912E-07  0.3211649E+04  0.7818609E-02  0.8185747E-01
        1   -1    0    0  501    0  0.00000000000E+00  0.00000000000E+00  0.11626633036E+04  0.11626633036E+04  0.50400001928E-02 0.  1.
       -1   -1    0    0    0  501  0.00000000000E+00  0.00000000000E+00 -0.22179013882E+04  0.22179013882E+04  0.50400001928E-02 0. -1.
    10030    2    1    2    0    0  0.00000000000E+00  0.00000000000E+00 -0.10552380846E+04  0.33805646918E+04  0.32116491434E+04 0.  0.
        1    1    3    3  502    0  0.98022801814E+03  0.85403009725E+03  0.46453624643E+03  0.13805825940E+04  0.50400001928E-02 0.  1.
       -1    1    3    3    0  502 -0.98022801814E+03 -0.85403009725E+03 -0.15197743310E+04  0.19999820978E+04  0.50400001928E-02 0. -1.
</event>
<event>
 5   0  0.5370912E-07  0.3207307E+04  0.7818609E-02  0.8186890E-01
        1   -1    0    0  501    0  0.00000000000E+00  0.00000000000E+00  0.18986907505E+04  0.18986907505E+04  0.50400001928E-02 0.  1.
       -1   -1    0    0    0  501  0.00000000000E+00  0.00000000000E+00 -0.13544617745E+04  0.13544617745E+04  0.50400001928E-02 0. -1.
    10030    2    1    2    0    0  0.00000000000E+00  0.00000000000E+00  0.54422897598E+03  0.32531525250E+04  0.32073066851E+04 0.  0.
        1    1    3    3  502    0 -0.28398481859E+03  0.82063132962E+03 -0.10953485257E+04  0.13978095539E+04  0.50400001928E-02 0. -1.
       -1    1    3    3    0  502  0.28398481859E+03 -0.82063132962E+03  0.16395775016E+04  0.18553429710E+04  0.50400001928E-02 0.  1.
</event>
<event>
 5   0  0.5317728E-07  0.3179419E+04  0.7818609E-02  0.8194274E-01
       -1   -1    0    0    0  501  0.00000000000E+00  0.00000000000E+00  0.11980929640E+04  0.11980929640E+04  0.50400001928E-02 0. -1.
        1   -1    0    0  501    0  0.00000000000E+00  0.00000000000E+00 -0.21093327436E+04  0.21093327436E+04  0.50400001928E-02 0.  1.
    10030    2    1    2    0    0  0.00000000000E+00  0.00000000000E+00 -0.91123977965E+03  0.33074257076E+04  0.31794192670E+04 0.  0.
        2    1    3    3  502    0  0.49734083048E+03  0.95550380229E+03 -0.16718096502E+04  0.19887893112E+04  0.25500000920E-02 0.  1.
       -2    1    3    3    0  502 -0.49734083048E+03 -0.95550380229E+03  0.76056987054E+03  0.13186363964E+04  0.25500000920E-02 0. -1.
</event>
<event>
 5   0  0.5370912E-07  0.3255587E+04  0.7818609E-02  0.8174289E-01
       -1   -1    0    0    0  501  0.00000000000E+00  0.00000000000E+00  0.12291951330E+04  0.12291951330E+04  0.50400001928E-02 0. -1.
        1   -1    0    0  501    0  0.00000000000E+00  0.00000000000E+00 -0.21556475551E+04  0.21556475551E+04  0.50400001928E-02 0.  1.
    10030    2    1    2    0    0  0.00000000000E+00  0.00000000000E+00 -0.92645242215E+03  0.33848426881E+04  0.32555868800E+04 0.  0.
        1    1    3    3  502    0 -0.95453355712E+03 -0.43323847905E+03 -0.17580137779E+04  0.20468127259E+04  0.50400001928E-02 0.  1.
       -1    1    3    3    0  502  0.95453355712E+03  0.43323847905E+03  0.83156135580E+03  0.13380299622E+04  0.50400001928E-02 0. -1.
</event>
<event>
 5   0  0.1493485E-06  0.3195435E+04  0.7818609E-02  0.8190024E-01
       -2   -1    0    0    0  501  0.00000000000E+00  0.00000000000E+00  0.12884445288E+04  0.12884445288E+04  0.25500000920E-02 0. -1.
        2   -1    0    0  501    0  0.00000000000E+00  0.00000000000E+00 -0.19812276943E+04  0.19812276943E+04  0.25500000920E-02 0.  1.
    10030    2    1    2    0    0  0.00000000000E+00  0.00000000000E+00 -0.69278316554E+03  0.32696722231E+04  0.31954354839E+04 0.  0.
        2    1    3    3  502    0  0.43695902083E+03 -0.71610374215E+03  0.10449649091E+04  0.13400333640E+04  0.25500000920E-02 0. -1.
       -2    1    3    3    0  502 -0.43695902083E+03  0.71610374215E+03 -0.17377480747E+04  0.19296388591E+04  0.25500000920E-02 0.  1.
</event>
<event>
 5   0  0.5317728E-07  0.3215904E+04  0.7818609E-02  0.8184629E-01
        1   -1    0    0  501    0  0.00000000000E+00  0.00000000000E+00  0.22742386840E+04  0.22742386840E+04  0.50400001928E-02 0.  1.
       -1   -1    0    0    0  501  0.00000000000E+00  0.00000000000E+00 -0.11368685469E+04  0.11368685469E+04  0.50400001928E-02 0. -1.
    10030    2    1    2    0    0  0.00000000000E+00  0.00000000000E+00  0.11373701370E+04  0.34111072309E+04  0.32159044936E+04 0.  0.
        2    1    3    3  502    0  0.17683974965E+03 -0.15823874496E+04  0.80654692324E+03  0.17848642181E+04  0.25500000920E-02 0.  1.
       -2    1    3    3    0  502 -0.17683974965E+03  0.15823874496E+04  0.33082321379E+03  0.16262430128E+04  0.25500000920E-02 0. -1.
</event>
<event>
 5   0  0.5281187E-07  0.3215841E+04  0.7818609E-02  0.8184646E-01
       -1   -1    0    0    0  501  0.00000000000E+00  0.00000000000E+00  0.91160121137E+03  0.91160121139E+03  0.50400001928E-02 0. -1.
        1   -1    0    0  501    0  0.00000000000E+00  0.00000000000E+00 -0.28361184364E+04  0.28361184364E+04  0.50400001928E-02 0.  1.
    10030    2    1    2    0    0  0.00000000000E+00  0.00000000000E+00 -0.19245172250E+04  0.37477196478E+04  0.32158414154E+04 0.  0.
        5    1    3    3  502    0  0.20924363588E+03 -0.28939350466E+03  0.86479224792E+03  0.93563840331E+03  0.46999998093E+01 0. -1.
       -5    1    3    3    0  502 -0.20924363588E+03  0.28939350466E+03 -0.27893094729E+04  0.28120812444E+04  0.46999998093E+01 0.  1.
</event>
<event>
 5   0  0.1538349E-06  0.3214892E+04  0.7818609E-02  0.8184895E-01
       -2   -1    0    0    0  501  0.00000000000E+00  0.00000000000E+00  0.88356895086E+03  0.88356895086E+03  0.25500000920E-02 0.  1.
        2   -1    0    0  501    0  0.00000000000E+00  0.00000000000E+00 -0.29243696976E+04  0.29243696976E+04  0.25500000920E-02 0. -1.
    10030    2    1    2    0    0  0.00000000000E+00  0.00000000000E+00 -0.20408007467E+04  0.38079386485E+04  0.32148917653E+04 0.  0.
        1    1    3    3  502    0 -0.74862353304E+03  0.43701002906E+03 -0.26237997257E+04  0.27632842706E+04  0.50400001928E-02 0. -1.
       -1    1    3    3    0  502  0.74862353304E+03 -0.43701002906E+03  0.58299897892E+03  0.10446543779E+04  0.50400001928E-02 0.  1.
</event>
<event>
 5   0  0.1538349E-06  0.3197666E+04  0.7818609E-02  0.8189434E-01
        2   -1    0    0  501    0  0.00000000000E+00  0.00000000000E+00  0.92306310940E+03  0.92306310940E+03  0.25500000920E-02 0. -1.
       -2   -1    0    0    0  501  0.00000000000E+00  0.00000000000E+00 -0.27693314620E+04  0.27693314620E+04  0.25500000920E-02 0.  1.
    10030    2    1    2    0    0  0.00000000000E+00  0.00000000000E+00 -0.18462683526E+04  0.36923945715E+04  0.31976664681E+04 0.  0.
        1    1    3    3  502    0  0.62973361326E+03  0.10936922171E+04 -0.20566039811E+04  0.24129540038E+04  0.50400001928E-02 0.  1.
       -1    1    3    3    0  502 -0.62973361326E+03 -0.10936922171E+04  0.21033562847E+03  0.12794405676E+04  0.50400001928E-02 0. -1.
</event>
<event>
 5   0  0.1493485E-06  0.3220170E+04  0.7818609E-02  0.8183511E-01
       -2   -1    0    0    0  501  0.00000000000E+00  0.00000000000E+00  0.12773075340E+04  0.12773075340E+04  0.25500000920E-02 0.  1.
        2   -1    0    0  501    0  0.00000000000E+00  0.00000000000E+00 -0.20295611693E+04  0.20295611693E+04  0.25500000920E-02 0. -1.
    10030    2    1    2    0    0  0.00000000000E+00  0.00000000000E+00 -0.75225363526E+03  0.33068687033E+04  0.32201700404E+04 0.  0.
        2    1    3    3  502    0  0.44633530429E+02 -0.10390197363E+03 -0.20254780619E+04  0.20286323352E+04  0.25500000920E-02 0. -1.
       -2    1    3    3    0  502 -0.44633530429E+02  0.10390197363E+03  0.12732244266E+04  0.12782363681E+04  0.25500000920E-02 0.  1.
</event>
<event>
 5   0  0.1572769E-06  0.3201919E+04  0.7818609E-02  0.8188311E-01
       -2   -1    0    0    0  501  0.00000000000E+00  0.00000000000E+00  0.29123339404E+04  0.29123339404E+04  0.25500000920E-02 0. -1.
        2   -1    0    0  501    0  0.00000000000E+00  0.00000000000E+00 -0.88007444909E+03  0.88007444909E+03  0.25500000920E-02 0.  1.
    10030    2    1    2    0    0  0.00000000000E+00  0.00000000000E+00  0.20322594913E+04  0.37924083895E+04  0.32019186049E+04 0.  0.
        5    1    3    3  502    0  0.57245159142E+03 -0.16009923796E+03 -0.74452029834E+03  0.95271462419E+03  0.46999998093E+01 0.  1.
       -5    1    3    3    0  502 -0.57245159142E+03  0.16009923796E+03  0.27767797897E+04  0.28396937653E+04  0.46999998093E+01 0. -1.
</event>
<event>
 5   0  0.5233813E-07  0.3219196E+04  0.7818609E-02  0.8183766E-01
        1   -1    0    0  501    0  0.00000000000E+00  0.00000000000E+00  0.99806608100E+03  0.99806608101E+03  0.50400001928E-02 0.  1.
       -1   -1    0    0    0  501  0.00000000000E+00  0.00000000000E+00 -0.25958261590E+04  0.25958261590E+04  0.50400001928E-02 0. -1.
    10030    2    1    2    0    0  0.00000000000E+00  0.00000000000E+00 -0.15977600780E+04  0.35938922400E+04  0.32191961987E+04 0.  0.
        4    1    3    3  502    0 -0.11054545299E+04  0.92586913720E+03 -0.15973486550E+04  0.21519265126E+04  0.12699999809E+01 0.  1.
       -4    1    3    3    0  502  0.11054545299E+04 -0.92586913720E+03 -0.41142295084E+00  0.14419657274E+04  0.12699999809E+01 0. -1.
</event>
<event>
 5   0  0.1538349E-06  0.3189165E+04  0.7818609E-02  0.8191685E-01
        2   -1    0    0  501    0  0.00000000000E+00  0.00000000000E+00  0.20177045446E+04  0.20177045446E+04  0.25500000920E-02 0.  1.
       -2   -1    0    0    0  501  0.00000000000E+00  0.00000000000E+00 -0.12601912025E+04  0.12601912025E+04  0.25500000920E-02 0. -1.
    10030    2    1    2    0    0  0.00000000000E+00  0.00000000000E+00  0.75751334211E+03  0.32778957470E+04  0.31891651047E+04 0.  0.
        1    1    3    3  502    0 -0.14638719233E+04 -0.54447170045E+03  0.70913898955E+03  0.17152983842E+04  0.50400001928E-02 0.  1.
       -1    1    3    3    0  502  0.14638719233E+04  0.54447170045E+03  0.48374352561E+02  0.15625973628E+04  0.50400001928E-02 0. -1.
</event>
<event>
 5   0  0.5370912E-07  0.3225014E+04  0.7818609E-02  0.8182242E-01
        1   -1    0    0  501    0  0.00000000000E+00  0.00000000000E+00  0.13751726928E+04  0.13751726928E+04  0.50400001928E-02 0.  1.
       -1   -1    0    0    0  501  0.00000000000E+00  0.00000000000E+00 -0.18908021911E+04  0.18908021911E+04  0.50400001928E-02 0. -1.
    10030    2    1    2    0    0  0.00000000000E+00  0.00000000000E+00 -0.51562949830E+03  0.32659748840E+04  0.32250144439E+04 0.  0.
        1    1    3    3  502    0 -0.51637657611E+03 -0.47046145864E+02 -0.18040737999E+04  0.18771095822E+04  0.50400001928E-02 0. -1.
       -1    1    3    3    0  502  0.51637657611E+03  0.47046145864E+02  0.12884443016E+04  0.13888653018E+04  0.50400001928E-02 0.  1.
</event>
<event>
 5   0  0.5317728E-07  0.3199065E+04  0.7818609E-02  0.8189064E-01
       -1   -1    0    0    0  501  0.00000000000E+00  0.00000000000E+00  0.14998171723E+04  0.14998171723E+04  0.50400001928E-02 0.  1.
        1   -1    0    0  501    0  0.00000000000E+00  0.00000000000E+00 -0.17058775469E+04  0.17058775469E+04  0.50400001928E-02 0. -1.
    10030    2    1    2    0    0  0.00000000000E+00  0.00000000000E+00 -0.20606037460E+03  0.32056947192E+04  0.31990651376E+04 0.  0.
        2    1    3    3  502    0 -0.11097395066E+04  0.98100210691E+03  0.50205685473E+03  0.15639526820E+04  0.25500000920E-02 0.  1.
       -2    1    3    3    0  502  0.11097395066E+04 -0.98100210691E+03 -0.70811722932E+03  0.16417420372E+04  0.25500000920E-02 0. -1.
</event>
<event>
 5   0  0.5370912E-07  0.3225975E+04  0.7818609E-02  0.8181991E-01
        1   -1    0    0  501    0  0.00000000000E+00  0.00000000000E+00  0.11011036002E+04  0.11011036002E+04  0.50400001928E-02 0.  1.
       -1   -1    0    0    0  501  0.00000000000E+00  0.00000000000E+00 -0.23628372977E+04  0.23628372977E+04  0.50400001928E-02 0. -1.
    10030    2    1    2    0    0  0.00000000000E+00  0.00000000000E+00 -0.12617336975E+04  0.34639408979E+04  0.32259749876E+04 0.  0.
        1    1    3    3  502    0 -0.13343151713E+04  0.65881221412E+02  0.33968380200E+03  0.13784492725E+04  0.50400001928E-02 0.  1.
       -1    1    3    3    0  502  0.13343151713E+04 -0.65881221412E+02 -0.16014174995E+04  0.20854916253E+04  0.50400001928E-02 0. -1.
</event>
<event>
 5   0  0.5281187E-07  0.3195823E+04  0.7818609E-02  0.8189921E-01
        1   -1    0    0  501    0  0.00000000000E+00  0.00000000000E+00  0.21777901213E+04  0.21777901213E+04  0.50400001928E-02 0.  1.
       -1   -1    0    0    0  501  0.00000000000E+00  0.00000000000E+00 -0.11724370064E+04  0.11724370064E+04  0.50400001928E-02 0. -1.
    10030    2    1    2    0    0  0.00000000000E+00  0.00000000000E+00  0.10053531149E+04  0.33502271277E+04  0.31958233558E+04 0.  0.
        5    1    3    3  502    0 -0.10990801190E+04  0.10860509813E+03 -0.70790057787E+03  0.13118374493E+04  0.46999998093E+01 0. -1.
       -5    1    3    3    0  502  0.10990801190E+04 -0.10860509813E+03  0.17132536928E+04  0.20383896784E+04  0.46999998093E+01 0.  1.
</event>
<event>
 5   0  0.5317728E-07  0.3218917E+04  0.7818609E-02  0.8183839E-01
       -1   -1    0    0    0  501  0.00000000000E+00  0.00000000000E+00  0.94745093940E+03  0.94745093941E+03  0.50400001928E-02 0.  1.
        1   -1    0    0  501    0  0.00000000000E+00  0.00000000000E+00 -0.27340268113E+04  0.27340268113E+04  0.50400001928E-02 0. -1.
    10030    2    1    2    0    0  0.00000000000E+00  0.00000000000E+00 -0.17865758719E+04  0.36814777507E+04  0.32189167561E+04 0.  0.
        2    1    3    3  502    0 -0.10824712170E+04  0.10581749943E+04 -0.15185461714E+04  0.21441690066E+04  0.25500000920E-02 0. -1.
       -2    1    3    3    0  502  0.10824712170E+04 -0.10581749943E+04 -0.26802970049E+03  0.15373087441E+04  0.25500000920E-02 0.  1.
</event>
<event>
 5   0  0.1538349E-06  0.3186103E+04  0.7818609E-02  0.8192497E-01
       -2   -1    0    0    0  501  0.00000000000E+00  0.00000000000E+00  0.13504288990E+04  0.13504288990E+04  0.25500000920E-02 0. -1.
        2   -1    0    0  501    0  0.00000000000E+00  0.00000000000E+00 -0.18792647471E+04  0.18792647471E+04  0.25500000920E-02 0.  1.
    10030    2    1    2    0    0  0.00000000000E+00  0.00000000000E+00 -0.52883584815E+03  0.32296936461E+04  0.31861032145E+04 0.  0.
        1    1    3    3  502    0 -0.65288217407E+03 -0.41327964887E+02 -0.17368230077E+04  0.18559410805E+04  0.50400001928E-02 0.  1.
       -1    1    3    3    0  502  0.65288217407E+03  0.41327964887E+02  0.12079871596E+04  0.13737525656E+04  0.50400001928E-02 0. -1.
</event>
<event>
 5   0  0.1556396E-06  0.3249904E+04  0.7818609E-02  0.8175761E-01
        2   -1    0    0  501    0  0.00000000000E+00  0.00000000000E+00  0.13618753676E+04  0.13618753676E+04  0.25500000920E-02 0. -1.
       -2   -1    0    0    0  501  0.00000000000E+00  0.00000000000E+00 -0.19388475773E+04  0.19388475773E+04  0.25500000920E-02 0.  1.
    10030    2    1    2    0    0  0.00000000000E+00  0.00000000000E+00 -0.57697220974E+03  0.33007229449E+04  0.32499038491E+04 0.  0.
        3    1    3    3  502    0 -0.11684582579E+04 -0.11064858698E+04 -0.51754113287E+03  0.16904006966E+04  0.10100000352E+00 0. -1.
       -3    1    3    3    0  502  0.11684582579E+04  0.11064858698E+04 -0.59431076870E+02  0.16103222484E+04  0.10100000352E+00 0.  1.
</event>
<event>
 5   0  0.5370912E-07  0.3202950E+04  0.7818609E-02  0.8188039E-01
        1   -1    0    0  501    0  0.00000000000E+00  0.00000000000E+00  0.11102689105E+04  0.11102689105E+04  0.50400001928E-02 0.  1.
       -1   -1    0    0    0  501  0.00000000000E+00  0.00000000000E+00 -0.23100006337E+04  0.23100006337E+04  0.50400001928E-02 0. -1.
    10030    2    1    2    0    0  0.00000000000E+00  0.00000000000E+00 -0.11997317232E+04  0.34202695443E+04  0.32029498198E+04 0.  0.
        1    1    3    3  502    0 -0.37837365406E+03  0.13419325550E+04 -0.14412151996E+04  0.20052558081E+04  0.50400001928E-02 0. -1.
       -1    1    3    3    0  502  0.37837365406E+03 -0.13419325550E+04  0.24148347643E+03  0.14150137362E+04  0.50400001928E-02 0.  1.
</event>
<event>
 5   0  0.5317728E-07  0.3371771E+04  0.7818609E-02  0.8144869E-01
       -1   -1    0    0    0  501  0.00000000000E+00  0.00000000000E+00  0.15884540214E+04  0.15884540215E+04  0.50400001928E-02 0. -1.
        1   -1    0    0  501    0  0.00000000000E+00  0.00000000000E+00 -0.17892936293E+04  0.17892936293E+04  0.50400001928E-02 0.  1.
    10030    2    1    2    0    0  0.00000000000E+00  0.00000000000E+00 -0.20083960784E+03  0.33777476508E+04  0.33717714401E+04 0.  0.
        2    1    3    3  502    0  0.74259488063E+03  0.14816664297E+04 -0.40988171314E+03  0.17072743144E+04  0.25500000920E-02 0.  1.
       -2    1    3    3    0  502 -0.74259488063E+03 -0.14816664297E+04  0.20904210531E+03  0.16704733364E+04  0.25500000920E-02 0. -1.
</event>
<event>
 5   0  0.5370912E-07  0.3158064E+04  0.7818609E-02  0.8199981E-01
       -1   -1    0    0    0  501  0.00000000000E+00  0.00000000000E+00  0.15462956132E+04  0.15462956132E+04  0.50400001928E-02 0. -1.
        1   -1    0    0  501    0  0.00000000000E+00  0.00000000000E+00 -0.16124615408E+04  0.16124615408E+04  0.50400001928E-02 0.  1.
    10030    2    1    2    0    0  0.00000000000E+00  0.00000000000E+00 -0.66165927652E+02  0.31587571540E+04  0.31580640950E+04 0.  0.
        1    1    3    3  502    0 -0.37625837057E+03 -0.15086241946E+04  0.24234065421E+03  0.15736093272E+04  0.50400001928E-02 0. -1.
       -1    1    3    3    0  502  0.37625837057E+03  0.15086241946E+04 -0.30850658186E+03  0.15851478269E+04  0.50400001928E-02 0.  1.
</event>
<event>
 5   0  0.5233813E-07  0.3200357E+04  0.7818609E-02  0.8188723E-01
        1   -1    0    0  501    0  0.00000000000E+00  0.00000000000E+00  0.17709816525E+04  0.17709816525E+04  0.50400001928E-02 0.  1.
       -1   -1    0    0    0  501  0.00000000000E+00  0.00000000000E+00 -0.14458488519E+04  0.14458488519E+04  0.50400001928E-02 0. -1.
    10030    2    1    2    0    0  0.00000000000E+00  0.00000000000E+00  0.32513280055E+03  0.32168305045E+04  0.32003573482E+04 0.  0.
        4    1    3    3  502    0 -0.15831699383E+04  0.15438953558E+03  0.33755152639E+03  0.16261014200E+04  0.12699999809E+01 0.  1.
       -4    1    3    3    0  502  0.15831699383E+04 -0.15438953558E+03 -0.12418725838E+02  0.15907290844E+04  0.12699999809E+01 0. -1.
</event>
<event>
 5   0  0.5177039E-07  0.3148199E+04  0.7818609E-02  0.8202633E-01
        1   -1    0    0  501    0  0.00000000000E+00  0.00000000000E+00  0.27414146777E+04  0.27414146777E+04  0.50400001928E-02 0.  1.
       -1   -1    0    0    0  501  0.00000000000E+00  0.00000000000E+00 -0.90383601363E+03  0.90383601365E+03  0.50400001928E-02 0. -1.
    10030    2    1    2    0    0  0.00000000000E+00  0.00000000000E+00  0.18375786640E+04  0.36452506913E+04  0.31481990496E+04 0.  0.
        3    1    3    3  502    0 -0.12526115043E+04 -0.57125422382E+03  0.35131302593E+02  0.13771714445E+04  0.10100000352E+00 0. -1.
       -3    1    3    3    0  502  0.12526115043E+04  0.57125422382E+03  0.18024473614E+04  0.22680792468E+04  0.10100000352E+00 0.  1.
</event>
<event>
 5   0  0.1538349E-06  0.3259127E+04  0.7818609E-02  0.8173374E-01
        2   -1    0    0  501    0  0.00000000000E+00  0.00000000000E+00  0.17916279915E+04  0.17916279915E+04  0.25500000920E-02 0. -1.
       -2   -1    0    0    0  501  0.00000000000E+00  0.00000000000E+00 -0.14821588385E+04  0.14821588385E+04  0.25500000920E-02 0.  1.
    10030    2    1    2    0    0  0.00000000000E+00  0.00000000000E+00  0.30946915299E+03  0.32737868299E+04  0.32591270382E+04 0.  0.
        1    1    3    3  502    0 -0.12167943836E+04 -0.10738127429E+04  0.63715920192E+01  0.16228687489E+04  0.50400001928E-02 0. -1.
       -1    1    3    3    0  502  0.12167943836E+04  0.10738127429E+04  0.30309756097E+03  0.16509180811E+04  0.50400001928E-02 0.  1.
</event>
<event>
 5   0  0.5281187E-07  0.3086806E+04  0.7818609E-02  0.8219368E-01
        1   -1    0    0  501    0  0.00000000000E+00  0.00000000000E+00  0.13867689594E+04  0.13867689594E+04  0.50400001928E-02 0.  1.
       -1   -1    0    0    0  501  0.00000000000E+00  0.00000000000E+00 -0.17177292173E+04  0.17177292173E+04  0.50400001928E-02 0. -1.
    10030    2    1    2    0    0  0.00000000000E+00  0.00000000000E+00 -0.33096025790E+03  0.31044981766E+04  0.30868064786E+04 0.  0.
        5    1    3    3  502    0  0.49959019066E+03  0.53813581968E+03 -0.15307918691E+04  0.16978004464E+04  0.46999998093E+01 0. -1.
       -5    1    3    3    0  502 -0.49959019066E+03 -0.53813581968E+03  0.11998316112E+04  0.14066977303E+04  0.46999998093E+01 0.  1.
</event>
<event>
 5   0  0.1493485E-06  0.3244210E+04  0.7818609E-02  0.8177238E-01
       -2   -1    0    0    0  501  0.00000000000E+00  0.00000000000E+00  0.12067624273E+04  0.12067624273E+04  0.25500000920E-02 0.  1.
        2   -1    0    0  501    0  0.00000000000E+00  0.00000000000E+00 -0.21803992715E+04  0.21803992715E+04  0.25500000920E-02 0. -1.
    10030    2    1    2    0    0  0.00000000000E+00  0.00000000000E+00 -0.97363684425E+03  0.33871616988E+04  0.32442095600E+04 0.  0.
        2    1    3    3  502    0 -0.54224480621E+03  0.14514744456E+04 -0.98798689562E+03  0.18376413149E+04  0.25500000920E-02 0. -1.
       -2    1    3    3    0  502  0.54224480621E+03 -0.14514744456E+04  0.14350051369E+02  0.15495203839E+04  0.25500000920E-02 0.  1.
</event>
<event>
 5   0  0.5233813E-07  0.3198547E+04  0.7818609E-02  0.8189201E-01
        1   -1    0    0  501    0  0.00000000000E+00  0.00000000000E+00  0.16991549117E+04  0.16991549117E+04  0.50400001928E-02 0.  1.
       -1   -1    0    0    0  501  0.00000000000E+00  0.00000000000E+00 -0.15052637080E+04  0.15052637080E+04  0.50400001928E-02 0. -1.
    10030    2    1    2    0    0  0.00000000000E+00  0.00000000000E+00  0.19389120369E+03  0.32044186198E+04  0.31985473096E+04 0.  0.
        4    1    3    3  502    0  0.65366030585E+03  0.14415071866E+04 -0.13251597404E+03  0.15883251747E+04  0.12699999809E+01 0.  1.
       -4    1    3    3    0  502 -0.65366030585E+03 -0.14415071866E+04  0.32640717773E+03  0.16160934450E+04  0.12699999809E+01 0. -1.
</event>
<event>
 5   0  0.1556396E-06  0.3169830E+04  0.7818609E-02  0.8196831E-01
       -2   -1    0    0    0  501  0.00000000000E+00  0.00000000000E+00  0.19759301031E+04  0.19759301031E+04  0.25500000920E-02 0. -1.
        2   -1    0    0  501    0  0.00000000000E+00  0.00000000000E+00 -0.12712773574E+04  0.12712773574E+04  0.25500000920E-02 0.  1.
    10030    2    1    2    0    0  0.00000000000E+00  0.00000000000E+00  0.70465274573E+03  0.32472074605E+04  0.31698297746E+04 0.  0.
        3    1    3    3  502    0  0.15371081837E+04  0.24093541757E+03  0.66169796604E+03  0.16907381974E+04  0.10100000352E+00 0.  1.
       -3    1    3    3    0  502 -0.15371081837E+04 -0.24093541757E+03  0.42954779689E+02  0.15564692631E+04  0.10100000352E+00 0. -1.
</event>
<event>
 5   0  0.5370912E-07  0.3196811E+04  0.7818609E-02  0.8189660E-01
       -1   -1    0    0    0  501  0.00000000000E+00  0.00000000000E+00  0.12588733967E+04  0.12588733967E+04  0.50400001928E-02 0.  1.
        1   -1    0    0  501    0  0.00000000000E+00  0.00000000000E+00 -0.20295131544E+04  0.20295131544E+04  0.50400001928E-02 0. -1.
    10030    2    1    2    0    0  0.00000000000E+00  0.00000000000E+00 -0.77063975766E+03  0.32883865511E+04  0.31968109849E+04 0.  0.
        1    1    3    3  502    0  0.34095298893E+03 -0.13088161511E+04 -0.12615737330E+04  0.18495450635E+04  0.50400001928E-02 0. -1.
       -1    1    3    3    0  502 -0.34095298893E+03  0.13088161511E+04  0.49093397534E+03  0.14388414876E+04  0.50400001928E-02 0.  1.
</event>
<event>
 5   0  0.1556396E-06  0.3186540E+04  0.7818609E-02  0.8192381E-01
        2   -1    0    0  501    0  0.00000000000E+00  0.00000000000E+00  0.14517836485E+04  0.14517836485E+04  0.25500000920E-02 0. -1.
       -2   -1    0    0    0  501  0.00000000000E+00  0.00000000000E+00 -0.17485452199E+04  0.17485452199E+04  0.25500000920E-02 0.  1.
    10030    2    1    2    0    0  0.00000000000E+00  0.00000000000E+00 -0.29676157144E+03  0.32003288684E+04  0.31865400414E+04 0.  0.
        3    1    3    3  502    0  0.49557000798E+03  0.14014038147E+04 -0.72443669990E+03  0.16535812127E+04  0.10100000352E+00 0.  1.
       -3    1    3    3    0  502 -0.49557000798E+03 -0.14014038147E+04  0.42767512845E+03  0.15467476557E+04  0.10100000352E+00 0. -1.
</event>
<event>
 5   0  0.5177039E-07  0.3213602E+04  0.7818609E-02  0.8185234E-01
       -1   -1    0    0    0  501  0.00000000000E+00  0.00000000000E+00  0.10688987114E+04  0.10688987114E+04  0.50400001928E-02 0.  1.
        1   -1    0    0  501    0  0.00000000000E+00  0.00000000000E+00 -0.24153914176E+04  0.24153914176E+04  0.50400001928E-02 0. -1.
    10030    2    1    2    0    0  0.00000000000E+00  0.00000000000E+00 -0.13464927062E+04  0.34842901289E+04  0.32136015769E+04 0.  0.
        3    1    3    3  502    0 -0.88910819466E+03  0.10244107994E+04 -0.16071208049E+04  0.21030378407E+04  0.10100000352E+00 0.  1.
       -3    1    3    3    0  502  0.88910819466E+03 -0.10244107994E+04  0.26062809873E+03  0.13812522882E+04  0.10100000352E+00 0. -1.
</event>
<event>
 5   0  0.5281187E-07  0.3192643E+04  0.7818609E-02  0.8190763E-01
       -1   -1    0    0    0  501  0.00000000000E+00  0.00000000000E+00  0.17082769806E+04  0.17082769806E+04  0.50400001928E-02 0.  1.
        1   -1    0    0  501    0  0.00000000000E+00  0.00000000000E+00 -0.14917030523E+04  0.14917030524E+04  0.50400001928E-02 0. -1.
    10030    2    1    2    0    0  0.00000000000E+00  0.00000000000E+00  0.21657392827E+03  0.31999800330E+04  0.31926427838E+04 0.  0.
        5    1    3    3  502    0  0.11334401633E+04  0.73280751775E+02 -0.10159696016E+04  0.15239005852E+04  0.46999998093E+01 0. -1.
       -5    1    3    3    0  502 -0.11334401633E+04 -0.73280751775E+02  0.12325435298E+04  0.16760794478E+04  0.46999998093E+01 0.  1.
</event>
<event>
 5   0  0.5177039E-07  0.3211319E+04  0.7818609E-02  0.8185834E-01
       -1   -1    0    0    0  501  0.00000000000E+00  0.00000000000E+00  0.14894887145E+04  0.14894887145E+04  0.50400001928E-02 0.  1.
        1   -1    0    0  501    0  0.00000000000E+00  0.00000000000E+00 -0.17308909394E+04  0.17308909394E+04  0.50400001928E-02 0. -1.
    10030    2    1    2    0    0  0.00000000000E+00  0.00000000000E+00 -0.24140222489E+03  0.32203796539E+04  0.32113190563E+04 0.  0.
        3    1    3    3  502    0  0.66163218351E+03 -0.77827113316E+03  0.11216159514E+04  0.15170647500E+04  0.10100000352E+00 0.  1.
       -3    1    3    3    0  502 -0.66163218351E+03  0.77827113316E+03 -0.13630181763E+04  0.17033149040E+04  0.10100000352E+00 0. -1.
</event>
<event>
 5   0  0.1572769E-06  0.3335379E+04  0.7818609E-02  0.8153951E-01
        2   -1    0    0  501    0  0.00000000000E+00  0.00000000000E+00  0.17780524450E+04  0.17780524450E+04  0.25500000920E-02 0. -1.
       -2   -1    0    0    0  501  0.00000000000E+00  0.00000000000E+00 -0.15641768669E+04  0.15641768669E+04  0.25500000920E-02 0.  1.
    10030    2    1    2    0    0  0.00000000000E+00  0.00000000000E+00  0.21387557818E+03  0.33422293119E+04  0.33353791404E+04 0.  0.
        5    1    3    3  502    0 -0.12472270005E+04  0.10807080251E+04  0.34755881526E+03  0.16865124507E+04  0.46999998093E+01 0. -1.
       -5    1    3    3    0  502  0.12472270005E+04 -0.10807080251E+04 -0.13368323708E+03  0.16557168612E+04  0.46999998093E+01 0.  1.
</event>
<event>
 5   0  0.1538349E-06  0.3201965E+04  0.7818609E-02  0.8188299E-01
       -2   -1    0    0    0  501  0.00000000000E+00  0.00000000000E+00  0.15858009495E+04  0.15858009495E+04  0.25500000920E-02 0.  1.
        2   -1    0    0  501    0  0.00000000000E+00  0.00000000000E+00 -0.16163089921E+04  0.16163089921E+04  0.25500000920E-02 0. -1.
    10030    2    1    2    0    0  0.00000000000E+00  0.00000000000E+00 -0.30508042639E+02  0.32021099416E+04  0.32019646059E+04 0.  0.
        1    1    3    3  502    0 -0.28991818972E+03 -0.14574772937E+03  0.15525701089E+04  0.15861175557E+04  0.50400001928E-02 0.  1.
       -1    1    3    3    0  502  0.28991818972E+03  0.14574772937E+03 -0.15830781516E+04  0.16159923859E+04  0.50400001928E-02 0. -1.
</event>
<event>
 5   0  0.1538349E-06  0.3197447E+04  0.7818609E-02  0.8189492E-01
       -2   -1    0    0    0  501  0.00000000000E+00  0.00000000000E+00  0.20816284478E+04  0.20816284479E+04  0.25500000920E-02 0. -1.
        2   -1    0    0  501    0  0.00000000000E+00  0.00000000000E+00 -0.12278449901E+04  0.12278449901E+04  0.25500000920E-02 0.  1.
    10030    2    1    2    0    0  0.00000000000E+00  0.00000000000E+00  0.85378345770E+03  0.33094734380E+04  0.31974471449E+04 0.  0.
        1    1    3    3  502    0 -0.33017240968E+03 -0.15401542624E+04  0.14376044900E+03  0.15816940409E+04  0.50400001928E-02 0.  1.
       -1    1    3    3    0  502  0.33017240968E+03  0.15401542624E+04  0.71002300871E+03  0.17277793971E+04  0.50400001928E-02 0. -1.
</event>
<event>
 5   0  0.5317728E-07  0.3193989E+04  0.7818609E-02  0.8190406E-01
        1   -1    0    0  501    0  0.00000000000E+00  0.00000000000E+00  0.98624785317E+03  0.98624785318E+03  0.50400001928E-02 0. -1.
       -1   -1    0    0    0  501  0.00000000000E+00  0.00000000000E+00 -0.25859543877E+04  0.25859543877E+04  0.50400001928E-02 0.  1.
    10030    2    1    2    0    0  0.00000000000E+00  0.00000000000E+00 -0.15997065345E+04  0.35722022408E+04  0.31939893320E+04 0.  0.
        2    1    3    3  502    0  0.10222515454E+04  0.12195996801E+04 -0.94978065846E+03  0.18532417276E+04  0.25500000920E-02 0.  1.
       -2    1    3    3    0  502 -0.10222515454E+04 -0.12195996801E+04 -0.64992587602E+03  0.17189605132E+04  0.25500000920E-02 0. -1.
</event>
<event>
 5   0  0.4995625E-07  0.3104996E+04  0.7818609E-02  0.8214368E-01
       -4   -1    0    0    0  501  0.00000000000E+00  0.00000000000E+00  0.13232811068E+04  0.13232817162E+04  0.12699999809E+01 0.  1.
        4   -1    0    0  501    0  0.00000000000E+00  0.00000000000E+00 -0.18214179869E+04  0.18214184296E+04  0.12699999809E+01 0. -1.
    10030    2    1    2    0    0  0.00000000000E+00  0.00000000000E+00 -0.49813688010E+03  0.31447001458E+04  0.31049957578E+04 0.  0.
        5    1    3    3  502    0 -0.15186284775E+03 -0.26278820067E+03 -0.17910707564E+04  0.18166112703E+04  0.46999998093E+01 0. -1.
       -5    1    3    3    0  502  0.15186284775E+03  0.26278820067E+03  0.12929338763E+04  0.13280888756E+04  0.46999998093E+01 0.  1.
</event>
<event>
 5   0  0.1493485E-06  0.3226140E+04  0.7818609E-02  0.8181947E-01
        2   -1    0    0  501    0  0.00000000000E+00  0.00000000000E+00  0.21212375491E+04  0.21212375491E+04  0.25500000920E-02 0.  1.
       -2   -1    0    0    0  501  0.00000000000E+00  0.00000000000E+00 -0.12266402927E+04  0.12266402927E+04  0.25500000920E-02 0. -1.
    10030    2    1    2    0    0  0.00000000000E+00  0.00000000000E+00  0.89459725641E+03  0.33478778418E+04  0.32261403863E+04 0.  0.
        2    1    3    3  502    0  0.67491316313E+03 -0.12200086820E+03  0.19623925265E+04  0.20787920573E+04  0.25500000920E-02 0.  1.
       -2    1    3    3    0  502 -0.67491316313E+03  0.12200086820E+03 -0.10677952700E+04  0.12690857845E+04  0.25500000920E-02 0. -1.
</event>
<event>
 5   0  0.5281187E-07  0.3225562E+04  0.7818609E-02  0.8182099E-01
        1   -1    0    0  501    0  0.00000000000E+00  0.00000000000E+00  0.11782428488E+04  0.11782428488E+04  0.50400001928E-02 0.  1.
       -1   -1    0    0    0  501  0.00000000000E+00  0.00000000000E+00 -0.22075779472E+04  0.22075779472E+04  0.50400001928E-02 0. -1.
    10030    2    1    2    0    0  0.00000000000E+00  0.00000000000E+00 -0.10293350984E+04  0.33858207960E+04  0.32255622328E+04 0.  0.
        5    1    3    3  502    0 -0.11211279461E+04  0.45596861497E+03 -0.16335565475E+04  0.20330677148E+04  0.46999998093E+01 0. -1.
       -5    1    3    3    0  502  0.11211279461E+04 -0.45596861497E+03  0.60422144902E+03  0.13527530812E+04  0.46999998093E+01 0.  1.
</event>
<event>
 5   0  0.5233813E-07  0.3226741E+04  0.7818609E-02  0.8181790E-01
       -1   -1    0    0    0  501  0.00000000000E+00  0.00000000000E+00  0.12864577598E+04  0.12864577598E+04  0.50400001928E-02 0. -1.
        1   -1    0    0  501    0  0.00000000000E+00  0.00000000000E+00 -0.20233577040E+04  0.20233577040E+04  0.50400001928E-02 0.  1.
    10030    2    1    2    0    0  0.00000000000E+00  0.00000000000E+00 -0.73689994428E+03  0.33098154638E+04  0.32267409063E+04 0.  0.
        4    1    3    3  502    0  0.15144034630E+03  0.14392626569E+04  0.36303789455E+03  0.14920486921E+04  0.12699999809E+01 0. -1.
       -4    1    3    3    0  502 -0.15144034630E+03 -0.14392626569E+04 -0.10999378388E+04  0.18177667717E+04  0.12699999809E+01 0.  1.
</event>
<event>
 5   0  0.5177039E-07  0.3263006E+04  0.7818609E-02  0.8172373E-01
        1   -1    0    0  501    0  0.00000000000E+00  0.00000000000E+00  0.19235753236E+04  0.19235753236E+04  0.50400001928E-02 0.  1.
       -1   -1    0    0    0  501  0.00000000000E+00  0.00000000000E+00 -0.13837784390E+04  0.13837784390E+04  0.50400001928E-02 0. -1.
    10030    2    1    2    0    0  0.00000000000E+00  0.00000000000E+00  0.53979688461E+03  0.33073537626E+04  0.32630060120E+04 0.  0.
        3    1    3    3  502    0  0.86120627429E+03 -0.22358636550E+03  0.16560133954E+04  0.18799062438E+04  0.10100000352E+00 0.  1.
       -3    1    3    3    0  502 -0.86120627429E+03  0.22358636550E+03 -0.11162165108E+04  0.14274475188E+04  0.10100000352E+00 0. -1.
</event>
<event>
 5   0  0.5281187E-07  0.3202018E+04  0.7818609E-02  0.8188284E-01
        1   -1    0    0  501    0  0.00000000000E+00  0.00000000000E+00  0.16346610798E+04  0.16346610798E+04  0.50400001928E-02 0.  1.
       -1   -1    0    0    0  501  0.00000000000E+00  0.00000000000E+00 -0.15680497147E+04  0.15680497148E+04  0.50400001928E-02 0. -1.
    10030    2    1    2    0    0  0.00000000000E+00  0.00000000000E+00  0.66611365092E+02  0.32027107946E+04  0.32020180137E+04 0.  0.
        5    1    3    3  502    0 -0.11703760284E+04  0.75326656325E+03  0.82468934638E+03  0.16178149372E+04  0.46999998093E+01 0.  1.
       -5    1    3    3    0  502  0.11703760284E+04 -0.75326656325E+03 -0.75807798129E+03  0.15848958574E+04  0.46999998093E+01 0. -1.
</event>
<event>
 5   0  0.1493485E-06  0.3223533E+04  0.7818609E-02  0.8182630E-01
       -2   -1    0    0    0  501  0.00000000000E+00  0.00000000000E+00  0.17856262244E+04  0.17856262244E+04  0.25500000920E-02 0. -1.
        2   -1    0    0  501    0  0.00000000000E+00  0.00000000000E+00 -0.14548345928E+04  0.14548345928E+04  0.25500000920E-02 0.  1.
    10030    2    1    2    0    0  0.00000000000E+00  0.00000000000E+00  0.33079163163E+03  0.32404608172E+04  0.32235327211E+04 0.  0.
        2    1    3    3  502    0  0.11114521431E+04  0.63137644690E+03  0.11522991640E+04  0.17209751444E+04  0.25500000920E-02 0. -1.
       -2    1    3    3    0  502 -0.11114521431E+04 -0.63137644690E+03 -0.82150753236E+03  0.15194856728E+04  0.25500000920E-02 0.  1.
</event>
<event>
 5   0  0.1493485E-06  0.3197074E+04  0.7818609E-02  0.8189590E-01
        2   -1    0    0  501    0  0.00000000000E+00  0.00000000000E+00  0.18066375681E+04  0.18066375681E+04  0.25500000920E-02 0.  1.
       -2   -1    0    0    0  501  0.00000000000E+00  0.00000000000E+00 -0.14144067032E+04  0.14144067032E+04  0.25500000920E-02 0. -1.
    10030    2    1    2    0    0  0.00000000000E+00  0.00000000000E+00  0.39223086497E+03  0.32210442713E+04  0.31970738412E+04 0.  0.
        2    1    3    3  502    0  0.10506353556E+04  0.45601957403E+03  0.13196138679E+04  0.17473320414E+04  0.25500000920E-02 0.  1.
       -2    1    3    3    0  502 -0.10506353556E+04 -0.45601957403E+03 -0.92738300297E+03  0.14737122299E+04  0.25500000920E-02 0. -1.
</event>
<event>
 5   0  0.5233813E-07  0.3207458E+04  0.7818609E-02  0.8186850E-01
       -1   -1    0    0    0  501  0.00000000000E+00  0.00000000000E+00  0.26347359676E+04  0.26347359676E+04  0.50400001928E-02 0. -1.
        1   -1    0    0  501    0  0.00000000000E+00  0.00000000000E+00 -0.97616882551E+03  0.97616882552E+03  0.50400001928E-02 0.  1.
    10030    2    1    2    0    0  0.00000000000E+00  0.00000000000E+00  0.16585671421E+04  0.36109047931E+04  0.32074582554E+04 0.  0.
        4    1    3    3  502    0  0.43106820492E+03  0.82332728219E+03 -0.64211978666E+03  0.11296048177E+04  0.12699999809E+01 0.  1.
       -4    1    3    3    0  502 -0.43106820492E+03 -0.82332728219E+03  0.23006869288E+04  0.24812999754E+04  0.12699999809E+01 0. -1.
</event>
<event>
 5   0  0.5370912E-07  0.3149775E+04  0.7818609E-02  0.8202209E-01
       -1   -1    0    0    0  501  0.00000000000E+00  0.00000000000E+00  0.16018879210E+04  0.16018879210E+04  0.50400001928E-02 0.  1.
        1   -1    0    0  501    0  0.00000000000E+00  0.00000000000E+00 -0.15483421222E+04  0.15483421222E+04  0.50400001928E-02 0. -1.
    10030    2    1    2    0    0  0.00000000000E+00  0.00000000000E+00  0.53545798819E+02  0.31502300432E+04  0.31497749400E+04 0.  0.
        1    1    3    3  502    0 -0.53857603709E+03  0.25882373466E+03  0.14841096041E+04  0.15998859929E+04  0.50400001928E-02 0.  1.
       -1    1    3    3    0  502  0.53857603709E+03 -0.25882373466E+03 -0.14305638053E+04  0.15503440503E+04  0.50400001928E-02 0. -1.
</event>
<event>
 5   0  0.5370912E-07  0.3245234E+04  0.7818609E-02  0.8176972E-01
       -1   -1    0    0    0  501  0.00000000000E+00  0.00000000000E+00  0.14290240666E+04  0.14290240666E+04  0.50400001928E-02 0.  1.
        1   -1    0    0  501    0  0.00000000000E+00  0.00000000000E+00 -0.18424365302E+04  0.18424365302E+04  0.50400001928E-02 0. -1.
    10030    2    1    2    0    0  0.00000000000E+00  0.00000000000E+00 -0.41341246353E+03  0.32714605968E+04  0.32452341320E+04 0.  0.
        1    1    3    3  502    0  0.11387239986E+04  0.55743178096E+03 -0.12275417799E+04  0.17647326588E+04  0.50400001928E-02 0. -1.
       -1    1    3    3    0  502 -0.11387239986E+04 -0.55743178096E+03  0.81412931638E+03  0.15067279380E+04  0.50400001928E-02 0.  1.
</event>
<event>
 5   0  0.5281187E-07  0.3210284E+04  0.7818609E-02  0.8186107E-01
        1   -1    0    0  501    0  0.00000000000E+00  0.00000000000E+00  0.11137679099E+04  0.11137679099E+04  0.50400001928E-02 0. -1.
       -1   -1    0    0    0  501  0.00000000000E+00  0.00000000000E+00 -0.23133008995E+04  0.23133008995E+04  0.50400001928E-02 0.  1.
    10030    2    1    2    0    0  0.00000000000E+00  0.00000000000E+00 -0.11995329895E+04  0.34270688094E+04  0.32102836684E+04 0.  0.
        5    1    3    3  502    0  0.27400926938E+03 -0.14630706666E+04 -0.12409960030E+04  0.19379757544E+04  0.46999998093E+01 0.  1.
       -5    1    3    3    0  502 -0.27400926938E+03  0.14630706666E+04  0.41463013488E+02  0.14890930550E+04  0.46999998093E+01 0. -1.
</event>
<event>
 5   0  0.1508771E-06  0.3193804E+04  0.7818609E-02  0.8190455E-01
       -2   -1    0    0    0  501  0.00000000000E+00  0.00000000000E+00  0.17712362585E+04  0.17712362585E+04  0.25500000920E-02 0.  1.
        2   -1    0    0  501    0  0.00000000000E+00  0.00000000000E+00 -0.14397266692E+04  0.14397266692E+04  0.25500000920E-02 0. -1.
    10030    2    1    2    0    0  0.00000000000E+00  0.00000000000E+00  0.33150958932E+03  0.32109629277E+04  0.31938040508E+04 0.  0.
        4    1    3    3  502    0  0.11050931796E+04  0.10259158409E+04  0.69427888452E+03  0.16600479001E+04  0.12699999809E+01 0.  1.
       -4    1    3    3    0  502 -0.11050931796E+04 -0.10259158409E+04 -0.36276929521E+03  0.15509150276E+04  0.12699999809E+01 0. -1.
</event>
<event>
 5   0  0.1556396E-06  0.3173217E+04  0.7818609E-02  0.8195927E-01
        2   -1    0    0  501    0  0.00000000000E+00  0.00000000000E+00  0.27482123108E+04  0.27482123108E+04  0.25500000920E-02 0. -1.
       -2   -1    0    0    0  501  0.00000000000E+00  0.00000000000E+00 -0.91598689328E+03  0.91598689328E+03  0.25500000920E-02 0.  1.
    10030    2    1    2    0    0  0.00000000000E+00  0.00000000000E+00  0.18322254176E+04  0.36641992041E+04  0.31732169524E+04 0.  0.
        3    1    3    3  502    0  0.31400770508E+03  0.13898631354E+04  0.11027701803E+03  0.14291540872E+04  0.10100000352E+00 0. -1.
       -3    1    3    3    0  502 -0.31400770508E+03 -0.13898631354E+04  0.17219483995E+04  0.22350451170E+04  0.10100000352E+00 0.  1.
</event>
<event>
 5   0  0.1538349E-06  0.3172019E+04  0.7818609E-02  0.8196246E-01
        2   -1    0    0  501    0  0.00000000000E+00  0.00000000000E+00  0.21000669388E+04  0.21000669388E+04  0.25500000920E-02 0.  1.
       -2   -1    0    0    0  501  0.00000000000E+00  0.00000000000E+00 -0.11977837872E+04  0.11977837872E+04  0.25500000920E-02 0. -1.
    10030    2    1    2    0    0  0.00000000000E+00  0.00000000000E+00  0.90228315156E+03  0.32978507260E+04  0.31720189982E+04 0.  0.
        1    1    3    3  502    0 -0.62230879756E+03 -0.84665241998E+03  0.16862658742E+04  0.19868520726E+04  0.50400001928E-02 0.  1.
       -1    1    3    3    0  502  0.62230879756E+03  0.84665241998E+03 -0.78398272265E+03  0.13109986534E+04  0.50400001928E-02 0. -1.
</event>
<event>
 5   0  0.1556396E-06  0.3218718E+04  0.7818609E-02  0.8183891E-01
       -2   -1    0    0    0  501  0.00000000000E+00  0.00000000000E+00  0.14380760387E+04  0.14380760387E+04  0.25500000920E-02 0.  1.
        2   -1    0    0  501    0  0.00000000000E+00  0.00000000000E+00 -0.18010430446E+04  0.18010430446E+04  0.25500000920E-02 0. -1.
    10030    2    1    2    0    0  0.00000000000E+00  0.00000000000E+00 -0.36296700594E+03  0.32391190833E+04  0.32187182835E+04 0.  0.
        3    1    3    3  502    0 -0.10532689119E+03  0.95286610414E+03  0.11193771518E+04  0.14737885821E+04  0.10100000352E+00 0.  1.
       -3    1    3    3    0  502  0.10532689119E+03 -0.95286610414E+03 -0.14823441577E+04  0.17653305012E+04  0.10100000352E+00 0. -1.
</event>
<event>
 5   0  0.1572769E-06  0.3025093E+04  0.7818609E-02  0.8236602E-01
        2   -1    0    0  501    0  0.00000000000E+00  0.00000000000E+00  0.16955255287E+04  0.16955255287E+04  0.25500000920E-02 0. -1.
       -2   -1    0    0    0  501  0.00000000000E+00  0.00000000000E+00 -0.13493140419E+04  0.13493140419E+04  0.25500000920E-02 0.  1.
    10030    2    1    2    0    0  0.00000000000E+00  0.00000000000E+00  0.34621148683E+03  0.30448395706E+04  0.30250926626E+04 0.  0.
        5    1    3    3  502    0 -0.92172402210E+03  0.10523983862E+04 -0.40567549890E+03  0.14566098437E+04  0.46999998093E+01 0.  1.
       -5    1    3    3    0  502  0.92172402210E+03 -0.10523983862E+04  0.75188698573E+03  0.15882297269E+04  0.46999998093E+01 0. -1.
</event>
<event>
 5   0  0.4995625E-07  0.3232917E+04  0.7818609E-02  0.8180177E-01
       -4   -1    0    0    0  501  0.00000000000E+00  0.00000000000E+00  0.12018311082E+04  0.12018317792E+04  0.12699999809E+01 0.  1.
        4   -1    0    0  501    0  0.00000000000E+00  0.00000000000E+00 -0.21741300062E+04  0.21741303771E+04  0.12699999809E+01 0. -1.
    10030    2    1    2    0    0  0.00000000000E+00  0.00000000000E+00 -0.97229889797E+03  0.33759621563E+04  0.32329174647E+04 0.  0.
        4    1    3    3  502    0 -0.11710053423E+04 -0.10355694470E+03 -0.16447263462E+04  0.20216587049E+04  0.12699999809E+01 0. -1.
       -4    1    3    3    0  502  0.11710053423E+04  0.10355694470E+03  0.67242744820E+03  0.13543034514E+04  0.12699999809E+01 0.  1.
</event>
<event>
 5   0  0.5177039E-07  0.3185049E+04  0.7818609E-02  0.8192777E-01
       -1   -1    0    0    0  501  0.00000000000E+00  0.00000000000E+00  0.18346425386E+04  0.18346425386E+04  0.50400001928E-02 0.  1.
        1   -1    0    0  501    0  0.00000000000E+00  0.00000000000E+00 -0.13823591771E+04  0.13823591771E+04  0.50400001928E-02 0. -1.
    10030    2    1    2    0    0  0.00000000000E+00  0.00000000000E+00  0.45228336153E+03  0.32170017157E+04  0.31850494187E+04 0.  0.
        3    1    3    3  502    0  0.57695049721E+03  0.85854880529E+03  0.14491385866E+04  0.17804439280E+04  0.10100000352E+00 0.  1.
       -3    1    3    3    0  502 -0.57695049721E+03 -0.85854880529E+03 -0.99685522511E+03  0.14365577877E+04  0.10100000352E+00 0. -1.
</event>
<event>
 5   0  0.1508771E-06  0.3201571E+04  0.7818609E-02  0.8188402E-01
        2   -1    0    0  501    0  0.00000000000E+00  0.00000000000E+00  0.18728837449E+04  0.18728837449E+04  0.25500000920E-02 0.  1.
       -2   -1    0    0    0  501  0.00000000000E+00  0.00000000000E+00 -0.13682186546E+04  0.13682186546E+04  0.25500000920E-02 0. -1.
    10030    2    1    2    0    0  0.00000000000E+00  0.00000000000E+00  0.50466509034E+03  0.32411023995E+04  0.32015711628E+04 0.  0.
        4    1    3    3  502    0  0.13170666806E+03 -0.17111726729E+03  0.18580716882E+04  0.18705773914E+04  0.12699999809E+01 0.  1.
       -4    1    3    3    0  502 -0.13170666806E+03  0.17111726729E+03 -0.13534065979E+04  0.13705250081E+04  0.12699999809E+01 0. -1.
</event>
<event>
 5   0  0.5177039E-07  0.3078582E+04  0.7818609E-02  0.8221640E-01
       -1   -1    0    0    0  501  0.00000000000E+00  0.00000000000E+00  0.15297653560E+04  0.15297653560E+04  0.50400001928E-02 0. -1.
        1   -1    0    0  501    0  0.00000000000E+00  0.00000000000E+00 -0.15488762899E+04  0.15488762899E+04  0.50400001928E-02 0.  1.
    10030    2    1    2    0    0  0.00000000000E+00  0.00000000000E+00 -0.19110933922E+02  0.30786416459E+04  0.30785823289E+04 0.  0.
        3    1    3    3  502    0 -0.97061185044E+03  0.41761859335E+03 -0.11289181907E+04  0.15462693637E+04  0.10100000352E+00 0.  1.
       -3    1    3    3    0  502  0.97061185044E+03 -0.41761859335E+03  0.11098072568E+04  0.15323722821E+04  0.10100000352E+00 0. -1.
</event>
<event>
 5   0  0.5317728E-07  0.3206717E+04  0.7818609E-02  0.8187046E-01
        1   -1    0    0  501    0  0.00000000000E+00  0.00000000000E+00  0.19194857999E+04  0.19194857999E+04  0.50400001928E-02 0.  1.
       -1   -1    0    0    0  501  0.00000000000E+00  0.00000000000E+00 -0.13392950908E+04  0.13392950908E+04  0.50400001928E-02 0. -1.
    10030    2    1    2    0    0  0.00000000000E+00  0.00000000000E+00  0.58019070911E+03  0.32587808907E+04  0.32067166439E+04 0.  0.
        2    1    3    3  502    0 -0.82310284598E+03 -0.32211712705E+03 -0.10693459057E+04  0.13873566249E+04  0.25500000920E-02 0. -1.
       -2    1    3    3    0  502  0.82310284598E+03  0.32211712705E+03  0.16495366148E+04  0.18714242657E+04  0.25500000920E-02 0.  1.
</event>
<event>
 5   0  0.5233813E-07  0.3176851E+04  0.7818609E-02  0.8194958E-01
        1   -1    0    0  501    0  0.00000000000E+00  0.00000000000E+00  0.15090801517E+04  0.15090801517E+04  0.50400001928E-02 0. -1.
       -1   -1    0    0    0  501  0.00000000000E+00  0.00000000000E+00 -0.16719427249E+04  0.16719427249E+04  0.50400001928E-02 0.  1.
    10030    2    1    2    0    0  0.00000000000E+00  0.00000000000E+00 -0.16286257321E+03  0.31810228767E+04  0.31768510076E+04 0.  0.
        4    1    3    3  502    0  0.92611942075E+03  0.12174760959E+04  0.34708952219E+03  0.15685719540E+04  0.12699999809E+01 0. -1.
       -4    1    3    3    0  502 -0.92611942075E+03 -0.12174760959E+04 -0.50995209540E+03  0.16124509227E+04  0.12699999809E+01 0.  1.
</event>
<event>
 5   0  0.1508771E-06  0.3186057E+04  0.7818609E-02  0.8192509E-01
        2   -1    0    0  501    0  0.00000000000E+00  0.00000000000E+00  0.23767387498E+04  0.23767387498E+04  0.25500000920E-02 0.  1.
       -2   -1    0    0    0  501  0.00000000000E+00  0.00000000000E+00 -0.10677406388E+04  0.10677406388E+04  0.25500000920E-02 0. -1.
    10030    2    1    2    0    0  0.00000000000E+00  0.00000000000E+00  0.13089981110E+04  0.34444793885E+04  0.31860574702E+04 0.  0.
        4    1    3    3  502    0 -0.11134900811E+04 -0.47088580759E+03 -0.46701687883E+03  0.12960324003E+04  0.12699999809E+01 0. -1.
       -4    1    3    3    0  502  0.11134900811E+04  0.47088580759E+03  0.17760149898E+04  0.21484469883E+04  0.12699999809E+01 0.  1.
</event>
<event>
 5   0  0.5281187E-07  0.3052622E+04  0.7818609E-02  0.8228862E-01
        1   -1    0    0  501    0  0.00000000000E+00  0.00000000000E+00  0.22875994515E+04  0.22875994515E+04  0.50400001928E-02 0.  1.
       -1   -1    0    0    0  501  0.00000000000E+00  0.00000000000E+00 -0.10183713447E+04  0.10183713447E+04  0.50400001928E-02 0. -1.
    10030    2    1    2    0    0  0.00000000000E+00  0.00000000000E+00  0.12692281067E+04  0.33059707962E+04  0.30526223020E+04 0.  0.
        5    1    3    3  502    0 -0.72652028741E+03  0.13399778702E+04  0.54912461914E+03  0.16201642997E+04  0.46999998093E+01 0. -1.
       -5    1    3    3    0  502  0.72652028741E+03 -0.13399778702E+04  0.72010348760E+03  0.16858064965E+04  0.46999998093E+01 0.  1.
</event>
<event>
 5   0  0.5281187E-07  0.3200004E+04  0.7818609E-02  0.8188816E-01
        1   -1    0    0  501    0  0.00000000000E+00  0.00000000000E+00  0.17175611905E+04  0.17175611906E+04  0.50400001928E-02 0. -1.
       -1   -1    0    0    0  501  0.00000000000E+00  0.00000000000E+00 -0.14904895792E+04  0.14904895792E+04  0.50400001928E-02 0.  1.
    10030    2    1    2    0    0  0.00000000000E+00  0.00000000000E+00  0.22707161134E+03  0.32080507698E+04  0.32000044101E+04 0.  0.
        5    1    3    3  502    0 -0.59032215661E+03  0.50971021179E+03 -0.12870096578E+04  0.15048922545E+04  0.46999998093E+01 0.  1.
       -5    1    3    3    0  502  0.59032215661E+03 -0.50971021179E+03  0.15140812691E+04  0.17031585152E+04  0.46999998093E+01 0. -1.
</event>
<event>
 5   0  0.5281187E-07  0.3209086E+04  0.7818609E-02  0.8186422E-01
        1   -1    0    0  501    0  0.00000000000E+00  0.00000000000E+00  0.10519738213E+04  0.10519738214E+04  0.50400001928E-02 0. -1.
       -1   -1    0    0    0  501  0.00000000000E+00  0.00000000000E+00 -0.24473603434E+04  0.24473603434E+04  0.50400001928E-02 0.  1.
    10030    2    1    2    0    0  0.00000000000E+00  0.00000000000E+00 -0.13953865220E+04  0.34993341647E+04  0.32090864823E+04 0.  0.
        5    1    3    3  502    0 -0.27439840945E+02 -0.12843344656E+04  0.35064920752E+03  0.13316324271E+04  0.46999998093E+01 0. -1.
       -5    1    3    3    0  502  0.27439840945E+02  0.12843344656E+04 -0.17460357296E+04  0.21677017376E+04  0.46999998093E+01 0.  1.
</event>
<event>
 5   0  0.1572769E-06  0.3205024E+04  0.7818609E-02  0.8187491E-01
       -2   -1    0    0    0  501  0.00000000000E+00  0.00000000000E+00  0.11509099846E+04  0.11509099846E+04  0.25500000920E-02 0.  1.
        2   -1    0    0  501    0  0.00000000000E+00  0.00000000000E+00 -0.22313173493E+04  0.22313173493E+04  0.25500000920E-02 0. -1.
    10030    2    1    2    0    0  0.00000000000E+00  0.00000000000E+00 -0.10804073647E+04  0.33822273339E+04  0.32050244406E+04 0.  0.
        5    1    3    3  502    0 -0.15877633141E+04  0.68545988221E+02 -0.75732779645E+03  0.17604710663E+04  0.46999998093E+01 0. -1.
       -5    1    3    3    0  502  0.15877633141E+04 -0.68545988221E+02 -0.32307956823E+03  0.16217562676E+04  0.46999998093E+01 0.  1.
</event>
<event>
 5   0  0.1538349E-06  0.3223974E+04  0.7818609E-02  0.8182514E-01
       -2   -1    0    0    0  501  0.00000000000E+00  0.00000000000E+00  0.11220784164E+04  0.11220784164E+04  0.25500000920E-02 0. -1.
        2   -1    0    0  501    0  0.00000000000E+00  0.00000000000E+00 -0.23157938080E+04  0.23157938080E+04  0.25500000920E-02 0.  1.
    10030    2    1    2    0    0  0.00000000000E+00  0.00000000000E+00 -0.11937153916E+04  0.34378722245E+04  0.32239740997E+04 0.  0.
        1    1    3    3  502    0 -0.14761145024E+04 -0.50173839725E+03 -0.15998517645E+03  0.15672430252E+04  0.50400001928E-02 0. -1.
       -1    1    3    3    0  502  0.14761145024E+04  0.50173839725E+03 -0.10337302152E+04  0.18706291993E+04  0.50400001928E-02 0.  1.
</event>
<event>
 5   0  0.5317728E-07  0.2859227E+04  0.7818609E-02  0.8285113E-01
        1   -1    0    0  501    0  0.00000000000E+00  0.00000000000E+00  0.12335677657E+04  0.12335677657E+04  0.50400001928E-02 0.  1.
       -1   -1    0    0    0  501  0.00000000000E+00  0.00000000000E+00 -0.16568162441E+04  0.16568162441E+04  0.50400001928E-02 0. -1.
    10030    2    1    2    0    0  0.00000000000E+00  0.00000000000E+00 -0.42324847847E+03  0.28903840098E+04  0.28592272470E+04 0.  0.
        2    1    3    3  502    0 -0.13008716203E+04 -0.45670574753E+03 -0.59382884318E+03  0.15011594876E+04  0.25500000920E-02 0.  1.
       -2    1    3    3    0  502  0.13008716203E+04  0.45670574753E+03  0.17058036471E+03  0.13892245222E+04  0.25500000920E-02 0. -1.
</event>
<event>
 5   0  0.1572769E-06  0.3148181E+04  0.7818609E-02  0.8202638E-01
       -2   -1    0    0    0  501  0.00000000000E+00  0.00000000000E+00  0.11501975604E+04  0.11501975604E+04  0.25500000920E-02 0. -1.
        2   -1    0    0  501    0  0.00000000000E+00  0.00000000000E+00 -0.21542043698E+04  0.21542043698E+04  0.25500000920E-02 0.  1.
    10030    2    1    2    0    0  0.00000000000E+00  0.00000000000E+00 -0.10040068094E+04  0.33044019302E+04  0.31481808148E+04 0.  0.
        5    1    3    3  502    0 -0.88961633853E+03 -0.68271074139E+03  0.65745073074E+03  0.12999133585E+04  0.46999998093E+01 0. -1.
       -5    1    3    3    0  502  0.88961633853E+03  0.68271074139E+03 -0.16614575402E+04  0.20044885717E+04  0.46999998093E+01 0.  1.
</event>
<event>
 5   0  0.1538349E-06  0.3184787E+04  0.7818609E-02  0.8192847E-01
       -2   -1    0    0    0  501  0.00000000000E+00  0.00000000000E+00  0.19511636551E+04  0.19511636551E+04  0.25500000920E-02 0.  1.
        2   -1    0    0  501    0  0.00000000000E+00  0.00000000000E+00 -0.12995918074E+04  0.12995918074E+04  0.25500000920E-02 0. -1.
    10030    2    1    2    0    0  0.00000000000E+00  0.00000000000E+00  0.65157184767E+03  0.32507554625E+04  0.31847865241E+04 0.  0.
        1    1    3    3  502    0 -0.27412300528E+03  0.34886514458E+03 -0.12352275204E+04  0.13124927955E+04  0.50400001928E-02 0. -1.
       -1    1    3    3    0  502  0.27412300528E+03 -0.34886514458E+03  0.18867993680E+04  0.19382626670E+04  0.50400001928E-02 0.  1.
</event>
<event>
 5   0  0.1538349E-06  0.3112414E+04  0.7818609E-02  0.8212339E-01
       -2   -1    0    0    0  501  0.00000000000E+00  0.00000000000E+00  0.93113882339E+03  0.93113882340E+03  0.25500000920E-02 0.  1.
        2   -1    0    0  501    0  0.00000000000E+00  0.00000000000E+00 -0.26008804122E+04  0.26008804123E+04  0.25500000920E-02 0. -1.
    10030    2    1    2    0    0  0.00000000000E+00  0.00000000000E+00 -0.16697415889E+04  0.35320192356E+04  0.31124143213E+04 0.  0.
        1    1    3    3  502    0  0.53222204911E+03 -0.98960211259E+03 -0.20566883310E+04  0.23436167651E+04  0.50400001928E-02 0. -1.
       -1    1    3    3    0  502 -0.53222204911E+03  0.98960211259E+03  0.38694674211E+03  0.11884024706E+04  0.50400001928E-02 0.  1.
</event>
<event>
 5   0  0.1556396E-06  0.3194502E+04  0.7818609E-02  0.8190271E-01
       -2   -1    0    0    0  501  0.00000000000E+00  0.00000000000E+00  0.11172714062E+04  0.11172714062E+04  0.25500000920E-02 0.  1.
        2   -1    0    0  501    0  0.00000000000E+00  0.00000000000E+00 -0.22834290599E+04  0.22834290599E+04  0.25500000920E-02 0. -1.
    10030    2    1    2    0    0  0.00000000000E+00  0.00000000000E+00 -0.11661576537E+04  0.34007004661E+04  0.31945015240E+04 0.  0.
        3    1    3    3  502    0  0.62310472031E+02 -0.10101014114E+04 -0.18985701979E+04  0.21514544529E+04  0.10100000352E+00 0. -1.
       -3    1    3    3    0  502 -0.62310472031E+02  0.10101014114E+04  0.73241254427E+03  0.12492460132E+04  0.10100000352E+00 0.  1.
</event>
<event>
 5   0  0.5233813E-07  0.3220246E+04  0.7818609E-02  0.8183491E-01
       -1   -1    0    0    0  501  0.00000000000E+00  0.00000000000E+00  0.15201712268E+04  0.15201712268E+04  0.50400001928E-02 0.  1.
        1   -1    0    0  501    0  0.00000000000E+00  0.00000000000E+00 -0.17053977785E+04  0.17053977785E+04  0.50400001928E-02 0. -1.
    10030    2    1    2    0    0  0.00000000000E+00  0.00000000000E+00 -0.18522655168E+03  0.32255690053E+04  0.32202463466E+04 0.  0.
        4    1    3    3  502    0  0.91987085452E+03  0.11204776807E+04  0.60916048098E+03  0.15724855251E+04  0.12699999809E+01 0.  1.
       -4    1    3    3    0  502 -0.91987085452E+03 -0.11204776807E+04 -0.79438703266E+03  0.16530834802E+04  0.12699999809E+01 0. -1.
</event>
<event>
 5   0  0.5233813E-07  0.3207640E+04  0.7818609E-02  0.8186802E-01
        1   -1    0    0  501    0  0.00000000000E+00  0.00000000000E+00  0.22460826612E+04  0.22460826612E+04  0.50400001928E-02 0. -1.
       -1   -1    0    0    0  501  0.00000000000E+00  0.00000000000E+00 -0.11452109495E+04  0.11452109495E+04  0.50400001928E-02 0.  1.
    10030    2    1    2    0    0  0.00000000000E+00  0.00000000000E+00  0.11008717117E+04  0.33912936107E+04  0.32076399156E+04 0.  0.
        4    1    3    3  502    0  0.10168502987E+03  0.10063445004E+04  0.18663543952E+04  0.21228163935E+04  0.12699999809E+01 0. -1.
       -4    1    3    3    0  502 -0.10168502987E+03 -0.10063445004E+04 -0.76548268355E+03  0.12684772172E+04  0.12699999809E+01 0.  1.
</event>
<event>
 5   0  0.5370912E-07  0.3195712E+04  0.7818609E-02  0.8189951E-01
        1   -1    0    0  501    0  0.00000000000E+00  0.00000000000E+00  0.16691521839E+04  0.16691521839E+04  0.50400001928E-02 0. -1.
       -1   -1    0    0    0  501  0.00000000000E+00  0.00000000000E+00 -0.15296047374E+04  0.15296047374E+04  0.50400001928E-02 0.  1.
    10030    2    1    2    0    0  0.00000000000E+00  0.00000000000E+00  0.13954744650E+03  0.31987569214E+04  0.31957115565E+04 0.  0.
        1    1    3    3  502    0 -0.15111850204E+04  0.16296537600E+03 -0.42355008895E+03  0.15778569509E+04  0.50400001928E-02 0.  1.
       -1    1    3    3    0  502  0.15111850204E+04 -0.16296537600E+03  0.56309753545E+03  0.16208999704E+04  0.50400001928E-02 0. -1.
</event>
<event>
 5   0  0.1572769E-06  0.3204448E+04  0.7818609E-02  0.8187643E-01
        2   -1    0    0  501    0  0.00000000000E+00  0.00000000000E+00  0.12882546102E+04  0.12882546102E+04  0.25500000920E-02 0. -1.
       -2   -1    0    0    0  501  0.00000000000E+00  0.00000000000E+00 -0.19927136302E+04  0.19927136302E+04  0.25500000920E-02 0.  1.
    10030    2    1    2    0    0  0.00000000000E+00  0.00000000000E+00 -0.70445901997E+03  0.32809682403E+04  0.32044484835E+04 0.  0.
        5    1    3    3  502    0  0.98745086425E+03 -0.99272566253E+03  0.44517258968E+03  0.14692733493E+04  0.46999998093E+01 0. -1.
       -5    1    3    3    0  502 -0.98745086425E+03  0.99272566253E+03 -0.11496316096E+04  0.18116948910E+04  0.46999998093E+01 0.  1.
</event>
<event>
 5   0  0.5370912E-07  0.3197396E+04  0.7818609E-02  0.8189505E-01
        1   -1    0    0  501    0  0.00000000000E+00  0.00000000000E+00  0.15343058668E+04  0.15343058668E+04  0.50400001928E-02 0.  1.
       -1   -1    0    0    0  501  0.00000000000E+00  0.00000000000E+00 -0.16657926779E+04  0.16657926779E+04  0.50400001928E-02 0. -1.
    10030    2    1    2    0    0  0.00000000000E+00  0.00000000000E+00 -0.13148681117E+03  0.32000985447E+04  0.31973961147E+04 0.  0.
        1    1    3    3  502    0 -0.51765227334E+03  0.29774901545E+03  0.14184857685E+04  0.15390647250E+04  0.50400001928E-02 0.  1.
       -1    1    3    3    0  502  0.51765227334E+03 -0.29774901545E+03 -0.15499725797E+04  0.16610338197E+04  0.50400001928E-02 0. -1.
</event>
<event>
 5   0  0.1572769E-06  0.3190752E+04  0.7818609E-02  0.8191264E-01
        2   -1    0    0  501    0  0.00000000000E+00  0.00000000000E+00  0.20100368827E+04  0.20100368827E+04  0.25500000920E-02 0.  1.
       -2   -1    0    0    0  501  0.00000000000E+00  0.00000000000E+00 -0.12662574948E+04  0.12662574948E+04  0.25500000920E-02 0. -1.
    10030    2    1    2    0    0  0.00000000000E+00  0.00000000000E+00  0.74377938788E+03  0.32762943776E+04  0.31907518034E+04 0.  0.
        5    1    3    3  502    0 -0.71421936140E+03 -0.11758649707E+04  0.12012788183E+04  0.18264338517E+04  0.46999998093E+01 0.  1.
       -5    1    3    3    0  502  0.71421936140E+03  0.11758649707E+04 -0.45749943043E+03  0.14498605258E+04  0.46999998093E+01 0. -1.
</event>
<event>
 5   0  0.1538349E-06  0.3179600E+04  0.7818609E-02  0.8194225E-01
       -2   -1    0    0    0  501  0.00000000000E+00  0.00000000000E+00  0.11871708513E+04  0.11871708513E+04  0.25500000920E-02 0.  1.
        2   -1    0    0  501    0  0.00000000000E+00  0.00000000000E+00 -0.21289815240E+04  0.21289815240E+04  0.25500000920E-02 0. -1.
    10030    2    1    2    0    0  0.00000000000E+00  0.00000000000E+00 -0.94181067277E+03  0.33161523753E+04  0.31796004832E+04 0.  0.
        1    1    3    3  502    0 -0.23805547616E+03  0.15250909242E+04 -0.86789960238E+03  0.17708253603E+04  0.50400001928E-02 0. -1.
       -1    1    3    3    0  502  0.23805547616E+03 -0.15250909242E+04 -0.73911070386E+02  0.15453270150E+04  0.50400001928E-02 0.  1.
</event>
<event>
 5   0  0.1508771E-06  0.3199787E+04  0.7818609E-02  0.8188873E-01
        2   -1    0    0  501    0  0.00000000000E+00  0.00000000000E+00  0.15858265157E+04  0.15858265157E+04  0.25500000920E-02 0.  1.
       -2   -1    0    0    0  501  0.00000000000E+00  0.00000000000E+00 -0.16140850565E+04  0.16140850565E+04  0.25500000920E-02 0. -1.
    10030    2    1    2    0    0  0.00000000000E+00  0.00000000000E+00 -0.28258540879E+02  0.31999115722E+04  0.31997867936E+04 0.  0.
        4    1    3    3  502    0 -0.25118923883E+03  0.15165585173E+04  0.42929697210E+03  0.15960398721E+04  0.12699999809E+01 0. -1.
       -4    1    3    3    0  502  0.25118923883E+03 -0.15165585173E+04 -0.45755551298E+03  0.16038717001E+04  0.12699999809E+01 0.  1.
</event>
<event>
 5   0  0.1572769E-06  0.3180574E+04  0.7818609E-02  0.8193967E-01
        2   -1    0    0  501    0  0.00000000000E+00  0.00000000000E+00  0.23035332204E+04  0.23035332204E+04  0.25500000920E-02 0. -1.
       -2   -1    0    0    0  501  0.00000000000E+00  0.00000000000E+00 -0.10978840237E+04  0.10978840237E+04  0.25500000920E-02 0.  1.
    10030    2    1    2    0    0  0.00000000000E+00  0.00000000000E+00  0.12056491967E+04  0.34014172441E+04  0.31805737348E+04 0.  0.
        5    1    3    3  502    0 -0.12551131923E+04 -0.18429362660E+03 -0.42278373152E+03  0.13371766675E+04  0.46999998093E+01 0.  1.
       -5    1    3    3    0  502  0.12551131923E+04  0.18429362660E+03  0.16284329282E+04  0.20642405766E+04  0.46999998093E+01 0. -1.
</event>
<event>
 5   0  0.5233813E-07  0.3204002E+04  0.7818609E-02  0.8187761E-01
       -1   -1    0    0    0  501  0.00000000000E+00  0.00000000000E+00  0.10346168621E+04  0.10346168621E+04  0.50400001928E-02 0.  1.
        1   -1    0    0  501    0  0.00000000000E+00  0.00000000000E+00 -0.24805388172E+04  0.24805388172E+04  0.50400001928E-02 0. -1.
    10030    2    1    2    0    0  0.00000000000E+00  0.00000000000E+00 -0.14459219551E+04  0.35151556793E+04  0.32040020520E+04 0.  0.
        4    1    3    3  502    0  0.73311231456E+03 -0.36616010614E+03 -0.22331888979E+04  0.23787940549E+04  0.12699999809E+01 0. -1.
       -4    1    3    3    0  502 -0.73311231456E+03  0.36616010614E+03  0.78726694284E+03  0.11363616243E+04  0.12699999809E+01 0.  1.
</event>
<event>
 5   0  0.1538349E-06  0.3258140E+04  0.7818609E-02  0.8173629E-01
        2   -1    0    0  501    0  0.00000000000E+00  0.00000000000E+00  0.11330915664E+04  0.11330915664E+04  0.25500000920E-02 0.  1.
       -2   -1    0    0    0  501  0.00000000000E+00  0.00000000000E+00 -0.23421484588E+04  0.23421484588E+04  0.25500000920E-02 0. -1.
    10030    2    1    2    0    0  0.00000000000E+00  0.00000000000E+00 -0.12090568924E+04  0.34752400252E+04  0.32581397551E+04 0.  0.
        1    1    3    3  502    0 -0.59509715536E+02  0.38331172697E+03 -0.22921698303E+04  0.23247605936E+04  0.50400001928E-02 0. -1.
       -1    1    3    3    0  502  0.59509715536E+02 -0.38331172697E+03  0.10831129379E+04  0.11504794316E+04  0.50400001928E-02 0.  1.
</event>
<event>
 5   0  0.5233813E-07  0.3203211E+04  0.7818609E-02  0.8187970E-01
       -1   -1    0    0    0  501  0.00000000000E+00  0.00000000000E+00  0.18996342238E+04  0.18996342238E+04  0.50400001928E-02 0.  1.
        1   -1    0    0  501    0  0.00000000000E+00  0.00000000000E+00 -0.13503340820E+04  0.13503340820E+04  0.50400001928E-02 0. -1.
    10030    2    1    2    0    0  0.00000000000E+00  0.00000000000E+00  0.54930014186E+03  0.32499683058E+04  0.32032114109E+04 0.  0.
        4    1    3    3  502    0 -0.60163580172E+02 -0.13157735797E+04 -0.64983613907E+03  0.14687301964E+04  0.12699999809E+01 0. -1.
       -4    1    3    3    0  502  0.60163580172E+02  0.13157735797E+04  0.11991362809E+04  0.17812381094E+04  0.12699999809E+01 0.  1.
</event>
<event>
 5   0  0.5317728E-07  0.3222715E+04  0.7818609E-02  0.8182844E-01
       -1   -1    0    0    0  501  0.00000000000E+00  0.00000000000E+00  0.18047019757E+04  0.18047019757E+04  0.50400001928E-02 0.  1.
        1   -1    0    0  501    0  0.00000000000E+00  0.00000000000E+00 -0.14387264182E+04  0.14387264182E+04  0.50400001928E-02 0. -1.
    10030    2    1    2    0    0  0.00000000000E+00  0.00000000000E+00  0.36597555749E+03  0.32434283939E+04  0.32227146379E+04 0.  0.
        2    1    3    3  502    0  0.10273537624E+04  0.12125305804E+04 -0.84779132382E+02  0.15915004439E+04  0.25500000920E-02 0. -1.
       -2    1    3    3    0  502 -0.10273537624E+04 -0.12125305804E+04  0.45075468987E+03  0.16519279500E+04  0.25500000920E-02 0.  1.
</event>
<event>
 5   0  0.5317728E-07  0.3392880E+04  0.7818609E-02  0.8139656E-01
        1   -1    0    0  501    0  0.00000000000E+00  0.00000000000E+00  0.11899910082E+04  0.11899910082E+04  0.50400001928E-02 0.  1.
       -1   -1    0    0    0  501  0.00000000000E+00  0.00000000000E+00 -0.24184288370E+04  0.24184288370E+04  0.50400001928E-02 0. -1.
    10030    2    1    2    0    0  0.00000000000E+00  0.00000000000E+00 -0.12284378288E+04  0.36084198452E+04  0.33928799389E+04 0.  0.
        2    1    3    3  502    0 -0.15375022859E+04 -0.28475304157E+02  0.14765887687E+03  0.15448389126E+04  0.25500000920E-02 0.  1.
       -2    1    3    3    0  502  0.15375022859E+04  0.28475304157E+02 -0.13760967057E+04  0.20635809326E+04  0.25500000920E-02 0. -1.
</event>
<event>
 5   0  0.5370912E-07  0.3180579E+04  0.7818609E-02  0.8193965E-01
       -1   -1    0    0    0  501  0.00000000000E+00  0.00000000000E+00  0.25322811977E+04  0.25322811977E+04  0.50400001928E-02 0. -1.
        1   -1    0    0  501    0  0.00000000000E+00  0.00000000000E+00 -0.99871231732E+03  0.99871231733E+03  0.50400001928E-02 0.  1.
    10030    2    1    2    0    0  0.00000000000E+00  0.00000000000E+00  0.15335688804E+04  0.35309935150E+04  0.31805788298E+04 0.  0.
        1    1    3    3  502    0  0.47531659501E+02 -0.35766218882E+03 -0.95267248074E+03  0.10187081798E+04  0.50400001928E-02 0.  1.
       -1    1    3    3    0  502 -0.47531659501E+02  0.35766218882E+03  0.24862413611E+04  0.25122853352E+04  0.50400001928E-02 0. -1.
</event>
<event>
 5   0  0.5233813E-07  0.3185459E+04  0.7818609E-02  0.8192668E-01
       -1   -1    0    0    0  501  0.00000000000E+00  0.00000000000E+00  0.20315388717E+04  0.20315388717E+04  0.50400001928E-02 0.  1.
        1   -1    0    0  501    0  0.00000000000E+00  0.00000000000E+00 -0.12487025079E+04  0.12487025079E+04  0.50400001928E-02 0. -1.
    10030    2    1    2    0    0  0.00000000000E+00  0.00000000000E+00  0.78283636387E+03  0.32802413796E+04  0.31854592661E+04 0.  0.
        4    1    3    3  502    0  0.15184490057E+04  0.36652264527E+03  0.71173616012E+03  0.17165652353E+04  0.12699999809E+01 0. -1.
       -4    1    3    3    0  502 -0.15184490057E+04 -0.36652264527E+03  0.71100203748E+02  0.15636761443E+04  0.12699999809E+01 0.  1.
</event>
<event>
 5   0  0.1508771E-06  0.3162028E+04  0.7818609E-02  0.8198918E-01
        2   -1    0    0  501    0  0.00000000000E+00  0.00000000000E+00  0.21011271197E+04  0.21011271197E+04  0.25500000920E-02 0.  1.
       -2   -1    0    0    0  501  0.00000000000E+00  0.00000000000E+00 -0.11896500212E+04  0.11896500212E+04  0.25500000920E-02 0. -1.
    10030    2    1    2    0    0  0.00000000000E+00  0.00000000000E+00  0.91147709854E+03  0.32907771409E+04  0.31620284138E+04 0.  0.
        4    1    3    3  502    0 -0.14686079965E+04  0.26724104166E+03  0.99788833757E+03  0.17955528310E+04  0.12699999809E+01 0. -1.
       -4    1    3    3    0  502  0.14686079965E+04 -0.26724104166E+03 -0.86411239036E+02  0.14952243099E+04  0.12699999809E+01 0.  1.
</event>
<event>
 5   0  0.1493485E-06  0.3105891E+04  0.7818609E-02  0.8214123E-01
       -2   -1    0    0    0  501  0.00000000000E+00  0.00000000000E+00  0.20574632164E+04  0.20574632164E+04  0.25500000920E-02 0.  1.
        2   -1    0    0  501    0  0.00000000000E+00  0.00000000000E+00 -0.11721420996E+04  0.11721420996E+04  0.25500000920E-02 0. -1.
    10030    2    1    2    0    0  0.00000000000E+00  0.00000000000E+00  0.88532111689E+03  0.32296053160E+04  0.31058906963E+04 0.  0.
        2    1    3    3  502    0 -0.66115971938E+03  0.13186060952E+04 -0.62258090809E+02  0.14763909641E+04  0.25500000920E-02 0. -1.
       -2    1    3    3    0  502  0.66115971938E+03 -0.13186060952E+04  0.94757920770E+03  0.17532143519E+04  0.25500000920E-02 0.  1.
</event>
<event>
 5   0  0.5281187E-07  0.3196637E+04  0.7818609E-02  0.8189706E-01
       -1   -1    0    0    0  501  0.00000000000E+00  0.00000000000E+00  0.11017171143E+04  0.11017171143E+04  0.50400001928E-02 0.  1.
        1   -1    0    0  501    0  0.00000000000E+00  0.00000000000E+00 -0.23187641936E+04  0.23187641936E+04  0.50400001928E-02 0. -1.
    10030    2    1    2    0    0  0.00000000000E+00  0.00000000000E+00 -0.12170470794E+04  0.34204813079E+04  0.31966371055E+04 0.  0.
        5    1    3    3  502    0 -0.78467377292E+03 -0.11580716547E+04  0.21876365095E+03  0.14158822381E+04  0.46999998093E+01 0.  1.
       -5    1    3    3    0  502  0.78467377292E+03  0.11580716547E+04 -0.14358107303E+04  0.20045990698E+04  0.46999998093E+01 0. -1.
</event>
<event>
 5   0  0.1493485E-06  0.3180370E+04  0.7818609E-02  0.8194021E-01
        2   -1    0    0  501    0  0.00000000000E+00  0.00000000000E+00  0.16830332865E+04  0.16830332865E+04  0.25500000920E-02 0. -1.
       -2   -1    0    0    0  501  0.00000000000E+00  0.00000000000E+00 -0.15024589184E+04  0.15024589184E+04  0.25500000920E-02 0.  1.
    10030    2    1    2    0    0  0.00000000000E+00  0.00000000000E+00  0.18057436811E+03  0.31854922048E+04  0.31803700232E+04 0.  0.
        2    1    3    3  502    0 -0.13603564216E+04  0.52129326736E+03 -0.54821272616E+03  0.15565517844E+04  0.25500000920E-02 0.  1.
       -2    1    3    3    0  502  0.13603564216E+04 -0.52129326736E+03  0.72878709427E+03  0.16289404204E+04  0.25500000920E-02 0. -1.
</event>
<event>
 5   0  0.5281187E-07  0.3183709E+04  0.7818609E-02  0.8193133E-01
       -1   -1    0    0    0  501  0.00000000000E+00  0.00000000000E+00  0.18127842019E+04  0.18127842019E+04  0.50400001928E-02 0. -1.
        1   -1    0    0  501    0  0.00000000000E+00  0.00000000000E+00 -0.13978506229E+04  0.13978506229E+04  0.50400001928E-02 0.  1.
    10030    2    1    2    0    0  0.00000000000E+00  0.00000000000E+00  0.41493357900E+03  0.32106348248E+04  0.31837094879E+04 0.  0.
        5    1    3    3  502    0 -0.42786095209E+03  0.33877288329E+03 -0.13005552603E+04  0.14104248069E+04  0.46999998093E+01 0.  1.
       -5    1    3    3    0  502  0.42786095209E+03 -0.33877288329E+03  0.17154888393E+04  0.18002100179E+04  0.46999998093E+01 0. -1.
</event>
<event>
 5   0  0.1538349E-06  0.3217233E+04  0.7818609E-02  0.8184281E-01
        2   -1    0    0  501    0  0.00000000000E+00  0.00000000000E+00  0.28206784926E+04  0.28206784926E+04  0.25500000920E-02 0. -1.
       -2   -1    0    0    0  501  0.00000000000E+00  0.00000000000E+00 -0.91738463442E+03  0.91738463443E+03  0.25500000920E-02 0.  1.
    10030    2    1    2    0    0  0.00000000000E+00  0.00000000000E+00  0.19032938581E+04  0.37380631270E+04  0.32172330396E+04 0.  0.
        1    1    3    3  502    0  0.97966697172E+03  0.33398558111E+03  0.23823987943E+04  0.25975214646E+04  0.50400001928E-02 0. -1.
       -1    1    3    3    0  502 -0.97966697172E+03 -0.33398558111E+03 -0.47910493614E+03  0.11405416624E+04  0.50400001928E-02 0.  1.
</event>
<event>
 5   0  0.1508771E-06  0.3196976E+04  0.7818609E-02  0.8189616E-01
        2   -1    0    0  501    0  0.00000000000E+00  0.00000000000E+00  0.15753409809E+04  0.15753409809E+04  0.25500000920E-02 0. -1.
       -2   -1    0    0    0  501  0.00000000000E+00  0.00000000000E+00 -0.16219747327E+04  0.16219747327E+04  0.25500000920E-02 0.  1.
    10030    2    1    2    0    0  0.00000000000E+00  0.00000000000E+00 -0.46633751767E+02  0.31973157136E+04  0.31969756123E+04 0.  0.
        4    1    3    3  502    0  0.10717204224E+04  0.51728877798E+03  0.10440310801E+04  0.15830902857E+04  0.12699999809E+01 0. -1.
       -4    1    3    3    0  502 -0.10717204224E+04 -0.51728877798E+03 -0.10906648319E+04  0.16142254279E+04  0.12699999809E+01 0.  1.
</event>
<event>
 5   0  0.5281187E-07  0.3192305E+04  0.7818609E-02  0.8190852E-01
        1   -1    0    0  501    0  0.00000000000E+00  0.00000000000E+00  0.19624618122E+04  0.19624618122E+04  0.50400001928E-02 0. -1.
       -1   -1    0    0    0  501  0.00000000000E+00  0.00000000000E+00 -0.12982177588E+04  0.12982177588E+04  0.50400001928E-02 0.  1.
    10030    2    1    2    0    0  0.00000000000E+00  0.00000000000E+00  0.66424405340E+03  0.32606795710E+04  0.31923049827E+04 0.  0.
        5    1    3    3  502    0  0.40981803461E+03 -0.95987667244E+03  0.15656162134E+04  0.18816190543E+04  0.46999998093E+01 0. -1.
       -5    1    3    3    0  502 -0.40981803461E+03  0.95987667244E+03 -0.90137216005E+03  0.13790605167E+04  0.46999998093E+01 0.  1.
</event>
<event>
 5   0  0.1508771E-06  0.3204984E+04  0.7818609E-02  0.8187502E-01
        2   -1    0    0  501    0  0.00000000000E+00  0.00000000000E+00  0.28337362455E+04  0.28337362456E+04  0.25500000920E-02 0. -1.
       -2   -1    0    0    0  501  0.00000000000E+00  0.00000000000E+00 -0.90621739757E+03  0.90621739757E+03  0.25500000920E-02 0.  1.
    10030    2    1    2    0    0  0.00000000000E+00  0.00000000000E+00  0.19275188480E+04  0.37399536431E+04  0.32049842969E+04 0.  0.
        4    1    3    3  502    0 -0.84563238375E+03 -0.45498033717E+03  0.24608192790E+04  0.26415401516E+04  0.12699999809E+01 0. -1.
       -4    1    3    3    0  502  0.84563238375E+03  0.45498033717E+03 -0.53330043105E+03  0.10984134915E+04  0.12699999809E+01 0.  1.
</event>
<event>
 5   0  0.1572769E-06  0.3226858E+04  0.7818609E-02  0.8181760E-01
        2   -1    0    0  501    0  0.00000000000E+00  0.00000000000E+00  0.17485323410E+04  0.17485323410E+04  0.25500000920E-02 0.  1.
       -2   -1    0    0    0  501  0.00000000000E+00  0.00000000000E+00 -0.14887643885E+04  0.14887643885E+04  0.25500000920E-02 0. -1.
    10030    2    1    2    0    0  0.00000000000E+00  0.00000000000E+00  0.25976795248E+03  0.32372967295E+04  0.32268577170E+04 0.  0.
        5    1    3    3  502    0 -0.79737035639E+03 -0.82453898715E+03  0.12682205036E+04  0.17099910416E+04  0.46999998093E+01 0.  1.
       -5    1    3    3    0  502  0.79737035639E+03  0.82453898715E+03 -0.10084525511E+04  0.15273056879E+04  0.46999998093E+01 0. -1.
</event>
<event>
 5   0  0.1538349E-06  0.3157408E+04  0.7818609E-02  0.8200157E-01
        2   -1    0    0  501    0  0.00000000000E+00  0.00000000000E+00  0.14627372310E+04  0.14627372310E+04  0.25500000920E-02 0. -1.
       -2   -1    0    0    0  501  0.00000000000E+00  0.00000000000E+00 -0.17038645360E+04  0.17038645360E+04  0.25500000920E-02 0.  1.
    10030    2    1    2    0    0  0.00000000000E+00  0.00000000000E+00 -0.24112730505E+03  0.31666017670E+04  0.31574078567E+04 0.  0.
        1    1    3    3  502    0 -0.49286132098E+02  0.10730153856E+04 -0.12808745685E+04  0.16716551083E+04  0.50400001928E-02 0.  1.
       -1    1    3    3    0  502  0.49286132098E+02 -0.10730153856E+04  0.10397472635E+04  0.14949466588E+04  0.50400001928E-02 0. -1.
</event>
<event>
 5   0  0.5233813E-07  0.2841598E+04  0.7818609E-02  0.8290469E-01
        1   -1    0    0  501    0  0.00000000000E+00  0.00000000000E+00  0.23147495119E+04  0.23147495119E+04  0.50400001928E-02 0.  1.
       -1   -1    0    0    0  501  0.00000000000E+00  0.00000000000E+00 -0.87208979794E+03  0.87208979795E+03  0.50400001928E-02 0. -1.
    10030    2    1    2    0    0  0.00000000000E+00  0.00000000000E+00  0.14426597139E+04  0.31868393098E+04  0.28415977436E+04 0.  0.
        4    1    3    3  502    0 -0.12116213831E+04  0.62182538705E+02 -0.10795130963E+03  0.12180099106E+04  0.12699999809E+01 0. -1.
       -4    1    3    3    0  502  0.12116213831E+04 -0.62182538705E+02  0.15506110236E+04  0.19688293993E+04  0.12699999809E+01 0.  1.
</event>
<event>
 5   0  0.1538349E-06  0.3188456E+04  0.7818609E-02  0.8191873E-01
       -2   -1    0    0    0  501  0.00000000000E+00  0.00000000000E+00  0.18315353955E+04  0.18315353955E+04  0.25500000920E-02 0.  1.
        2   -1    0    0  501    0  0.00000000000E+00  0.00000000000E+00 -0.13876680610E+04  0.13876680610E+04  0.25500000920E-02 0. -1.
    10030    2    1    2    0    0  0.00000000000E+00  0.00000000000E+00  0.44386733457E+03  0.32192034565E+04  0.31884561599E+04 0.  0.
        1    1    3    3  502    0  0.33816578716E+03 -0.43224857154E+03  0.17331536216E+04  0.18179704077E+04  0.50400001928E-02 0.  1.
       -1    1    3    3    0  502 -0.33816578716E+03  0.43224857154E+03 -0.12892862870E+04  0.14012330488E+04  0.50400001928E-02 0. -1.
</event>
<event>
 5   0  0.5317728E-07  0.3258899E+04  0.7818609E-02  0.8173433E-01
       -1   -1    0    0    0  501  0.00000000000E+00  0.00000000000E+00  0.11934823029E+04  0.11934823029E+04  0.50400001928E-02 0.  1.
        1   -1    0    0  501    0  0.00000000000E+00  0.00000000000E+00 -0.22246716385E+04  0.22246716385E+04  0.50400001928E-02 0. -1.
    10030    2    1    2    0    0  0.00000000000E+00  0.00000000000E+00 -0.10311893356E+04  0.34181539414E+04  0.32588993420E+04 0.  0.
        2    1    3    3  502    0 -0.74771608227E+03  0.87795444625E+03  0.69184415095E+03  0.13448165966E+04  0.25500000920E-02 0.  1.
       -2    1    3    3    0  502  0.74771608227E+03 -0.87795444625E+03 -0.17230334865E+04  0.20733373447E+04  0.25500000920E-02 0. -1.
</event>
<event>
 5   0  0.1556396E-06  0.3063829E+04  0.7818609E-02  0.8225735E-01
        2   -1    0    0  501    0  0.00000000000E+00  0.00000000000E+00  0.19341743324E+04  0.19341743324E+04  0.25500000920E-02 0.  1.
       -2   -1    0    0    0  501  0.00000000000E+00  0.00000000000E+00 -0.12133148885E+04  0.12133148885E+04  0.25500000920E-02 0. -1.
    10030    2    1    2    0    0  0.00000000000E+00  0.00000000000E+00  0.72085944390E+03  0.31474892210E+04  0.30638293129E+04 0.  0.
        3    1    3    3  502    0  0.14017616151E+04 -0.24835164990E+03 -0.22083679868E+03  0.14406189883E+04  0.10100000352E+00 0. -1.
       -3    1    3    3    0  502 -0.14017616151E+04  0.24835164990E+03  0.94169624259E+03  0.17068702327E+04  0.10100000352E+00 0.  1.
</event>
<event>
 5   0  0.5233813E-07  0.3205307E+04  0.7818609E-02  0.8187417E-01
        1   -1    0    0  501    0  0.00000000000E+00  0.00000000000E+00  0.19620956465E+04  0.19620956465E+04  0.50400001928E-02 0.  1.
       -1   -1    0    0    0  501  0.00000000000E+00  0.00000000000E+00 -0.13090589219E+04  0.13090589219E+04  0.50400001928E-02 0. -1.
    10030    2    1    2    0    0  0.00000000000E+00  0.00000000000E+00  0.65303672458E+03  0.32711545684E+04  0.32053073560E+04 0.  0.
        4    1    3    3  502    0  0.88396022658E+03 -0.41211752229E+03  0.16243630987E+04  0.18946724318E+04  0.12699999809E+01 0.  1.
       -4    1    3    3    0  502 -0.88396022658E+03  0.41211752229E+03 -0.97132637413E+03  0.13764821366E+04  0.12699999809E+01 0. -1.
</event>
<event>
 5   0  0.5370912E-07  0.3200404E+04  0.7818609E-02  0.8188711E-01
       -1   -1    0    0    0  501  0.00000000000E+00  0.00000000000E+00  0.19794857554E+04  0.19794857554E+04  0.50400001928E-02 0.  1.
        1   -1    0    0  501    0  0.00000000000E+00  0.00000000000E+00 -0.12935916143E+04  0.12935916143E+04  0.50400001928E-02 0. -1.
    10030    2    1    2    0    0  0.00000000000E+00  0.00000000000E+00  0.68589414112E+03  0.32730773697E+04  0.32004038331E+04 0.  0.
        1    1    3    3  502    0 -0.79011947412E+03  0.50980169690E+02  0.17651206215E+04  0.19345641807E+04  0.50400001928E-02 0.  1.
       -1    1    3    3    0  502  0.79011947412E+03 -0.50980169690E+02 -0.10792264803E+04  0.13385131890E+04  0.50400001928E-02 0. -1.
</event>
<event>
 5   0  0.1538349E-06  0.3208047E+04  0.7818609E-02  0.8186695E-01
       -2   -1    0    0    0  501  0.00000000000E+00  0.00000000000E+00  0.13953973738E+04  0.13953973738E+04  0.25500000920E-02 0.  1.
        2   -1    0    0  501    0  0.00000000000E+00  0.00000000000E+00 -0.18438413473E+04  0.18438413473E+04  0.25500000920E-02 0. -1.
    10030    2    1    2    0    0  0.00000000000E+00  0.00000000000E+00 -0.44844397349E+03  0.32392387211E+04  0.32080469907E+04 0.  0.
        1    1    3    3  502    0 -0.32511058547E+03  0.81681326427E+03  0.11304675052E+04  0.14320745727E+04  0.50400001928E-02 0.  1.
       -1    1    3    3    0  502  0.32511058547E+03 -0.81681326427E+03 -0.15789114787E+04  0.18071641484E+04  0.50400001928E-02 0. -1.
</event>
<event>
 5   0  0.1508771E-06  0.3208320E+04  0.7818609E-02  0.8186623E-01
        2   -1    0    0  501    0  0.00000000000E+00  0.00000000000E+00  0.26954383910E+04  0.26954383910E+04  0.25500000920E-02 0.  1.
       -2   -1    0    0    0  501  0.00000000000E+00  0.00000000000E+00 -0.95469807911E+03  0.95469807911E+03  0.25500000920E-02 0. -1.
    10030    2    1    2    0    0  0.00000000000E+00  0.00000000000E+00  0.17407403119E+04  0.36501364701E+04  0.32083203420E+04 0.  0.
        4    1    3    3  502    0 -0.44396975750E+03 -0.49383457766E+03 -0.79097651878E+03  0.10327764530E+04  0.12699999809E+01 0. -1.
       -4    1    3    3    0  502  0.44396975750E+03  0.49383457766E+03  0.25317168307E+04  0.26173600171E+04  0.12699999809E+01 0.  1.
</event>
<event>
 5   0  0.5281187E-07  0.3198858E+04  0.7818609E-02  0.8189119E-01
        1   -1    0    0  501    0  0.00000000000E+00  0.00000000000E+00  0.13122608677E+04  0.13122608677E+04  0.50400001928E-02 0.  1.
       -1   -1    0    0    0  501  0.00000000000E+00  0.00000000000E+00 -0.19494394142E+04  0.19494394142E+04  0.50400001928E-02 0. -1.
    10030    2    1    2    0    0  0.00000000000E+00  0.00000000000E+00 -0.63717854649E+03  0.32617002820E+04  0.31988579570E+04 0.  0.
        5    1    3    3  502    0 -0.10206017719E+04 -0.86524068767E+03  0.57491412708E+03  0.14563027735E+04  0.46999998093E+01 0.  1.
       -5    1    3    3    0  502  0.10206017719E+04  0.86524068767E+03 -0.12120926736E+04  0.18053975085E+04  0.46999998093E+01 0. -1.
</event>
<event>
 5   0  0.1538349E-06  0.3192480E+04  0.7818609E-02  0.8190806E-01
       -2   -1    0    0    0  501  0.00000000000E+00  0.00000000000E+00  0.12459302821E+04  0.12459302821E+04  0.25500000920E-02 0. -1.
        2   -1    0    0  501    0  0.00000000000E+00  0.00000000000E+00 -0.20450436351E+04  0.20450436351E+04  0.25500000920E-02 0.  1.
    10030    2    1    2    0    0  0.00000000000E+00  0.00000000000E+00 -0.79911335299E+03  0.32909739172E+04  0.31924797843E+04 0.  0.
        1    1    3    3  502    0 -0.12299184447E+04  0.46862451732E+03  0.53145355576E+03  0.14194193181E+04  0.50400001928E-02 0. -1.
       -1    1    3    3    0  502  0.12299184447E+04 -0.46862451732E+03 -0.13305669088E+04  0.18715545991E+04  0.50400001928E-02 0.  1.
</event>
<event>
 5   0  0.1556396E-06  0.3217024E+04  0.7818609E-02  0.8184336E-01
        2   -1    0    0  501    0  0.00000000000E+00  0.00000000000E+00  0.16578525762E+04  0.16578525762E+04  0.25500000920E-02 0.  1.
       -2   -1    0    0    0  501  0.00000000000E+00  0.00000000000E+00 -0.15606399960E+04  0.15606399960E+04  0.25500000920E-02 0. -1.
    10030    2    1    2    0    0  0.00000000000E+00  0.00000000000E+00  0.97212580184E+02  0.32184925722E+04  0.32170241142E+04 0.  0.
        3    1    3    3  502    0 -0.12113953148E+04  0.10440829051E+04 -0.12387689109E+03  0.16040365381E+04  0.10100000352E+00 0.  1.
       -3    1    3    3    0  502  0.12113953148E+04 -0.10440829051E+04  0.22108947128E+03  0.16144560340E+04  0.10100000352E+00 0. -1.
</event>
<event>
 5   0  0.5370912E-07  0.3205275E+04  0.7818609E-02  0.8187425E-01
        1   -1    0    0  501    0  0.00000000000E+00  0.00000000000E+00  0.14683372796E+04  0.14683372796E+04  0.50400001928E-02 0. -1.
       -1   -1    0    0    0  501  0.00000000000E+00  0.00000000000E+00 -0.17492219066E+04  0.17492219066E+04  0.50400001928E-02 0.  1.
    10030    2    1    2    0    0  0.00000000000E+00  0.00000000000E+00 -0.28088462702E+03  0.32175591862E+04  0.32052754863E+04 0.  0.
        1    1    3    3  502    0  0.31601168724E+03  0.13720046174E+04  0.62812077911E+03  0.15416860153E+04  0.50400001928E-02 0. -1.
       -1    1    3    3    0  502 -0.31601168724E+03 -0.13720046174E+04 -0.90900540613E+03  0.16758731709E+04  0.50400001928E-02 0.  1.
</event>
<event>
 5   0  0.5370912E-07  0.3179082E+04  0.7818609E-02  0.8194363E-01
       -1   -1    0    0    0  501  0.00000000000E+00  0.00000000000E+00  0.10162578891E+04  0.10162578892E+04  0.50400001928E-02 0.  1.
        1   -1    0    0  501    0  0.00000000000E+00  0.00000000000E+00 -0.24862203236E+04  0.24862203236E+04  0.50400001928E-02 0. -1.
    10030    2    1    2    0    0  0.00000000000E+00  0.00000000000E+00 -0.14699624344E+04  0.35024782127E+04  0.31790822688E+04 0.  0.
        1    1    3    3  502    0  0.23860328963E+03 -0.35196869573E+03 -0.24223954758E+04  0.24594335392E+04  0.50400001928E-02 0. -1.
       -1    1    3    3    0  502 -0.23860328963E+03  0.35196869573E+03  0.95243304138E+03  0.10430446735E+04  0.50400001928E-02 0.  1.
</event>
<event>
 5   0  0.5177039E-07  0.3235900E+04  0.7818609E-02  0.8179400E-01
       -1   -1    0    0    0  501  0.00000000000E+00  0.00000000000E+00  0.17643380758E+04  0.17643380758E+04  0.50400001928E-02 0. -1.
        1   -1    0    0  501    0  0.00000000000E+00  0.00000000000E+00 -0.14837075291E+04  0.14837075291E+04  0.50400001928E-02 0.  1.
    10030    2    1    2    0    0  0.00000000000E+00  0.00000000000E+00  0.28063054667E+03  0.32480456049E+04  0.32358996814E+04 0.  0.
        3    1    3    3  502    0 -0.47302527954E+03  0.71706917593E+03  0.15165270396E+04  0.17429272476E+04  0.10100000352E+00 0. -1.
       -3    1    3    3    0  502  0.47302527954E+03 -0.71706917593E+03 -0.12358964930E+04  0.15051183574E+04  0.10100000352E+00 0.  1.
</event>
<event>
 5   0  0.5281187E-07  0.3206284E+04  0.7818609E-02  0.8187160E-01
        1   -1    0    0  501    0  0.00000000000E+00  0.00000000000E+00  0.20778262270E+04  0.20778262270E+04  0.50400001928E-02 0.  1.
       -1   -1    0    0    0  501  0.00000000000E+00  0.00000000000E+00 -0.12369006012E+04  0.12369006012E+04  0.50400001928E-02 0. -1.
    10030    2    1    2    0    0  0.00000000000E+00  0.00000000000E+00  0.84092562580E+03  0.33147268282E+04  0.32062841480E+04 0.  0.
        5    1    3    3  502    0 -0.15156740453E+04 -0.19633093047E+03 -0.79877916708E+02  0.15304300760E+04  0.46999998093E+01 0. -1.
       -5    1    3    3    0  502  0.15156740453E+04  0.19633093047E+03  0.92080354251E+03  0.17842967522E+04  0.46999998093E+01 0.  1.
</event>
<event>
 5   0  0.5177039E-07  0.3222566E+04  0.7818609E-02  0.8182883E-01
        1   -1    0    0  501    0  0.00000000000E+00  0.00000000000E+00  0.11323688195E+04  0.11323688195E+04  0.50400001928E-02 0.  1.
       -1   -1    0    0    0  501  0.00000000000E+00  0.00000000000E+00 -0.22927445504E+04  0.22927445504E+04  0.50400001928E-02 0. -1.
    10030    2    1    2    0    0  0.00000000000E+00  0.00000000000E+00 -0.11603757309E+04  0.34251133700E+04  0.32225657108E+04 0.  0.
        3    1    3    3  502    0 -0.65414821038E+03 -0.11782299680E+04  0.35855659503E+03  0.13945244998E+04  0.10100000352E+00 0.  1.
       -3    1    3    3    0  502  0.65414821038E+03  0.11782299680E+04 -0.15189323260E+04  0.20305888702E+04  0.10100000352E+00 0. -1.
</event>
<event>
 5   0  0.1508771E-06  0.3200330E+04  0.7818609E-02  0.8188730E-01
       -2   -1    0    0    0  501  0.00000000000E+00  0.00000000000E+00  0.10553659916E+04  0.10553659916E+04  0.25500000920E-02 0. -1.
        2   -1    0    0  501    0  0.00000000000E+00  0.00000000000E+00 -0.24261992710E+04  0.24261992710E+04  0.25500000920E-02 0.  1.
    10030    2    1    2    0    0  0.00000000000E+00  0.00000000000E+00 -0.13708332795E+04  0.34815652626E+04  0.32003301076E+04 0.  0.
        4    1    3    3  502    0 -0.13424432569E+04  0.39202650241E+03  0.16053474563E+03  0.14076973020E+04  0.12699999809E+01 0. -1.
       -4    1    3    3    0  502  0.13424432569E+04 -0.39202650241E+03 -0.15313680251E+04  0.20738679606E+04  0.12699999809E+01 0.  1.
</event>
<event>
 5   0  0.1538349E-06  0.3014263E+04  0.7818609E-02  0.8239670E-01
        2   -1    0    0  501    0  0.00000000000E+00  0.00000000000E+00  0.14644753962E+04  0.14644753962E+04  0.25500000920E-02 0.  1.
       -2   -1    0    0    0  501  0.00000000000E+00  0.00000000000E+00 -0.15510302617E+04  0.15510302617E+04  0.25500000920E-02 0. -1.
    10030    2    1    2    0    0  0.00000000000E+00  0.00000000000E+00 -0.86554865530E+02  0.30155056578E+04  0.30142631982E+04 0.  0.
        1    1    3    3  502    0  0.10860370280E+04 -0.45402680225E+01 -0.10886716123E+04  0.15377590577E+04  0.50400001928E-02 0. -1.
       -1    1    3    3    0  502 -0.10860370280E+04  0.45402680225E+01  0.10021167467E+04  0.14777466002E+04  0.50400001928E-02 0.  1.
</event>
<event>
 5   0  0.5317728E-07  0.3195563E+04  0.7818609E-02  0.8189990E-01
       -1   -1    0    0    0  501  0.00000000000E+00  0.00000000000E+00  0.13699491120E+04  0.13699491120E+04  0.50400001928E-02 0.  1.
        1   -1    0    0  501    0  0.00000000000E+00  0.00000000000E+00 -0.18635042531E+04  0.18635042531E+04  0.50400001928E-02 0. -1.
    10030    2    1    2    0    0  0.00000000000E+00  0.00000000000E+00 -0.49355514108E+03  0.32334533651E+04  0.31955631721E+04 0.  0.
        2    1    3    3  502    0  0.12364479313E+04  0.12154174171E+03 -0.12633441082E+04  0.17718956565E+04  0.25500000920E-02 0. -1.
       -2    1    3    3    0  502 -0.12364479313E+04 -0.12154174171E+03  0.76978896712E+03  0.14615577086E+04  0.25500000920E-02 0.  1.
</event>
<event>
 5   0  0.1572769E-06  0.3187200E+04  0.7818609E-02  0.8192206E-01
       -2   -1    0    0    0  501  0.00000000000E+00  0.00000000000E+00  0.13049122894E+04  0.13049122894E+04  0.25500000920E-02 0. -1.
        2   -1    0    0  501    0  0.00000000000E+00  0.00000000000E+00 -0.19461542228E+04  0.19461542228E+04  0.25500000920E-02 0.  1.
    10030    2    1    2    0    0  0.00000000000E+00  0.00000000000E+00 -0.64124193337E+03  0.32510665121E+04  0.31871997505E+04 0.  0.
        5    1    3    3  502    0  0.56202457618E+03  0.50609495907E+03  0.11101752285E+04  0.13433223216E+04  0.46999998093E+01 0. -1.
       -5    1    3    3    0  502 -0.56202457618E+03 -0.50609495907E+03 -0.17514171618E+04  0.19077441905E+04  0.46999998093E+01 0.  1.
</event>
<event>
 5   0  0.5317728E-07  0.3017476E+04  0.7818609E-02  0.8238758E-01
        1   -1    0    0  501    0  0.00000000000E+00  0.00000000000E+00  0.94222199805E+03  0.94222199807E+03  0.50400001928E-02 0. -1.
       -1   -1    0    0    0  501  0.00000000000E+00  0.00000000000E+00 -0.24158748636E+04  0.24158748636E+04  0.50400001928E-02 0.  1.
    10030    2    1    2    0    0  0.00000000000E+00  0.00000000000E+00 -0.14736528656E+04  0.33580968617E+04  0.30174760586E+04 0.  0.
        2    1    3    3  502    0 -0.48203068272E+03 -0.39348423313E+03 -0.22664256999E+04  0.23502912318E+04  0.25500000920E-02 0.  1.
       -2    1    3    3    0  502  0.48203068272E+03  0.39348423313E+03  0.79277283436E+03  0.10078056299E+04  0.25500000920E-02 0. -1.
</event>
<event>
 5   0  0.1493485E-06  0.3089201E+04  0.7818609E-02  0.8218708E-01
        2   -1    0    0  501    0  0.00000000000E+00  0.00000000000E+00  0.30676550216E+04  0.30676550216E+04  0.25500000920E-02 0. -1.
       -2   -1    0    0    0  501  0.00000000000E+00  0.00000000000E+00 -0.77772461238E+03  0.77772461239E+03  0.25500000920E-02 0.  1.
    10030    2    1    2    0    0  0.00000000000E+00  0.00000000000E+00  0.22899304092E+04  0.38453796340E+04  0.30892010699E+04 0.  0.
        2    1    3    3  502    0 -0.61233502632E+03 -0.13846812811E+04  0.76435029811E+03  0.16960329634E+04  0.25500000920E-02 0.  1.
       -2    1    3    3    0  502  0.61233502632E+03  0.13846812811E+04  0.15255801111E+04  0.21493466705E+04  0.25500000920E-02 0. -1.
</event>
<event>
 5   0  0.1556396E-06  0.3195170E+04  0.7818609E-02  0.8190094E-01
        2   -1    0    0  501    0  0.00000000000E+00  0.00000000000E+00  0.82031673943E+03  0.82031673943E+03  0.25500000920E-02 0.  1.
       -2   -1    0    0    0  501  0.00000000000E+00  0.00000000000E+00 -0.31113319608E+04  0.31113319608E+04  0.25500000920E-02 0. -1.
    10030    2    1    2    0    0  0.00000000000E+00  0.00000000000E+00 -0.22910152213E+04  0.39316487002E+04  0.31951699106E+04 0.  0.
        3    1    3    3  502    0 -0.12211028565E+04 -0.74312658148E+03 -0.20233521562E+04  0.24773540846E+04  0.10100000352E+00 0. -1.
       -3    1    3    3    0  502  0.12211028565E+04  0.74312658148E+03 -0.26766306512E+03  0.14542946156E+04  0.10100000352E+00 0.  1.
</event>
<event>
 5   0  0.1538349E-06  0.3199842E+04  0.7818609E-02  0.8188859E-01
        2   -1    0    0  501    0  0.00000000000E+00  0.00000000000E+00  0.20150029128E+04  0.20150029128E+04  0.25500000920E-02 0.  1.
       -2   -1    0    0    0  501  0.00000000000E+00  0.00000000000E+00 -0.12703438292E+04  0.12703438292E+04  0.25500000920E-02 0. -1.
    10030    2    1    2    0    0  0.00000000000E+00  0.00000000000E+00  0.74465908358E+03  0.32853467420E+04  0.31998415686E+04 0.  0.
        1    1    3    3  502    0 -0.13381531637E+04 -0.64023218347E+03  0.98767373454E+03  0.17821477336E+04  0.50400001928E-02 0.  1.
       -1    1    3    3    0  502  0.13381531637E+04  0.64023218347E+03 -0.24301465096E+03  0.15031990084E+04  0.50400001928E-02 0. -1.
</event>
<event>
 5   0  0.1508771E-06  0.3211079E+04  0.7818609E-02  0.8185897E-01
       -2   -1    0    0    0  501  0.00000000000E+00  0.00000000000E+00  0.11068718420E+04  0.11068718420E+04  0.25500000920E-02 0.  1.
        2   -1    0    0  501    0  0.00000000000E+00  0.00000000000E+00 -0.23288674102E+04  0.23288674102E+04  0.25500000920E-02 0. -1.
    10030    2    1    2    0    0  0.00000000000E+00  0.00000000000E+00 -0.12219955682E+04  0.34357392522E+04  0.32110794198E+04 0.  0.
        4    1    3    3  502    0 -0.72210138721E+03 -0.66452011304E+03 -0.19706263596E+04  0.22014511705E+04  0.12699999809E+01 0. -1.
       -4    1    3    3    0  502  0.72210138721E+03  0.66452011304E+03  0.74863079136E+03  0.12342880817E+04  0.12699999809E+01 0.  1.
</event>
<event>
 5   0  0.5281187E-07  0.3235155E+04  0.7818609E-02  0.8179594E-01
       -1   -1    0    0    0  501  0.00000000000E+00  0.00000000000E+00  0.30628636416E+04  0.30628636416E+04  0.50400001928E-02 0.  1.
        1   -1    0    0  501    0  0.00000000000E+00  0.00000000000E+00 -0.85428425809E+03  0.85428425810E+03  0.50400001928E-02 0. -1.
    10030    2    1    2    0    0  0.00000000000E+00  0.00000000000E+00  0.22085793835E+04  0.39171478997E+04  0.32351545210E+04 0.  0.
        5    1    3    3  502    0  0.97906111057E+03  0.45795868476E+03 -0.35283360824E+03  0.11370138347E+04  0.46999998093E+01 0. -1.
       -5    1    3    3    0  502 -0.97906111057E+03 -0.45795868476E+03  0.25614129917E+04  0.27801340650E+04  0.46999998093E+01 0.  1.
</event>
<event>
 5   0  0.5233813E-07  0.3082086E+04  0.7818609E-02  0.8220671E-01
       -1   -1    0    0    0  501  0.00000000000E+00  0.00000000000E+00  0.24671391347E+04  0.24671391347E+04  0.50400001928E-02 0. -1.
        1   -1    0    0  501    0  0.00000000000E+00  0.00000000000E+00 -0.96257798272E+03  0.96257798273E+03  0.50400001928E-02 0.  1.
    10030    2    1    2    0    0  0.00000000000E+00  0.00000000000E+00  0.15045611520E+04  0.34297171174E+04  0.30820861840E+04 0.  0.
        4    1    3    3  502    0 -0.99637740294E+03 -0.11019100241E+04  0.12081698826E+04  0.19148497874E+04  0.12699999809E+01 0. -1.
       -4    1    3    3    0  502  0.99637740294E+03  0.11019100241E+04  0.29639126943E+03  0.15148673301E+04  0.12699999809E+01 0.  1.
</event>
<event>
 5   0  0.5281187E-07  0.3193959E+04  0.7818609E-02  0.8190414E-01
       -1   -1    0    0    0  501  0.00000000000E+00  0.00000000000E+00  0.20123009524E+04  0.20123009524E+04  0.50400001928E-02 0. -1.
        1   -1    0    0  501    0  0.00000000000E+00  0.00000000000E+00 -0.12673765457E+04  0.12673765457E+04  0.50400001928E-02 0.  1.
    10030    2    1    2    0    0  0.00000000000E+00  0.00000000000E+00  0.74492440679E+03  0.32796774981E+04  0.31939586910E+04 0.  0.
        5    1    3    3  502    0 -0.80309105428E+03  0.86396592364E+02  0.17870785101E+04  0.19611454061E+04  0.46999998093E+01 0. -1.
       -5    1    3    3    0  502  0.80309105428E+03 -0.86396592364E+02 -0.10421541033E+04  0.13185320920E+04  0.46999998093E+01 0.  1.
</event>
<event>
 5   0  0.1556396E-06  0.3194524E+04  0.7818609E-02  0.8190265E-01
       -2   -1    0    0    0  501  0.00000000000E+00  0.00000000000E+00  0.13640999545E+04  0.13640999545E+04  0.25500000920E-02 0.  1.
        2   -1    0    0  501    0  0.00000000000E+00  0.00000000000E+00 -0.18702773605E+04  0.18702773605E+04  0.25500000920E-02 0. -1.
    10030    2    1    2    0    0  0.00000000000E+00  0.00000000000E+00 -0.50617740599E+03  0.32343773149E+04  0.31945236028E+04 0.  0.
        3    1    3    3  502    0  0.32482556486E+03  0.96272072747E+03 -0.15009017319E+04  0.18124703765E+04  0.10100000352E+00 0. -1.
       -3    1    3    3    0  502 -0.32482556486E+03 -0.96272072747E+03  0.99472432594E+03  0.14219069384E+04  0.10100000352E+00 0.  1.
</event>
<event>
 5   0  0.1493485E-06  0.3214509E+04  0.7818609E-02  0.8184996E-01
       -2   -1    0    0    0  501  0.00000000000E+00  0.00000000000E+00  0.11846200886E+04  0.11846200886E+04  0.25500000920E-02 0. -1.
        2   -1    0    0  501    0  0.00000000000E+00  0.00000000000E+00 -0.21806712852E+04  0.21806712852E+04  0.25500000920E-02 0.  1.
    10030    2    1    2    0    0  0.00000000000E+00  0.00000000000E+00 -0.99605119664E+03  0.33652913738E+04  0.32145089896E+04 0.  0.
        2    1    3    3  502    0  0.26958591076E+03 -0.38414643888E+03  0.11112925416E+04  0.12063234072E+04  0.25500000920E-02 0. -1.
       -2    1    3    3    0  502 -0.26958591076E+03  0.38414643888E+03 -0.21073437382E+04  0.21589679666E+04  0.25500000920E-02 0.  1.
</event>
<event>
 5   0  0.1572769E-06  0.2967314E+04  0.7818609E-02  0.8253127E-01
        2   -1    0    0  501    0  0.00000000000E+00  0.00000000000E+00  0.19174902515E+04  0.19174902515E+04  0.25500000920E-02 0.  1.
       -2   -1    0    0    0  501  0.00000000000E+00  0.00000000000E+00 -0.11479784779E+04  0.11479784779E+04  0.25500000920E-02 0. -1.
    10030    2    1    2    0    0  0.00000000000E+00  0.00000000000E+00  0.76951177357E+03  0.30654687294E+04  0.29673136270E+04 0.  0.
        5    1    3    3  502    0  0.11692017751E+04 -0.88729843610E+03  0.16106595474E+03  0.14765824181E+04  0.46999998093E+01 0.  1.
       -5    1    3    3    0  502 -0.11692017751E+04  0.88729843610E+03  0.60844581883E+03  0.15888863113E+04  0.46999998093E+01 0. -1.
</event>
<event>
 5   0  0.5233813E-07  0.3131699E+04  0.7818609E-02  0.8207092E-01
        1   -1    0    0  501    0  0.00000000000E+00  0.00000000000E+00  0.11364104462E+04  0.11364104462E+04  0.50400001928E-02 0. -1.
       -1   -1    0    0    0  501  0.00000000000E+00  0.00000000000E+00 -0.21575697001E+04  0.21575697001E+04  0.50400001928E-02 0.  1.
    10030    2    1    2    0    0  0.00000000000E+00  0.00000000000E+00 -0.10211592539E+04  0.32939801464E+04  0.31316990569E+04 0.  0.
        4    1    3    3  502    0  0.10490562015E+04  0.28152378307E+03 -0.16969028890E+04  0.20147594353E+04  0.12699999809E+01 0.  1.
       -4    1    3    3    0  502 -0.10490562015E+04 -0.28152378307E+03  0.67574363511E+03  0.12792207111E+04  0.12699999809E+01 0. -1.
</event>
<event>
 5   0  0.5370912E-07  0.3266936E+04  0.7818609E-02  0.8171360E-01
       -1   -1    0    0    0  501  0.00000000000E+00  0.00000000000E+00  0.15377769853E+04  0.15377769853E+04  0.50400001928E-02 0. -1.
        1   -1    0    0  501    0  0.00000000000E+00  0.00000000000E+00 -0.17351137730E+04  0.17351137730E+04  0.50400001928E-02 0.  1.
    10030    2    1    2    0    0  0.00000000000E+00  0.00000000000E+00 -0.19733678776E+03  0.32728907583E+04  0.32669361959E+04 0.  0.
        1    1    3    3  502    0  0.55132890104E+03 -0.14524943274E+02 -0.16390154700E+04  0.17293195893E+04  0.50400001928E-02 0.  1.
       -1    1    3    3    0  502 -0.55132890104E+03  0.14524943274E+02  0.14416786822E+04  0.15435711690E+04  0.50400001928E-02 0. -1.
</event>
<event>
 5   0  0.1493485E-06  0.3177472E+04  0.7818609E-02  0.8194792E-01
        2   -1    0    0  501    0  0.00000000000E+00  0.00000000000E+00  0.25535850616E+04  0.25535850616E+04  0.25500000920E-02 0.  1.
       -2   -1    0    0    0  501  0.00000000000E+00  0.00000000000E+00 -0.98844659059E+03  0.98844659060E+03  0.25500000920E-02 0. -1.
    10030    2    1    2    0    0  0.00000000000E+00  0.00000000000E+00  0.15651384710E+04  0.35420316522E+04  0.31774722331E+04 0.  0.
        2    1    3    3  502    0  0.26433680729E+03 -0.67495484549E+03 -0.79336628897E+03  0.10746478770E+04  0.25500000920E-02 0. -1.
       -2    1    3    3    0  502 -0.26433680729E+03  0.67495484549E+03  0.23585047600E+04  0.24673837752E+04  0.25500000920E-02 0.  1.
</event>
<event>
 5   0  0.4995625E-07  0.3200540E+04  0.7818609E-02  0.8188675E-01
        3   -1    0    0  501    0  0.00000000000E+00  0.00000000000E+00  0.21544076470E+04  0.21544076493E+04  0.10100000352E+00 0.  1.
       -3   -1    0    0    0  501  0.00000000000E+00  0.00000000000E+00 -0.11886624923E+04  0.11886624966E+04  0.10100000352E+00 0. -1.
    10030    2    1    2    0    0  0.00000000000E+00  0.00000000000E+00  0.96574515463E+03  0.33430701460E+04  0.32005396884E+04 0.  0.
        5    1    3    3  502    0  0.10905443102E+04  0.10198063629E+04 -0.11857324058E+03  0.14977895759E+04  0.46999998093E+01 0. -1.
       -5    1    3    3    0  502 -0.10905443102E+04 -0.10198063629E+04  0.10843183952E+04  0.18452805701E+04  0.46999998093E+01 0.  1.
</event>
<event>
 5   0  0.5233813E-07  0.3201570E+04  0.7818609E-02  0.8188403E-01
        1   -1    0    0  501    0  0.00000000000E+00  0.00000000000E+00  0.22691579915E+04  0.22691579915E+04  0.50400001928E-02 0.  1.
       -1   -1    0    0    0  501  0.00000000000E+00  0.00000000000E+00 -0.11292792871E+04  0.11292792871E+04  0.50400001928E-02 0. -1.
    10030    2    1    2    0    0  0.00000000000E+00  0.00000000000E+00  0.11398787044E+04  0.33984372786E+04  0.32015703141E+04 0.  0.
        4    1    3    3  502    0  0.15472476692E+04  0.20825786986E+03  0.19439836184E+03  0.15732574570E+04  0.12699999809E+01 0. -1.
       -4    1    3    3    0  502 -0.15472476692E+04 -0.20825786986E+03  0.94548034257E+03  0.18251798216E+04  0.12699999809E+01 0.  1.
</event>
<event>
 5   0  0.1508771E-06  0.3216581E+04  0.7818609E-02  0.8184452E-01
        2   -1    0    0  501    0  0.00000000000E+00  0.00000000000E+00  0.24264303277E+04  0.24264303277E+04  0.25500000920E-02 0. -1.
       -2   -1    0    0    0  501  0.00000000000E+00  0.00000000000E+00 -0.10660095822E+04  0.10660095822E+04  0.25500000920E-02 0.  1.
    10030    2    1    2    0    0  0.00000000000E+00  0.00000000000E+00  0.13604207455E+04  0.34924399099E+04  0.32165807808E+04 0.  0.
        4    1    3    3  502    0 -0.57569550497E+03 -0.60509171674E+03  0.21725047059E+04  0.23275179075E+04  0.12699999809E+01 0. -1.
       -4    1    3    3    0  502  0.57569550497E+03  0.60509171674E+03 -0.81208396034E+03  0.11649220024E+04  0.12699999809E+01 0.  1.
</event>
<event>
 5   0  0.5281187E-07  0.3186801E+04  0.7818609E-02  0.8192312E-01
       -1   -1    0    0    0  501  0.00000000000E+00  0.00000000000E+00  0.15760274977E+04  0.15760274977E+04  0.50400001928E-02 0.  1.
        1   -1    0    0  501    0  0.00000000000E+00  0.00000000000E+00 -0.16109646453E+04  0.16109646453E+04  0.50400001928E-02 0. -1.
    10030    2    1    2    0    0  0.00000000000E+00  0.00000000000E+00 -0.34937147651E+02  0.31869921430E+04  0.31868006394E+04 0.  0.
        5    1    3    3  502    0  0.94926924467E+03  0.91745515153E+03 -0.90974774171E+03  0.16032776109E+04  0.46999998093E+01 0. -1.
       -5    1    3    3    0  502 -0.94926924467E+03 -0.91745515153E+03  0.87481059406E+03  0.15837145322E+04  0.46999998093E+01 0.  1.
</event>
<event>
 5   0  0.1556396E-06  0.3191293E+04  0.7818609E-02  0.8191121E-01
        2   -1    0    0  501    0  0.00000000000E+00  0.00000000000E+00  0.15670514227E+04  0.15670514227E+04  0.25500000920E-02 0. -1.
       -2   -1    0    0    0  501  0.00000000000E+00  0.00000000000E+00 -0.16247630946E+04  0.16247630946E+04  0.25500000920E-02 0.  1.
    10030    2    1    2    0    0  0.00000000000E+00  0.00000000000E+00 -0.57711671940E+02  0.31918145173E+04  0.31912927280E+04 0.  0.
        3    1    3    3  502    0 -0.49315930891E+03 -0.12870196373E+04 -0.83301569161E+03  0.16104473924E+04  0.10100000352E+00 0.  1.
       -3    1    3    3    0  502  0.49315930891E+03  0.12870196373E+04  0.77530401967E+03  0.15813671250E+04  0.10100000352E+00 0. -1.
</event>
<event>
 5   0  0.1538349E-06  0.3185456E+04  0.7818609E-02  0.8192669E-01
        2   -1    0    0  501    0  0.00000000000E+00  0.00000000000E+00  0.14897905156E+04  0.14897905156E+04  0.25500000920E-02 0.  1.
       -2   -1    0    0    0  501  0.00000000000E+00  0.00000000000E+00 -0.17027775684E+04  0.17027775684E+04  0.25500000920E-02 0. -1.
    10030    2    1    2    0    0  0.00000000000E+00  0.00000000000E+00 -0.21298705278E+03  0.31925680840E+04  0.31854556168E+04 0.  0.
        1    1    3    3  502    0  0.15642733350E+04  0.13050526622E+03 -0.37690919659E+03  0.16143243892E+04  0.50400001928E-02 0. -1.
       -1    1    3    3    0  502 -0.15642733350E+04 -0.13050526622E+03  0.16392214381E+03  0.15782436948E+04  0.50400001928E-02 0.  1.
</event>
<event>
 5   0  0.5177039E-07  0.3162314E+04  0.7818609E-02  0.8198842E-01
        1   -1    0    0  501    0  0.00000000000E+00  0.00000000000E+00  0.18670623426E+04  0.18670623426E+04  0.50400001928E-02 0.  1.
       -1   -1    0    0    0  501  0.00000000000E+00  0.00000000000E+00 -0.13390324411E+04  0.13390324411E+04  0.50400001928E-02 0. -1.
    10030    2    1    2    0    0  0.00000000000E+00  0.00000000000E+00  0.52802990149E+03  0.32060947837E+04  0.31623137393E+04 0.  0.
        3    1    3    3  502    0  0.18947416867E+03 -0.91037555929E+03 -0.10325067886E+04  0.13895158863E+04  0.10100000352E+00 0. -1.
       -3    1    3    3    0  502 -0.18947416867E+03  0.91037555929E+03  0.15605366901E+04  0.18165788975E+04  0.10100000352E+00 0.  1.
</event>
<event>
 5   0  0.5233813E-07  0.3195626E+04  0.7818609E-02  0.8189973E-01
        1   -1    0    0  501    0  0.00000000000E+00  0.00000000000E+00  0.18675848690E+04  0.18675848690E+04  0.50400001928E-02 0. -1.
       -1   -1    0    0    0  501  0.00000000000E+00  0.00000000000E+00 -0.13670097599E+04  0.13670097599E+04  0.50400001928E-02 0.  1.
    10030    2    1    2    0    0  0.00000000000E+00  0.00000000000E+00  0.50057510912E+03  0.32345946289E+04  0.31956262256E+04 0.  0.
        4    1    3    3  502    0 -0.49010804508E+03 -0.14693193838E+04 -0.14679690267E+03  0.15558458442E+04  0.12699999809E+01 0. -1.
       -4    1    3    3    0  502  0.49010804508E+03  0.14693193838E+04  0.64737201179E+03  0.16787487847E+04  0.12699999809E+01 0.  1.
</event>
<event>
 5   0  0.5233813E-07  0.3155318E+04  0.7818609E-02  0.8200718E-01
       -1   -1    0    0    0  501  0.00000000000E+00  0.00000000000E+00  0.10509223256E+04  0.10509223256E+04  0.50400001928E-02 0.  1.
        1   -1    0    0  501    0  0.00000000000E+00  0.00000000000E+00 -0.23684036481E+04  0.23684036481E+04  0.50400001928E-02 0. -1.
    10030    2    1    2    0    0  0.00000000000E+00  0.00000000000E+00 -0.13174813225E+04  0.34193259737E+04  0.31553182216E+04 0.  0.
        4    1    3    3  502    0 -0.15295362402E+04  0.17715911323E+03 -0.10312148493E+04  0.18531789282E+04  0.12699999809E+01 0.  1.
       -4    1    3    3    0  502  0.15295362402E+04 -0.17715911323E+03 -0.28626647315E+03  0.15661470455E+04  0.12699999809E+01 0. -1.
</event>
<event>
 5   0  0.5233813E-07  0.3225405E+04  0.7818609E-02  0.8182140E-01
        1   -1    0    0  501    0  0.00000000000E+00  0.00000000000E+00  0.20250275232E+04  0.20250275232E+04  0.50400001928E-02 0. -1.
       -1   -1    0    0    0  501  0.00000000000E+00  0.00000000000E+00 -0.12843328890E+04  0.12843328890E+04  0.50400001928E-02 0.  1.
    10030    2    1    2    0    0  0.00000000000E+00  0.00000000000E+00  0.74069463415E+03  0.33093604122E+04  0.32254050593E+04 0.  0.
        4    1    3    3  502    0  0.43730534075E+03 -0.59745768245E+03 -0.10996403121E+04  0.13256704237E+04  0.12699999809E+01 0.  1.
       -4    1    3    3    0  502 -0.43730534075E+03  0.59745768245E+03  0.18403349462E+04  0.19836899885E+04  0.12699999809E+01 0. -1.
</event>
<event>
 5   0  0.5177039E-07  0.3184313E+04  0.7818609E-02  0.8192972E-01
        1   -1    0    0  501    0  0.00000000000E+00  0.00000000000E+00  0.14967315125E+04  0.14967315125E+04  0.50400001928E-02 0. -1.
       -1   -1    0    0    0  501  0.00000000000E+00  0.00000000000E+00 -0.16936655713E+04  0.16936655714E+04  0.50400001928E-02 0.  1.
    10030    2    1    2    0    0  0.00000000000E+00  0.00000000000E+00 -0.19693405881E+03  0.31903970839E+04  0.31843131959E+04 0.  0.
        3    1    3    3  502    0 -0.13550587072E+04  0.25546025507E+03 -0.89592653917E+03  0.16444234296E+04  0.10100000352E+00 0.  1.
       -3    1    3    3    0  502  0.13550587072E+04 -0.25546025507E+03  0.69899248036E+03  0.15459736543E+04  0.10100000352E+00 0. -1.
</event>
<event>
 5   0  0.1572769E-06  0.3025729E+04  0.7818609E-02  0.8236422E-01
        2   -1    0    0  501    0  0.00000000000E+00  0.00000000000E+00  0.10619654321E+04  0.10619654321E+04  0.25500000920E-02 0.  1.
       -2   -1    0    0    0  501  0.00000000000E+00  0.00000000000E+00 -0.21552101243E+04  0.21552101243E+04  0.25500000920E-02 0. -1.
    10030    2    1    2    0    0  0.00000000000E+00  0.00000000000E+00 -0.10932446922E+04  0.32171755564E+04  0.30257287723E+04 0.  0.
        5    1    3    3  502    0 -0.81299943675E+03 -0.55739393373E+03  0.67363356971E+03  0.11939264457E+04  0.46999998093E+01 0.  1.
       -5    1    3    3    0  502  0.81299943675E+03  0.55739393373E+03 -0.17668782619E+04  0.20232491107E+04  0.46999998093E+01 0. -1.
</event>
<event>
 5   0  0.1493485E-06  0.3197670E+04  0.7818609E-02  0.8189433E-01
        2   -1    0    0  501    0  0.00000000000E+00  0.00000000000E+00  0.19885958527E+04  0.19885958527E+04  0.25500000920E-02 0.  1.
       -2   -1    0    0    0  501  0.00000000000E+00  0.00000000000E+00 -0.12854668830E+04  0.12854668831E+04  0.25500000920E-02 0. -1.
    10030    2    1    2    0    0  0.00000000000E+00  0.00000000000E+00  0.70312896965E+03  0.32740627357E+04  0.31976704723E+04 0.  0.
        2    1    3    3  502    0 -0.44551688215E+03  0.29265276021E+03 -0.11918093668E+04  0.13055805211E+04  0.25500000920E-02 0. -1.
       -2    1    3    3    0  502  0.44551688215E+03 -0.29265276021E+03  0.18949383364E+04  0.19684822146E+04  0.25500000920E-02 0.  1.
</event>
<event>
 5   0  0.5317728E-07  0.3214922E+04  0.7818609E-02  0.8184887E-01
       -1   -1    0    0    0  501  0.00000000000E+00  0.00000000000E+00  0.28276449016E+04  0.28276449016E+04  0.50400001928E-02 0. -1.
        1   -1    0    0  501    0  0.00000000000E+00  0.00000000000E+00 -0.91381014064E+03  0.91381014065E+03  0.50400001928E-02 0.  1.
    10030    2    1    2    0    0  0.00000000000E+00  0.00000000000E+00  0.19138347609E+04  0.37414550422E+04  0.32149218250E+04 0.  0.
        2    1    3    3  502    0  0.31260108720E+02  0.13798055574E+04 -0.21161386207E+01  0.13801612401E+04  0.25500000920E-02 0.  1.
       -2    1    3    3    0  502 -0.31260108720E+02 -0.13798055574E+04  0.19159508995E+04  0.23612938021E+04  0.25500000920E-02 0. -1.
</event>
<event>
 5   0  0.5370912E-07  0.3204040E+04  0.7818609E-02  0.8187751E-01
       -1   -1    0    0    0  501  0.00000000000E+00  0.00000000000E+00  0.14531651831E+04  0.14531651831E+04  0.50400001928E-02 0.  1.
        1   -1    0    0  501    0  0.00000000000E+00  0.00000000000E+00 -0.17661224011E+04  0.17661224011E+04  0.50400001928E-02 0. -1.
    10030    2    1    2    0    0  0.00000000000E+00  0.00000000000E+00 -0.31295721805E+03  0.32192875842E+04  0.32040396891E+04 0.  0.
        1    1    3    3  502    0  0.42373563952E+03 -0.61770261638E+02 -0.17075544455E+04  0.17604288233E+04  0.50400001928E-02 0. -1.
       -1    1    3    3    0  502 -0.42373563952E+03  0.61770261638E+02  0.13945972275E+04  0.14588587609E+04  0.50400001928E-02 0.  1.
</event>
<event>
 5   0  0.5177039E-07  0.3192211E+04  0.7818609E-02  0.8190877E-01
        1   -1    0    0  501    0  0.00000000000E+00  0.00000000000E+00  0.22010755678E+04  0.22010755678E+04  0.50400001928E-02 0. -1.
       -1   -1    0    0    0  501  0.00000000000E+00  0.00000000000E+00 -0.11574128170E+04  0.11574128171E+04  0.50400001928E-02 0.  1.
    10030    2    1    2    0    0  0.00000000000E+00  0.00000000000E+00  0.10436627508E+04  0.33584883849E+04  0.31922111920E+04 0.  0.
        3    1    3    3  502    0 -0.93233083973E+02  0.52355182548E+03  0.21051297502E+04  0.21712600483E+04  0.10100000352E+00 0. -1.
       -3    1    3    3    0  502  0.93233083973E+02 -0.52355182548E+03 -0.10614669995E+04  0.11872283365E+04  0.10100000352E+00 0.  1.
</event>
<event>
 5   0  0.5370912E-07  0.3193906E+04  0.7818609E-02  0.8190428E-01
        1   -1    0    0  501    0  0.00000000000E+00  0.00000000000E+00  0.20812125753E+04  0.20812125753E+04  0.50400001928E-02 0. -1.
       -1   -1    0    0    0  501  0.00000000000E+00  0.00000000000E+00 -0.12253718281E+04  0.12253718281E+04  0.50400001928E-02 0.  1.
    10030    2    1    2    0    0  0.00000000000E+00  0.00000000000E+00  0.85584074717E+03  0.33065844034E+04  0.31939062341E+04 0.  0.
        1    1    3    3  502    0 -0.77135063122E+03  0.23843305798E+03 -0.99852261167E+03  0.12840870397E+04  0.50400001928E-02 0.  1.
       -1    1    3    3    0  502  0.77135063122E+03 -0.23843305798E+03  0.18543633588E+04  0.20224973637E+04  0.50400001928E-02 0. -1.
</event>
<event>
 5   0  0.5233813E-07  0.3235039E+04  0.7818609E-02  0.8179624E-01
       -1   -1    0    0    0  501  0.00000000000E+00  0.00000000000E+00  0.17693471981E+04  0.17693471981E+04  0.50400001928E-02 0. -1.
        1   -1    0    0  501    0  0.00000000000E+00  0.00000000000E+00 -0.14787204256E+04  0.14787204256E+04  0.50400001928E-02 0.  1.
    10030    2    1    2    0    0  0.00000000000E+00  0.00000000000E+00  0.29062677254E+03  0.32480676237E+04  0.32350393146E+04 0.  0.
        4    1    3    3  502    0 -0.16132672279E+03 -0.12375516816E+04 -0.88781443269E+03  0.15315928166E+04  0.12699999809E+01 0.  1.
       -4    1    3    3    0  502  0.16132672279E+03  0.12375516816E+04  0.11784412052E+04  0.17164748071E+04  0.12699999809E+01 0. -1.
</event>
<event>
 5   0  0.5233813E-07  0.3193557E+04  0.7818609E-02  0.8190521E-01
        1   -1    0    0  501    0  0.00000000000E+00  0.00000000000E+00  0.22666406632E+04  0.22666406632E+04  0.50400001928E-02 0. -1.
       -1   -1    0    0    0  501  0.00000000000E+00  0.00000000000E+00 -0.11248809319E+04  0.11248809319E+04  0.50400001928E-02 0.  1.
    10030    2    1    2    0    0  0.00000000000E+00  0.00000000000E+00  0.11417597313E+04  0.33915215951E+04  0.31935565513E+04 0.  0.
        4    1    3    3  502    0  0.69977637259E+03 -0.83490873935E+03 -0.66893914859E+03  0.12783742692E+04  0.12699999809E+01 0.  1.
       -4    1    3    3    0  502 -0.69977637259E+03  0.83490873935E+03  0.18106988799E+04  0.21131473259E+04  0.12699999809E+01 0. -1.
</event>
<event>
 5   0  0.5177039E-07  0.3177266E+04  0.7818609E-02  0.8194847E-01
       -1   -1    0    0    0  501  0.00000000000E+00  0.00000000000E+00  0.20595834824E+04  0.20595834825E+04  0.50400001928E-02 0. -1.
        1   -1    0    0  501    0  0.00000000000E+00  0.00000000000E+00 -0.12253714884E+04  0.12253714884E+04  0.50400001928E-02 0.  1.
    10030    2    1    2    0    0  0.00000000000E+00  0.00000000000E+00  0.83421199406E+03  0.32849549709E+04  0.31772660432E+04 0.  0.
        3    1    3    3  502    0 -0.39351291032E+02  0.17874457084E+03  0.20486466516E+04  0.20568060820E+04  0.10100000352E+00 0. -1.
       -3    1    3    3    0  502  0.39351291032E+02 -0.17874457084E+03 -0.12144346575E+04  0.12281488889E+04  0.10100000352E+00 0.  1.
</event>
<event>
 5   0  0.1493485E-06  0.3266505E+04  0.7818609E-02  0.8171471E-01
       -2   -1    0    0    0  501  0.00000000000E+00  0.00000000000E+00  0.98004215500E+03  0.98004215501E+03  0.25500000920E-02 0.  1.
        2   -1    0    0  501    0  0.00000000000E+00  0.00000000000E+00 -0.27218356870E+04  0.27218356870E+04  0.25500000920E-02 0. -1.
    10030    2    1    2    0    0  0.00000000000E+00  0.00000000000E+00 -0.17417935320E+04  0.37018778420E+04  0.32665049899E+04 0.  0.
        2    1    3    3  502    0  0.13042376034E+04 -0.34555385587E+03 -0.19139309472E+04  0.23417034108E+04  0.25500000920E-02 0. -1.
       -2    1    3    3    0  502 -0.13042376034E+04  0.34555385587E+03  0.17213741522E+03  0.13601744312E+04  0.25500000920E-02 0.  1.
</event>
<event>
 5   0  0.5281187E-07  0.3176409E+04  0.7818609E-02  0.8195075E-01
       -1   -1    0    0    0  501  0.00000000000E+00  0.00000000000E+00  0.94408620106E+03  0.94408620107E+03  0.50400001928E-02 0. -1.
        1   -1    0    0  501    0  0.00000000000E+00  0.00000000000E+00 -0.26717825312E+04  0.26717825313E+04  0.50400001928E-02 0.  1.
    10030    2    1    2    0    0  0.00000000000E+00  0.00000000000E+00 -0.17276963302E+04  0.36158687323E+04  0.31764086765E+04 0.  0.
        5    1    3    3  502    0 -0.36499060691E+03 -0.22498188291E+03 -0.26046458742E+04  0.26397040006E+04  0.46999998093E+01 0.  1.
       -5    1    3    3    0  502  0.36499060691E+03  0.22498188291E+03  0.87694954400E+03  0.97616473174E+03  0.46999998093E+01 0. -1.
</event>
<event>
 5   0  0.1538349E-06  0.3200659E+04  0.7818609E-02  0.8188643E-01
       -2   -1    0    0    0  501  0.00000000000E+00  0.00000000000E+00  0.14109640300E+04  0.14109640300E+04  0.25500000920E-02 0.  1.
        2   -1    0    0  501    0  0.00000000000E+00  0.00000000000E+00 -0.18151096416E+04  0.18151096416E+04  0.25500000920E-02 0. -1.
    10030    2    1    2    0    0  0.00000000000E+00  0.00000000000E+00 -0.40414561163E+03  0.32260736715E+04  0.32006589413E+04 0.  0.
        1    1    3    3  502    0 -0.30844366623E+03  0.10904233003E+02 -0.17848275781E+04  0.18113160633E+04  0.50400001928E-02 0. -1.
       -1    1    3    3    0  502  0.30844366623E+03 -0.10904233003E+02  0.13806819665E+04  0.14147576083E+04  0.50400001928E-02 0.  1.
</event>
<event>
 5   0  0.5177039E-07  0.3202678E+04  0.7818609E-02  0.8188110E-01
       -1   -1    0    0    0  501  0.00000000000E+00  0.00000000000E+00  0.93843752222E+03  0.93843752224E+03  0.50400001928E-02 0. -1.
        1   -1    0    0  501    0  0.00000000000E+00  0.00000000000E+00 -0.27325059421E+04  0.27325059421E+04  0.50400001928E-02 0.  1.
    10030    2    1    2    0    0  0.00000000000E+00  0.00000000000E+00 -0.17940684199E+04  0.36709434644E+04  0.32026776958E+04 0.  0.
        3    1    3    3  502    0  0.99024391902E+03  0.51980804402E+01  0.54540538788E+03  0.11305207148E+04  0.10100000352E+00 0. -1.
       -3    1    3    3    0  502 -0.99024391902E+03 -0.51980804402E+01 -0.23394738078E+04  0.25404227496E+04  0.10100000352E+00 0.  1.
</event>
<event>
 5   0  0.1538349E-06  0.3202464E+04  0.7818609E-02  0.8188167E-01
        2   -1    0    0  501    0  0.00000000000E+00  0.00000000000E+00  0.11152565492E+04  0.11152565492E+04  0.25500000920E-02 0. -1.
       -2   -1    0    0    0  501  0.00000000000E+00  0.00000000000E+00 -0.22989726284E+04  0.22989726284E+04  0.25500000920E-02 0.  1.
    10030    2    1    2    0    0  0.00000000000E+00  0.00000000000E+00 -0.11837160792E+04  0.34142291776E+04  0.32024642263E+04 0.  0.
        1    1    3    3  502    0  0.11955167345E+04  0.82643580638E+03  0.12466077540E+03  0.14586969231E+04  0.50400001928E-02 0.  1.
       -1    1    3    3    0  502 -0.11955167345E+04 -0.82643580638E+03 -0.13083768546E+04  0.19555322544E+04  0.50400001928E-02 0. -1.
</event>
<event>
 5   0  0.5370912E-07  0.3134213E+04  0.7818609E-02  0.8206411E-01
        1   -1    0    0  501    0  0.00000000000E+00  0.00000000000E+00  0.23071688012E+04  0.23071688012E+04  0.50400001928E-02 0. -1.
       -1   -1    0    0    0  501  0.00000000000E+00  0.00000000000E+00 -0.10644315705E+04  0.10644315705E+04  0.50400001928E-02 0.  1.
    10030    2    1    2    0    0  0.00000000000E+00  0.00000000000E+00  0.12427372307E+04  0.33716003717E+04  0.31342133370E+04 0.  0.
        1    1    3    3  502    0  0.37760874359E+03  0.15063709749E+04  0.84722656996E+03  0.17690491057E+04  0.50400001928E-02 0.  1.
       -1    1    3    3    0  502 -0.37760874359E+03 -0.15063709749E+04  0.39551066076E+03  0.16025512660E+04  0.50400001928E-02 0. -1.
</event>
<event>
 5   0  0.1572769E-06  0.3190110E+04  0.7818609E-02  0.8191434E-01
       -2   -1    0    0    0  501  0.00000000000E+00  0.00000000000E+00  0.96649873017E+03  0.96649873018E+03  0.25500000920E-02 0. -1.
        2   -1    0    0  501    0  0.00000000000E+00  0.00000000000E+00 -0.26323892622E+04  0.26323892622E+04  0.25500000920E-02 0.  1.
    10030    2    1    2    0    0  0.00000000000E+00  0.00000000000E+00 -0.16658905320E+04  0.35988879924E+04  0.31901102672E+04 0.  0.
        5    1    3    3  502    0  0.15422952095E+04 -0.13393461771E+03 -0.12663119144E+04  0.20000452369E+04  0.46999998093E+01 0.  1.
       -5    1    3    3    0  502 -0.15422952095E+04  0.13393461771E+03 -0.39957861759E+03  0.15988427555E+04  0.46999998093E+01 0. -1.
</event>
<event>
 5   0  0.5317728E-07  0.3099641E+04  0.7818609E-02  0.8215836E-01
       -1   -1    0    0    0  501  0.00000000000E+00  0.00000000000E+00  0.15249330441E+04  0.15249330441E+04  0.50400001928E-02 0.  1.
        1   -1    0    0  501    0  0.00000000000E+00  0.00000000000E+00 -0.15751145234E+04  0.15751145234E+04  0.50400001928E-02 0. -1.
    10030    2    1    2    0    0  0.00000000000E+00  0.00000000000E+00 -0.50181479286E+02  0.31000475675E+04  0.30996413889E+04 0.  0.
        2    1    3    3  502    0  0.11044680412E+03 -0.45870789498E+03 -0.15015405203E+04  0.15739235570E+04  0.25500000920E-02 0. -1.
       -2    1    3    3    0  502 -0.11044680412E+03  0.45870789498E+03  0.14513590410E+04  0.15261240104E+04  0.25500000920E-02 0.  1.
</event>
<event>
 5   0  0.1556396E-06  0.3171079E+04  0.7818609E-02  0.8196497E-01
        2   -1    0    0  501    0  0.00000000000E+00  0.00000000000E+00  0.25999706030E+04  0.25999706030E+04  0.25500000920E-02 0. -1.
       -2   -1    0    0    0  501  0.00000000000E+00  0.00000000000E+00 -0.96690944117E+03  0.96690944117E+03  0.25500000920E-02 0.  1.
    10030    2    1    2    0    0  0.00000000000E+00  0.00000000000E+00  0.16330611618E+04  0.35668800441E+04  0.31710793890E+04 0.  0.
        3    1    3    3  502    0  0.82134751012E+03  0.28361398917E+03 -0.67523443686E+03  0.11004499908E+04  0.10100000352E+00 0.  1.
       -3    1    3    3    0  502 -0.82134751012E+03 -0.28361398917E+03  0.23082955987E+04  0.24664300534E+04  0.10100000352E+00 0. -1.
</event>
<event>
 5   0  0.1493485E-06  0.3209583E+04  0.7818609E-02  0.8186291E-01
       -2   -1    0    0    0  501  0.00000000000E+00  0.00000000000E+00  0.88846618927E+03  0.88846618927E+03  0.25500000920E-02 0. -1.
        2   -1    0    0  501    0  0.00000000000E+00  0.00000000000E+00 -0.28986535485E+04  0.28986535485E+04  0.25500000920E-02 0.  1.
    10030    2    1    2    0    0  0.00000000000E+00  0.00000000000E+00 -0.20101873592E+04  0.37871197378E+04  0.32095829463E+04 0.  0.
        2    1    3    3  502    0 -0.35861322844E+03 -0.40578812609E+03  0.77739445428E+03  0.94742260288E+03  0.25500000920E-02 0. -1.
       -2    1    3    3    0  502  0.35861322844E+03  0.40578812609E+03 -0.27875818135E+04  0.28396971349E+04  0.25500000920E-02 0.  1.
</event>
<event>
 5   0  0.5317728E-07  0.3213420E+04  0.7818609E-02  0.8185282E-01
       -1   -1    0    0    0  501  0.00000000000E+00  0.00000000000E+00  0.36388912777E+04  0.36388912777E+04  0.50400001928E-02 0. -1.
        1   -1    0    0  501    0  0.00000000000E+00  0.00000000000E+00 -0.70942385548E+03  0.70942385550E+03  0.50400001928E-02 0.  1.
    10030    2    1    2    0    0  0.00000000000E+00  0.00000000000E+00  0.29294674222E+04  0.43483151332E+04  0.32134195368E+04 0.  0.
        2    1    3    3  502    0 -0.11124349699E+04 -0.10709367626E+04  0.20654867504E+04  0.25788859277E+04  0.25500000920E-02 0. -1.
       -2    1    3    3    0  502  0.11124349699E+04  0.10709367626E+04  0.86398067174E+03  0.17694292054E+04  0.25500000920E-02 0.  1.
</event>
<event>
 5   0  0.1572769E-06  0.3161001E+04  0.7818609E-02  0.8199193E-01
       -2   -1    0    0    0  501  0.00000000000E+00  0.00000000000E+00  0.16850134949E+04  0.16850134950E+04  0.25500000920E-02 0.  1.
        2   -1    0    0  501    0  0.00000000000E+00  0.00000000000E+00 -0.14824698254E+04  0.14824698254E+04  0.25500000920E-02 0. -1.
    10030    2    1    2    0    0  0.00000000000E+00  0.00000000000E+00  0.20254366951E+03  0.31674833204E+04  0.31610008932E+04 0.  0.
        5    1    3    3  502    0  0.33805762430E+03 -0.10328723818E+04 -0.10486228842E+04  0.15102120241E+04  0.46999998093E+01 0. -1.
       -5    1    3    3    0  502 -0.33805762430E+03  0.10328723818E+04  0.12511665537E+04  0.16572712963E+04  0.46999998093E+01 0.  1.
</event>
<event>
 5   0  0.1572769E-06  0.3210007E+04  0.7818609E-02  0.8186179E-01
        2   -1    0    0  501    0  0.00000000000E+00  0.00000000000E+00  0.22682351299E+04  0.22682351299E+04  0.25500000920E-02 0.  1.
       -2   -1    0    0    0  501  0.00000000000E+00  0.00000000000E+00 -0.11357007637E+04  0.11357007637E+04  0.25500000920E-02 0. -1.
    10030    2    1    2    0    0  0.00000000000E+00  0.00000000000E+00  0.11325343662E+04  0.34039358936E+04  0.32100070837E+04 0.  0.
        5    1    3    3  502    0 -0.60515498479E+03 -0.11152751008E+04  0.16084782162E+04  0.20487253032E+04  0.46999998093E+01 0.  1.
       -5    1    3    3    0  502  0.60515498479E+03  0.11152751008E+04 -0.47594384998E+03  0.13552105904E+04  0.46999998093E+01 0. -1.
</event>
<event>
 5   0  0.1556396E-06  0.3180310E+04  0.7818609E-02  0.8194037E-01
        2   -1    0    0  501    0  0.00000000000E+00  0.00000000000E+00  0.21162261895E+04  0.21162261895E+04  0.25500000920E-02 0.  1.
       -2   -1    0    0    0  501  0.00000000000E+00  0.00000000000E+00 -0.11948594668E+04  0.11948594668E+04  0.25500000920E-02 0. -1.
    10030    2    1    2    0    0  0.00000000000E+00  0.00000000000E+00  0.92136672266E+03  0.33110856563E+04  0.31803099826E+04 0.  0.
        3    1    3    3  502    0 -0.61844512452E+03 -0.14645957075E+04  0.42650149499E+03  0.16460311340E+04  0.10100000352E+00 0. -1.
       -3    1    3    3    0  502  0.61844512452E+03  0.14645957075E+04  0.49486522767E+03  0.16650545223E+04  0.10100000352E+00 0.  1.
</event>
<event>
 5   0  0.1538349E-06  0.3127342E+04  0.7818609E-02  0.8208274E-01
       -2   -1    0    0    0  501  0.00000000000E+00  0.00000000000E+00  0.96968485076E+03  0.96968485076E+03  0.25500000920E-02 0. -1.
        2   -1    0    0  501    0  0.00000000000E+00  0.00000000000E+00 -0.25215065359E+04  0.25215065359E+04  0.25500000920E-02 0.  1.
    10030    2    1    2    0    0  0.00000000000E+00  0.00000000000E+00 -0.15518216852E+04  0.34911913867E+04  0.31273418035E+04 0.  0.
        1    1    3    3  502    0 -0.14532439213E+04 -0.55932620652E+03 -0.93497718573E+03  0.18163000958E+04  0.50400001928E-02 0.  1.
       -1    1    3    3    0  502  0.14532439213E+04  0.55932620652E+03 -0.61684449946E+03  0.16748912910E+04  0.50400001928E-02 0. -1.
</event>
<event>
 5   0  0.5281187E-07  0.3190246E+04  0.7818609E-02  0.8191398E-01
       -1   -1    0    0    0  501  0.00000000000E+00  0.00000000000E+00  0.16887541451E+04  0.16887541451E+04  0.50400001928E-02 0. -1.
        1   -1    0    0  501    0  0.00000000000E+00  0.00000000000E+00 -0.15066828665E+04  0.15066828665E+04  0.50400001928E-02 0.  1.
    10030    2    1    2    0    0  0.00000000000E+00  0.00000000000E+00  0.18207127857E+03  0.31954370116E+04  0.31902457185E+04 0.  0.
        5    1    3    3  502    0  0.75798632610E+03 -0.13523249935E+04 -0.28516665482E+03  0.15762830550E+04  0.46999998093E+01 0.  1.
       -5    1    3    3    0  502 -0.75798632610E+03  0.13523249935E+04  0.46723793338E+03  0.16191539565E+04  0.46999998093E+01 0. -1.
</event>
<event>
 5   0  0.5370912E-07  0.3203347E+04  0.7818609E-02  0.8187934E-01
       -1   -1    0    0    0  501  0.00000000000E+00  0.00000000000E+00  0.25206895354E+04  0.25206895355E+04  0.50400001928E-02 0. -1.
        1   -1    0    0  501    0  0.00000000000E+00  0.00000000000E+00 -0.10177210487E+04  0.10177210488E+04  0.50400001928E-02 0.  1.
    10030    2    1    2    0    0  0.00000000000E+00  0.00000000000E+00  0.15029684867E+04  0.35384105842E+04  0.32033474976E+04 0.  0.
        1    1    3    3  502    0  0.77663324002E+03 -0.11760246418E+03  0.22933260156E+04  0.24241150433E+04  0.50400001928E-02 0. -1.
       -1    1    3    3    0  502 -0.77663324002E+03  0.11760246418E+03 -0.79035752889E+03  0.11142955410E+04  0.50400001928E-02 0.  1.
</event>
<event>
 5   0  0.1493485E-06  0.3201768E+04  0.7818609E-02  0.8188350E-01
       -2   -1    0    0    0  501  0.00000000000E+00  0.00000000000E+00  0.11770058224E+04  0.11770058224E+04  0.25500000920E-02 0.  1.
        2   -1    0    0  501    0  0.00000000000E+00  0.00000000000E+00 -0.21774145526E+04  0.21774145526E+04  0.25500000920E-02 0. -1.
    10030    2    1    2    0    0  0.00000000000E+00  0.00000000000E+00 -0.10004087302E+04  0.33544203750E+04  0.32017680154E+04 0.  0.
        2    1    3    3  502    0  0.20045706617E+03  0.35480297424E+03 -0.21221639489E+04  0.21609368366E+04  0.25500000920E-02 0. -1.
       -2    1    3    3    0  502 -0.20045706617E+03 -0.35480297424E+03  0.11217552186E+04  0.11934835384E+04  0.25500000920E-02 0.  1.
</event>
<event>
 5   0  0.5317728E-07  0.3197955E+04  0.7818609E-02  0.8189358E-01
        1   -1    0    0  501    0  0.00000000000E+00  0.00000000000E+00  0.28925138648E+04  0.28925138648E+04  0.50400001928E-02 0. -1.
       -1   -1    0    0    0  501  0.00000000000E+00  0.00000000000E+00 -0.88391223753E+03  0.88391223754E+03  0.50400001928E-02 0.  1.
    10030    2    1    2    0    0  0.00000000000E+00  0.00000000000E+00  0.20086016273E+04  0.37764261023E+04  0.31979545978E+04 0.  0.
        2    1    3    3  502    0 -0.12083526482E+03 -0.92984882759E+03 -0.52516948881E+03  0.10747199614E+04  0.25500000920E-02 0.  1.
       -2    1    3    3    0  502  0.12083526482E+03  0.92984882759E+03  0.25337711161E+04  0.27017061410E+04  0.25500000920E-02 0. -1.
</event>
<event>
 5   0  0.1538349E-06  0.3199635E+04  0.7818609E-02  0.8188913E-01
        2   -1    0    0  501    0  0.00000000000E+00  0.00000000000E+00  0.13860175144E+04  0.13860175144E+04  0.25500000920E-02 0. -1.
       -2   -1    0    0    0  501  0.00000000000E+00  0.00000000000E+00 -0.18465975510E+04  0.18465975510E+04  0.25500000920E-02 0.  1.
    10030    2    1    2    0    0  0.00000000000E+00  0.00000000000E+00 -0.46058003661E+03  0.32326150654E+04  0.31996353216E+04 0.  0.
        1    1    3    3  502    0  0.48325973971E+03  0.13575594645E+04  0.47178917469E+03  0.15162759317E+04  0.50400001928E-02 0. -1.
       -1    1    3    3    0  502 -0.48325973971E+03 -0.13575594645E+04 -0.93236921129E+03  0.17163391337E+04  0.50400001928E-02 0.  1.
</event>
<event>
 5   0  0.1572769E-06  0.3200624E+04  0.7818609E-02  0.8188652E-01
       -2   -1    0    0    0  501  0.00000000000E+00  0.00000000000E+00  0.16769184434E+04  0.16769184434E+04  0.25500000920E-02 0. -1.
        2   -1    0    0  501    0  0.00000000000E+00  0.00000000000E+00 -0.15272052550E+04  0.15272052550E+04  0.25500000920E-02 0.  1.
    10030    2    1    2    0    0  0.00000000000E+00  0.00000000000E+00  0.14971318848E+03  0.32041236984E+04  0.32006241010E+04 0.  0.
        5    1    3    3  502    0 -0.88291026162E+03  0.92360695777E+03 -0.88973014295E+03  0.15569913808E+04  0.46999998093E+01 0.  1.
       -5    1    3    3    0  502  0.88291026162E+03 -0.92360695777E+03  0.10394433314E+04  0.16471323176E+04  0.46999998093E+01 0. -1.
</event>
<event>
 5   0  0.5177039E-07  0.3278574E+04  0.7818609E-02  0.8168369E-01
        1   -1    0    0  501    0  0.00000000000E+00  0.00000000000E+00  0.17822035155E+04  0.17822035155E+04  0.50400001928E-02 0.  1.
       -1   -1    0    0    0  501  0.00000000000E+00  0.00000000000E+00 -0.15078309276E+04  0.15078309276E+04  0.50400001928E-02 0. -1.
    10030    2    1    2    0    0  0.00000000000E+00  0.00000000000E+00  0.27437258792E+03  0.32900344432E+04  0.32785738241E+04 0.  0.
        3    1    3    3  502    0 -0.64831381368E+03 -0.10713797350E+04 -0.92438506832E+03  0.15564874244E+04  0.10100000352E+00 0. -1.
       -3    1    3    3    0  502  0.64831381368E+03  0.10713797350E+04  0.11987576562E+04  0.17335470187E+04  0.10100000352E+00 0.  1.
</event>
<event>
 5   0  0.5281187E-07  0.3216596E+04  0.7818609E-02  0.8184448E-01
       -1   -1    0    0    0  501  0.00000000000E+00  0.00000000000E+00  0.10970502473E+04  0.10970502474E+04  0.50400001928E-02 0. -1.
        1   -1    0    0  501    0  0.00000000000E+00  0.00000000000E+00 -0.23577975663E+04  0.23577975663E+04  0.50400001928E-02 0.  1.
    10030    2    1    2    0    0  0.00000000000E+00  0.00000000000E+00 -0.12607473189E+04  0.34548478137E+04  0.32165959668E+04 0.  0.
        5    1    3    3  502    0 -0.12844788737E+04 -0.30598724978E+02  0.40863420874E+03  0.13482678760E+04  0.46999998093E+01 0. -1.
       -5    1    3    3    0  502  0.12844788737E+04  0.30598724978E+02 -0.16693815277E+04  0.21065799377E+04  0.46999998093E+01 0.  1.
</event>
<event>
 5   0  0.1538349E-06  0.3207610E+04  0.7818609E-02  0.8186810E-01
       -2   -1    0    0    0  501  0.00000000000E+00  0.00000000000E+00  0.12866394363E+04  0.12866394363E+04  0.25500000920E-02 0.  1.
        2   -1    0    0  501    0  0.00000000000E+00  0.00000000000E+00 -0.19991538077E+04  0.19991538077E+04  0.25500000920E-02 0. -1.
    10030    2    1    2    0    0  0.00000000000E+00  0.00000000000E+00 -0.71251437145E+03  0.32857932440E+04  0.32076097819E+04 0.  0.
        1    1    3    3  502    0  0.62969243482E+03 -0.14007910904E+04 -0.82953797334E+03  0.17455261358E+04  0.50400001928E-02 0. -1.
       -1    1    3    3    0  502 -0.62969243482E+03  0.14007910904E+04  0.11702360189E+03  0.15402671083E+04  0.50400001928E-02 0.  1.
</event>
<event>
 5   0  0.1508771E-06  0.3203981E+04  0.7818609E-02  0.8187767E-01
       -2   -1    0    0    0  501  0.00000000000E+00  0.00000000000E+00  0.20531711454E+04  0.20531711454E+04  0.25500000920E-02 0. -1.
        2   -1    0    0  501    0  0.00000000000E+00  0.00000000000E+00 -0.12499559278E+04  0.12499559278E+04  0.25500000920E-02 0.  1.
    10030    2    1    2    0    0  0.00000000000E+00  0.00000000000E+00  0.80321521758E+03  0.33031270731E+04  0.32039809262E+04 0.  0.
        4    1    3    3  502    0 -0.15233861555E+04  0.29765032126E+03 -0.69779401990E+01  0.15522085547E+04  0.12699999809E+01 0.  1.
       -4    1    3    3    0  502  0.15233861555E+04 -0.29765032126E+03  0.81019315778E+03  0.17509185185E+04  0.12699999809E+01 0. -1.
</event>
<event>
 5   0  0.5317728E-07  0.3206571E+04  0.7818609E-02  0.8187084E-01
       -1   -1    0    0    0  501  0.00000000000E+00  0.00000000000E+00  0.13356480183E+04  0.13356480183E+04  0.50400001928E-02 0.  1.
        1   -1    0    0  501    0  0.00000000000E+00  0.00000000000E+00 -0.19245519299E+04  0.19245519299E+04  0.50400001928E-02 0. -1.
    10030    2    1    2    0    0  0.00000000000E+00  0.00000000000E+00 -0.58890391165E+03  0.32601999482E+04  0.32065707360E+04 0.  0.
        2    1    3    3  502    0  0.13554606988E+04 -0.41608536494E+03  0.46647891800E+03  0.14926497639E+04  0.25500000920E-02 0.  1.
       -2    1    3    3    0  502 -0.13554606988E+04  0.41608536494E+03 -0.10553828296E+04  0.17675501843E+04  0.25500000920E-02 0. -1.
</event>
<event>
 5   0  0.5233813E-07  0.3210819E+04  0.7818609E-02  0.8185966E-01
        1   -1    0    0  501    0  0.00000000000E+00  0.00000000000E+00  0.21372213541E+04  0.21372213541E+04  0.50400001928E-02 0. -1.
       -1   -1    0    0    0  501  0.00000000000E+00  0.00000000000E+00 -0.12059300495E+04  0.12059300495E+04  0.50400001928E-02 0.  1.
    10030    2    1    2    0    0  0.00000000000E+00  0.00000000000E+00  0.93129130461E+03  0.33431514036E+04  0.32108188696E+04 0.  0.
        4    1    3    3  502    0  0.10164054220E+04  0.12381112434E+04  0.35477508541E+03  0.16406908323E+04  0.12699999809E+01 0.  1.
       -4    1    3    3    0  502 -0.10164054220E+04 -0.12381112434E+04  0.57651621920E+03  0.17024605713E+04  0.12699999809E+01 0. -1.
</event>
<event>
 5   0  0.1556396E-06  0.3195590E+04  0.7818609E-02  0.8189983E-01
       -2   -1    0    0    0  501  0.00000000000E+00  0.00000000000E+00  0.12987659195E+04  0.12987659195E+04  0.25500000920E-02 0. -1.
        2   -1    0    0  501    0  0.00000000000E+00  0.00000000000E+00 -0.19656731355E+04  0.19656731355E+04  0.25500000920E-02 0.  1.
    10030    2    1    2    0    0  0.00000000000E+00  0.00000000000E+00 -0.66690721595E+03  0.32644390550E+04  0.31955902599E+04 0.  0.
        3    1    3    3  502    0  0.13231116365E+04  0.62691191605E+03 -0.98700794092E+03  0.17657371375E+04  0.10100000352E+00 0.  1.
       -3    1    3    3    0  502 -0.13231116365E+04 -0.62691191605E+03  0.32010072498E+03  0.14987019175E+04  0.10100000352E+00 0. -1.
</event>
<event>
 5   0  0.5370912E-07  0.3111135E+04  0.7818609E-02  0.8212689E-01
        1   -1    0    0  501    0  0.00000000000E+00  0.00000000000E+00  0.19186663436E+04  0.19186663436E+04  0.50400001928E-02 0.  1.
       -1   -1    0    0    0  501  0.00000000000E+00  0.00000000000E+00 -0.12611835895E+04  0.12611835895E+04  0.50400001928E-02 0. -1.
    10030    2    1    2    0    0  0.00000000000E+00  0.00000000000E+00  0.65748275404E+03  0.31798499331E+04  0.31111351667E+04 0.  0.
        1    1    3    3  502    0  0.97198620063E+03  0.12014527204E+04  0.51027241687E+03  0.16274592938E+04  0.50400001928E-02 0. -1.
       -1    1    3    3    0  502 -0.97198620063E+03 -0.12014527204E+04  0.14721033717E+03  0.15523906393E+04  0.50400001928E-02 0.  1.
</event>
<event>
 5   0  0.1556396E-06  0.3196714E+04  0.7818609E-02  0.8189686E-01
       -2   -1    0    0    0  501  0.00000000000E+00  0.00000000000E+00  0.24951870873E+04  0.24951870873E+04  0.25500000920E-02 0. -1.
        2   -1    0    0  501    0  0.00000000000E+00  0.00000000000E+00 -0.10238688368E+04  0.10238688368E+04  0.25500000920E-02 0.  1.
    10030    2    1    2    0    0  0.00000000000E+00  0.00000000000E+00  0.14713182505E+04  0.35190559240E+04  0.31967135002E+04 0.  0.
        3    1    3    3  502    0 -0.52334950540E+03  0.14593557043E+04  0.11636145470E+04  0.19384562417E+04  0.10100000352E+00 0. -1.
       -3    1    3    3    0  502  0.52334950540E+03 -0.14593557043E+04  0.30770370344E+03  0.15805996824E+04  0.10100000352E+00 0.  1.
</event>
<event>
 5   0  0.5317728E-07  0.3199972E+04  0.7818609E-02  0.8188825E-01
       -1   -1    0    0    0  501  0.00000000000E+00  0.00000000000E+00  0.13109986591E+04  0.13109986591E+04  0.50400001928E-02 0.  1.
        1   -1    0    0  501    0  0.00000000000E+00  0.00000000000E+00 -0.19526753341E+04  0.19526753341E+04  0.50400001928E-02 0. -1.
    10030    2    1    2    0    0  0.00000000000E+00  0.00000000000E+00 -0.64167667496E+03  0.32636739933E+04  0.31999717154E+04 0.  0.
        2    1    3    3  502    0  0.83226079009E+03  0.33713684029E+03  0.10297726926E+04  0.13662909903E+04  0.25500000920E-02 0.  1.
       -2    1    3    3    0  502 -0.83226079009E+03 -0.33713684029E+03 -0.16714493675E+04  0.18973830030E+04  0.25500000920E-02 0. -1.
</event>
<event>
 5   0  0.1538349E-06  0.3172456E+04  0.7818609E-02  0.8196129E-01
       -2   -1    0    0    0  501  0.00000000000E+00  0.00000000000E+00  0.10308485188E+04  0.10308485188E+04  0.25500000920E-02 0. -1.
        2   -1    0    0  501    0  0.00000000000E+00  0.00000000000E+00 -0.24408241752E+04  0.24408241752E+04  0.25500000920E-02 0.  1.
    10030    2    1    2    0    0  0.00000000000E+00  0.00000000000E+00 -0.14099756564E+04  0.34716726940E+04  0.31724564524E+04 0.  0.
        1    1    3    3  502    0 -0.96165167538E+03 -0.12060126330E+04 -0.30012079029E+03  0.15714047551E+04  0.50400001928E-02 0. -1.
       -1    1    3    3    0  502  0.96165167538E+03  0.12060126330E+04 -0.11098548661E+04  0.19002679389E+04  0.50400001928E-02 0.  1.
</event>
<event>
 5   0  0.1493485E-06  0.3194021E+04  0.7818609E-02  0.8190398E-01
        2   -1    0    0  501    0  0.00000000000E+00  0.00000000000E+00  0.12962142716E+04  0.12962142716E+04  0.25500000920E-02 0.  1.
       -2   -1    0    0    0  501  0.00000000000E+00  0.00000000000E+00 -0.19676090126E+04  0.19676090126E+04  0.25500000920E-02 0. -1.
    10030    2    1    2    0    0  0.00000000000E+00  0.00000000000E+00 -0.67139474101E+03  0.32638232842E+04  0.31940212167E+04 0.  0.
        2    1    3    3  502    0  0.20950541874E+03 -0.10879535745E+04  0.83961568318E+03  0.13901402793E+04  0.25500000920E-02 0.  1.
       -2    1    3    3    0  502 -0.20950541874E+03  0.10879535745E+04 -0.15110104242E+04  0.18736830049E+04  0.25500000920E-02 0. -1.
</event>
<event>
 5   0  0.4995625E-07  0.3200956E+04  0.7818609E-02  0.8188565E-01
        3   -1    0    0  501    0  0.00000000000E+00  0.00000000000E+00  0.15346880485E+04  0.15346880518E+04  0.10100000352E+00 0.  1.
       -3   -1    0    0    0  501  0.00000000000E+00  0.00000000000E+00 -0.16690883915E+04  0.16690883946E+04  0.10100000352E+00 0. -1.
    10030    2    1    2    0    0  0.00000000000E+00  0.00000000000E+00 -0.13440034302E+03  0.32037764464E+04  0.32009561175E+04 0.  0.
        4    1    3    3  502    0 -0.83368713424E+03 -0.73369287981E+03 -0.12206863924E+04  0.16502776618E+04  0.12699999809E+01 0.  1.
       -4    1    3    3    0  502  0.83368713424E+03  0.73369287981E+03  0.10862860494E+04  0.15534987846E+04  0.12699999809E+01 0. -1.
</event>
<event>
 5   0  0.5233813E-07  0.3199348E+04  0.7818609E-02  0.8188989E-01
       -1   -1    0    0    0  501  0.00000000000E+00  0.00000000000E+00  0.14408578120E+04  0.14408578120E+04  0.50400001928E-02 0.  1.
        1   -1    0    0  501    0  0.00000000000E+00  0.00000000000E+00 -0.17759954283E+04  0.17759954283E+04  0.50400001928E-02 0. -1.
    10030    2    1    2    0    0  0.00000000000E+00  0.00000000000E+00 -0.33513761638E+03  0.32168532403E+04  0.31993479879E+04 0.  0.
        4    1    3    3  502    0  0.13123590940E+04 -0.49278564623E+03 -0.94238960623E+03  0.16891488589E+04  0.12699999809E+01 0. -1.
       -4    1    3    3    0  502 -0.13123590940E+04  0.49278564623E+03  0.60725198985E+03  0.15277043814E+04  0.12699999809E+01 0.  1.
</event>
<event>
 5   0  0.1508771E-06  0.3113987E+04  0.7818609E-02  0.8211910E-01
       -2   -1    0    0    0  501  0.00000000000E+00  0.00000000000E+00  0.96944561784E+03  0.96944561785E+03  0.25500000920E-02 0. -1.
        2   -1    0    0  501    0  0.00000000000E+00  0.00000000000E+00 -0.25006340542E+04  0.25006340542E+04  0.25500000920E-02 0.  1.
    10030    2    1    2    0    0  0.00000000000E+00  0.00000000000E+00 -0.15311884364E+04  0.34700796720E+04  0.31139869786E+04 0.  0.
        4    1    3    3  502    0 -0.93135851459E+03 -0.11366381629E+04 -0.13390822752E+04  0.19880940493E+04  0.12699999809E+01 0.  1.
       -4    1    3    3    0  502  0.93135851459E+03  0.11366381629E+04 -0.19210616114E+03  0.14819856228E+04  0.12699999809E+01 0. -1.
</event>
<event>
 5   0  0.1572769E-06  0.2943964E+04  0.7818609E-02  0.8259916E-01
        2   -1    0    0  501    0  0.00000000000E+00  0.00000000000E+00  0.14472180664E+04  0.14472180664E+04  0.25500000920E-02 0. -1.
       -2   -1    0    0    0  501  0.00000000000E+00  0.00000000000E+00 -0.14971692611E+04  0.14971692611E+04  0.25500000920E-02 0.  1.
    10030    2    1    2    0    0  0.00000000000E+00  0.00000000000E+00 -0.49951194626E+02  0.29443873275E+04  0.29439635889E+04 0.  0.
        5    1    3    3  502    0  0.82695147510E+03  0.58178038641E+03  0.10449405732E+04  0.14540426582E+04  0.46999998093E+01 0. -1.
       -5    1    3    3    0  502 -0.82695147510E+03 -0.58178038641E+03 -0.10948917679E+04  0.14903446694E+04  0.46999998093E+01 0.  1.
</event>
<event>
 5   0  0.5370912E-07  0.3163539E+04  0.7818609E-02  0.8198513E-01
       -1   -1    0    0    0  501  0.00000000000E+00  0.00000000000E+00  0.12782602806E+04  0.12782602806E+04  0.50400001928E-02 0.  1.
        1   -1    0    0  501    0  0.00000000000E+00  0.00000000000E+00 -0.19573441798E+04  0.19573441798E+04  0.50400001928E-02 0. -1.
    10030    2    1    2    0    0  0.00000000000E+00  0.00000000000E+00 -0.67908389919E+03  0.32356044605E+04  0.31635393600E+04 0.  0.
        1    1    3    3  502    0  0.14758520948E+03 -0.94193445169E+03  0.95133975964E+03  0.13468738781E+04  0.50400001928E-02 0.  1.
       -1    1    3    3    0  502 -0.14758520948E+03  0.94193445169E+03 -0.16304236588E+04  0.18887305823E+04  0.50400001928E-02 0. -1.
</event>
<event>
 5   0  0.1508771E-06  0.3194451E+04  0.7818609E-02  0.8190284E-01
        2   -1    0    0  501    0  0.00000000000E+00  0.00000000000E+00  0.84392458631E+03  0.84392458631E+03  0.25500000920E-02 0.  1.
       -2   -1    0    0    0  501  0.00000000000E+00  0.00000000000E+00 -0.30229359299E+04  0.30229359299E+04  0.25500000920E-02 0. -1.
    10030    2    1    2    0    0  0.00000000000E+00  0.00000000000E+00 -0.21790113436E+04  0.38668605162E+04  0.31944514108E+04 0.  0.
        4    1    3    3  502    0 -0.38355122674E+03  0.10502372891E+04 -0.24702203602E+04  0.27114756403E+04  0.12699999809E+01 0. -1.
       -4    1    3    3    0  502  0.38355122674E+03 -0.10502372891E+04  0.29120901668E+03  0.11553848758E+04  0.12699999809E+01 0.  1.
</event>
<event>
 5   0  0.5177039E-07  0.2814824E+04  0.7818609E-02  0.8298681E-01
        1   -1    0    0  501    0  0.00000000000E+00  0.00000000000E+00  0.10358156430E+04  0.10358156431E+04  0.50400001928E-02 0.  1.
       -1   -1    0    0    0  501  0.00000000000E+00  0.00000000000E+00 -0.19123170965E+04  0.19123170965E+04  0.50400001928E-02 0. -1.
    10030    2    1    2    0    0  0.00000000000E+00  0.00000000000E+00 -0.87650145346E+03  0.29481327396E+04  0.28148235917E+04 0.  0.
        3    1    3    3  502    0  0.30327669985E+03  0.76463993543E+03  0.75783080333E+03  0.11184625717E+04  0.10100000352E+00 0.  1.
       -3    1    3    3    0  502 -0.30327669985E+03 -0.76463993543E+03 -0.16343322568E+04  0.18296701679E+04  0.10100000352E+00 0. -1.
</event>
<event>
 5   0  0.5317728E-07  0.2984967E+04  0.7818609E-02  0.8248037E-01
        1   -1    0    0  501    0  0.00000000000E+00  0.00000000000E+00  0.15213069753E+04  0.15213069753E+04  0.50400001928E-02 0. -1.
       -1   -1    0    0    0  501  0.00000000000E+00  0.00000000000E+00 -0.14642061044E+04  0.14642061045E+04  0.50400001928E-02 0.  1.
    10030    2    1    2    0    0  0.00000000000E+00  0.00000000000E+00  0.57100870863E+02  0.29855130798E+04  0.29849669747E+04 0.  0.
        2    1    3    3  502    0 -0.73874014578E+03  0.12954533857E+04 -0.31214010841E+02  0.14916134861E+04  0.25500000920E-02 0. -1.
       -2    1    3    3    0  502  0.73874014578E+03 -0.12954533857E+04  0.88314881704E+02  0.14938995936E+04  0.25500000920E-02 0.  1.
</event>
<event>
 5   0  0.5317728E-07  0.3166783E+04  0.7818609E-02  0.8197645E-01
       -1   -1    0    0    0  501  0.00000000000E+00  0.00000000000E+00  0.12447059154E+04  0.12447059154E+04  0.50400001928E-02 0. -1.
        1   -1    0    0  501    0  0.00000000000E+00  0.00000000000E+00 -0.20142341447E+04  0.20142341447E+04  0.50400001928E-02 0.  1.
    10030    2    1    2    0    0  0.00000000000E+00  0.00000000000E+00 -0.76952822936E+03  0.32589400601E+04  0.31667833238E+04 0.  0.
        2    1    3    3  502    0  0.23601189914E+02 -0.14051576843E+04  0.36591838915E+03  0.14522125883E+04  0.25500000920E-02 0. -1.
       -2    1    3    3    0  502 -0.23601189914E+02  0.14051576843E+04 -0.11354466185E+04  0.18067274719E+04  0.25500000920E-02 0.  1.
</event>
<event>
 5   0  0.5370912E-07  0.3244752E+04  0.7818609E-02  0.8177097E-01
       -1   -1    0    0    0  501  0.00000000000E+00  0.00000000000E+00  0.10422539134E+04  0.10422539134E+04  0.50400001928E-02 0.  1.
        1   -1    0    0  501    0  0.00000000000E+00  0.00000000000E+00 -0.25253956140E+04  0.25253956140E+04  0.50400001928E-02 0. -1.
    10030    2    1    2    0    0  0.00000000000E+00  0.00000000000E+00 -0.14831417006E+04  0.35676495275E+04  0.32447517389E+04 0.  0.
        1    1    3    3  502    0 -0.76027298370E+03 -0.18308418689E+03 -0.23044936039E+04  0.24335623270E+04  0.50400001928E-02 0. -1.
       -1    1    3    3    0  502  0.76027298370E+03  0.18308418689E+03  0.82135190327E+03  0.11340872005E+04  0.50400001928E-02 0.  1.
</event>
<event>
 5   0  0.5281187E-07  0.3185923E+04  0.7818609E-02  0.8192545E-01
        1   -1    0    0  501    0  0.00000000000E+00  0.00000000000E+00  0.20236032618E+04  0.20236032618E+04  0.50400001928E-02 0.  1.
       -1   -1    0    0    0  501  0.00000000000E+00  0.00000000000E+00 -0.12539646721E+04  0.12539646722E+04  0.50400001928E-02 0. -1.
    10030    2    1    2    0    0  0.00000000000E+00  0.00000000000E+00  0.76963858966E+03  0.32775679340E+04  0.31859234145E+04 0.  0.
        5    1    3    3  502    0 -0.87221982110E+03  0.74838908094E+03  0.15195673019E+04  0.19052455243E+04  0.46999998093E+01 0.  1.
       -5    1    3    3    0  502  0.87221982110E+03 -0.74838908094E+03 -0.74992871220E+03  0.13723224097E+04  0.46999998093E+01 0. -1.
</event>
<event>
 5   0  0.5317728E-07  0.3175304E+04  0.7818609E-02  0.8195370E-01
       -1   -1    0    0    0  501  0.00000000000E+00  0.00000000000E+00  0.15620113456E+04  0.15620113456E+04  0.50400001928E-02 0. -1.
        1   -1    0    0  501    0  0.00000000000E+00  0.00000000000E+00 -0.16137133227E+04  0.16137133227E+04  0.50400001928E-02 0.  1.
    10030    2    1    2    0    0  0.00000000000E+00  0.00000000000E+00 -0.51701977035E+02  0.31757246683E+04  0.31753037767E+04 0.  0.
        2    1    3    3  502    0  0.57551190515E+02  0.15842871123E+04  0.59955050311E+02  0.15864653800E+04  0.25500000920E-02 0.  1.
       -2    1    3    3    0  502 -0.57551190515E+02 -0.15842871123E+04 -0.11165702735E+03  0.15892592883E+04  0.25500000920E-02 0. -1.
</event>
<event>
 5   0  0.1508771E-06  0.3221455E+04  0.7818609E-02  0.8183174E-01
       -2   -1    0    0    0  501  0.00000000000E+00  0.00000000000E+00  0.16202182609E+04  0.16202182609E+04  0.25500000920E-02 0.  1.
        2   -1    0    0  501    0  0.00000000000E+00  0.00000000000E+00 -0.16012922019E+04  0.16012922019E+04  0.25500000920E-02 0. -1.
    10030    2    1    2    0    0  0.00000000000E+00  0.00000000000E+00  0.18926059030E+02  0.32215104628E+04  0.32214548680E+04 0.  0.
        4    1    3    3  502    0  0.63433407942E+03 -0.14795221273E+04  0.64923919932E+02  0.16110810587E+04  0.12699999809E+01 0.  1.
       -4    1    3    3    0  502 -0.63433407942E+03  0.14795221273E+04 -0.45997860901E+02  0.16104294041E+04  0.12699999809E+01 0. -1.
</event>
<event>
 5   0  0.1508771E-06  0.3204271E+04  0.7818609E-02  0.8187690E-01
       -2   -1    0    0    0  501  0.00000000000E+00  0.00000000000E+00  0.10471648470E+04  0.10471648470E+04  0.25500000920E-02 0. -1.
        2   -1    0    0  501    0  0.00000000000E+00  0.00000000000E+00 -0.24512264388E+04  0.24512264389E+04  0.25500000920E-02 0.  1.
    10030    2    1    2    0    0  0.00000000000E+00  0.00000000000E+00 -0.14040615919E+04  0.34983912858E+04  0.32042709990E+04 0.  0.
        4    1    3    3  502    0  0.13379980588E+04 -0.10587436582E+03 -0.16571994679E+04  0.21325477429E+04  0.12699999809E+01 0.  1.
       -4    1    3    3    0  502 -0.13379980588E+04  0.10587436582E+03  0.25313787598E+03  0.13658435429E+04  0.12699999809E+01 0. -1.
</event>
<event>
 5   0  0.1538349E-06  0.3192390E+04  0.7818609E-02  0.8190830E-01
       -2   -1    0    0    0  501  0.00000000000E+00  0.00000000000E+00  0.14831710736E+04  0.14831710736E+04  0.25500000920E-02 0.  1.
        2   -1    0    0  501    0  0.00000000000E+00  0.00000000000E+00 -0.17178319949E+04  0.17178319949E+04  0.25500000920E-02 0. -1.
    10030    2    1    2    0    0  0.00000000000E+00  0.00000000000E+00 -0.23466092131E+03  0.32010030685E+04  0.31923901542E+04 0.  0.
        1    1    3    3  502    0  0.14888427917E+04  0.56811585282E+03 -0.20939453375E+03  0.16072506188E+04  0.50400001928E-02 0. -1.
       -1    1    3    3    0  502 -0.14888427917E+04 -0.56811585282E+03 -0.25266387557E+02  0.15937524497E+04  0.50400001928E-02 0.  1.
</event>
<event>
 5   0  0.5233813E-07  0.3173318E+04  0.7818609E-02  0.8195900E-01
       -1   -1    0    0    0  501  0.00000000000E+00  0.00000000000E+00  0.13181157532E+04  0.13181157533E+04  0.50400001928E-02 0. -1.
        1   -1    0    0  501    0  0.00000000000E+00  0.00000000000E+00 -0.19099130482E+04  0.19099130483E+04  0.50400001928E-02 0.  1.
    10030    2    1    2    0    0  0.00000000000E+00  0.00000000000E+00 -0.59179729500E+03  0.32280288015E+04  0.31733178071E+04 0.  0.
        4    1    3    3  502    0 -0.72692203640E+03 -0.51548240530E+03  0.10394977854E+04  0.13691950248E+04  0.12699999809E+01 0. -1.
       -4    1    3    3    0  502  0.72692203640E+03  0.51548240530E+03 -0.16312950804E+04  0.18588337767E+04  0.12699999809E+01 0.  1.
</event>
<event>
 5   0  0.5233813E-07  0.3130607E+04  0.7818609E-02  0.8207388E-01
        1   -1    0    0  501    0  0.00000000000E+00  0.00000000000E+00  0.20191679366E+04  0.20191679367E+04  0.50400001928E-02 0.  1.
       -1   -1    0    0    0  501  0.00000000000E+00  0.00000000000E+00 -0.12134576501E+04  0.12134576501E+04  0.50400001928E-02 0. -1.
    10030    2    1    2    0    0  0.00000000000E+00  0.00000000000E+00  0.80571028653E+03  0.32326255868E+04  0.31306068291E+04 0.  0.
        4    1    3    3  502    0 -0.53593038738E+03  0.11406411627E+04  0.13614888141E+04  0.18552458182E+04  0.12699999809E+01 0.  1.
       -4    1    3    3    0  502  0.53593038738E+03 -0.11406411627E+04 -0.55577852761E+03  0.13773797685E+04  0.12699999809E+01 0. -1.
</event>
<event>
 5   0  0.1572769E-06  0.3202262E+04  0.7818609E-02  0.8188220E-01
        2   -1    0    0  501    0  0.00000000000E+00  0.00000000000E+00  0.18716951211E+04  0.18716951211E+04  0.25500000920E-02 0.  1.
       -2   -1    0    0    0  501  0.00000000000E+00  0.00000000000E+00 -0.13696788235E+04  0.13696788235E+04  0.25500000920E-02 0. -1.
    10030    2    1    2    0    0  0.00000000000E+00  0.00000000000E+00  0.50201629756E+03  0.32413739446E+04  0.32022624324E+04 0.  0.
        5    1    3    3  502    0 -0.12427823694E+04 -0.96459352910E+03  0.55238683510E+03  0.16673637874E+04  0.46999998093E+01 0. -1.
       -5    1    3    3    0  502  0.12427823694E+04  0.96459352910E+03 -0.50370537541E+02  0.15740101572E+04  0.46999998093E+01 0.  1.
</event>
<event>
 5   0  0.5281187E-07  0.3220995E+04  0.7818609E-02  0.8183294E-01
        1   -1    0    0  501    0  0.00000000000E+00  0.00000000000E+00  0.11384901995E+04  0.11384901995E+04  0.50400001928E-02 0. -1.
       -1   -1    0    0    0  501  0.00000000000E+00  0.00000000000E+00 -0.22781942159E+04  0.22781942159E+04  0.50400001928E-02 0.  1.
    10030    2    1    2    0    0  0.00000000000E+00  0.00000000000E+00 -0.11397040164E+04  0.34166844155E+04  0.32209947454E+04 0.  0.
        5    1    3    3  502    0  0.64859554507E+03 -0.89942237659E+03  0.66902691902E+03  0.12950891479E+04  0.46999998093E+01 0. -1.
       -5    1    3    3    0  502 -0.64859554507E+03  0.89942237659E+03 -0.18087309354E+04  0.21215952676E+04  0.46999998093E+01 0.  1.
</event>
<event>
 5   0  0.5281187E-07  0.3223443E+04  0.7818609E-02  0.8182653E-01
       -1   -1    0    0    0  501  0.00000000000E+00  0.00000000000E+00  0.15477762681E+04  0.15477762681E+04  0.50400001928E-02 0. -1.
        1   -1    0    0  501    0  0.00000000000E+00  0.00000000000E+00 -0.16783088466E+04  0.16783088467E+04  0.50400001928E-02 0.  1.
    10030    2    1    2    0    0  0.00000000000E+00  0.00000000000E+00 -0.13053257852E+03  0.32260851148E+04  0.32234432543E+04 0.  0.
        5    1    3    3  502    0  0.96101652642E+03 -0.12264454496E+04 -0.47779740370E+03  0.16297342280E+04  0.46999998093E+01 0.  1.
       -5    1    3    3    0  502 -0.96101652642E+03  0.12264454496E+04  0.34726482519E+03  0.15963508868E+04  0.46999998093E+01 0. -1.
</event>
<event>
 5   0  0.1493485E-06  0.3208853E+04  0.7818609E-02  0.8186483E-01
        2   -1    0    0  501    0  0.00000000000E+00  0.00000000000E+00  0.23428887732E+04  0.23428887732E+04  0.25500000920E-02 0. -1.
       -2   -1    0    0    0  501  0.00000000000E+00  0.00000000000E+00 -0.10987221379E+04  0.10987221379E+04  0.25500000920E-02 0.  1.
    10030    2    1    2    0    0  0.00000000000E+00  0.00000000000E+00  0.12441666354E+04  0.34416109111E+04  0.32088526060E+04 0.  0.
        2    1    3    3  502    0  0.48236795707E+02  0.13123758399E+04 -0.36647091314E+03  0.13634361239E+04  0.25500000920E-02 0.  1.
       -2    1    3    3    0  502 -0.48236795707E+02 -0.13123758399E+04  0.16106375485E+04  0.20781747873E+04  0.25500000920E-02 0. -1.
</event>
<event>
 5   0  0.5177039E-07  0.3193245E+04  0.7818609E-02  0.8190603E-01
        1   -1    0    0  501    0  0.00000000000E+00  0.00000000000E+00  0.12468079039E+04  0.12468079039E+04  0.50400001928E-02 0. -1.
       -1   -1    0    0    0  501  0.00000000000E+00  0.00000000000E+00 -0.20445843876E+04  0.20445843876E+04  0.50400001928E-02 0.  1.
    10030    2    1    2    0    0  0.00000000000E+00  0.00000000000E+00 -0.79777648366E+03  0.32913922915E+04  0.31932453552E+04 0.  0.
        3    1    3    3  502    0 -0.68577026105E+03 -0.85126989108E+03  0.80060778786E+03  0.13549590837E+04  0.10100000352E+00 0. -1.
       -3    1    3    3    0  502  0.68577026105E+03  0.85126989108E+03 -0.15983842715E+04  0.19364332077E+04  0.10100000352E+00 0.  1.
</event>
<event>
 5   0  0.1556396E-06  0.3189925E+04  0.7818609E-02  0.8191483E-01
       -2   -1    0    0    0  501  0.00000000000E+00  0.00000000000E+00  0.14317341672E+04  0.14317341672E+04  0.25500000920E-02 0. -1.
        2   -1    0    0  501    0  0.00000000000E+00  0.00000000000E+00 -0.17767999665E+04  0.17767999665E+04  0.25500000920E-02 0.  1.
    10030    2    1    2    0    0  0.00000000000E+00  0.00000000000E+00 -0.34506579923E+03  0.32085341337E+04  0.31899249021E+04 0.  0.
        3    1    3    3  502    0  0.68100699791E+02 -0.47981165369E+03 -0.17009528995E+04  0.17686428992E+04  0.10100000352E+00 0.  1.
       -3    1    3    3    0  502 -0.68100699791E+02  0.47981165369E+03  0.13558871003E+04  0.14398912345E+04  0.10100000352E+00 0. -1.
</event>
<event>
 5   0  0.1508771E-06  0.3201259E+04  0.7818609E-02  0.8188485E-01
       -2   -1    0    0    0  501  0.00000000000E+00  0.00000000000E+00  0.11218718444E+04  0.11218718444E+04  0.25500000920E-02 0. -1.
        2   -1    0    0  501    0  0.00000000000E+00  0.00000000000E+00 -0.22836962011E+04  0.22836962011E+04  0.25500000920E-02 0.  1.
    10030    2    1    2    0    0  0.00000000000E+00  0.00000000000E+00 -0.11618243567E+04  0.34055680455E+04  0.32012587956E+04 0.  0.
        4    1    3    3  502    0  0.43536934942E+03  0.47121046207E+03 -0.21409356703E+04  0.22349928248E+04  0.12699999809E+01 0.  1.
       -4    1    3    3    0  502 -0.43536934942E+03 -0.47121046207E+03  0.97911131353E+03  0.11705752206E+04  0.12699999809E+01 0. -1.
</event>
<event>
 5   0  0.1508771E-06  0.3190489E+04  0.7818609E-02  0.8191333E-01
        2   -1    0    0  501    0  0.00000000000E+00  0.00000000000E+00  0.21632418338E+04  0.21632418338E+04  0.25500000920E-02 0.  1.
       -2   -1    0    0    0  501  0.00000000000E+00  0.00000000000E+00 -0.11763851478E+04  0.11763851478E+04  0.25500000920E-02 0. -1.
    10030    2    1    2    0    0  0.00000000000E+00  0.00000000000E+00  0.98685668597E+03  0.33396269816E+04  0.31904893445E+04 0.  0.
        4    1    3    3  502    0 -0.11165292644E+04  0.65654160852E+03 -0.48129222727E+03  0.13817844633E+04  0.12699999809E+01 0. -1.
       -4    1    3    3    0  502  0.11165292644E+04 -0.65654160852E+03  0.14681489132E+04  0.19578425183E+04  0.12699999809E+01 0.  1.
</event>
<event>
 5   0  0.5317728E-07  0.3198935E+04  0.7818609E-02  0.8189098E-01
       -1   -1    0    0    0  501  0.00000000000E+00  0.00000000000E+00  0.12824482084E+04  0.12824482084E+04  0.50400001928E-02 0.  1.
        1   -1    0    0  501    0  0.00000000000E+00  0.00000000000E+00 -0.19948538069E+04  0.19948538069E+04  0.50400001928E-02 0. -1.
    10030    2    1    2    0    0  0.00000000000E+00  0.00000000000E+00 -0.71240559851E+03  0.32773020152E+04  0.31989352545E+04 0.  0.
        2    1    3    3  502    0 -0.20349764844E+03  0.29571914721E+03 -0.19530512783E+04  0.19857669558E+04  0.25500000920E-02 0. -1.
       -2    1    3    3    0  502  0.20349764844E+03 -0.29571914721E+03  0.12406456798E+04  0.12915350594E+04  0.25500000920E-02 0.  1.
</event>
<event>
 5   0  0.1538349E-06  0.3184133E+04  0.7818609E-02  0.8193020E-01
       -2   -1    0    0    0  501  0.00000000000E+00  0.00000000000E+00  0.13376343968E+04  0.13376343968E+04  0.25500000920E-02 0.  1.
        2   -1    0    0  501    0  0.00000000000E+00  0.00000000000E+00 -0.18948939926E+04  0.18948939926E+04  0.25500000920E-02 0. -1.
    10030    2    1    2    0    0  0.00000000000E+00  0.00000000000E+00 -0.55725959580E+03  0.32325283894E+04  0.31841327754E+04 0.  0.
        1    1    3    3  502    0  0.15324330087E+04 -0.29643589507E+03  0.39906932032E+02  0.15613512510E+04  0.50400001928E-02 0.  1.
       -1    1    3    3    0  502 -0.15324330087E+04  0.29643589507E+03 -0.59716652783E+03  0.16711771384E+04  0.50400001928E-02 0. -1.
</event>
<event>
 5   0  0.5370912E-07  0.3192104E+04  0.7818609E-02  0.8190906E-01
       -1   -1    0    0    0  501  0.00000000000E+00  0.00000000000E+00  0.15484640502E+04  0.15484640502E+04  0.50400001928E-02 0. -1.
        1   -1    0    0  501    0  0.00000000000E+00  0.00000000000E+00 -0.16451021998E+04  0.16451021998E+04  0.50400001928E-02 0.  1.
    10030    2    1    2    0    0  0.00000000000E+00  0.00000000000E+00 -0.96638149643E+02  0.31935662500E+04  0.31921037673E+04 0.  0.
        1    1    3    3  502    0  0.55802057848E+03 -0.11902980559E+04 -0.95382224383E+03  0.16241838876E+04  0.50400001928E-02 0.  1.
       -1    1    3    3    0  502 -0.55802057848E+03  0.11902980559E+04  0.85718409419E+03  0.15693823624E+04  0.50400001928E-02 0. -1.
</event>
<event>
 5   0  0.5281187E-07  0.3203469E+04  0.7818609E-02  0.8187902E-01
       -1   -1    0    0    0  501  0.00000000000E+00  0.00000000000E+00  0.15883622005E+04  0.15883622005E+04  0.50400001928E-02 0. -1.
        1   -1    0    0  501    0  0.00000000000E+00  0.00000000000E+00 -0.16152196425E+04  0.16152196426E+04  0.50400001928E-02 0.  1.
    10030    2    1    2    0    0  0.00000000000E+00  0.00000000000E+00 -0.26857442050E+02  0.32035818431E+04  0.32034692605E+04 0.  0.
        5    1    3    3  502    0  0.61972804932E+03 -0.13648022020E+04 -0.57805801281E+03  0.16065245289E+04  0.46999998093E+01 0.  1.
       -5    1    3    3    0  502 -0.61972804932E+03  0.13648022020E+04  0.55120057076E+03  0.15970573142E+04  0.46999998093E+01 0. -1.
</event>
<event>
 5   0  0.1538349E-06  0.3208382E+04  0.7818609E-02  0.8186607E-01
        2   -1    0    0  501    0  0.00000000000E+00  0.00000000000E+00  0.19913314689E+04  0.19913314689E+04  0.25500000920E-02 0.  1.
       -2   -1    0    0    0  501  0.00000000000E+00  0.00000000000E+00 -0.12923154246E+04  0.12923154246E+04  0.25500000920E-02 0. -1.
    10030    2    1    2    0    0  0.00000000000E+00  0.00000000000E+00  0.69901604427E+03  0.32836468935E+04  0.32083817558E+04 0.  0.
        1    1    3    3  502    0 -0.13398002328E+04  0.70964735632E+03 -0.18696834313E+03  0.15276194538E+04  0.50400001928E-02 0.  1.
       -1    1    3    3    0  502  0.13398002328E+04 -0.70964735632E+03  0.88598438740E+03  0.17560274397E+04  0.50400001928E-02 0. -1.
</event>
<event>
 5   0  0.5281187E-07  0.3192091E+04  0.7818609E-02  0.8190909E-01
        1   -1    0    0  501    0  0.00000000000E+00  0.00000000000E+00  0.22201790555E+04  0.22201790555E+04  0.50400001928E-02 0.  1.
       -1   -1    0    0    0  501  0.00000000000E+00  0.00000000000E+00 -0.11473677947E+04  0.11473677947E+04  0.50400001928E-02 0. -1.
    10030    2    1    2    0    0  0.00000000000E+00  0.00000000000E+00  0.10728112608E+04  0.33675468502E+04  0.31920914440E+04 0.  0.
        5    1    3    3  502    0 -0.37505198657E+03  0.64424555378E+03  0.20252247818E+04  0.21580717859E+04  0.46999998093E+01 0.  1.
       -5    1    3    3    0  502  0.37505198657E+03 -0.64424555378E+03 -0.95241352098E+03  0.12094750643E+04  0.46999998093E+01 0. -1.
</event>
<event>
 5   0  0.5177039E-07  0.3206221E+04  0.7818609E-02  0.8187176E-01
        1   -1    0    0  501    0  0.00000000000E+00  0.00000000000E+00  0.13454179832E+04  0.13454179832E+04  0.50400001928E-02 0.  1.
       -1   -1    0    0    0  501  0.00000000000E+00  0.00000000000E+00 -0.19101592744E+04  0.19101592744E+04  0.50400001928E-02 0. -1.
    10030    2    1    2    0    0  0.00000000000E+00  0.00000000000E+00 -0.56474129123E+03  0.32555772577E+04  0.32062206029E+04 0.  0.
        3    1    3    3  502    0  0.27685462193E+03 -0.63549849700E+03 -0.17501176426E+04  0.18823970342E+04  0.10100000352E+00 0. -1.
       -3    1    3    3    0  502 -0.27685462193E+03  0.63549849700E+03  0.11853763514E+04  0.13731802234E+04  0.10100000352E+00 0.  1.
</event>
<event>
 5   0  0.5233813E-07  0.3214557E+04  0.7818609E-02  0.8184983E-01
       -1   -1    0    0    0  501  0.00000000000E+00  0.00000000000E+00  0.27351251531E+04  0.27351251531E+04  0.50400001928E-02 0.  1.
        1   -1    0    0  501    0  0.00000000000E+00  0.00000000000E+00 -0.94450695401E+03  0.94450695402E+03  0.50400001928E-02 0. -1.
    10030    2    1    2    0    0  0.00000000000E+00  0.00000000000E+00  0.17906181991E+04  0.36796321071E+04  0.32145573426E+04 0.  0.
        4    1    3    3  502    0 -0.15744749215E+04  0.11309295785E+03  0.12417170528E+04  0.20083884454E+04  0.12699999809E+01 0.  1.
       -4    1    3    3    0  502  0.15744749215E+04 -0.11309295785E+03  0.54890114624E+03  0.16712436617E+04  0.12699999809E+01 0. -1.
</event>
<event>
 5   0  0.1572769E-06  0.3159055E+04  0.7818609E-02  0.8199715E-01
       -2   -1    0    0    0  501  0.00000000000E+00  0.00000000000E+00  0.13075727362E+04  0.13075727362E+04  0.25500000920E-02 0.  1.
        2   -1    0    0  501    0  0.00000000000E+00  0.00000000000E+00 -0.19080440359E+04  0.19080440359E+04  0.25500000920E-02 0. -1.
    10030    2    1    2    0    0  0.00000000000E+00  0.00000000000E+00 -0.60047129968E+03  0.32156167720E+04  0.31590545172E+04 0.  0.
        5    1    3    3  502    0  0.89211757639E+03  0.75607327699E+03  0.78054904990E+03  0.14059870126E+04  0.46999998093E+01 0.  1.
       -5    1    3    3    0  502 -0.89211757639E+03 -0.75607327699E+03 -0.13810203496E+04  0.18096297594E+04  0.46999998093E+01 0. -1.
</event>
<event>
 5   0  0.1538349E-06  0.2943538E+04  0.7818609E-02  0.8260040E-01
       -2   -1    0    0    0  501  0.00000000000E+00  0.00000000000E+00  0.11975370210E+04  0.11975370210E+04  0.25500000920E-02 0. -1.
        2   -1    0    0  501    0  0.00000000000E+00  0.00000000000E+00 -0.18087990265E+04  0.18087990265E+04  0.25500000920E-02 0.  1.
    10030    2    1    2    0    0  0.00000000000E+00  0.00000000000E+00 -0.61126200551E+03  0.30063360475E+04  0.29435378699E+04 0.  0.
        1    1    3    3  502    0  0.31498339838E+03 -0.13184817105E+04  0.27974165665E+03  0.13841473753E+04  0.50400001928E-02 0. -1.
       -1    1    3    3    0  502 -0.31498339838E+03  0.13184817105E+04 -0.89100366216E+03  0.16221886722E+04  0.50400001928E-02 0.  1.
</event>
<event>
 5   0  0.5317728E-07  0.3205288E+04  0.7818609E-02  0.8187422E-01
       -1   -1    0    0    0  501  0.00000000000E+00  0.00000000000E+00  0.13415016657E+04  0.13415016657E+04  0.50400001928E-02 0. -1.
        1   -1    0    0  501    0  0.00000000000E+00  0.00000000000E+00 -0.19146215709E+04  0.19146215709E+04  0.50400001928E-02 0.  1.
    10030    2    1    2    0    0  0.00000000000E+00  0.00000000000E+00 -0.57311990521E+03  0.32561232367E+04  0.32052881472E+04 0.  0.
        2    1    3    3  502    0 -0.76899081300E+03 -0.14015281734E+04 -0.40167051504E+03  0.16483225697E+04  0.25500000920E-02 0. -1.
       -2    1    3    3    0  502  0.76899081300E+03  0.14015281734E+04 -0.17144939017E+03  0.16078006669E+04  0.25500000920E-02 0.  1.
</event>
<event>
 5   0  0.5281187E-07  0.3186190E+04  0.7818609E-02  0.8192474E-01
        1   -1    0    0  501    0  0.00000000000E+00  0.00000000000E+00  0.23972642778E+04  0.23972642778E+04  0.50400001928E-02 0. -1.
       -1   -1    0    0    0  501  0.00000000000E+00  0.00000000000E+00 -0.10586869500E+04  0.10586869500E+04  0.50400001928E-02 0.  1.
    10030    2    1    2    0    0  0.00000000000E+00  0.00000000000E+00  0.13385773278E+04  0.34559512278E+04  0.31861904567E+04 0.  0.
        5    1    3    3  502    0  0.62885390041E+03 -0.11485626867E+04  0.16534557175E+04  0.21091684080E+04  0.46999998093E+01 0. -1.
       -5    1    3    3    0  502 -0.62885390041E+03  0.11485626867E+04 -0.31487838968E+03  0.13467828198E+04  0.46999998093E+01 0.  1.
</event>
<event>
 5   0  0.1556396E-06  0.3167967E+04  0.7818609E-02  0.8197329E-01
        2   -1    0    0  501    0  0.00000000000E+00  0.00000000000E+00  0.13478844584E+04  0.13478844584E+04  0.25500000920E-02 0.  1.
       -2   -1    0    0    0  501  0.00000000000E+00  0.00000000000E+00 -0.18614381429E+04  0.18614381429E+04  0.25500000920E-02 0. -1.
    10030    2    1    2    0    0  0.00000000000E+00  0.00000000000E+00 -0.51355368448E+03  0.32093226012E+04  0.31679668830E+04 0.  0.
        3    1    3    3  502    0  0.20769153874E+03  0.13056058931E+03 -0.18420763445E+04  0.18583398807E+04  0.10100000352E+00 0. -1.
       -3    1    3    3    0  502 -0.20769153874E+03 -0.13056058931E+03  0.13285226601E+04  0.13509827206E+04  0.10100000352E+00 0.  1.
</event>
<event>
 5   0  0.1538349E-06  0.3207139E+04  0.7818609E-02  0.8186934E-01
        2   -1    0    0  501    0  0.00000000000E+00  0.00000000000E+00  0.13901162499E+04  0.13901162499E+04  0.25500000920E-02 0. -1.
       -2   -1    0    0    0  501  0.00000000000E+00  0.00000000000E+00 -0.18497990829E+04  0.18497990829E+04  0.25500000920E-02 0.  1.
    10030    2    1    2    0    0  0.00000000000E+00  0.00000000000E+00 -0.45968283308E+03  0.32399153328E+04  0.32071393884E+04 0.  0.
        1    1    3    3  502    0  0.90025111113E+03 -0.70725739160E+03 -0.13641569419E+04  0.17808956295E+04  0.50400001928E-02 0.  1.
       -1    1    3    3    0  502 -0.90025111113E+03  0.70725739160E+03  0.90447410881E+03  0.14590197033E+04  0.50400001928E-02 0. -1.
</event>
<event>
 5   0  0.4995625E-07  0.3193914E+04  0.7818609E-02  0.8190426E-01
        3   -1    0    0  501    0  0.00000000000E+00  0.00000000000E+00  0.12000240574E+04  0.12000240616E+04  0.10100000352E+00 0. -1.
       -3   -1    0    0    0  501  0.00000000000E+00  0.00000000000E+00 -0.21251841842E+04  0.21251841866E+04  0.10100000352E+00 0.  1.
    10030    2    1    2    0    0  0.00000000000E+00  0.00000000000E+00 -0.92516012676E+03  0.33252082482E+04  0.31939143122E+04 0.  0.
        2    1    3    3  502    0  0.59918090291E+03  0.12976231078E+04 -0.12042028942E+04  0.18689430421E+04  0.25500000920E-02 0.  1.
       -2    1    3    3    0  502 -0.59918090291E+03 -0.12976231078E+04  0.27904276744E+03  0.14562652061E+04  0.25500000920E-02 0. -1.
</event>
<event>
 5   0  0.5317728E-07  0.3222810E+04  0.7818609E-02  0.8182819E-01
       -1   -1    0    0    0  501  0.00000000000E+00  0.00000000000E+00  0.11274074882E+04  0.11274074882E+04  0.50400001928E-02 0.  1.
        1   -1    0    0  501    0  0.00000000000E+00  0.00000000000E+00 -0.23031838307E+04  0.23031838307E+04  0.50400001928E-02 0. -1.
    10030    2    1    2    0    0  0.00000000000E+00  0.00000000000E+00 -0.11757763425E+04  0.34305913189E+04  0.32228103868E+04 0.  0.
        2    1    3    3  502    0 -0.16031997612E+04 -0.11158327784E+03 -0.46226967590E+03  0.16722420744E+04  0.25500000920E-02 0. -1.
       -2    1    3    3    0  502  0.16031997612E+04  0.11158327784E+03 -0.71350666657E+03  0.17583492444E+04  0.25500000920E-02 0.  1.
</event>
<event>
 5   0  0.5281187E-07  0.3197160E+04  0.7818609E-02  0.8189568E-01
        1   -1    0    0  501    0  0.00000000000E+00  0.00000000000E+00  0.10559190370E+04  0.10559190370E+04  0.50400001928E-02 0.  1.
       -1   -1    0    0    0  501  0.00000000000E+00  0.00000000000E+00 -0.24201273154E+04  0.24201273154E+04  0.50400001928E-02 0. -1.
    10030    2    1    2    0    0  0.00000000000E+00  0.00000000000E+00 -0.13642082784E+04  0.34760463525E+04  0.31971603053E+04 0.  0.
        5    1    3    3  502    0  0.26009002583E+03 -0.62023964949E+03  0.89460040990E+03  0.11192301049E+04  0.46999998093E+01 0.  1.
       -5    1    3    3    0  502 -0.26009002583E+03  0.62023964949E+03 -0.22588086883E+04  0.23568162476E+04  0.46999998093E+01 0. -1.
</event>
<event>
 5   0  0.5317728E-07  0.3237297E+04  0.7818609E-02  0.8179036E-01
       -1   -1    0    0    0  501  0.00000000000E+00  0.00000000000E+00  0.14506677096E+04  0.14506677097E+04  0.50400001928E-02 0.  1.
        1   -1    0    0  501    0  0.00000000000E+00  0.00000000000E+00 -0.18060802078E+04  0.18060802078E+04  0.50400001928E-02 0. -1.
    10030    2    1    2    0    0  0.00000000000E+00  0.00000000000E+00 -0.35541249815E+03  0.32567479175E+04  0.32372965502E+04 0.  0.
        2    1    3    3  502    0  0.13119682375E+04 -0.93427617643E+03 -0.33957551649E+03  0.16460389307E+04  0.25500000920E-02 0. -1.
       -2    1    3    3    0  502 -0.13119682375E+04  0.93427617643E+03 -0.15836981665E+02  0.16107089867E+04  0.25500000920E-02 0.  1.
</event>
<event>
 5   0  0.5281187E-07  0.3209644E+04  0.7818609E-02  0.8186275E-01
       -1   -1    0    0    0  501  0.00000000000E+00  0.00000000000E+00  0.10949435457E+04  0.10949435457E+04  0.50400001928E-02 0. -1.
        1   -1    0    0  501    0  0.00000000000E+00  0.00000000000E+00 -0.23521330900E+04  0.23521330900E+04  0.50400001928E-02 0.  1.
    10030    2    1    2    0    0  0.00000000000E+00  0.00000000000E+00 -0.12571895443E+04  0.34470766357E+04  0.32096435600E+04 0.  0.
        5    1    3    3  502    0 -0.12025730862E+04  0.99185171951E+03 -0.21896239234E+03  0.15741405529E+04  0.46999998093E+01 0.  1.
       -5    1    3    3    0  502  0.12025730862E+04 -0.99185171951E+03 -0.10382271520E+04  0.18729360828E+04  0.46999998093E+01 0. -1.
</event>
<event>
 5   0  0.5317728E-07  0.3202352E+04  0.7818609E-02  0.8188196E-01
       -1   -1    0    0    0  501  0.00000000000E+00  0.00000000000E+00  0.11767629040E+04  0.11767629040E+04  0.50400001928E-02 0. -1.
        1   -1    0    0  501    0  0.00000000000E+00  0.00000000000E+00 -0.21786590524E+04  0.21786590524E+04  0.50400001928E-02 0.  1.
    10030    2    1    2    0    0  0.00000000000E+00  0.00000000000E+00 -0.10018961485E+04  0.33554219564E+04  0.32023523562E+04 0.  0.
        2    1    3    3  502    0  0.56062878859E+03 -0.75875892783E+03 -0.18565204965E+04  0.20824716332E+04  0.25500000920E-02 0.  1.
       -2    1    3    3    0  502 -0.56062878859E+03  0.75875892783E+03  0.85462434801E+03  0.12729503232E+04  0.25500000920E-02 0. -1.
</event>
<event>
 5   0  0.1556396E-06  0.3206678E+04  0.7818609E-02  0.8187056E-01
       -2   -1    0    0    0  501  0.00000000000E+00  0.00000000000E+00  0.13493529162E+04  0.13493529162E+04  0.25500000920E-02 0.  1.
        2   -1    0    0  501    0  0.00000000000E+00  0.00000000000E+00 -0.19051327132E+04  0.19051327132E+04  0.25500000920E-02 0. -1.
    10030    2    1    2    0    0  0.00000000000E+00  0.00000000000E+00 -0.55577979700E+03  0.32544856294E+04  0.32066782703E+04 0.  0.
        3    1    3    3  502    0 -0.50866551295E+03  0.12727898721E+04  0.56635413655E+03  0.14830683331E+04  0.10100000352E+00 0.  1.
       -3    1    3    3    0  502  0.50866551295E+03 -0.12727898721E+04 -0.11221339335E+04  0.17714172963E+04  0.10100000352E+00 0. -1.
</event>
<event>
 5   0  0.1493485E-06  0.3201832E+04  0.7818609E-02  0.8188334E-01
       -2   -1    0    0    0  501  0.00000000000E+00  0.00000000000E+00  0.14095172276E+04  0.14095172276E+04  0.25500000920E-02 0. -1.
        2   -1    0    0  501    0  0.00000000000E+00  0.00000000000E+00 -0.18183045411E+04  0.18183045411E+04  0.25500000920E-02 0.  1.
    10030    2    1    2    0    0  0.00000000000E+00  0.00000000000E+00 -0.40878731355E+03  0.32278217687E+04  0.32018317105E+04 0.  0.
        2    1    3    3  502    0  0.14650766581E+04 -0.47505280630E+01 -0.85496866533E+03  0.16963029212E+04  0.25500000920E-02 0.  1.
       -2    1    3    3    0  502 -0.14650766581E+04  0.47505280630E+01  0.44618135179E+03  0.15315188475E+04  0.25500000920E-02 0. -1.
</event>
<event>
 5   0  0.1538349E-06  0.3195466E+04  0.7818609E-02  0.8190016E-01
        2   -1    0    0  501    0  0.00000000000E+00  0.00000000000E+00  0.10138884204E+04  0.10138884204E+04  0.25500000920E-02 0.  1.
       -2   -1    0    0    0  501  0.00000000000E+00  0.00000000000E+00 -0.25177822061E+04  0.25177822061E+04  0.25500000920E-02 0. -1.
    10030    2    1    2    0    0  0.00000000000E+00  0.00000000000E+00 -0.15038937857E+04  0.35316706265E+04  0.31954656775E+04 0.  0.
        1    1    3    3  502    0  0.94935185295E+03 -0.98620632933E+03  0.15868324310E+03  0.13780610423E+04  0.50400001928E-02 0.  1.
       -1    1    3    3    0  502 -0.94935185295E+03  0.98620632933E+03 -0.16625770288E+04  0.21536095842E+04  0.50400001928E-02 0. -1.
</event>
<event>
 5   0  0.5317728E-07  0.3219039E+04  0.7818609E-02  0.8183807E-01
       -1   -1    0    0    0  501  0.00000000000E+00  0.00000000000E+00  0.18597049812E+04  0.18597049812E+04  0.50400001928E-02 0.  1.
        1   -1    0    0  501    0  0.00000000000E+00  0.00000000000E+00 -0.13929910992E+04  0.13929910992E+04  0.50400001928E-02 0. -1.
    10030    2    1    2    0    0  0.00000000000E+00  0.00000000000E+00  0.46671388202E+03  0.32526960804E+04  0.32190386677E+04 0.  0.
        2    1    3    3  502    0  0.91130852988E+03  0.11467772523E+04  0.90739316333E+03  0.17230622902E+04  0.25500000920E-02 0. -1.
       -2    1    3    3    0  502 -0.91130852988E+03 -0.11467772523E+04 -0.44067928131E+03  0.15296337902E+04  0.25500000920E-02 0.  1.
</event>
<event>
 5   0  0.1508771E-06  0.3210571E+04  0.7818609E-02  0.8186031E-01
       -2   -1    0    0    0  501  0.00000000000E+00  0.00000000000E+00  0.11029410156E+04  0.11029410156E+04  0.25500000920E-02 0. -1.
        2   -1    0    0  501    0  0.00000000000E+00  0.00000000000E+00 -0.23364279826E+04  0.23364279826E+04  0.25500000920E-02 0.  1.
    10030    2    1    2    0    0  0.00000000000E+00  0.00000000000E+00 -0.12334869670E+04  0.34393689982E+04  0.32105714457E+04 0.  0.
        4    1    3    3  502    0 -0.96842520716E+03  0.12152582362E+04 -0.18524794671E+03  0.15649339849E+04  0.12699999809E+01 0.  1.
       -4    1    3    3    0  502  0.96842520716E+03 -0.12152582362E+04 -0.10482390203E+04  0.18744350133E+04  0.12699999809E+01 0. -1.
</event>
<event>
 5   0  0.5370912E-07  0.3206428E+04  0.7818609E-02  0.8187122E-01
        1   -1    0    0  501    0  0.00000000000E+00  0.00000000000E+00  0.20135512623E+04  0.20135512623E+04  0.50400001928E-02 0.  1.
       -1   -1    0    0    0  501  0.00000000000E+00  0.00000000000E+00 -0.12764984429E+04  0.12764984430E+04  0.50400001928E-02 0. -1.
    10030    2    1    2    0    0  0.00000000000E+00  0.00000000000E+00  0.73705281940E+03  0.32900497053E+04  0.32064279510E+04 0.  0.
        1    1    3    3  502    0 -0.84601692797E+03 -0.12068727988E+04 -0.27880566017E+03  0.15000063970E+04  0.50400001928E-02 0. -1.
       -1    1    3    3    0  502  0.84601692797E+03  0.12068727988E+04  0.10158584796E+04  0.17900433083E+04  0.50400001928E-02 0.  1.
</event>
<event>
 5   0  0.5233813E-07  0.3214064E+04  0.7818609E-02  0.8185113E-01
        1   -1    0    0  501    0  0.00000000000E+00  0.00000000000E+00  0.12119918173E+04  0.12119918173E+04  0.50400001928E-02 0. -1.
       -1   -1    0    0    0  501  0.00000000000E+00  0.00000000000E+00 -0.21308330777E+04  0.21308330777E+04  0.50400001928E-02 0.  1.
    10030    2    1    2    0    0  0.00000000000E+00  0.00000000000E+00 -0.91884126043E+03  0.33428248950E+04  0.32140642521E+04 0.  0.
        4    1    3    3  502    0  0.11404282412E+03  0.74054911511E+03 -0.19380400301E+04  0.20778401115E+04  0.12699999809E+01 0.  1.
       -4    1    3    3    0  502 -0.11404282412E+03 -0.74054911511E+03  0.10191987697E+04  0.12649847835E+04  0.12699999809E+01 0. -1.
</event>
<event>
 5   0  0.1556396E-06  0.3194105E+04  0.7818609E-02  0.8190376E-01
        2   -1    0    0  501    0  0.00000000000E+00  0.00000000000E+00  0.16214055743E+04  0.16214055743E+04  0.25500000920E-02 0. -1.
       -2   -1    0    0    0  501  0.00000000000E+00  0.00000000000E+00 -0.15730654916E+04  0.15730654916E+04  0.25500000920E-02 0.  1.
    10030    2    1    2    0    0  0.00000000000E+00  0.00000000000E+00  0.48340082641E+02  0.31944710659E+04  0.31941052937E+04 0.  0.
        3    1    3    3  502    0 -0.43557866514E+03  0.58335970510E+03  0.14457897575E+04  0.16187480817E+04  0.10100000352E+00 0. -1.
       -3    1    3    3    0  502  0.43557866514E+03 -0.58335970510E+03 -0.13974496748E+04  0.15757229842E+04  0.10100000352E+00 0.  1.
</event>
<event>
 5   0  0.5281187E-07  0.2913695E+04  0.7818609E-02  0.8268815E-01
        1   -1    0    0  501    0  0.00000000000E+00  0.00000000000E+00  0.19275638273E+04  0.19275638273E+04  0.50400001928E-02 0.  1.
       -1   -1    0    0    0  501  0.00000000000E+00  0.00000000000E+00 -0.11010812255E+04  0.11010812255E+04  0.50400001928E-02 0. -1.
    10030    2    1    2    0    0  0.00000000000E+00  0.00000000000E+00  0.82648260183E+03  0.30286450528E+04  0.29136947960E+04 0.  0.
        5    1    3    3  502    0 -0.48996596699E+03 -0.91347674416E+02 -0.10096960414E+04  0.11260191972E+04  0.46999998093E+01 0. -1.
       -5    1    3    3    0  502  0.48996596699E+03  0.91347674416E+02  0.18361786432E+04  0.19026258556E+04  0.46999998093E+01 0.  1.
</event>
<event>
 5   0  0.1556396E-06  0.3201031E+04  0.7818609E-02  0.8188545E-01
       -2   -1    0    0    0  501  0.00000000000E+00  0.00000000000E+00  0.15041788254E+04  0.15041788254E+04  0.25500000920E-02 0. -1.
        2   -1    0    0  501    0  0.00000000000E+00  0.00000000000E+00 -0.17030224436E+04  0.17030224436E+04  0.25500000920E-02 0.  1.
    10030    2    1    2    0    0  0.00000000000E+00  0.00000000000E+00 -0.19884361819E+03  0.32072012690E+04  0.32010312706E+04 0.  0.
        3    1    3    3  502    0  0.62114314874E+03 -0.97843138447E+03  0.10065643434E+04  0.15350304795E+04  0.10100000352E+00 0. -1.
       -3    1    3    3    0  502 -0.62114314874E+03  0.97843138447E+03 -0.12054079616E+04  0.16721707895E+04  0.10100000352E+00 0.  1.
</event>
<event>
 5   0  0.5233813E-07  0.3189798E+04  0.7818609E-02  0.8191517E-01
        1   -1    0    0  501    0  0.00000000000E+00  0.00000000000E+00  0.25573796066E+04  0.25573796066E+04  0.50400001928E-02 0.  1.
       -1   -1    0    0    0  501  0.00000000000E+00  0.00000000000E+00 -0.99465173655E+03  0.99465173656E+03  0.50400001928E-02 0. -1.
    10030    2    1    2    0    0  0.00000000000E+00  0.00000000000E+00  0.15627278701E+04  0.35520313432E+04  0.31897975276E+04 0.  0.
        4    1    3    3  502    0  0.10724904547E+04 -0.37988153728E+03  0.20259409748E+04  0.23235714329E+04  0.12699999809E+01 0.  1.
       -4    1    3    3    0  502 -0.10724904547E+04  0.37988153728E+03 -0.46321310468E+03  0.12284599103E+04  0.12699999809E+01 0. -1.
</event>
<event>
 5   0  0.5281187E-07  0.3250417E+04  0.7818609E-02  0.8175628E-01
       -1   -1    0    0    0  501  0.00000000000E+00  0.00000000000E+00  0.13013431491E+04  0.13013431491E+04  0.50400001928E-02 0.  1.
        1   -1    0    0  501    0  0.00000000000E+00  0.00000000000E+00 -0.20296742654E+04  0.20296742654E+04  0.50400001928E-02 0. -1.
    10030    2    1    2    0    0  0.00000000000E+00  0.00000000000E+00 -0.72833111628E+03  0.33310174145E+04  0.32504170195E+04 0.  0.
        5    1    3    3  502    0  0.12469511838E+04 -0.82574026620E+03 -0.10159769901E+04  0.18080280906E+04  0.46999998093E+01 0. -1.
       -5    1    3    3    0  502 -0.12469511838E+04  0.82574026620E+03  0.28764587384E+03  0.15229893239E+04  0.46999998093E+01 0.  1.
</event>
<event>
 5   0  0.1572769E-06  0.3215111E+04  0.7818609E-02  0.8184838E-01
        2   -1    0    0  501    0  0.00000000000E+00  0.00000000000E+00  0.15523115938E+04  0.15523115938E+04  0.25500000920E-02 0.  1.
       -2   -1    0    0    0  501  0.00000000000E+00  0.00000000000E+00 -0.16647651878E+04  0.16647651878E+04  0.25500000920E-02 0. -1.
    10030    2    1    2    0    0  0.00000000000E+00  0.00000000000E+00 -0.11245359395E+03  0.32170767816E+04  0.32151107613E+04 0.  0.
        5    1    3    3  502    0  0.28730627175E+03 -0.13855082844E+04 -0.81960491429E+03  0.16352224331E+04  0.46999998093E+01 0.  1.
       -5    1    3    3    0  502 -0.28730627175E+03  0.13855082844E+04  0.70715132033E+03  0.15818543485E+04  0.46999998093E+01 0. -1.
</event>
<event>
 5   0  0.5370912E-07  0.3198459E+04  0.7818609E-02  0.8189224E-01
       -1   -1    0    0    0  501  0.00000000000E+00  0.00000000000E+00  0.13554365782E+04  0.13554365782E+04  0.50400001928E-02 0.  1.
        1   -1    0    0  501    0  0.00000000000E+00  0.00000000000E+00 -0.18868715719E+04  0.18868715719E+04  0.50400001928E-02 0. -1.
    10030    2    1    2    0    0  0.00000000000E+00  0.00000000000E+00 -0.53143499374E+03  0.32423081501E+04  0.31984588457E+04 0.  0.
        1    1    3    3  502    0  0.48323395650E+03 -0.14726268981E+04  0.13388173770E+03  0.15556572108E+04  0.50400001928E-02 0.  1.
       -1    1    3    3    0  502 -0.48323395650E+03  0.14726268981E+04 -0.66531673144E+03  0.16866509393E+04  0.50400001928E-02 0. -1.
</event>
<event>
 5   0  0.1572769E-06  0.3189973E+04  0.7818609E-02  0.8191470E-01
       -2   -1    0    0    0  501  0.00000000000E+00  0.00000000000E+00  0.13578876718E+04  0.13578876718E+04  0.25500000920E-02 0. -1.
        2   -1    0    0  501    0  0.00000000000E+00  0.00000000000E+00 -0.18734843070E+04  0.18734843070E+04  0.25500000920E-02 0.  1.
    10030    2    1    2    0    0  0.00000000000E+00  0.00000000000E+00 -0.51559663517E+03  0.32313719788E+04  0.31899725665E+04 0.  0.
        5    1    3    3  502    0 -0.14717145776E+04 -0.52383070920E+03 -0.58387142119E+03  0.16677141050E+04  0.46999998093E+01 0. -1.
       -5    1    3    3    0  502  0.14717145776E+04  0.52383070920E+03  0.68274786012E+02  0.15636578737E+04  0.46999998093E+01 0.  1.
</event>
<event>
 5   0  0.5317728E-07  0.3202940E+04  0.7818609E-02  0.8188041E-01
        1   -1    0    0  501    0  0.00000000000E+00  0.00000000000E+00  0.18272944159E+04  0.18272944159E+04  0.50400001928E-02 0. -1.
       -1   -1    0    0    0  501  0.00000000000E+00  0.00000000000E+00 -0.14035536374E+04  0.14035536374E+04  0.50400001928E-02 0.  1.
    10030    2    1    2    0    0  0.00000000000E+00  0.00000000000E+00  0.42374077847E+03  0.32308480533E+04  0.32029397272E+04 0.  0.
        2    1    3    3  502    0 -0.14421587305E+04  0.42675756771E+03  0.76690284249E+03  0.16882191194E+04  0.25500000920E-02 0. -1.
       -2    1    3    3    0  502  0.14421587305E+04 -0.42675756771E+03 -0.34316206401E+03  0.15426289339E+04  0.25500000920E-02 0.  1.
</event>
<event>
 5   0  0.5177039E-07  0.3276434E+04  0.7818609E-02  0.8168918E-01
       -1   -1    0    0    0  501  0.00000000000E+00  0.00000000000E+00  0.12429792310E+04  0.12429792311E+04  0.50400001928E-02 0.  1.
        1   -1    0    0  501    0  0.00000000000E+00  0.00000000000E+00 -0.21591310201E+04  0.21591310201E+04  0.50400001928E-02 0. -1.
    10030    2    1    2    0    0  0.00000000000E+00  0.00000000000E+00 -0.91615178903E+03  0.34021102511E+04  0.32764340464E+04 0.  0.
        3    1    3    3  502    0  0.95351994314E+03 -0.57485614495E+03  0.78972374525E+03  0.13650360704E+04  0.10100000352E+00 0.  1.
       -3    1    3    3    0  502 -0.95351994314E+03  0.57485614495E+03 -0.17058755343E+04  0.20370741808E+04  0.10100000352E+00 0. -1.
</event>
<event>
 5   0  0.5281187E-07  0.3218873E+04  0.7818609E-02  0.8183850E-01
       -1   -1    0    0    0  501  0.00000000000E+00  0.00000000000E+00  0.24372303355E+04  0.24372303355E+04  0.50400001928E-02 0.  1.
        1   -1    0    0  501    0  0.00000000000E+00  0.00000000000E+00 -0.10627991640E+04  0.10627991640E+04  0.50400001928E-02 0. -1.
    10030    2    1    2    0    0  0.00000000000E+00  0.00000000000E+00  0.13744311715E+04  0.35000294996E+04  0.32188733204E+04 0.  0.
        5    1    3    3  502    0  0.11704741766E+04  0.42727172711E+03  0.17948650340E+04  0.21849790634E+04  0.46999998093E+01 0.  1.
       -5    1    3    3    0  502 -0.11704741766E+04 -0.42727172711E+03 -0.42043386253E+03  0.13150504362E+04  0.46999998093E+01 0. -1.
</event>
<event>
 5   0  0.1493485E-06  0.3225089E+04  0.7818609E-02  0.8182223E-01
        2   -1    0    0  501    0  0.00000000000E+00  0.00000000000E+00  0.31216335299E+04  0.31216335299E+04  0.25500000920E-02 0.  1.
       -2   -1    0    0    0  501  0.00000000000E+00  0.00000000000E+00 -0.83299306253E+03  0.83299306253E+03  0.25500000920E-02 0. -1.
    10030    2    1    2    0    0  0.00000000000E+00  0.00000000000E+00  0.22886404674E+04  0.39546265925E+04  0.32250885719E+04 0.  0.
        2    1    3    3  502    0 -0.23937921146E+03 -0.17728486269E+03  0.30876038898E+04  0.31019397334E+04  0.25500000920E-02 0.  1.
       -2    1    3    3    0  502  0.23937921146E+03  0.17728486269E+03 -0.79896342235E+03  0.85268685910E+03  0.25500000920E-02 0. -1.
</event>
<event>
 5   0  0.1538349E-06  0.3201485E+04  0.7818609E-02  0.8188425E-01
        2   -1    0    0  501    0  0.00000000000E+00  0.00000000000E+00  0.30683848204E+04  0.30683848204E+04  0.25500000920E-02 0. -1.
       -2   -1    0    0    0  501  0.00000000000E+00  0.00000000000E+00 -0.83508991482E+03  0.83508991483E+03  0.25500000920E-02 0.  1.
    10030    2    1    2    0    0  0.00000000000E+00  0.00000000000E+00  0.22332949056E+04  0.39034747353E+04  0.32014854167E+04 0.  0.
        1    1    3    3  502    0  0.11977182399E+03 -0.15961828365E+04  0.11352300642E+04  0.19623690367E+04  0.50400001928E-02 0. -1.
       -1    1    3    3    0  502 -0.11977182399E+03  0.15961828365E+04  0.10980648414E+04  0.19411056986E+04  0.50400001928E-02 0.  1.
</event>
<event>
 5   0  0.5370912E-07  0.3284295E+04  0.7818609E-02  0.8166903E-01
        1   -1    0    0  501    0  0.00000000000E+00  0.00000000000E+00  0.18552809788E+04  0.18552809788E+04  0.50400001928E-02 0.  1.
       -1   -1    0    0    0  501  0.00000000000E+00  0.00000000000E+00 -0.14534989235E+04  0.14534989235E+04  0.50400001928E-02 0. -1.
    10030    2    1    2    0    0  0.00000000000E+00  0.00000000000E+00  0.40178205534E+03  0.33087799023E+04  0.32842953007E+04 0.  0.
        1    1    3    3  502    0 -0.13443546847E+04  0.29219282678E+03 -0.70244439935E+03  0.15446987734E+04  0.50400001928E-02 0. -1.
       -1    1    3    3    0  502  0.13443546847E+04 -0.29219282678E+03  0.11042264547E+04  0.17640811290E+04  0.50400001928E-02 0.  1.
</event>
<event>
 5   0  0.5177039E-07  0.3197589E+04  0.7818609E-02  0.8189454E-01
        1   -1    0    0  501    0  0.00000000000E+00  0.00000000000E+00  0.16769664333E+04  0.16769664333E+04  0.50400001928E-02 0. -1.
       -1   -1    0    0    0  501  0.00000000000E+00  0.00000000000E+00 -0.15242667842E+04  0.15242667842E+04  0.50400001928E-02 0.  1.
    10030    2    1    2    0    0  0.00000000000E+00  0.00000000000E+00  0.15269964911E+03  0.32012332176E+04  0.31975892373E+04 0.  0.
        3    1    3    3  502    0  0.90243512861E+03  0.52938192093E+03  0.12866567365E+04  0.16583485603E+04  0.10100000352E+00 0. -1.
       -3    1    3    3    0  502 -0.90243512861E+03 -0.52938192093E+03 -0.11339570874E+04  0.15428846573E+04  0.10100000352E+00 0.  1.
</event>
<event>
 5   0  0.5177039E-07  0.3204159E+04  0.7818609E-02  0.8187720E-01
        1   -1    0    0  501    0  0.00000000000E+00  0.00000000000E+00  0.18669932531E+04  0.18669932531E+04  0.50400001928E-02 0. -1.
       -1   -1    0    0    0  501  0.00000000000E+00  0.00000000000E+00 -0.13747552942E+04  0.13747552942E+04  0.50400001928E-02 0.  1.
    10030    2    1    2    0    0  0.00000000000E+00  0.00000000000E+00  0.49223795886E+03  0.32417485473E+04  0.32041590841E+04 0.  0.
        3    1    3    3  502    0 -0.66544058842E+03  0.15994168739E+02 -0.12282316530E+04  0.13970039348E+04  0.10100000352E+00 0.  1.
       -3    1    3    3    0  502  0.66544058842E+03 -0.15994168739E+02  0.17204696118E+04  0.18447446126E+04  0.10100000352E+00 0. -1.
</event>
<event>
 5   0  0.5317728E-07  0.3210249E+04  0.7818609E-02  0.8186116E-01
        1   -1    0    0  501    0  0.00000000000E+00  0.00000000000E+00  0.12859001758E+04  0.12859001758E+04  0.50400001928E-02 0. -1.
       -1   -1    0    0    0  501  0.00000000000E+00  0.00000000000E+00 -0.20035966378E+04  0.20035966378E+04  0.50400001928E-02 0.  1.
    10030    2    1    2    0    0  0.00000000000E+00  0.00000000000E+00 -0.71769646194E+03  0.32894968136E+04  0.32102493790E+04 0.  0.
        2    1    3    3  502    0  0.82680343732E+03 -0.96346433963E+03 -0.13652116237E+04  0.18643149506E+04  0.25500000920E-02 0.  1.
       -2    1    3    3    0  502 -0.82680343732E+03  0.96346433963E+03  0.64751516177E+03  0.14251818629E+04  0.25500000920E-02 0. -1.
</event>
<event>
 5   0  0.1538349E-06  0.3197452E+04  0.7818609E-02  0.8189490E-01
        2   -1    0    0  501    0  0.00000000000E+00  0.00000000000E+00  0.16169204013E+04  0.16169204013E+04  0.25500000920E-02 0. -1.
       -2   -1    0    0    0  501  0.00000000000E+00  0.00000000000E+00 -0.15807367521E+04  0.15807367521E+04  0.25500000920E-02 0.  1.
    10030    2    1    2    0    0  0.00000000000E+00  0.00000000000E+00  0.36183649163E+02  0.31976571534E+04  0.31974524257E+04 0.  0.
        1    1    3    3  502    0 -0.14147970531E+04  0.74981570908E+02 -0.72266645388E+03  0.15904463968E+04  0.50400001928E-02 0. -1.
       -1    1    3    3    0  502  0.14147970531E+04 -0.74981570908E+02  0.75885010304E+03  0.16072107567E+04  0.50400001928E-02 0.  1.
</event>
<event>
 5   0  0.1556396E-06  0.3187683E+04  0.7818609E-02  0.8192078E-01
       -2   -1    0    0    0  501  0.00000000000E+00  0.00000000000E+00  0.14935957299E+04  0.14935957299E+04  0.25500000920E-02 0. -1.
        2   -1    0    0  501    0  0.00000000000E+00  0.00000000000E+00 -0.17008152028E+04  0.17008152028E+04  0.25500000920E-02 0.  1.
    10030    2    1    2    0    0  0.00000000000E+00  0.00000000000E+00 -0.20721947290E+03  0.31944109326E+04  0.31876827472E+04 0.  0.
        3    1    3    3  502    0 -0.15886344718E+04 -0.40773382794E+02  0.18747773379E+02  0.15892682099E+04  0.10100000352E+00 0. -1.
       -3    1    3    3    0  502  0.15886344718E+04  0.40773382794E+02 -0.22596724628E+03  0.16051427227E+04  0.10100000352E+00 0.  1.
</event>
<event>
 5   0  0.5177039E-07  0.3223731E+04  0.7818609E-02  0.8182578E-01
        1   -1    0    0  501    0  0.00000000000E+00  0.00000000000E+00  0.20258344814E+04  0.20258344814E+04  0.50400001928E-02 0.  1.
       -1   -1    0    0    0  501  0.00000000000E+00  0.00000000000E+00 -0.12824893340E+04  0.12824893340E+04  0.50400001928E-02 0. -1.
    10030    2    1    2    0    0  0.00000000000E+00  0.00000000000E+00  0.74334514746E+03  0.33083238154E+04  0.32237314496E+04 0.  0.
        3    1    3    3  502    0 -0.14795937135E+04  0.43450669475E+03  0.85315054420E+03  0.17623448828E+04  0.10100000352E+00 0.  1.
       -3    1    3    3    0  502  0.14795937135E+04 -0.43450669475E+03 -0.10980539674E+03  0.15459789326E+04  0.10100000352E+00 0. -1.
</event>
<event>
 5   0  0.1508771E-06  0.3167168E+04  0.7818609E-02  0.8197542E-01
        2   -1    0    0  501    0  0.00000000000E+00  0.00000000000E+00  0.13839423379E+04  0.13839423379E+04  0.25500000920E-02 0.  1.
       -2   -1    0    0    0  501  0.00000000000E+00  0.00000000000E+00 -0.18120256925E+04  0.18120256925E+04  0.25500000920E-02 0. -1.
    10030    2    1    2    0    0  0.00000000000E+00  0.00000000000E+00 -0.42808335458E+03  0.31959680305E+04  0.31671684978E+04 0.  0.
        4    1    3    3  502    0  0.20827689326E+03 -0.15598623096E+04 -0.39224813076E+03  0.16218538461E+04  0.12699999809E+01 0. -1.
       -4    1    3    3    0  502 -0.20827689326E+03  0.15598623096E+04 -0.35835223822E+02  0.15741141843E+04  0.12699999809E+01 0.  1.
</event>
<event>
 5   0  0.5177039E-07  0.3206274E+04  0.7818609E-02  0.8187162E-01
       -1   -1    0    0    0  501  0.00000000000E+00  0.00000000000E+00  0.17119227539E+04  0.17119227539E+04  0.50400001928E-02 0. -1.
        1   -1    0    0  501    0  0.00000000000E+00  0.00000000000E+00 -0.15012642836E+04  0.15012642836E+04  0.50400001928E-02 0.  1.
    10030    2    1    2    0    0  0.00000000000E+00  0.00000000000E+00  0.21065847029E+03  0.32131870375E+04  0.32062741534E+04 0.  0.
        3    1    3    3  502    0 -0.31077940773E+03  0.73423357798E+03  0.14991426572E+04  0.16979727631E+04  0.10100000352E+00 0. -1.
       -3    1    3    3    0  502  0.31077940773E+03 -0.73423357798E+03 -0.12884841869E+04  0.15152142744E+04  0.10100000352E+00 0.  1.
</event>
<event>
 5   0  0.5177039E-07  0.3175533E+04  0.7818609E-02  0.8195309E-01
       -1   -1    0    0    0  501  0.00000000000E+00  0.00000000000E+00  0.22901041408E+04  0.22901041408E+04  0.50400001928E-02 0.  1.
        1   -1    0    0  501    0  0.00000000000E+00  0.00000000000E+00 -0.11008246598E+04  0.11008246598E+04  0.50400001928E-02 0. -1.
    10030    2    1    2    0    0  0.00000000000E+00  0.00000000000E+00  0.11892794810E+04  0.33909288006E+04  0.31755334114E+04 0.  0.
        3    1    3    3  502    0 -0.10394966174E+04  0.99517570932E+03  0.13110215042E+04  0.19467165446E+04  0.10100000352E+00 0.  1.
       -3    1    3    3    0  502  0.10394966174E+04 -0.99517570932E+03 -0.12174202321E+03  0.14442122560E+04  0.10100000352E+00 0. -1.
</event>
<event>
 5   0  0.1556396E-06  0.3131549E+04  0.7818609E-02  0.8207132E-01
       -2   -1    0    0    0  501  0.00000000000E+00  0.00000000000E+00  0.19027038366E+04  0.19027038366E+04  0.25500000920E-02 0.  1.
        2   -1    0    0  501    0  0.00000000000E+00  0.00000000000E+00 -0.12885084909E+04  0.12885084909E+04  0.25500000920E-02 0. -1.
    10030    2    1    2    0    0  0.00000000000E+00  0.00000000000E+00  0.61419534566E+03  0.31912123275E+04  0.31315491688E+04 0.  0.
        3    1    3    3  502    0  0.63291618697E+03  0.89853767177E+03 -0.82936138075E+03  0.13768780474E+04  0.10100000352E+00 0. -1.
       -3    1    3    3    0  502 -0.63291618697E+03 -0.89853767177E+03  0.14435567264E+04  0.18143342801E+04  0.10100000352E+00 0.  1.
</event>
<event>
 5   0  0.5233813E-07  0.3212054E+04  0.7818609E-02  0.8185641E-01
       -1   -1    0    0    0  501  0.00000000000E+00  0.00000000000E+00  0.29237010928E+04  0.29237010928E+04  0.50400001928E-02 0. -1.
        1   -1    0    0  501    0  0.00000000000E+00  0.00000000000E+00 -0.88221137189E+03  0.88221137191E+03  0.50400001928E-02 0.  1.
    10030    2    1    2    0    0  0.00000000000E+00  0.00000000000E+00  0.20414897209E+04  0.38059124647E+04  0.32120537680E+04 0.  0.
        4    1    3    3  502    0  0.75115760036E+03 -0.45345190035E+03  0.26146079269E+04  0.27579036587E+04  0.12699999809E+01 0. -1.
       -4    1    3    3    0  502 -0.75115760036E+03  0.45345190035E+03 -0.57311820599E+03  0.10480088060E+04  0.12699999809E+01 0.  1.
</event>
<event>
 5   0  0.5177039E-07  0.3205175E+04  0.7818609E-02  0.8187452E-01
        1   -1    0    0  501    0  0.00000000000E+00  0.00000000000E+00  0.27771958161E+04  0.27771958161E+04  0.50400001928E-02 0. -1.
       -1   -1    0    0    0  501  0.00000000000E+00  0.00000000000E+00 -0.92477717435E+03  0.92477717437E+03  0.50400001928E-02 0.  1.
    10030    2    1    2    0    0  0.00000000000E+00  0.00000000000E+00  0.18524186418E+04  0.37019729905E+04  0.32051753771E+04 0.  0.
        3    1    3    3  502    0 -0.12638860293E+04 -0.71331878275E+03  0.17113159025E+04  0.22438435126E+04  0.10100000352E+00 0. -1.
       -3    1    3    3    0  502  0.12638860293E+04  0.71331878275E+03  0.14110273930E+03  0.14581294779E+04  0.10100000352E+00 0.  1.
</event>
<event>
 5   0  0.1493485E-06  0.3174748E+04  0.7818609E-02  0.8195518E-01
       -2   -1    0    0    0  501  0.00000000000E+00  0.00000000000E+00  0.14643911936E+04  0.14643911936E+04  0.25500000920E-02 0.  1.
        2   -1    0    0  501    0  0.00000000000E+00  0.00000000000E+00 -0.17206849388E+04  0.17206849388E+04  0.25500000920E-02 0. -1.
    10030    2    1    2    0    0  0.00000000000E+00  0.00000000000E+00 -0.25629374517E+03  0.31850761324E+04  0.31747477829E+04 0.  0.
        2    1    3    3  502    0 -0.60455035389E+03 -0.10646318141E+04  0.88550334626E+03  0.15109726027E+04  0.25500000920E-02 0.  1.
       -2    1    3    3    0  502  0.60455035389E+03  0.10646318141E+04 -0.11417970914E+04  0.16741035296E+04  0.25500000920E-02 0. -1.
</event>
<event>
 5   0  0.5233813E-07  0.3201278E+04  0.7818609E-02  0.8188480E-01
        1   -1    0    0  501    0  0.00000000000E+00  0.00000000000E+00  0.10747313184E+04  0.10747313184E+04  0.50400001928E-02 0.  1.
       -1   -1    0    0    0  501  0.00000000000E+00  0.00000000000E+00 -0.23838938536E+04  0.23838938537E+04  0.50400001928E-02 0. -1.
    10030    2    1    2    0    0  0.00000000000E+00  0.00000000000E+00 -0.13091625352E+04  0.34586251721E+04  0.32012781099E+04 0.  0.
        4    1    3    3  502    0 -0.74805703565E+03  0.12741504539E+04  0.10533927301E+02  0.14775524642E+04  0.12699999809E+01 0.  1.
       -4    1    3    3    0  502  0.74805703565E+03 -0.12741504539E+04 -0.13196964625E+04  0.19810727079E+04  0.12699999809E+01 0. -1.
</event>
<event>
 5   0  0.1538349E-06  0.3213959E+04  0.7818609E-02  0.8185140E-01
        2   -1    0    0  501    0  0.00000000000E+00  0.00000000000E+00  0.17233462387E+04  0.17233462387E+04  0.25500000920E-02 0. -1.
       -2   -1    0    0    0  501  0.00000000000E+00  0.00000000000E+00 -0.14984703990E+04  0.14984703990E+04  0.25500000920E-02 0.  1.
    10030    2    1    2    0    0  0.00000000000E+00  0.00000000000E+00  0.22487583971E+03  0.32218166377E+04  0.32139591322E+04 0.  0.
        1    1    3    3  502    0 -0.66369190443E+03 -0.92916226071E+03  0.12459339051E+04  0.16900238894E+04  0.50400001928E-02 0. -1.
       -1    1    3    3    0  502  0.66369190443E+03  0.92916226071E+03 -0.10210580654E+04  0.15317927483E+04  0.50400001928E-02 0.  1.
</event>
<event>
 5   0  0.5317728E-07  0.3179711E+04  0.7818609E-02  0.8194196E-01
       -1   -1    0    0    0  501  0.00000000000E+00  0.00000000000E+00  0.16242276199E+04  0.16242276200E+04  0.50400001928E-02 0. -1.
        1   -1    0    0  501    0  0.00000000000E+00  0.00000000000E+00 -0.15562105861E+04  0.15562105861E+04  0.50400001928E-02 0.  1.
    10030    2    1    2    0    0  0.00000000000E+00  0.00000000000E+00  0.68017033862E+02  0.31804382061E+04  0.31797108148E+04 0.  0.
        2    1    3    3  502    0 -0.47841577542E+03 -0.13337256715E+04  0.75523823295E+03  0.16056433631E+04  0.25500000920E-02 0. -1.
       -2    1    3    3    0  502  0.47841577542E+03  0.13337256715E+04 -0.68722119908E+03  0.15747948430E+04  0.25500000920E-02 0.  1.
</event>
<event>
 5   0  0.5233813E-07  0.3229815E+04  0.7818609E-02  0.8180987E-01
       -1   -1    0    0    0  501  0.00000000000E+00  0.00000000000E+00  0.13246549818E+04  0.13246549818E+04  0.50400001928E-02 0. -1.
        1   -1    0    0  501    0  0.00000000000E+00  0.00000000000E+00 -0.19687590703E+04  0.19687590703E+04  0.50400001928E-02 0.  1.
    10030    2    1    2    0    0  0.00000000000E+00  0.00000000000E+00 -0.64410408848E+03  0.32934140520E+04  0.32298151714E+04 0.  0.
        4    1    3    3  502    0  0.11104428192E+04 -0.82959858971E+03 -0.11669865329E+04  0.18119537123E+04  0.12699999809E+01 0.  1.
       -4    1    3    3    0  502 -0.11104428192E+04  0.82959858971E+03  0.52288244441E+03  0.14814603397E+04  0.12699999809E+01 0. -1.
</event>
<event>
 5   0  0.1556396E-06  0.3204686E+04  0.7818609E-02  0.8187581E-01
       -2   -1    0    0    0  501  0.00000000000E+00  0.00000000000E+00  0.14565148035E+04  0.14565148035E+04  0.25500000920E-02 0.  1.
        2   -1    0    0  501    0  0.00000000000E+00  0.00000000000E+00 -0.17627718799E+04  0.17627718799E+04  0.25500000920E-02 0. -1.
    10030    2    1    2    0    0  0.00000000000E+00  0.00000000000E+00 -0.30625707638E+03  0.32192866835E+04  0.32046861552E+04 0.  0.
        3    1    3    3  502    0  0.13013807820E+04 -0.87705809287E+03 -0.47814624591E+03  0.16405629158E+04  0.10100000352E+00 0. -1.
       -3    1    3    3    0  502 -0.13013807820E+04  0.87705809287E+03  0.17188916953E+03  0.15787237677E+04  0.10100000352E+00 0.  1.
</event>
<event>
 5   0  0.5177039E-07  0.3240129E+04  0.7818609E-02  0.8178299E-01
        1   -1    0    0  501    0  0.00000000000E+00  0.00000000000E+00  0.17225609363E+04  0.17225609363E+04  0.50400001928E-02 0. -1.
       -1   -1    0    0    0  501  0.00000000000E+00  0.00000000000E+00 -0.15236666526E+04  0.15236666526E+04  0.50400001928E-02 0.  1.
    10030    2    1    2    0    0  0.00000000000E+00  0.00000000000E+00  0.19889428371E+03  0.32462275889E+04  0.32401287973E+04 0.  0.
        3    1    3    3  502    0  0.13261260739E+04 -0.45641470664E+03  0.91195074340E+03  0.16728953694E+04  0.10100000352E+00 0. -1.
       -3    1    3    3    0  502 -0.13261260739E+04  0.45641470664E+03 -0.71305645969E+03  0.15733322196E+04  0.10100000352E+00 0.  1.
</event>
<event>
 5   0  0.1493485E-06  0.3215589E+04  0.7818609E-02  0.8184712E-01
       -2   -1    0    0    0  501  0.00000000000E+00  0.00000000000E+00  0.12130279568E+04  0.12130279568E+04  0.25500000920E-02 0. -1.
        2   -1    0    0  501    0  0.00000000000E+00  0.00000000000E+00 -0.21310333927E+04  0.21310333927E+04  0.25500000920E-02 0.  1.
    10030    2    1    2    0    0  0.00000000000E+00  0.00000000000E+00 -0.91800543592E+03  0.33440613495E+04  0.32155889552E+04 0.  0.
        2    1    3    3  502    0 -0.78146290887E+03 -0.10461899760E+04  0.51645175479E+03  0.14042507464E+04  0.25500000920E-02 0. -1.
       -2    1    3    3    0  502  0.78146290887E+03  0.10461899760E+04 -0.14344571907E+04  0.19398106031E+04  0.25500000920E-02 0.  1.
</event>
<event>
 5   0  0.1556396E-06  0.3114502E+04  0.7818609E-02  0.8211769E-01
        2   -1    0    0  501    0  0.00000000000E+00  0.00000000000E+00  0.95537396187E+03  0.95537396187E+03  0.25500000920E-02 0.  1.
       -2   -1    0    0    0  501  0.00000000000E+00  0.00000000000E+00 -0.25383057321E+04  0.25383057321E+04  0.25500000920E-02 0. -1.
    10030    2    1    2    0    0  0.00000000000E+00  0.00000000000E+00 -0.15829317702E+04  0.34936796940E+04  0.31145023382E+04 0.  0.
        3    1    3    3  502    0  0.78373447654E+03  0.13368667607E+04 -0.96371405297E+03  0.18248828049E+04  0.10100000352E+00 0.  1.
       -3    1    3    3    0  502 -0.78373447654E+03 -0.13368667607E+04 -0.61921771725E+03  0.16687968891E+04  0.10100000352E+00 0. -1.
</event>
<event>
 5   0  0.1493485E-06  0.3169294E+04  0.7818609E-02  0.8196974E-01
        2   -1    0    0  501    0  0.00000000000E+00  0.00000000000E+00  0.18167671994E+04  0.18167671994E+04  0.25500000920E-02 0.  1.
       -2   -1    0    0    0  501  0.00000000000E+00  0.00000000000E+00 -0.13821840668E+04  0.13821840668E+04  0.25500000920E-02 0. -1.
    10030    2    1    2    0    0  0.00000000000E+00  0.00000000000E+00  0.43458313260E+03  0.31989512661E+04  0.31692943543E+04 0.  0.
        2    1    3    3  502    0 -0.17414852426E+03  0.13894898503E+04 -0.53133400059E+03  0.14977735386E+04  0.25500000920E-02 0. -1.
       -2    1    3    3    0  502  0.17414852426E+03 -0.13894898503E+04  0.96591713319E+03  0.17011777276E+04  0.25500000920E-02 0.  1.
</event>
<event>
 5   0  0.1493485E-06  0.3204500E+04  0.7818609E-02  0.8187630E-01
        2   -1    0    0  501    0  0.00000000000E+00  0.00000000000E+00  0.23783130428E+04  0.23783130428E+04  0.25500000920E-02 0. -1.
       -2   -1    0    0    0  501  0.00000000000E+00  0.00000000000E+00 -0.10794226300E+04  0.10794226300E+04  0.25500000920E-02 0.  1.
    10030    2    1    2    0    0  0.00000000000E+00  0.00000000000E+00  0.12988904128E+04  0.34577356728E+04  0.32044999108E+04 0.  0.
        2    1    3    3  502    0 -0.92126556820E+03 -0.27361742063E+03 -0.73390033161E+03  0.12092172827E+04  0.25500000920E-02 0.  1.
       -2    1    3    3    0  502  0.92126556820E+03  0.27361742063E+03  0.20327907444E+04  0.22485183901E+04  0.25500000920E-02 0. -1.
</event>
<event>
 5   0  0.5281187E-07  0.3128987E+04  0.7818609E-02  0.8207827E-01
        1   -1    0    0  501    0  0.00000000000E+00  0.00000000000E+00  0.25808281904E+04  0.25808281904E+04  0.50400001928E-02 0. -1.
       -1   -1    0    0    0  501  0.00000000000E+00  0.00000000000E+00 -0.94839306412E+03  0.94839306413E+03  0.50400001928E-02 0.  1.
    10030    2    1    2    0    0  0.00000000000E+00  0.00000000000E+00  0.16324351263E+04  0.35292212546E+04  0.31289867724E+04 0.  0.
        5    1    3    3  502    0  0.44391112523E+03  0.71377071103E+03 -0.67206703632E+03  0.10762071856E+04  0.46999998093E+01 0.  1.
       -5    1    3    3    0  502 -0.44391112523E+03 -0.71377071103E+03  0.23045021626E+04  0.24530140690E+04  0.46999998093E+01 0. -1.
</event>
<event>
 5   0  0.5233813E-07  0.3199169E+04  0.7818609E-02  0.8189037E-01
        1   -1    0    0  501    0  0.00000000000E+00  0.00000000000E+00  0.11922289468E+04  0.11922289468E+04  0.50400001928E-02 0.  1.
       -1   -1    0    0    0  501  0.00000000000E+00  0.00000000000E+00 -0.21461238968E+04  0.21461238968E+04  0.50400001928E-02 0. -1.
    10030    2    1    2    0    0  0.00000000000E+00  0.00000000000E+00 -0.95389494999E+03  0.33383528436E+04  0.31991692879E+04 0.  0.
        4    1    3    3  502    0  0.56290013487E+03 -0.33067241101E+03 -0.20007768428E+04  0.21045926904E+04  0.12699999809E+01 0. -1.
       -4    1    3    3    0  502 -0.56290013487E+03  0.33067241101E+03  0.10468818928E+04  0.12337601532E+04  0.12699999809E+01 0.  1.
</event>
<event>
 5   0  0.1493485E-06  0.3102360E+04  0.7818609E-02  0.8215090E-01
        2   -1    0    0  501    0  0.00000000000E+00  0.00000000000E+00  0.24386176381E+04  0.24386176381E+04  0.25500000920E-02 0.  1.
       -2   -1    0    0    0  501  0.00000000000E+00  0.00000000000E+00 -0.98669014358E+03  0.98669014358E+03  0.25500000920E-02 0. -1.
    10030    2    1    2    0    0  0.00000000000E+00  0.00000000000E+00  0.14519274945E+04  0.34253077817E+04  0.31023603836E+04 0.  0.
        2    1    3    3  502    0 -0.70040740054E+03 -0.28927266160E+03 -0.76841098397E+03  0.10792148256E+04  0.25500000920E-02 0. -1.
       -2    1    3    3    0  502  0.70040740054E+03  0.28927266160E+03  0.22203384785E+04  0.23460929561E+04  0.25500000920E-02 0.  1.
</event>
<event>
 5   0  0.1493485E-06  0.3197659E+04  0.7818609E-02  0.8189436E-01
        2   -1    0    0  501    0  0.00000000000E+00  0.00000000000E+00  0.26769530571E+04  0.26769530571E+04  0.25500000920E-02 0. -1.
       -2   -1    0    0    0  501  0.00000000000E+00  0.00000000000E+00 -0.95491242562E+03  0.95491242562E+03  0.25500000920E-02 0.  1.
    10030    2    1    2    0    0  0.00000000000E+00  0.00000000000E+00  0.17220406315E+04  0.36318654827E+04  0.31976589793E+04 0.  0.
        2    1    3    3  502    0  0.10106153321E+04  0.37433845473E+03 -0.48035697240E+03  0.11799217979E+04  0.25500000920E-02 0.  1.
       -2    1    3    3    0  502 -0.10106153321E+04 -0.37433845473E+03  0.22023976039E+04  0.24519436849E+04  0.25500000920E-02 0. -1.
</event>
<event>
 5   0  0.4995625E-07  0.3199353E+04  0.7818609E-02  0.8188988E-01
       -3   -1    0    0    0  501  0.00000000000E+00  0.00000000000E+00  0.21059786502E+04  0.21059786526E+04  0.10100000352E+00 0.  1.
        3   -1    0    0  501    0  0.00000000000E+00  0.00000000000E+00 -0.12150954887E+04  0.12150954929E+04  0.10100000352E+00 0. -1.
    10030    2    1    2    0    0  0.00000000000E+00  0.00000000000E+00  0.89088316149E+03  0.33210741455E+04  0.31993531647E+04 0.  0.
        5    1    3    3  502    0  0.60895366145E+03 -0.99117738324E+03 -0.69437109347E+03  0.13547805993E+04  0.46999998093E+01 0. -1.
       -5    1    3    3    0  502 -0.60895366145E+03  0.99117738324E+03  0.15852542550E+04  0.19662935462E+04  0.46999998093E+01 0.  1.
</event>
<event>
 5   0  0.1556396E-06  0.3202289E+04  0.7818609E-02  0.8188213E-01
       -2   -1    0    0    0  501  0.00000000000E+00  0.00000000000E+00  0.97775574770E+03  0.97775574771E+03  0.25500000920E-02 0.  1.
        2   -1    0    0  501    0  0.00000000000E+00  0.00000000000E+00 -0.26219875363E+04  0.26219875363E+04  0.25500000920E-02 0. -1.
    10030    2    1    2    0    0  0.00000000000E+00  0.00000000000E+00 -0.16442317886E+04  0.35997432840E+04  0.32022887965E+04 0.  0.
        3    1    3    3  502    0  0.76669510618E+03 -0.19771144120E+03  0.74228501696E+03  0.10853102121E+04  0.10100000352E+00 0.  1.
       -3    1    3    3    0  502 -0.76669510618E+03  0.19771144120E+03 -0.23865168055E+04  0.25144330719E+04  0.10100000352E+00 0. -1.
</event>
<event>
 5   0  0.5317728E-07  0.3198419E+04  0.7818609E-02  0.8189235E-01
        1   -1    0    0  501    0  0.00000000000E+00  0.00000000000E+00  0.27587507874E+04  0.27587507874E+04  0.50400001928E-02 0. -1.
       -1   -1    0    0    0  501  0.00000000000E+00  0.00000000000E+00 -0.92703938814E+03  0.92703938815E+03  0.50400001928E-02 0.  1.
    10030    2    1    2    0    0  0.00000000000E+00  0.00000000000E+00  0.18317113993E+04  0.36857901756E+04  0.31984187606E+04 0.  0.
        2    1    3    3  502    0  0.77958498990E+03 -0.10663249633E+04  0.19547039664E+04  0.23591670733E+04  0.25500000920E-02 0. -1.
       -2    1    3    3    0  502 -0.77958498990E+03  0.10663249633E+04 -0.12299256709E+03  0.13266231022E+04  0.25500000920E-02 0.  1.
</event>
<event>
 5   0  0.5370912E-07  0.3209751E+04  0.7818609E-02  0.8186247E-01
        1   -1    0    0  501    0  0.00000000000E+00  0.00000000000E+00  0.17158153153E+04  0.17158153153E+04  0.50400001928E-02 0. -1.
       -1   -1    0    0    0  501  0.00000000000E+00  0.00000000000E+00 -0.15011087094E+04  0.15011087094E+04  0.50400001928E-02 0.  1.
    10030    2    1    2    0    0  0.00000000000E+00  0.00000000000E+00  0.21470660588E+03  0.32169240248E+04  0.32097509646E+04 0.  0.
        1    1    3    3  502    0 -0.25447364178E+03  0.90303598909E+02 -0.14781788555E+04  0.15026391127E+04  0.50400001928E-02 0.  1.
       -1    1    3    3    0  502  0.25447364178E+03 -0.90303598909E+02  0.16928854613E+04  0.17142849120E+04  0.50400001928E-02 0. -1.
</event>
<event>
 5   0  0.1493485E-06  0.3191199E+04  0.7818609E-02  0.8191145E-01
        2   -1    0    0  501    0  0.00000000000E+00  0.00000000000E+00  0.22548344456E+04  0.22548344456E+04  0.25500000920E-02 0.  1.
       -2   -1    0    0    0  501  0.00000000000E+00  0.00000000000E+00 -0.11291019599E+04  0.11291019599E+04  0.25500000920E-02 0. -1.
    10030    2    1    2    0    0  0.00000000000E+00  0.00000000000E+00  0.11257324857E+04  0.33839364055E+04  0.31911991425E+04 0.  0.
        2    1    3    3  502    0  0.15021322425E+04 -0.24247971792E+03  0.10722323179E+04  0.18614187683E+04  0.25500000920E-02 0.  1.
       -2    1    3    3    0  502 -0.15021322425E+04  0.24247971792E+03  0.53500167833E+02  0.15225176372E+04  0.25500000920E-02 0. -1.
</event>
<event>
 5   0  0.1572769E-06  0.3183075E+04  0.7818609E-02  0.8193301E-01
        2   -1    0    0  501    0  0.00000000000E+00  0.00000000000E+00  0.27760841085E+04  0.27760841085E+04  0.25500000920E-02 0. -1.
       -2   -1    0    0    0  501  0.00000000000E+00  0.00000000000E+00 -0.91243355377E+03  0.91243355378E+03  0.25500000920E-02 0.  1.
    10030    2    1    2    0    0  0.00000000000E+00  0.00000000000E+00  0.18636505548E+04  0.36885176623E+04  0.31830754240E+04 0.  0.
        5    1    3    3  502    0  0.79011421970E+03  0.50881574608E+03  0.24202267623E+04  0.25962845789E+04  0.46999998093E+01 0. -1.
       -5    1    3    3    0  502 -0.79011421970E+03 -0.50881574608E+03 -0.55657620757E+03  0.10922330834E+04  0.46999998093E+01 0.  1.
</event>
<event>
 5   0  0.5317728E-07  0.3045295E+04  0.7818609E-02  0.8230914E-01
        1   -1    0    0  501    0  0.00000000000E+00  0.00000000000E+00  0.16421899449E+04  0.16421899449E+04  0.50400001928E-02 0. -1.
       -1   -1    0    0    0  501  0.00000000000E+00  0.00000000000E+00 -0.14118072792E+04  0.14118072792E+04  0.50400001928E-02 0.  1.
    10030    2    1    2    0    0  0.00000000000E+00  0.00000000000E+00  0.23038266568E+03  0.30539972241E+04  0.30452952027E+04 0.  0.
        2    1    3    3  502    0 -0.99931951915E+03  0.84841708853E+03  0.89200445195E+03  0.15855986251E+04  0.25500000920E-02 0. -1.
       -2    1    3    3    0  502  0.99931951915E+03 -0.84841708853E+03 -0.66162178627E+03  0.14683985990E+04  0.25500000920E-02 0.  1.
</event>
<event>
 5   0  0.5281187E-07  0.3152825E+04  0.7818609E-02  0.8201388E-01
       -1   -1    0    0    0  501  0.00000000000E+00  0.00000000000E+00  0.16214449254E+04  0.16214449254E+04  0.50400001928E-02 0. -1.
        1   -1    0    0  501    0  0.00000000000E+00  0.00000000000E+00 -0.15326309039E+04  0.15326309039E+04  0.50400001928E-02 0.  1.
    10030    2    1    2    0    0  0.00000000000E+00  0.00000000000E+00  0.88814021445E+02  0.31540758293E+04  0.31528251469E+04 0.  0.
        5    1    3    3  502    0 -0.99191357894E+03 -0.92978090565E+03  0.84263921208E+03  0.15995149303E+04  0.46999998093E+01 0. -1.
       -5    1    3    3    0  502  0.99191357894E+03  0.92978090565E+03 -0.75382519064E+03  0.15545608990E+04  0.46999998093E+01 0.  1.
</event>
<event>
 5   0  0.1508771E-06  0.3185223E+04  0.7818609E-02  0.8192731E-01
       -2   -1    0    0    0  501  0.00000000000E+00  0.00000000000E+00  0.10520418066E+04  0.10520418066E+04  0.25500000920E-02 0.  1.
        2   -1    0    0  501    0  0.00000000000E+00  0.00000000000E+00 -0.24109419432E+04  0.24109419432E+04  0.25500000920E-02 0. -1.
    10030    2    1    2    0    0  0.00000000000E+00  0.00000000000E+00 -0.13589001366E+04  0.34629837498E+04  0.31852232057E+04 0.  0.
        4    1    3    3  502    0  0.13639126793E+04  0.75735617925E+03 -0.33126679783E+03  0.15948622145E+04  0.12699999809E+01 0.  1.
       -4    1    3    3    0  502 -0.13639126793E+04 -0.75735617925E+03 -0.10276333388E+04  0.18681215353E+04  0.12699999809E+01 0. -1.
</event>
<event>
 5   0  0.5177039E-07  0.3208620E+04  0.7818609E-02  0.8186544E-01
       -1   -1    0    0    0  501  0.00000000000E+00  0.00000000000E+00  0.11431133774E+04  0.11431133774E+04  0.50400001928E-02 0.  1.
        1   -1    0    0  501    0  0.00000000000E+00  0.00000000000E+00 -0.22515799824E+04  0.22515799824E+04  0.50400001928E-02 0. -1.
    10030    2    1    2    0    0  0.00000000000E+00  0.00000000000E+00 -0.11084666050E+04  0.33946933598E+04  0.32086203878E+04 0.  0.
        3    1    3    3  502    0  0.14532863616E+04  0.54876515344E+02  0.16236252935E+03  0.14633571955E+04  0.10100000352E+00 0.  1.
       -3    1    3    3    0  502 -0.14532863616E+04 -0.54876515344E+02 -0.12708291343E+04  0.19313361643E+04  0.10100000352E+00 0. -1.
</event>
<event>
 5   0  0.5317728E-07  0.3185768E+04  0.7818609E-02  0.8192586E-01
        1   -1    0    0  501    0  0.00000000000E+00  0.00000000000E+00  0.13836472946E+04  0.13836472946E+04  0.50400001928E-02 0. -1.
       -1   -1    0    0    0  501  0.00000000000E+00  0.00000000000E+00 -0.18337613802E+04  0.18337613802E+04  0.50400001928E-02 0.  1.
    10030    2    1    2    0    0  0.00000000000E+00  0.00000000000E+00 -0.45011408566E+03  0.32174086748E+04  0.31857677082E+04 0.  0.
        2    1    3    3  502    0 -0.14644495749E+03  0.15856197839E+04 -0.26599042258E+03  0.16144308996E+04  0.25500000920E-02 0. -1.
       -2    1    3    3    0  502  0.14644495749E+03 -0.15856197839E+04 -0.18412366308E+03  0.16029777752E+04  0.25500000920E-02 0.  1.
</event>
<event>
 5   0  0.1493485E-06  0.3179004E+04  0.7818609E-02  0.8194384E-01
        2   -1    0    0  501    0  0.00000000000E+00  0.00000000000E+00  0.17041823034E+04  0.17041823034E+04  0.25500000920E-02 0.  1.
       -2   -1    0    0    0  501  0.00000000000E+00  0.00000000000E+00 -0.14825393733E+04  0.14825393733E+04  0.25500000920E-02 0. -1.
    10030    2    1    2    0    0  0.00000000000E+00  0.00000000000E+00  0.22164293009E+03  0.31867216767E+04  0.31790044756E+04 0.  0.
        2    1    3    3  502    0 -0.31705333445E+03 -0.14452667363E+04  0.69291916315E+03  0.16338469091E+04  0.25500000920E-02 0.  1.
       -2    1    3    3    0  502  0.31705333445E+03  0.14452667363E+04 -0.47127623306E+03  0.15528747675E+04  0.25500000920E-02 0. -1.
</event>
<event>
 5   0  0.1556396E-06  0.2819947E+04  0.7818609E-02  0.8297102E-01
        2   -1    0    0  501    0  0.00000000000E+00  0.00000000000E+00  0.14574583542E+04  0.14574583542E+04  0.25500000920E-02 0.  1.
       -2   -1    0    0    0  501  0.00000000000E+00  0.00000000000E+00 -0.13640361545E+04  0.13640361545E+04  0.25500000920E-02 0. -1.
    10030    2    1    2    0    0  0.00000000000E+00  0.00000000000E+00  0.93422199765E+02  0.28214945087E+04  0.28199474384E+04 0.  0.
        3    1    3    3  502    0  0.13131293925E+04  0.41318410180E+03  0.35183081662E+03  0.14208500403E+04  0.10100000352E+00 0.  1.
       -3    1    3    3    0  502 -0.13131293925E+04 -0.41318410180E+03 -0.25840861686E+03  0.14006444684E+04  0.10100000352E+00 0. -1.
</event>
<event>
 5   0  0.5233813E-07  0.3235855E+04  0.7818609E-02  0.8179412E-01
       -1   -1    0    0    0  501  0.00000000000E+00  0.00000000000E+00  0.18989621305E+04  0.18989621305E+04  0.50400001928E-02 0.  1.
        1   -1    0    0  501    0  0.00000000000E+00  0.00000000000E+00 -0.13784841006E+04  0.13784841006E+04  0.50400001928E-02 0. -1.
    10030    2    1    2    0    0  0.00000000000E+00  0.00000000000E+00  0.52047802992E+03  0.32774462310E+04  0.32358548203E+04 0.  0.
        4    1    3    3  502    0 -0.12292594842E+04 -0.89166362539E+03  0.82557503218E+03  0.17285018505E+04  0.12699999809E+01 0. -1.
       -4    1    3    3    0  502  0.12292594842E+04  0.89166362539E+03 -0.30509700226E+03  0.15489443806E+04  0.12699999809E+01 0.  1.
</event>
<event>
 5   0  0.1556396E-06  0.3190170E+04  0.7818609E-02  0.8191418E-01
        2   -1    0    0  501    0  0.00000000000E+00  0.00000000000E+00  0.15679572818E+04  0.15679572818E+04  0.25500000920E-02 0.  1.
       -2   -1    0    0    0  501  0.00000000000E+00  0.00000000000E+00 -0.16226823644E+04  0.16226823644E+04  0.25500000920E-02 0. -1.
    10030    2    1    2    0    0  0.00000000000E+00  0.00000000000E+00 -0.54725082536E+02  0.31906396462E+04  0.31901702959E+04 0.  0.
        3    1    3    3  502    0 -0.72653639729E+02 -0.14498305317E+04  0.63380165583E+03  0.15839796941E+04  0.10100000352E+00 0. -1.
       -3    1    3    3    0  502  0.72653639729E+02  0.14498305317E+04 -0.68852673837E+03  0.16066599521E+04  0.10100000352E+00 0.  1.
</event>
<event>
 5   0  0.5177039E-07  0.3206130E+04  0.7818609E-02  0.8187200E-01
        1   -1    0    0  501    0  0.00000000000E+00  0.00000000000E+00  0.19147898711E+04  0.19147898712E+04  0.50400001928E-02 0.  1.
       -1   -1    0    0    0  501  0.00000000000E+00  0.00000000000E+00 -0.13420882348E+04  0.13420882348E+04  0.50400001928E-02 0. -1.
    10030    2    1    2    0    0  0.00000000000E+00  0.00000000000E+00  0.57270163633E+03  0.32568781060E+04  0.32061297280E+04 0.  0.
        3    1    3    3  502    0 -0.89193264221E+03  0.99676091545E+03 -0.61123058885E+03  0.14706049788E+04  0.10100000352E+00 0. -1.
       -3    1    3    3    0  502  0.89193264221E+03 -0.99676091545E+03  0.11839322252E+04  0.17862731272E+04  0.10100000352E+00 0.  1.
</event>
<event>
 5   0  0.1493485E-06  0.3212913E+04  0.7818609E-02  0.8185415E-01
       -2   -1    0    0    0  501  0.00000000000E+00  0.00000000000E+00  0.11839133055E+04  0.11839133055E+04  0.25500000920E-02 0. -1.
        2   -1    0    0  501    0  0.00000000000E+00  0.00000000000E+00 -0.21798069303E+04  0.21798069304E+04  0.25500000920E-02 0.  1.
    10030    2    1    2    0    0  0.00000000000E+00  0.00000000000E+00 -0.99589362487E+03  0.33637202358E+04  0.32129129638E+04 0.  0.
        2    1    3    3  502    0  0.22783057622E+03 -0.48842770237E+03 -0.20823322401E+04  0.21509476865E+04  0.25500000920E-02 0.  1.
       -2    1    3    3    0  502 -0.22783057622E+03  0.48842770237E+03  0.10864386152E+04  0.12127725494E+04  0.25500000920E-02 0. -1.
</event>
<event>
 5   0  0.1556396E-06  0.3198124E+04  0.7818609E-02  0.8189313E-01
       -2   -1    0    0    0  501  0.00000000000E+00  0.00000000000E+00  0.12168023216E+04  0.12168023216E+04  0.25500000920E-02 0.  1.
        2   -1    0    0  501    0  0.00000000000E+00  0.00000000000E+00 -0.21014095521E+04  0.21014095521E+04  0.25500000920E-02 0. -1.
    10030    2    1    2    0    0  0.00000000000E+00  0.00000000000E+00 -0.88460723051E+03  0.33182118737E+04  0.31981244639E+04 0.  0.
        3    1    3    3  502    0  0.28135481585E+03 -0.77597735773E+03  0.97868396101E+03  0.12802826633E+04  0.10100000352E+00 0.  1.
       -3    1    3    3    0  502 -0.28135481585E+03  0.77597735773E+03 -0.18632911915E+04  0.20379292104E+04  0.10100000352E+00 0. -1.
</event>
<event>
 5   0  0.1538349E-06  0.3173356E+04  0.7818609E-02  0.8195889E-01
        2   -1    0    0  501    0  0.00000000000E+00  0.00000000000E+00  0.17852355297E+04  0.17852355297E+04  0.25500000920E-02 0. -1.
       -2   -1    0    0    0  501  0.00000000000E+00  0.00000000000E+00 -0.14102047228E+04  0.14102047228E+04  0.25500000920E-02 0.  1.
    10030    2    1    2    0    0  0.00000000000E+00  0.00000000000E+00  0.37503080693E+03  0.31954402525E+04  0.31733563148E+04 0.  0.
        1    1    3    3  502    0 -0.15832787595E+04  0.81772174629E+02  0.12312308836E+03  0.15901627632E+04  0.50400001928E-02 0. -1.
       -1    1    3    3    0  502  0.15832787595E+04 -0.81772174629E+02  0.25190771857E+03  0.16052774892E+04  0.50400001928E-02 0.  1.
</event>
<event>
 5   0  0.5370912E-07  0.3124664E+04  0.7818609E-02  0.8209001E-01
       -1   -1    0    0    0  501  0.00000000000E+00  0.00000000000E+00  0.13980101344E+04  0.13980101344E+04  0.50400001928E-02 0.  1.
        1   -1    0    0  501    0  0.00000000000E+00  0.00000000000E+00 -0.17459686221E+04  0.17459686221E+04  0.50400001928E-02 0. -1.
    10030    2    1    2    0    0  0.00000000000E+00  0.00000000000E+00 -0.34795848762E+03  0.31439787565E+04  0.31246643519E+04 0.  0.
        1    1    3    3  502    0  0.12673534236E+04 -0.67058781221E+03 -0.79830569493E+03  0.16410864379E+04  0.50400001928E-02 0. -1.
       -1    1    3    3    0  502 -0.12673534236E+04  0.67058781221E+03  0.45034720731E+03  0.15028923186E+04  0.50400001928E-02 0.  1.
</event>
<event>
 5   0  0.1556396E-06  0.3169849E+04  0.7818609E-02  0.8196826E-01
       -2   -1    0    0    0  501  0.00000000000E+00  0.00000000000E+00  0.17568044295E+04  0.17568044295E+04  0.25500000920E-02 0. -1.
        2   -1    0    0  501    0  0.00000000000E+00  0.00000000000E+00 -0.14298609265E+04  0.14298609265E+04  0.25500000920E-02 0.  1.
    10030    2    1    2    0    0  0.00000000000E+00  0.00000000000E+00  0.32694350304E+03  0.31866653560E+04  0.31698492136E+04 0.  0.
        3    1    3    3  502    0 -0.63662758236E+03  0.48753415443E+03  0.15378387281E+04  0.17343391232E+04  0.10100000352E+00 0. -1.
       -3    1    3    3    0  502  0.63662758236E+03 -0.48753415443E+03 -0.12108952250E+04  0.14523262328E+04  0.10100000352E+00 0.  1.
</event>
<event>
 5   0  0.5233813E-07  0.3170400E+04  0.7818609E-02  0.8196678E-01
        1   -1    0    0  501    0  0.00000000000E+00  0.00000000000E+00  0.23281174600E+04  0.23281174600E+04  0.50400001928E-02 0. -1.
       -1   -1    0    0    0  501  0.00000000000E+00  0.00000000000E+00 -0.10793525157E+04  0.10793525157E+04  0.50400001928E-02 0.  1.
    10030    2    1    2    0    0  0.00000000000E+00  0.00000000000E+00  0.12487649443E+04  0.34074699756E+04  0.31704002505E+04 0.  0.
        4    1    3    3  502    0  0.48835777717E+03  0.76180829764E+03 -0.77448401324E+03  0.11910803082E+04  0.12699999809E+01 0.  1.
       -4    1    3    3    0  502 -0.48835777717E+03 -0.76180829764E+03  0.20232489575E+04  0.22163896674E+04  0.12699999809E+01 0. -1.
</event>
<event>
 5   0  0.1572769E-06  0.3170462E+04  0.7818609E-02  0.8196662E-01
       -2   -1    0    0    0  501  0.00000000000E+00  0.00000000000E+00  0.29419198629E+04  0.29419198629E+04  0.25500000920E-02 0. -1.
        2   -1    0    0  501    0  0.00000000000E+00  0.00000000000E+00 -0.85418970601E+03  0.85418970601E+03  0.25500000920E-02 0.  1.
    10030    2    1    2    0    0  0.00000000000E+00  0.00000000000E+00  0.20877301569E+04  0.37961095689E+04  0.31704622141E+04 0.  0.
        5    1    3    3  502    0 -0.12964963351E+03 -0.15582970955E+04  0.13557170817E+04  0.20695626980E+04  0.46999998093E+01 0.  1.
       -5    1    3    3    0  502  0.12964963351E+03  0.15582970955E+04  0.73201307523E+03  0.17265468709E+04  0.46999998093E+01 0. -1.
</event>
<event>
 5   0  0.5233813E-07  0.3197896E+04  0.7818609E-02  0.8189373E-01
        1   -1    0    0  501    0  0.00000000000E+00  0.00000000000E+00  0.82513061312E+03  0.82513061313E+03  0.50400001928E-02 0.  1.
       -1   -1    0    0    0  501  0.00000000000E+00  0.00000000000E+00 -0.30984603707E+04  0.30984603707E+04  0.50400001928E-02 0. -1.
    10030    2    1    2    0    0  0.00000000000E+00  0.00000000000E+00 -0.22733297576E+04  0.39235909839E+04  0.31978958741E+04 0.  0.
        4    1    3    3  502    0 -0.13399750885E+04 -0.79987833232E+03 -0.70935825969E+03  0.17142139125E+04  0.12699999809E+01 0. -1.
       -4    1    3    3    0  502  0.13399750885E+04  0.79987833232E+03 -0.15639714979E+04  0.22093770714E+04  0.12699999809E+01 0.  1.
</event>
<event>
 5   0  0.5177039E-07  0.3204529E+04  0.7818609E-02  0.8187622E-01
       -1   -1    0    0    0  501  0.00000000000E+00  0.00000000000E+00  0.14548369486E+04  0.14548369486E+04  0.50400001928E-02 0.  1.
        1   -1    0    0  501    0  0.00000000000E+00  0.00000000000E+00 -0.17646322082E+04  0.17646322082E+04  0.50400001928E-02 0. -1.
    10030    2    1    2    0    0  0.00000000000E+00  0.00000000000E+00 -0.30979525964E+03  0.32194691568E+04  0.32045293802E+04 0.  0.
        3    1    3    3  502    0  0.38042829351E+03  0.11456295351E+04  0.90360787808E+03  0.15078792809E+04  0.10100000352E+00 0.  1.
       -3    1    3    3    0  502 -0.38042829351E+03 -0.11456295351E+04 -0.12134031377E+04  0.17115898758E+04  0.10100000352E+00 0. -1.
</event>
<event>
 5   0  0.1538349E-06  0.3200406E+04  0.7818609E-02  0.8188710E-01
       -2   -1    0    0    0  501  0.00000000000E+00  0.00000000000E+00  0.94805569264E+03  0.94805569264E+03  0.25500000920E-02 0.  1.
        2   -1    0    0  501    0  0.00000000000E+00  0.00000000000E+00 -0.27009488026E+04  0.27009488026E+04  0.25500000920E-02 0. -1.
    10030    2    1    2    0    0  0.00000000000E+00  0.00000000000E+00 -0.17528931100E+04  0.36490044952E+04  0.32004061541E+04 0.  0.
        1    1    3    3  502    0  0.46162682639E+03 -0.28965815780E+03 -0.25918797790E+04  0.26485546934E+04  0.50400001928E-02 0. -1.
       -1    1    3    3    0  502 -0.46162682639E+03  0.28965815780E+03  0.83898666901E+03  0.10004498018E+04  0.50400001928E-02 0.  1.
</event>
<event>
 5   0  0.1508771E-06  0.3327415E+04  0.7818609E-02  0.8155954E-01
       -2   -1    0    0    0  501  0.00000000000E+00  0.00000000000E+00  0.20295955499E+04  0.20295955499E+04  0.25500000920E-02 0. -1.
        2   -1    0    0  501    0  0.00000000000E+00  0.00000000000E+00 -0.13637803437E+04  0.13637803437E+04  0.25500000920E-02 0.  1.
    10030    2    1    2    0    0  0.00000000000E+00  0.00000000000E+00  0.66581520618E+03  0.33933758936E+04  0.33274149225E+04 0.  0.
        4    1    3    3  502    0 -0.10726253570E+04  0.11503844132E+04 -0.22006947784E+03  0.15881881635E+04  0.12699999809E+01 0.  1.
       -4    1    3    3    0  502  0.10726253570E+04 -0.11503844132E+04  0.88588468401E+03  0.18051877301E+04  0.12699999809E+01 0. -1.
</event>
<event>
 5   0  0.1556396E-06  0.3169922E+04  0.7818609E-02  0.8196806E-01
        2   -1    0    0  501    0  0.00000000000E+00  0.00000000000E+00  0.16625584081E+04  0.16625584081E+04  0.25500000920E-02 0.  1.
       -2   -1    0    0    0  501  0.00000000000E+00  0.00000000000E+00 -0.15109849013E+04  0.15109849013E+04  0.25500000920E-02 0. -1.
    10030    2    1    2    0    0  0.00000000000E+00  0.00000000000E+00  0.15157350677E+03  0.31735433094E+04  0.31699215461E+04 0.  0.
        3    1    3    3  502    0 -0.11967412653E+03  0.68896785472E+03 -0.13481962637E+04  0.15187599471E+04  0.10100000352E+00 0. -1.
       -3    1    3    3    0  502  0.11967412653E+03 -0.68896785472E+03  0.14997697704E+04  0.16547833622E+04  0.10100000352E+00 0.  1.
</event>
<event>
 5   0  0.5233813E-07  0.3195087E+04  0.7818609E-02  0.8190116E-01
       -1   -1    0    0    0  501  0.00000000000E+00  0.00000000000E+00  0.18331148919E+04  0.18331148919E+04  0.50400001928E-02 0.  1.
        1   -1    0    0  501    0  0.00000000000E+00  0.00000000000E+00 -0.13922452553E+04  0.13922452553E+04  0.50400001928E-02 0. -1.
    10030    2    1    2    0    0  0.00000000000E+00  0.00000000000E+00  0.44086963661E+03  0.32253601473E+04  0.31950871730E+04 0.  0.
        4    1    3    3  502    0  0.90536563533E+03  0.49128092563E+03 -0.10122410421E+04  0.14441874608E+04  0.12699999809E+01 0. -1.
       -4    1    3    3    0  502 -0.90536563533E+03 -0.49128092563E+03  0.14531106788E+04  0.17811726865E+04  0.12699999809E+01 0.  1.
</event>
<event>
 5   0  0.5317728E-07  0.3147460E+04  0.7818609E-02  0.8202832E-01
        1   -1    0    0  501    0  0.00000000000E+00  0.00000000000E+00  0.20436652607E+04  0.20436652607E+04  0.50400001928E-02 0. -1.
       -1   -1    0    0    0  501  0.00000000000E+00  0.00000000000E+00 -0.12118554015E+04  0.12118554015E+04  0.50400001928E-02 0.  1.
    10030    2    1    2    0    0  0.00000000000E+00  0.00000000000E+00  0.83180985921E+03  0.32555206621E+04  0.31474604270E+04 0.  0.
        2    1    3    3  502    0  0.46197047947E+03  0.11894146054E+04 -0.53686240234E+03  0.13843211573E+04  0.25500000920E-02 0.  1.
       -2    1    3    3    0  502 -0.46197047947E+03 -0.11894146054E+04  0.13686722615E+04  0.18711995049E+04  0.25500000920E-02 0. -1.
</event>
<event>
 5   0  0.1572769E-06  0.3207071E+04  0.7818609E-02  0.8186952E-01
        2   -1    0    0  501    0  0.00000000000E+00  0.00000000000E+00  0.33538247765E+04  0.33538247765E+04  0.25500000920E-02 0.  1.
       -2   -1    0    0    0  501  0.00000000000E+00  0.00000000000E+00 -0.76668473252E+03  0.76668473253E+03  0.25500000920E-02 0. -1.
    10030    2    1    2    0    0  0.00000000000E+00  0.00000000000E+00  0.25871400440E+04  0.41205095090E+04  0.32070710948E+04 0.  0.
        5    1    3    3  502    0 -0.13062986293E+04  0.92843555469E+03  0.12244343582E+04  0.20168466168E+04  0.46999998093E+01 0. -1.
       -5    1    3    3    0  502  0.13062986293E+04 -0.92843555469E+03  0.13627056858E+04  0.21036628923E+04  0.46999998093E+01 0.  1.
</event>
<event>
 5   0  0.5370912E-07  0.3193853E+04  0.7818609E-02  0.8190443E-01
        1   -1    0    0  501    0  0.00000000000E+00  0.00000000000E+00  0.17868359371E+04  0.17868359371E+04  0.50400001928E-02 0.  1.
       -1   -1    0    0    0  501  0.00000000000E+00  0.00000000000E+00 -0.14272007981E+04  0.14272007981E+04  0.50400001928E-02 0. -1.
    10030    2    1    2    0    0  0.00000000000E+00  0.00000000000E+00  0.35963513902E+03  0.32140367353E+04  0.31938526426E+04 0.  0.
        1    1    3    3  502    0  0.36098872491E+03  0.68751228617E+03 -0.12244176687E+04  0.14498912478E+04  0.50400001928E-02 0. -1.
       -1    1    3    3    0  502 -0.36098872491E+03 -0.68751228617E+03  0.15840528077E+04  0.17641454874E+04  0.50400001928E-02 0.  1.
</event>
<event>
 5   0  0.1556396E-06  0.3202983E+04  0.7818609E-02  0.8188030E-01
        2   -1    0    0  501    0  0.00000000000E+00  0.00000000000E+00  0.14525130481E+04  0.14525130481E+04  0.25500000920E-02 0. -1.
       -2   -1    0    0    0  501  0.00000000000E+00  0.00000000000E+00 -0.17657503527E+04  0.17657503527E+04  0.25500000920E-02 0.  1.
    10030    2    1    2    0    0  0.00000000000E+00  0.00000000000E+00 -0.31323730459E+03  0.32182634009E+04  0.32029832513E+04 0.  0.
        3    1    3    3  502    0  0.12754988983E+04  0.14944510872E+03  0.80478675729E+03  0.15155569983E+04  0.10100000352E+00 0. -1.
       -3    1    3    3    0  502 -0.12754988983E+04 -0.14944510872E+03 -0.11180240619E+04  0.17027064026E+04  0.10100000352E+00 0.  1.
</event>
<event>
 5   0  0.5317728E-07  0.3113426E+04  0.7818609E-02  0.8212063E-01
       -1   -1    0    0    0  501  0.00000000000E+00  0.00000000000E+00  0.14226604481E+04  0.14226604481E+04  0.50400001928E-02 0. -1.
        1   -1    0    0  501    0  0.00000000000E+00  0.00000000000E+00 -0.17033969650E+04  0.17033969650E+04  0.50400001928E-02 0.  1.
    10030    2    1    2    0    0  0.00000000000E+00  0.00000000000E+00 -0.28073651695E+03  0.31260574131E+04  0.31134260804E+04 0.  0.
        2    1    3    3  502    0  0.78504634670E+03  0.95595996586E+03 -0.10892942160E+04  0.16482472848E+04  0.25500000920E-02 0.  1.
       -2    1    3    3    0  502 -0.78504634670E+03 -0.95595996586E+03  0.80855769902E+03  0.14778101283E+04  0.25500000920E-02 0. -1.
</event>
<event>
 5   0  0.5233813E-07  0.3211641E+04  0.7818609E-02  0.8185750E-01
       -1   -1    0    0    0  501  0.00000000000E+00  0.00000000000E+00  0.19358100461E+04  0.19358100461E+04  0.50400001928E-02 0.  1.
        1   -1    0    0  501    0  0.00000000000E+00  0.00000000000E+00 -0.13320830947E+04  0.13320830947E+04  0.50400001928E-02 0. -1.
    10030    2    1    2    0    0  0.00000000000E+00  0.00000000000E+00  0.60372695145E+03  0.32678931408E+04  0.32116412234E+04 0.  0.
        4    1    3    3  502    0 -0.10816597259E+04 -0.11760234467E+04  0.13893611366E+03  0.16038465533E+04  0.12699999809E+01 0.  1.
       -4    1    3    3    0  502  0.10816597259E+04  0.11760234467E+04  0.46479083779E+03  0.16640465876E+04  0.12699999809E+01 0. -1.
</event>
<event>
 5   0  0.4995625E-07  0.3191560E+04  0.7818609E-02  0.8191050E-01
        3   -1    0    0  501    0  0.00000000000E+00  0.00000000000E+00  0.20122103705E+04  0.20122103731E+04  0.10100000352E+00 0. -1.
       -3   -1    0    0    0  501  0.00000000000E+00  0.00000000000E+00 -0.12655304301E+04  0.12655304341E+04  0.10100000352E+00 0.  1.
    10030    2    1    2    0    0  0.00000000000E+00  0.00000000000E+00  0.74667994049E+03  0.32777408072E+04  0.31915597857E+04 0.  0.
        2    1    3    3  502    0  0.64872217145E+03 -0.30738605808E+03  0.18370213868E+04  0.19723017569E+04  0.25500000920E-02 0. -1.
       -2    1    3    3    0  502 -0.64872217145E+03  0.30738605808E+03 -0.10903414463E+04  0.13054390503E+04  0.25500000920E-02 0.  1.
</event>
<event>
 5   0  0.1508771E-06  0.3195827E+04  0.7818609E-02  0.8189920E-01
        2   -1    0    0  501    0  0.00000000000E+00  0.00000000000E+00  0.99817148262E+03  0.99817148263E+03  0.25500000920E-02 0.  1.
       -2   -1    0    0    0  501  0.00000000000E+00  0.00000000000E+00 -0.25580050098E+04  0.25580050098E+04  0.25500000920E-02 0. -1.
    10030    2    1    2    0    0  0.00000000000E+00  0.00000000000E+00 -0.15598335272E+04  0.35561764925E+04  0.31958270624E+04 0.  0.
        4    1    3    3  502    0  0.97898770775E+03  0.50200077303E+03 -0.20694204089E+04  0.23436988181E+04  0.12699999809E+01 0. -1.
       -4    1    3    3    0  502 -0.97898770775E+03 -0.50200077303E+03  0.50958688170E+03  0.12124776744E+04  0.12699999809E+01 0.  1.
</event>
<event>
 5   0  0.5281187E-07  0.3190630E+04  0.7818609E-02  0.8191296E-01
        1   -1    0    0  501    0  0.00000000000E+00  0.00000000000E+00  0.24471643884E+04  0.24471643884E+04  0.50400001928E-02 0.  1.
       -1   -1    0    0    0  501  0.00000000000E+00  0.00000000000E+00 -0.10399914695E+04  0.10399914695E+04  0.50400001928E-02 0. -1.
    10030    2    1    2    0    0  0.00000000000E+00  0.00000000000E+00  0.14071729189E+04  0.34871558579E+04  0.31906300872E+04 0.  0.
        5    1    3    3  502    0  0.13186953138E+04 -0.32494769362E+03 -0.21112994572E+03  0.13744621778E+04  0.46999998093E+01 0. -1.
       -5    1    3    3    0  502 -0.13186953138E+04  0.32494769362E+03  0.16183028646E+04  0.21126936801E+04  0.46999998093E+01 0.  1.
</event>
<event>
 5   0  0.1493485E-06  0.3215052E+04  0.7818609E-02  0.8184853E-01
       -2   -1    0    0    0  501  0.00000000000E+00  0.00000000000E+00  0.14384186504E+04  0.14384186504E+04  0.25500000920E-02 0.  1.
        2   -1    0    0  501    0  0.00000000000E+00  0.00000000000E+00 -0.17965142882E+04  0.17965142882E+04  0.25500000920E-02 0. -1.
    10030    2    1    2    0    0  0.00000000000E+00  0.00000000000E+00 -0.35809563772E+03  0.32349329386E+04  0.32150518863E+04 0.  0.
        2    1    3    3  502    0 -0.11720735787E+04 -0.10997387609E+04 -0.14790742021E+03  0.16140193373E+04  0.25500000920E-02 0.  1.
       -2    1    3    3    0  502  0.11720735787E+04  0.10997387609E+04 -0.21018821751E+03  0.16209136013E+04  0.25500000920E-02 0. -1.
</event>
<event>
 5   0  0.5233813E-07  0.3200680E+04  0.7818609E-02  0.8188638E-01
        1   -1    0    0  501    0  0.00000000000E+00  0.00000000000E+00  0.15462048849E+04  0.15462048850E+04  0.50400001928E-02 0. -1.
       -1   -1    0    0    0  501  0.00000000000E+00  0.00000000000E+00 -0.16563700667E+04  0.16563700667E+04  0.50400001928E-02 0.  1.
    10030    2    1    2    0    0  0.00000000000E+00  0.00000000000E+00 -0.11016518171E+03  0.32025749516E+04  0.32006796081E+04 0.  0.
        4    1    3    3  502    0  0.13212575163E+04  0.89057840653E+03 -0.20428344176E+03  0.16064198268E+04  0.12699999809E+01 0. -1.
       -4    1    3    3    0  502 -0.13212575163E+04 -0.89057840653E+03  0.94118260054E+02  0.15961551248E+04  0.12699999809E+01 0.  1.
</event>
<event>
 5   0  0.5370912E-07  0.3293287E+04  0.7818609E-02  0.8164606E-01
        1   -1    0    0  501    0  0.00000000000E+00  0.00000000000E+00  0.22601580137E+04  0.22601580138E+04  0.50400001928E-02 0. -1.
       -1   -1    0    0    0  501  0.00000000000E+00  0.00000000000E+00 -0.11996659843E+04  0.11996659843E+04  0.50400001928E-02 0.  1.
    10030    2    1    2    0    0  0.00000000000E+00  0.00000000000E+00  0.10604920294E+04  0.34598239981E+04  0.32932869224E+04 0.  0.
        1    1    3    3  502    0  0.11654119001E+04 -0.11593297334E+04  0.63103689745E+03  0.17608060352E+04  0.50400001928E-02 0. -1.
       -1    1    3    3    0  502 -0.11654119001E+04  0.11593297334E+04  0.42945513197E+03  0.16990179629E+04  0.50400001928E-02 0.  1.
</event>
<event>
 5   0  0.1493485E-06  0.3202073E+04  0.7818609E-02  0.8188270E-01
        2   -1    0    0  501    0  0.00000000000E+00  0.00000000000E+00  0.13655237781E+04  0.13655237781E+04  0.25500000920E-02 0. -1.
       -2   -1    0    0    0  501  0.00000000000E+00  0.00000000000E+00 -0.18771681989E+04  0.18771681989E+04  0.25500000920E-02 0.  1.
    10030    2    1    2    0    0  0.00000000000E+00  0.00000000000E+00 -0.51164442085E+03  0.32426919770E+04  0.32020729605E+04 0.  0.
        2    1    3    3  502    0  0.52087143145E+03 -0.29856366123E+03  0.12472123183E+04  0.13841914156E+04  0.25500000920E-02 0. -1.
       -2    1    3    3    0  502 -0.52087143145E+03  0.29856366123E+03 -0.17588567392E+04  0.18585005615E+04  0.25500000920E-02 0.  1.
</event>
<event>
 5   0  0.1508771E-06  0.3270571E+04  0.7818609E-02  0.8170424E-01
        2   -1    0    0  501    0  0.00000000000E+00  0.00000000000E+00  0.32199094483E+04  0.32199094483E+04  0.25500000920E-02 0.  1.
       -2   -1    0    0    0  501  0.00000000000E+00  0.00000000000E+00 -0.83050724807E+03  0.83050724808E+03  0.25500000920E-02 0. -1.
    10030    2    1    2    0    0  0.00000000000E+00  0.00000000000E+00  0.23894022002E+04  0.40504166964E+04  0.32705706750E+04 0.  0.
        4    1    3    3  502    0 -0.93188107035E+03 -0.13389481908E+04  0.13357528733E+04  0.21084169271E+04  0.12699999809E+01 0. -1.
       -4    1    3    3    0  502  0.93188107035E+03  0.13389481908E+04  0.10536493269E+04  0.19419997693E+04  0.12699999809E+01 0.  1.
</event>
<event>
 5   0  0.5317728E-07  0.3193380E+04  0.7818609E-02  0.8190568E-01
        1   -1    0    0  501    0  0.00000000000E+00  0.00000000000E+00  0.13350354781E+04  0.13350354781E+04  0.50400001928E-02 0. -1.
       -1   -1    0    0    0  501  0.00000000000E+00  0.00000000000E+00 -0.19096262054E+04  0.19096262054E+04  0.50400001928E-02 0.  1.
    10030    2    1    2    0    0  0.00000000000E+00  0.00000000000E+00 -0.57459072729E+03  0.32446616834E+04  0.31933798609E+04 0.  0.
        2    1    3    3  502    0 -0.24032259844E+03 -0.71510235124E+03 -0.17171223827E+04  0.18755360837E+04  0.25500000920E-02 0.  1.
       -2    1    3    3    0  502  0.24032259844E+03  0.71510235124E+03  0.11425316554E+04  0.13691255997E+04  0.25500000920E-02 0. -1.
</event>
<event>
 5   0  0.5370912E-07  0.3180875E+04  0.7818609E-02  0.8193886E-01
        1   -1    0    0  501    0  0.00000000000E+00  0.00000000000E+00  0.20659226765E+04  0.20659226765E+04  0.50400001928E-02 0. -1.
       -1   -1    0    0    0  501  0.00000000000E+00  0.00000000000E+00 -0.12243880308E+04  0.12243880308E+04  0.50400001928E-02 0.  1.
    10030    2    1    2    0    0  0.00000000000E+00  0.00000000000E+00  0.84153464572E+03  0.32903107073E+04  0.31808747210E+04 0.  0.
        1    1    3    3  502    0 -0.89274642494E+02  0.13932919616E+04 -0.36718713802E+03  0.14436269762E+04  0.50400001928E-02 0.  1.
       -1    1    3    3    0  502  0.89274642494E+02 -0.13932919616E+04  0.12087217837E+04  0.18466837311E+04  0.50400001928E-02 0. -1.
</event>
<event>
 5   0  0.5233813E-07  0.3194094E+04  0.7818609E-02  0.8190379E-01
        1   -1    0    0  501    0  0.00000000000E+00  0.00000000000E+00  0.13706930923E+04  0.13706930923E+04  0.50400001928E-02 0. -1.
       -1   -1    0    0    0  501  0.00000000000E+00  0.00000000000E+00 -0.18607805637E+04  0.18607805637E+04  0.50400001928E-02 0.  1.
    10030    2    1    2    0    0  0.00000000000E+00  0.00000000000E+00 -0.49008747144E+03  0.32314736560E+04  0.31940939654E+04 0.  0.
        4    1    3    3  502    0  0.56446640475E+03  0.12169637502E+04 -0.11217496169E+04  0.17486986325E+04  0.12699999809E+01 0.  1.
       -4    1    3    3    0  502 -0.56446640475E+03 -0.12169637502E+04  0.63166214551E+03  0.14827750235E+04  0.12699999809E+01 0. -1.
</event>
<event>
 5   0  0.1508771E-06  0.3198305E+04  0.7818609E-02  0.8189265E-01
        2   -1    0    0  501    0  0.00000000000E+00  0.00000000000E+00  0.16568042416E+04  0.16568042416E+04  0.25500000920E-02 0.  1.
       -2   -1    0    0    0  501  0.00000000000E+00  0.00000000000E+00 -0.15435071152E+04  0.15435071152E+04  0.25500000920E-02 0. -1.
    10030    2    1    2    0    0  0.00000000000E+00  0.00000000000E+00  0.11329712647E+03  0.32003113568E+04  0.31983052609E+04 0.  0.
        4    1    3    3  502    0  0.11497271905E+04 -0.15728805418E+03  0.11576456638E+04  0.16391330759E+04  0.12699999809E+01 0.  1.
       -4    1    3    3    0  502 -0.11497271905E+04  0.15728805418E+03 -0.10443485373E+04  0.15611782810E+04  0.12699999809E+01 0. -1.
</event>
<event>
 5   0  0.5177039E-07  0.3200321E+04  0.7818609E-02  0.8188732E-01
        1   -1    0    0  501    0  0.00000000000E+00  0.00000000000E+00  0.21735620800E+04  0.21735620800E+04  0.50400001928E-02 0. -1.
       -1   -1    0    0    0  501  0.00000000000E+00  0.00000000000E+00 -0.11780267840E+04  0.11780267840E+04  0.50400001928E-02 0.  1.
    10030    2    1    2    0    0  0.00000000000E+00  0.00000000000E+00  0.99553529606E+03  0.33515888640E+04  0.32003214507E+04 0.  0.
        3    1    3    3  502    0  0.81783984044E+03 -0.24517886249E+03 -0.91954381497E+03  0.12548049717E+04  0.10100000352E+00 0.  1.
       -3    1    3    3    0  502 -0.81783984044E+03  0.24517886249E+03  0.19150791110E+04  0.20967838923E+04  0.10100000352E+00 0. -1.
</event>
<event>
 5   0  0.5370912E-07  0.3219775E+04  0.7818609E-02  0.8183614E-01
        1   -1    0    0  501    0  0.00000000000E+00  0.00000000000E+00  0.25146367474E+04  0.25146367475E+04  0.50400001928E-02 0. -1.
       -1   -1    0    0    0  501  0.00000000000E+00  0.00000000000E+00 -0.10306610968E+04  0.10306610968E+04  0.50400001928E-02 0.  1.
    10030    2    1    2    0    0  0.00000000000E+00  0.00000000000E+00  0.14839756506E+04  0.35452978443E+04  0.32197753141E+04 0.  0.
        1    1    3    3  502    0  0.52046901509E+03  0.70318725472E+03 -0.74607918521E+03  0.11497801796E+04  0.50400001928E-02 0.  1.
       -1    1    3    3    0  502 -0.52046901509E+03 -0.70318725472E+03  0.22300548358E+04  0.23955176647E+04  0.50400001928E-02 0. -1.
</event>
<event>
 5   0  0.5370912E-07  0.2928685E+04  0.7818609E-02  0.8264394E-01
        1   -1    0    0  501    0  0.00000000000E+00  0.00000000000E+00  0.13055987449E+04  0.13055987449E+04  0.50400001928E-02 0. -1.
       -1   -1    0    0    0  501  0.00000000000E+00  0.00000000000E+00 -0.16423876785E+04  0.16423876785E+04  0.50400001928E-02 0.  1.
    10030    2    1    2    0    0  0.00000000000E+00  0.00000000000E+00 -0.33678893362E+03  0.29479864235E+04  0.29286852284E+04 0.  0.
        1    1    3    3  502    0 -0.67902071200E+03 -0.70609337164E+01 -0.14743190676E+04  0.16231868953E+04  0.50400001928E-02 0.  1.
       -1    1    3    3    0  502  0.67902071200E+03  0.70609337164E+01  0.11375301339E+04  0.13247995281E+04  0.50400001928E-02 0. -1.
</event>
<event>
 5   0  0.1508771E-06  0.3197775E+04  0.7818609E-02  0.8189405E-01
        2   -1    0    0  501    0  0.00000000000E+00  0.00000000000E+00  0.10736074095E+04  0.10736074095E+04  0.25500000920E-02 0. -1.
       -2   -1    0    0    0  501  0.00000000000E+00  0.00000000000E+00 -0.23811701593E+04  0.23811701593E+04  0.25500000920E-02 0.  1.
    10030    2    1    2    0    0  0.00000000000E+00  0.00000000000E+00 -0.13075627498E+04  0.34547775688E+04  0.31977754307E+04 0.  0.
        4    1    3    3  502    0 -0.81806568007E+03 -0.51916638771E+02  0.82932314486E+03  0.11660640144E+04  0.12699999809E+01 0. -1.
       -4    1    3    3    0  502  0.81806568007E+03  0.51916638771E+02 -0.21368858946E+04  0.22887135544E+04  0.12699999809E+01 0.  1.
</event>
<event>
 5   0  0.1556396E-06  0.3184249E+04  0.7818609E-02  0.8192989E-01
        2   -1    0    0  501    0  0.00000000000E+00  0.00000000000E+00  0.17143544535E+04  0.17143544535E+04  0.25500000920E-02 0.  1.
       -2   -1    0    0    0  501  0.00000000000E+00  0.00000000000E+00 -0.14786090815E+04  0.14786090815E+04  0.25500000920E-02 0. -1.
    10030    2    1    2    0    0  0.00000000000E+00  0.00000000000E+00  0.23574537207E+03  0.31929635350E+04  0.31842487741E+04 0.  0.
        3    1    3    3  502    0 -0.15801869320E+02  0.15236995844E+04 -0.34485525069E+03  0.15623172779E+04  0.10100000352E+00 0. -1.
       -3    1    3    3    0  502  0.15801869320E+02 -0.15236995844E+04  0.58060062276E+03  0.16306462571E+04  0.10100000352E+00 0.  1.
</event>
<event>
 5   0  0.1572769E-06  0.3145443E+04  0.7818609E-02  0.8203376E-01
        2   -1    0    0  501    0  0.00000000000E+00  0.00000000000E+00  0.11892121293E+04  0.11892121293E+04  0.25500000920E-02 0.  1.
       -2   -1    0    0    0  501  0.00000000000E+00  0.00000000000E+00 -0.20799086739E+04  0.20799086739E+04  0.25500000920E-02 0. -1.
    10030    2    1    2    0    0  0.00000000000E+00  0.00000000000E+00 -0.89069654459E+03  0.32691208032E+04  0.31454428133E+04 0.  0.
        5    1    3    3  502    0 -0.56860541124E+03 -0.12801732726E+04 -0.11884980875E+04  0.18370371568E+04  0.46999998093E+01 0. -1.
       -5    1    3    3    0  502  0.56860541124E+03  0.12801732726E+04  0.29780154288E+03  0.14320836465E+04  0.46999998093E+01 0.  1.
</event>
<event>
 5   0  0.1556396E-06  0.3189922E+04  0.7818609E-02  0.8191484E-01
       -2   -1    0    0    0  501  0.00000000000E+00  0.00000000000E+00  0.10116829551E+04  0.10116829551E+04  0.25500000920E-02 0.  1.
        2   -1    0    0  501    0  0.00000000000E+00  0.00000000000E+00 -0.25145240855E+04  0.25145240855E+04  0.25500000920E-02 0. -1.
    10030    2    1    2    0    0  0.00000000000E+00  0.00000000000E+00 -0.15028411305E+04  0.35262070406E+04  0.31899223548E+04 0.  0.
        3    1    3    3  502    0 -0.88184149461E+03  0.11021115397E+02  0.71763991827E+03  0.11370017366E+04  0.10100000352E+00 0.  1.
       -3    1    3    3    0  502  0.88184149461E+03 -0.11021115397E+02 -0.22204810487E+04  0.23892053040E+04  0.10100000352E+00 0. -1.
</event>
<event>
 5   0  0.5281187E-07  0.3201846E+04  0.7818609E-02  0.8188330E-01
        1   -1    0    0  501    0  0.00000000000E+00  0.00000000000E+00  0.12782096592E+04  0.12782096592E+04  0.50400001928E-02 0.  1.
       -1   -1    0    0    0  501  0.00000000000E+00  0.00000000000E+00 -0.20051132609E+04  0.20051132609E+04  0.50400001928E-02 0. -1.
    10030    2    1    2    0    0  0.00000000000E+00  0.00000000000E+00 -0.72690360166E+03  0.32833229201E+04  0.32018464285E+04 0.  0.
        5    1    3    3  502    0  0.39958535933E+03  0.12294132384E+04  0.60493464922E+03  0.14272678060E+04  0.46999998093E+01 0.  1.
       -5    1    3    3    0  502 -0.39958535933E+03 -0.12294132384E+04 -0.13318382509E+04  0.18560551141E+04  0.46999998093E+01 0. -1.
</event>
<event>
 5   0  0.1572769E-06  0.3216736E+04  0.7818609E-02  0.8184411E-01
        2   -1    0    0  501    0  0.00000000000E+00  0.00000000000E+00  0.16355318360E+04  0.16355318360E+04  0.25500000920E-02 0. -1.
       -2   -1    0    0    0  501  0.00000000000E+00  0.00000000000E+00 -0.15816554551E+04  0.15816554551E+04  0.25500000920E-02 0.  1.
    10030    2    1    2    0    0  0.00000000000E+00  0.00000000000E+00  0.53876380847E+02  0.32171872911E+04  0.32167361411E+04 0.  0.
        5    1    3    3  502    0  0.58870436879E+03 -0.11368843488E+04 -0.94672128146E+03  0.15922883317E+04  0.46999998093E+01 0.  1.
       -5    1    3    3    0  502 -0.58870436879E+03  0.11368843488E+04  0.10005976623E+04  0.16248989594E+04  0.46999998093E+01 0. -1.
</event>
<event>
 5   0  0.1493485E-06  0.2887533E+04  0.7818609E-02  0.8276596E-01
        2   -1    0    0  501    0  0.00000000000E+00  0.00000000000E+00  0.16324484357E+04  0.16324484357E+04  0.25500000920E-02 0.  1.
       -2   -1    0    0    0  501  0.00000000000E+00  0.00000000000E+00 -0.12768932433E+04  0.12768932433E+04  0.25500000920E-02 0. -1.
    10030    2    1    2    0    0  0.00000000000E+00  0.00000000000E+00  0.35555519244E+03  0.29093416790E+04  0.28875334648E+04 0.  0.
        2    1    3    3  502    0 -0.95696282416E+03  0.49934962266E+03 -0.78828324403E+03  0.13366070347E+04  0.25500000920E-02 0. -1.
       -2    1    3    3    0  502  0.95696282416E+03 -0.49934962266E+03  0.11438384365E+04  0.15727346443E+04  0.25500000920E-02 0.  1.
</event>
<event>
 5   0  0.1572769E-06  0.2935646E+04  0.7818609E-02  0.8262350E-01
        2   -1    0    0  501    0  0.00000000000E+00  0.00000000000E+00  0.10805248473E+04  0.10805248473E+04  0.25500000920E-02 0. -1.
       -2   -1    0    0    0  501  0.00000000000E+00  0.00000000000E+00 -0.19939424247E+04  0.19939424247E+04  0.25500000920E-02 0.  1.
    10030    2    1    2    0    0  0.00000000000E+00  0.00000000000E+00 -0.91341757741E+03  0.30744672720E+04  0.29356459827E+04 0.  0.
        5    1    3    3  502    0 -0.12963224213E+04 -0.35840312740E+03 -0.10723660395E+04  0.17201440737E+04  0.46999998093E+01 0.  1.
       -5    1    3    3    0  502  0.12963224213E+04  0.35840312740E+03  0.15894846207E+03  0.13543231982E+04  0.46999998093E+01 0. -1.
</event>
<event>
 5   0  0.5370912E-07  0.3173777E+04  0.7818609E-02  0.8195777E-01
        1   -1    0    0  501    0  0.00000000000E+00  0.00000000000E+00  0.19795023112E+04  0.19795023112E+04  0.50400001928E-02 0. -1.
       -1   -1    0    0    0  501  0.00000000000E+00  0.00000000000E+00 -0.12721459597E+04  0.12721459597E+04  0.50400001928E-02 0.  1.
    10030    2    1    2    0    0  0.00000000000E+00  0.00000000000E+00  0.70735635147E+03  0.32516482709E+04  0.31737774764E+04 0.  0.
        1    1    3    3  502    0 -0.14808823144E+03 -0.13479757349E+04 -0.49070778605E+03  0.14421382865E+04  0.50400001928E-02 0.  1.
       -1    1    3    3    0  502  0.14808823144E+03  0.13479757349E+04  0.11980641375E+04  0.18095099844E+04  0.50400001928E-02 0. -1.
</event>
<event>
 5   0  0.1493485E-06  0.3202987E+04  0.7818609E-02  0.8188029E-01
       -2   -1    0    0    0  501  0.00000000000E+00  0.00000000000E+00  0.14780536383E+04  0.14780536383E+04  0.25500000920E-02 0.  1.
        2   -1    0    0  501    0  0.00000000000E+00  0.00000000000E+00 -0.17352420400E+04  0.17352420400E+04  0.25500000920E-02 0. -1.
    10030    2    1    2    0    0  0.00000000000E+00  0.00000000000E+00 -0.25718840173E+03  0.32132956784E+04  0.32029866129E+04 0.  0.
        2    1    3    3  502    0  0.14918617775E+04  0.18944940829E+03  0.42384883020E+03  0.15624309496E+04  0.25500000920E-02 0.  1.
       -2    1    3    3    0  502 -0.14918617775E+04 -0.18944940829E+03 -0.68103723193E+03  0.16508647288E+04  0.25500000920E-02 0. -1.
</event>
<event>
 5   0  0.5281187E-07  0.3173620E+04  0.7818609E-02  0.8195819E-01
        1   -1    0    0  501    0  0.00000000000E+00  0.00000000000E+00  0.17837794327E+04  0.17837794327E+04  0.50400001928E-02 0.  1.
       -1   -1    0    0    0  501  0.00000000000E+00  0.00000000000E+00 -0.14115907515E+04  0.14115907516E+04  0.50400001928E-02 0. -1.
    10030    2    1    2    0    0  0.00000000000E+00  0.00000000000E+00  0.37218868115E+03  0.31953701843E+04  0.31736203617E+04 0.  0.
        5    1    3    3  502    0  0.13916103053E+03 -0.15343177408E+04  0.56876183864E+03  0.16422572397E+04  0.46999998093E+01 0.  1.
       -5    1    3    3    0  502 -0.13916103053E+03  0.15343177408E+04 -0.19657315749E+03  0.15531129445E+04  0.46999998093E+01 0. -1.
</event>
<event>
 5   0  0.5177039E-07  0.3109475E+04  0.7818609E-02  0.8213142E-01
       -1   -1    0    0    0  501  0.00000000000E+00  0.00000000000E+00  0.14456132841E+04  0.14456132841E+04  0.50400001928E-02 0.  1.
        1   -1    0    0  501    0  0.00000000000E+00  0.00000000000E+00 -0.16720992056E+04  0.16720992056E+04  0.50400001928E-02 0. -1.
    10030    2    1    2    0    0  0.00000000000E+00  0.00000000000E+00 -0.22648592156E+03  0.31177124897E+04  0.31094750836E+04 0.  0.
        3    1    3    3  502    0  0.54078624692E+03 -0.12759714565E+04  0.59336215470E+03  0.15075249847E+04  0.10100000352E+00 0.  1.
       -3    1    3    3    0  502 -0.54078624692E+03  0.12759714565E+04 -0.81984807625E+03  0.16101875050E+04  0.10100000352E+00 0. -1.
</event>
<event>
 5   0  0.1508771E-06  0.3149323E+04  0.7818609E-02  0.8202330E-01
        2   -1    0    0  501    0  0.00000000000E+00  0.00000000000E+00  0.20249822577E+04  0.20249822577E+04  0.25500000920E-02 0. -1.
       -2   -1    0    0    0  501  0.00000000000E+00  0.00000000000E+00 -0.12244843232E+04  0.12244843232E+04  0.25500000920E-02 0.  1.
    10030    2    1    2    0    0  0.00000000000E+00  0.00000000000E+00  0.80049793444E+03  0.32494665809E+04  0.31493231205E+04 0.  0.
        4    1    3    3  502    0  0.88933739090E+03  0.77406880501E+03 -0.67671031455E+03  0.13594270751E+04  0.12699999809E+01 0.  1.
       -4    1    3    3    0  502 -0.88933739090E+03 -0.77406880501E+03  0.14772082490E+04  0.18900395058E+04  0.12699999809E+01 0. -1.
</event>
<event>
 5   0  0.5281187E-07  0.3165039E+04  0.7818609E-02  0.8198112E-01
        1   -1    0    0  501    0  0.00000000000E+00  0.00000000000E+00  0.18649803475E+04  0.18649803475E+04  0.50400001928E-02 0.  1.
       -1   -1    0    0    0  501  0.00000000000E+00  0.00000000000E+00 -0.13428391463E+04  0.13428391463E+04  0.50400001928E-02 0. -1.
    10030    2    1    2    0    0  0.00000000000E+00  0.00000000000E+00  0.52214120120E+03  0.32078194938E+04  0.31650394106E+04 0.  0.
        5    1    3    3  502    0 -0.44636007527E+03  0.87435095005E+03 -0.99692323580E+03  0.13991443559E+04  0.46999998093E+01 0. -1.
       -5    1    3    3    0  502  0.44636007527E+03 -0.87435095005E+03  0.15190644370E+04  0.18086751379E+04  0.46999998093E+01 0.  1.
</event>
<event>
 5   0  0.5370912E-07  0.3197200E+04  0.7818609E-02  0.8189557E-01
       -1   -1    0    0    0  501  0.00000000000E+00  0.00000000000E+00  0.12097657013E+04  0.12097657013E+04  0.50400001928E-02 0.  1.
        1   -1    0    0  501    0  0.00000000000E+00  0.00000000000E+00 -0.21124104159E+04  0.21124104159E+04  0.50400001928E-02 0. -1.
    10030    2    1    2    0    0  0.00000000000E+00  0.00000000000E+00 -0.90264471452E+03  0.33221761172E+04  0.31971998175E+04 0.  0.
        1    1    3    3  502    0  0.12234363488E+04  0.45268528827E+03 -0.14114550381E+04  0.19219588430E+04  0.50400001928E-02 0. -1.
       -1    1    3    3    0  502 -0.12234363488E+04 -0.45268528827E+03  0.50881032353E+03  0.14002172742E+04  0.50400001928E-02 0.  1.
</event>
<event>
 5   0  0.5177039E-07  0.3195066E+04  0.7818609E-02  0.8190121E-01
        1   -1    0    0  501    0  0.00000000000E+00  0.00000000000E+00  0.11879222328E+04  0.11879222328E+04  0.50400001928E-02 0. -1.
       -1   -1    0    0    0  501  0.00000000000E+00  0.00000000000E+00 -0.21483825876E+04  0.21483825876E+04  0.50400001928E-02 0.  1.
    10030    2    1    2    0    0  0.00000000000E+00  0.00000000000E+00 -0.96046035482E+03  0.33363048204E+04  0.31950658462E+04 0.  0.
        3    1    3    3  502    0  0.77032893298E+03 -0.10139679143E+04 -0.14875359633E+04  0.19581370863E+04  0.10100000352E+00 0.  1.
       -3    1    3    3    0  502 -0.77032893298E+03  0.10139679143E+04  0.52707560852E+03  0.13781677342E+04  0.10100000352E+00 0. -1.
</event>
<event>
 5   0  0.1556396E-06  0.3178694E+04  0.7818609E-02  0.8194467E-01
        2   -1    0    0  501    0  0.00000000000E+00  0.00000000000E+00  0.19582020672E+04  0.19582020672E+04  0.25500000920E-02 0.  1.
       -2   -1    0    0    0  501  0.00000000000E+00  0.00000000000E+00 -0.12899709738E+04  0.12899709738E+04  0.25500000920E-02 0. -1.
    10030    2    1    2    0    0  0.00000000000E+00  0.00000000000E+00  0.66823109338E+03  0.32481730410E+04  0.31786939630E+04 0.  0.
        3    1    3    3  502    0 -0.69135298322E+03  0.72159148570E+03 -0.92876197074E+03  0.13642807732E+04  0.10100000352E+00 0. -1.
       -3    1    3    3    0  502  0.69135298322E+03 -0.72159148570E+03  0.15969930641E+04  0.18838922678E+04  0.10100000352E+00 0.  1.
</event>
<event>
 5   0  0.5233813E-07  0.3140787E+04  0.7818609E-02  0.8204633E-01
        1   -1    0    0  501    0  0.00000000000E+00  0.00000000000E+00  0.13616639056E+04  0.13616639056E+04  0.50400001928E-02 0. -1.
       -1   -1    0    0    0  501  0.00000000000E+00  0.00000000000E+00 -0.18111196420E+04  0.18111196420E+04  0.50400001928E-02 0.  1.
    10030    2    1    2    0    0  0.00000000000E+00  0.00000000000E+00 -0.44945573639E+03  0.31727835476E+04  0.31407873186E+04 0.  0.
        4    1    3    3  502    0  0.79601411364E+03 -0.11491196690E+04  0.49811756601E+03  0.14839936675E+04  0.12699999809E+01 0. -1.
       -4    1    3    3    0  502 -0.79601411364E+03  0.11491196690E+04 -0.94757330240E+03  0.16887898801E+04  0.12699999809E+01 0.  1.
</event>
<event>
 5   0  0.5281187E-07  0.3289239E+04  0.7818609E-02  0.8165639E-01
        1   -1    0    0  501    0  0.00000000000E+00  0.00000000000E+00  0.13835135497E+04  0.13835135497E+04  0.50400001928E-02 0.  1.
       -1   -1    0    0    0  501  0.00000000000E+00  0.00000000000E+00 -0.19550025375E+04  0.19550025375E+04  0.50400001928E-02 0. -1.
    10030    2    1    2    0    0  0.00000000000E+00  0.00000000000E+00 -0.57148898776E+03  0.33385160872E+04  0.32892385139E+04 0.  0.
        5    1    3    3  502    0 -0.12630843739E+04 -0.14184106955E+03  0.77356232607E+03  0.14879253298E+04  0.46999998093E+01 0.  1.
       -5    1    3    3    0  502  0.12630843739E+04  0.14184106955E+03 -0.13450513138E+04  0.18505907574E+04  0.46999998093E+01 0. -1.
</event>
<event>
 5   0  0.1572769E-06  0.3280812E+04  0.7818609E-02  0.8167795E-01
        2   -1    0    0  501    0  0.00000000000E+00  0.00000000000E+00  0.18945065196E+04  0.18945065196E+04  0.25500000920E-02 0. -1.
       -2   -1    0    0    0  501  0.00000000000E+00  0.00000000000E+00 -0.14203870112E+04  0.14203870112E+04  0.25500000920E-02 0.  1.
    10030    2    1    2    0    0  0.00000000000E+00  0.00000000000E+00  0.47411950842E+03  0.33148935308E+04  0.32808123708E+04 0.  0.
        5    1    3    3  502    0  0.10189370476E+04 -0.12838411661E+04  0.30430573696E+03  0.16670647613E+04  0.46999998093E+01 0.  1.
       -5    1    3    3    0  502 -0.10189370476E+04  0.12838411661E+04  0.16981377146E+03  0.16478287695E+04  0.46999998093E+01 0. -1.
</event>
<event>
 5   0  0.5281187E-07  0.3219585E+04  0.7818609E-02  0.8183664E-01
       -1   -1    0    0    0  501  0.00000000000E+00  0.00000000000E+00  0.10167397246E+04  0.10167397246E+04  0.50400001928E-02 0.  1.
        1   -1    0    0  501    0  0.00000000000E+00  0.00000000000E+00 -0.25487665253E+04  0.25487665253E+04  0.50400001928E-02 0. -1.
    10030    2    1    2    0    0  0.00000000000E+00  0.00000000000E+00 -0.15320268007E+04  0.35655062499E+04  0.32195851752E+04 0.  0.
        5    1    3    3  502    0 -0.83333294625E+03  0.97681920022E+03 -0.18413115295E+04  0.22447872478E+04  0.46999998093E+01 0. -1.
       -5    1    3    3    0  502  0.83333294625E+03 -0.97681920022E+03  0.30928472878E+03  0.13207190022E+04  0.46999998093E+01 0.  1.
</event>
<event>
 5   0  0.1508771E-06  0.3111103E+04  0.7818609E-02  0.8212697E-01
        2   -1    0    0  501    0  0.00000000000E+00  0.00000000000E+00  0.20432610263E+04  0.20432610263E+04  0.25500000920E-02 0. -1.
       -2   -1    0    0    0  501  0.00000000000E+00  0.00000000000E+00 -0.11842542794E+04  0.11842542794E+04  0.25500000920E-02 0.  1.
    10030    2    1    2    0    0  0.00000000000E+00  0.00000000000E+00  0.85900674693E+03  0.32275153057E+04  0.31111030933E+04 0.  0.
        4    1    3    3  502    0  0.87125728573E+03  0.11631287720E+04  0.10050426338E+04  0.17669380597E+04  0.12699999809E+01 0. -1.
       -4    1    3    3    0  502 -0.87125728573E+03 -0.11631287720E+04 -0.14603588689E+03  0.14605772460E+04  0.12699999809E+01 0.  1.
</event>
<event>
 5   0  0.5233813E-07  0.3190190E+04  0.7818609E-02  0.8191413E-01
        1   -1    0    0  501    0  0.00000000000E+00  0.00000000000E+00  0.20428851151E+04  0.20428851151E+04  0.50400001928E-02 0. -1.
       -1   -1    0    0    0  501  0.00000000000E+00  0.00000000000E+00 -0.12454583180E+04  0.12454583180E+04  0.50400001928E-02 0.  1.
    10030    2    1    2    0    0  0.00000000000E+00  0.00000000000E+00  0.79742679704E+03  0.32883434331E+04  0.31901901256E+04 0.  0.
        4    1    3    3  502    0  0.92835955592E+03 -0.50567920328E+03 -0.83250935197E+03  0.13455988837E+04  0.12699999809E+01 0.  1.
       -4    1    3    3    0  502 -0.92835955592E+03  0.50567920328E+03  0.16299361490E+04  0.19427445495E+04  0.12699999809E+01 0. -1.
</event>
<event>
 5   0  0.5317728E-07  0.3059093E+04  0.7818609E-02  0.8227055E-01
        1   -1    0    0  501    0  0.00000000000E+00  0.00000000000E+00  0.14304648624E+04  0.14304648624E+04  0.50400001928E-02 0. -1.
       -1   -1    0    0    0  501  0.00000000000E+00  0.00000000000E+00 -0.16354909939E+04  0.16354909939E+04  0.50400001928E-02 0.  1.
    10030    2    1    2    0    0  0.00000000000E+00  0.00000000000E+00 -0.20502613150E+03  0.30659558562E+04  0.30590929371E+04 0.  0.
        2    1    3    3  502    0 -0.77819211223E+03  0.95667899097E+03 -0.10093604976E+04  0.15936204910E+04  0.25500000920E-02 0.  1.
       -2    1    3    3    0  502  0.77819211223E+03 -0.95667899097E+03  0.80433436605E+03  0.14723353652E+04  0.25500000920E-02 0. -1.
</event>
<event>
 5   0  0.5177039E-07  0.3225663E+04  0.7818609E-02  0.8182072E-01
        1   -1    0    0  501    0  0.00000000000E+00  0.00000000000E+00  0.16738105268E+04  0.16738105268E+04  0.50400001928E-02 0. -1.
       -1   -1    0    0    0  501  0.00000000000E+00  0.00000000000E+00 -0.15540735872E+04  0.15540735872E+04  0.50400001928E-02 0.  1.
    10030    2    1    2    0    0  0.00000000000E+00  0.00000000000E+00  0.11973693961E+03  0.32278841141E+04  0.32256625551E+04 0.  0.
        3    1    3    3  502    0  0.76411681830E+03 -0.13127081166E+04 -0.48285882350E+03  0.15938098271E+04  0.10100000352E+00 0.  1.
       -3    1    3    3    0  502 -0.76411681830E+03  0.13127081166E+04  0.60259576311E+03  0.16340742870E+04  0.10100000352E+00 0. -1.
</event>
<event>
 5   0  0.1556396E-06  0.3161003E+04  0.7818609E-02  0.8199193E-01
       -2   -1    0    0    0  501  0.00000000000E+00  0.00000000000E+00  0.98596330850E+03  0.98596330851E+03  0.25500000920E-02 0. -1.
        2   -1    0    0  501    0  0.00000000000E+00  0.00000000000E+00 -0.25335472144E+04  0.25335472144E+04  0.25500000920E-02 0.  1.
    10030    2    1    2    0    0  0.00000000000E+00  0.00000000000E+00 -0.15475839059E+04  0.35195105229E+04  0.31610027483E+04 0.  0.
        3    1    3    3  502    0  0.12880569787E+04 -0.23063030861E+03  0.21313890601E+03  0.13257863037E+04  0.10100000352E+00 0. -1.
       -3    1    3    3    0  502 -0.12880569787E+04  0.23063030861E+03 -0.17607228119E+04  0.21937242192E+04  0.10100000352E+00 0.  1.
</event>
<event>
 5   0  0.5317728E-07  0.3383849E+04  0.7818609E-02  0.8141882E-01
       -1   -1    0    0    0  501  0.00000000000E+00  0.00000000000E+00  0.21028775011E+04  0.21028775011E+04  0.50400001928E-02 0. -1.
        1   -1    0    0  501    0  0.00000000000E+00  0.00000000000E+00 -0.13612816467E+04  0.13612816467E+04  0.50400001928E-02 0.  1.
    10030    2    1    2    0    0  0.00000000000E+00  0.00000000000E+00  0.74159585437E+03  0.34641591478E+04  0.33838490200E+04 0.  0.
        2    1    3    3  502    0  0.15758326417E+04  0.61323362424E+03  0.42964750576E+03  0.17446778991E+04  0.25500000920E-02 0.  1.
       -2    1    3    3    0  502 -0.15758326417E+04 -0.61323362424E+03  0.31194834861E+03  0.17194812487E+04  0.25500000920E-02 0. -1.
</event>
<event>
 5   0  0.5317728E-07  0.3191949E+04  0.7818609E-02  0.8190947E-01
       -1   -1    0    0    0  501  0.00000000000E+00  0.00000000000E+00  0.11295267795E+04  0.11295267795E+04  0.50400001928E-02 0.  1.
        1   -1    0    0  501    0  0.00000000000E+00  0.00000000000E+00 -0.22550457994E+04  0.22550457994E+04  0.50400001928E-02 0. -1.
    10030    2    1    2    0    0  0.00000000000E+00  0.00000000000E+00 -0.11255190199E+04  0.33845725789E+04  0.31919490092E+04 0.  0.
        2    1    3    3  502    0  0.12456095930E+04 -0.90204450686E+03 -0.11051565497E+03  0.15418953469E+04  0.25500000920E-02 0. -1.
       -2    1    3    3    0  502 -0.12456095930E+04  0.90204450686E+03 -0.10150033649E+04  0.18426772320E+04  0.25500000920E-02 0.  1.
</event>
<event>
 5   0  0.1572769E-06  0.3196935E+04  0.7818609E-02  0.8189627E-01
       -2   -1    0    0    0  501  0.00000000000E+00  0.00000000000E+00  0.12104388740E+04  0.12104388740E+04  0.25500000920E-02 0. -1.
        2   -1    0    0  501    0  0.00000000000E+00  0.00000000000E+00 -0.21108853929E+04  0.21108853929E+04  0.25500000920E-02 0.  1.
    10030    2    1    2    0    0  0.00000000000E+00  0.00000000000E+00 -0.90044651889E+03  0.33213242670E+04  0.31969346182E+04 0.  0.
        5    1    3    3  502    0  0.10645961182E+03  0.10846162117E+04 -0.16650583266E+04  0.19900169087E+04  0.46999998093E+01 0.  1.
       -5    1    3    3    0  502 -0.10645961182E+03 -0.10846162117E+04  0.76461180775E+03  0.13313073583E+04  0.46999998093E+01 0. -1.
</event>
<event>
 5   0  0.1508771E-06  0.3216804E+04  0.7818609E-02  0.8184393E-01
       -2   -1    0    0    0  501  0.00000000000E+00  0.00000000000E+00  0.15822615521E+04  0.15822615521E+04  0.25500000920E-02 0.  1.
        2   -1    0    0  501    0  0.00000000000E+00  0.00000000000E+00 -0.16349744050E+04  0.16349744050E+04  0.25500000920E-02 0. -1.
    10030    2    1    2    0    0  0.00000000000E+00  0.00000000000E+00 -0.52712852893E+02  0.32172359570E+04  0.32168040908E+04 0.  0.
        4    1    3    3  502    0 -0.11607799738E+04 -0.48807735071E+03  0.97444063558E+03  0.15922204034E+04  0.12699999809E+01 0.  1.
       -4    1    3    3    0  502  0.11607799738E+04  0.48807735071E+03 -0.10271534885E+04  0.16250155536E+04  0.12699999809E+01 0. -1.
</event>
<event>
 5   0  0.5317728E-07  0.3230278E+04  0.7818609E-02  0.8180866E-01
       -1   -1    0    0    0  501  0.00000000000E+00  0.00000000000E+00  0.17805408040E+04  0.17805408040E+04  0.50400001928E-02 0. -1.
        1   -1    0    0  501    0  0.00000000000E+00  0.00000000000E+00 -0.14651021982E+04  0.14651021982E+04  0.50400001928E-02 0.  1.
    10030    2    1    2    0    0  0.00000000000E+00  0.00000000000E+00  0.31543860578E+03  0.32456430022E+04  0.32302781589E+04 0.  0.
        2    1    3    3  502    0  0.67208316072E+03 -0.11624825615E+04 -0.74410928317E+03  0.15351742917E+04  0.25500000920E-02 0.  1.
       -2    1    3    3    0  502 -0.67208316072E+03  0.11624825615E+04  0.10595478890E+04  0.17104687105E+04  0.25500000920E-02 0. -1.
</event>
<event>
 5   0  0.5177039E-07  0.3208809E+04  0.7818609E-02  0.8186494E-01
        1   -1    0    0  501    0  0.00000000000E+00  0.00000000000E+00  0.24069963321E+04  0.24069963321E+04  0.50400001928E-02 0.  1.
       -1   -1    0    0    0  501  0.00000000000E+00  0.00000000000E+00 -0.10694301720E+04  0.10694301720E+04  0.50400001928E-02 0. -1.
    10030    2    1    2    0    0  0.00000000000E+00  0.00000000000E+00  0.13375661601E+04  0.34764265042E+04  0.32088094375E+04 0.  0.
        3    1    3    3  502    0  0.55037520167E+03  0.14328419958E+04  0.11748198873E+04  0.19329125240E+04  0.10100000352E+00 0.  1.
       -3    1    3    3    0  502 -0.55037520167E+03 -0.14328419958E+04  0.16274627284E+03  0.15435139802E+04  0.10100000352E+00 0. -1.
</event>
<event>
 5   0  0.5177039E-07  0.3014962E+04  0.7818609E-02  0.8239471E-01
       -1   -1    0    0    0  501  0.00000000000E+00  0.00000000000E+00  0.13387447716E+04  0.13387447716E+04  0.50400001928E-02 0.  1.
        1   -1    0    0  501    0  0.00000000000E+00  0.00000000000E+00 -0.16974851679E+04  0.16974851679E+04  0.50400001928E-02 0. -1.
    10030    2    1    2    0    0  0.00000000000E+00  0.00000000000E+00 -0.35874039637E+03  0.30362299395E+04  0.30149622839E+04 0.  0.
        3    1    3    3  502    0 -0.97791958632E+03 -0.26372772675E+03 -0.13037677237E+04  0.16509661773E+04  0.10100000352E+00 0. -1.
       -3    1    3    3    0  502  0.97791958632E+03  0.26372772675E+03  0.94502732732E+03  0.13852637622E+04  0.10100000352E+00 0.  1.
</event>
<event>
 5   0  0.1493485E-06  0.3226684E+04  0.7818609E-02  0.8181805E-01
       -2   -1    0    0    0  501  0.00000000000E+00  0.00000000000E+00  0.93855443010E+03  0.93855443010E+03  0.25500000920E-02 0. -1.
        2   -1    0    0  501    0  0.00000000000E+00  0.00000000000E+00 -0.27732773246E+04  0.27732773246E+04  0.25500000920E-02 0.  1.
    10030    2    1    2    0    0  0.00000000000E+00  0.00000000000E+00 -0.18347228945E+04  0.37118317547E+04  0.32266835722E+04 0.  0.
        2    1    3    3  502    0  0.13483699391E+04  0.71680126761E+03 -0.15161719932E+04  0.21519021964E+04  0.25500000920E-02 0. -1.
       -2    1    3    3    0  502 -0.13483699391E+04 -0.71680126761E+03 -0.31855090127E+03  0.15599295582E+04  0.25500000920E-02 0.  1.
</event>
<event>
 5   0  0.5370912E-07  0.3195749E+04  0.7818609E-02  0.8189941E-01
       -1   -1    0    0    0  501  0.00000000000E+00  0.00000000000E+00  0.18308633921E+04  0.18308633922E+04  0.50400001928E-02 0.  1.
        1   -1    0    0  501    0  0.00000000000E+00  0.00000000000E+00 -0.13945345977E+04  0.13945345977E+04  0.50400001928E-02 0. -1.
    10030    2    1    2    0    0  0.00000000000E+00  0.00000000000E+00  0.43632879444E+03  0.32253979899E+04  0.31957486410E+04 0.  0.
        1    1    3    3  502    0 -0.12457800112E+04 -0.68487972000E+03  0.95443529964E+03  0.17123010274E+04  0.50400001928E-02 0.  1.
       -1    1    3    3    0  502  0.12457800112E+04  0.68487972000E+03 -0.51810650520E+03  0.15130969625E+04  0.50400001928E-02 0. -1.
</event>
<event>
 5   0  0.1572769E-06  0.3276309E+04  0.7818609E-02  0.8168950E-01
       -2   -1    0    0    0  501  0.00000000000E+00  0.00000000000E+00  0.11095860785E+04  0.11095860785E+04  0.25500000920E-02 0. -1.
        2   -1    0    0  501    0  0.00000000000E+00  0.00000000000E+00 -0.24185145728E+04  0.24185145728E+04  0.25500000920E-02 0.  1.
    10030    2    1    2    0    0  0.00000000000E+00  0.00000000000E+00 -0.13089284943E+04  0.35281006514E+04  0.32763089603E+04 0.  0.
        5    1    3    3  502    0 -0.11696816444E+04 -0.68517773277E+03  0.33594968841E+03  0.13966058706E+04  0.46999998093E+01 0. -1.
       -5    1    3    3    0  502  0.11696816444E+04  0.68517773277E+03 -0.16448781827E+04  0.21314947808E+04  0.46999998093E+01 0.  1.
</event>
<event>
 5   0  0.5177039E-07  0.3211427E+04  0.7818609E-02  0.8185806E-01
       -1   -1    0    0    0  501  0.00000000000E+00  0.00000000000E+00  0.13171575761E+04  0.13171575762E+04  0.50400001928E-02 0.  1.
        1   -1    0    0  501    0  0.00000000000E+00  0.00000000000E+00 -0.19574849122E+04  0.19574849122E+04  0.50400001928E-02 0. -1.
    10030    2    1    2    0    0  0.00000000000E+00  0.00000000000E+00 -0.64032733604E+03  0.32746424883E+04  0.32114271484E+04 0.  0.
        3    1    3    3  502    0  0.38050931011E+03  0.46128116301E+03 -0.18397154336E+04  0.19344561337E+04  0.10100000352E+00 0. -1.
       -3    1    3    3    0  502 -0.38050931011E+03 -0.46128116301E+03  0.11993880976E+04  0.13401863546E+04  0.10100000352E+00 0.  1.
</event>
<event>
 5   0  0.1493485E-06  0.3207130E+04  0.7818609E-02  0.8186937E-01
        2   -1    0    0  501    0  0.00000000000E+00  0.00000000000E+00  0.19240895192E+04  0.19240895192E+04  0.25500000920E-02 0.  1.
       -2   -1    0    0    0  501  0.00000000000E+00  0.00000000000E+00 -0.13364348226E+04  0.13364348226E+04  0.25500000920E-02 0. -1.
    10030    2    1    2    0    0  0.00000000000E+00  0.00000000000E+00  0.58765469658E+03  0.32605243417E+04  0.32071297044E+04 0.  0.
        2    1    3    3  502    0  0.66068692836E+03 -0.11812863755E+04 -0.58041697785E+03  0.14726943289E+04  0.25500000920E-02 0. -1.
       -2    1    3    3    0  502 -0.66068692836E+03  0.11812863755E+04  0.11680716744E+04  0.17878300128E+04  0.25500000920E-02 0.  1.
</event>
<event>
 5   0  0.4995625E-07  0.3114184E+04  0.7818609E-02  0.8211856E-01
        3   -1    0    0  501    0  0.00000000000E+00  0.00000000000E+00  0.22673388570E+04  0.22673388592E+04  0.10100000352E+00 0.  1.
       -3   -1    0    0    0  501  0.00000000000E+00  0.00000000000E+00 -0.10693305886E+04  0.10693305933E+04  0.10100000352E+00 0. -1.
    10030    2    1    2    0    0  0.00000000000E+00  0.00000000000E+00  0.11980082684E+04  0.33366694526E+04  0.31141835567E+04 0.  0.
        5    1    3    3  502    0  0.94736188455E+03 -0.71230827954E+03 -0.48290643834E+03  0.12798821600E+04  0.46999998093E+01 0. -1.
       -5    1    3    3    0  502 -0.94736188455E+03  0.71230827954E+03  0.16809147068E+04  0.20567872925E+04  0.46999998093E+01 0.  1.
</event>
<event>
 5   0  0.1572769E-06  0.3285587E+04  0.7818609E-02  0.8166573E-01
       -2   -1    0    0    0  501  0.00000000000E+00  0.00000000000E+00  0.11305223644E+04  0.11305223644E+04  0.25500000920E-02 0.  1.
        2   -1    0    0  501    0  0.00000000000E+00  0.00000000000E+00 -0.23871883124E+04  0.23871883124E+04  0.25500000920E-02 0. -1.
    10030    2    1    2    0    0  0.00000000000E+00  0.00000000000E+00 -0.12566659480E+04  0.35177106768E+04  0.32855865688E+04 0.  0.
        5    1    3    3  502    0 -0.82106456859E+03 -0.13853471207E+04 -0.97594626942E+03  0.18830366118E+04  0.46999998093E+01 0. -1.
       -5    1    3    3    0  502  0.82106456859E+03  0.13853471207E+04 -0.28071967862E+03  0.16346740650E+04  0.46999998093E+01 0.  1.
</event>
<event>
 5   0  0.5370912E-07  0.3190522E+04  0.7818609E-02  0.8191325E-01
        1   -1    0    0  501    0  0.00000000000E+00  0.00000000000E+00  0.23567482418E+04  0.23567482418E+04  0.50400001928E-02 0. -1.
       -1   -1    0    0    0  501  0.00000000000E+00  0.00000000000E+00 -0.10798171900E+04  0.10798171900E+04  0.50400001928E-02 0.  1.
    10030    2    1    2    0    0  0.00000000000E+00  0.00000000000E+00  0.12769310518E+04  0.34365654318E+04  0.31905217530E+04 0.  0.
        1    1    3    3  502    0 -0.87486124763E+03  0.13979770736E+03  0.20673950499E+04  0.22492327345E+04  0.50400001928E-02 0. -1.
       -1    1    3    3    0  502  0.87486124763E+03 -0.13979770736E+03 -0.79046399817E+03  0.11873326973E+04  0.50400001928E-02 0.  1.
</event>
<event>
 5   0  0.5233813E-07  0.3173199E+04  0.7818609E-02  0.8195931E-01
        1   -1    0    0  501    0  0.00000000000E+00  0.00000000000E+00  0.16581709943E+04  0.16581709943E+04  0.50400001928E-02 0. -1.
       -1   -1    0    0    0  501  0.00000000000E+00  0.00000000000E+00 -0.15181171482E+04  0.15181171483E+04  0.50400001928E-02 0.  1.
    10030    2    1    2    0    0  0.00000000000E+00  0.00000000000E+00  0.14005384601E+03  0.31762881425E+04  0.31731989040E+04 0.  0.
        4    1    3    3  502    0  0.79703825983E+03 -0.59207974145E+02 -0.13018987491E+04  0.15276509868E+04  0.12699999809E+01 0.  1.
       -4    1    3    3    0  502 -0.79703825983E+03  0.59207974145E+02  0.14419525951E+04  0.16486371557E+04  0.12699999809E+01 0. -1.
</event>
<event>
 5   0  0.1556396E-06  0.3189954E+04  0.7818609E-02  0.8191475E-01
        2   -1    0    0  501    0  0.00000000000E+00  0.00000000000E+00  0.20351676790E+04  0.20351676790E+04  0.25500000920E-02 0. -1.
       -2   -1    0    0    0  501  0.00000000000E+00  0.00000000000E+00 -0.12499960324E+04  0.12499960324E+04  0.25500000920E-02 0.  1.
    10030    2    1    2    0    0  0.00000000000E+00  0.00000000000E+00  0.78517164667E+03  0.32851637114E+04  0.31899539332E+04 0.  0.
        3    1    3    3  502    0 -0.10733037703E+04  0.11688484729E+03  0.16016401538E+04  0.19315522885E+04  0.10100000352E+00 0. -1.
       -3    1    3    3    0  502  0.10733037703E+04 -0.11688484729E+03 -0.81646850715E+03  0.13536114229E+04  0.10100000352E+00 0.  1.
</event>
<event>
 5   0  0.5281187E-07  0.3195517E+04  0.7818609E-02  0.8190002E-01
       -1   -1    0    0    0  501  0.00000000000E+00  0.00000000000E+00  0.12506185401E+04  0.12506185401E+04  0.50400001928E-02 0. -1.
        1   -1    0    0  501    0  0.00000000000E+00  0.00000000000E+00 -0.20412556009E+04  0.20412556009E+04  0.50400001928E-02 0.  1.
    10030    2    1    2    0    0  0.00000000000E+00  0.00000000000E+00 -0.79063706080E+03  0.32918741411E+04  0.31955169220E+04 0.  0.
        5    1    3    3  502    0  0.92073196415E+03 -0.25467542970E+03 -0.17146408599E+04  0.19628097954E+04  0.46999998093E+01 0.  1.
       -5    1    3    3    0  502 -0.92073196415E+03  0.25467542970E+03  0.92400379910E+03  0.13290643457E+04  0.46999998093E+01 0. -1.
</event>
<event>
 5   0  0.1538349E-06  0.3189218E+04  0.7818609E-02  0.8191671E-01
        2   -1    0    0  501    0  0.00000000000E+00  0.00000000000E+00  0.19899397188E+04  0.19899397188E+04  0.25500000920E-02 0. -1.
       -2   -1    0    0    0  501  0.00000000000E+00  0.00000000000E+00 -0.12778164442E+04  0.12778164442E+04  0.25500000920E-02 0.  1.
    10030    2    1    2    0    0  0.00000000000E+00  0.00000000000E+00  0.71212327461E+03  0.32677561630E+04  0.31892178952E+04 0.  0.
        1    1    3    3  502    0 -0.12387789653E+04  0.33541356832E+03  0.13257836372E+04  0.18452040103E+04  0.50400001928E-02 0.  1.
       -1    1    3    3    0  502  0.12387789653E+04 -0.33541356832E+03 -0.61366036259E+03  0.14225521528E+04  0.50400001928E-02 0. -1.
</event>
<event>
 5   0  0.5370912E-07  0.3221225E+04  0.7818609E-02  0.8183234E-01
        1   -1    0    0  501    0  0.00000000000E+00  0.00000000000E+00  0.28992571405E+04  0.28992571405E+04  0.50400001928E-02 0.  1.
       -1   -1    0    0    0  501  0.00000000000E+00  0.00000000000E+00 -0.89473679497E+03  0.89473679499E+03  0.50400001928E-02 0. -1.
    10030    2    1    2    0    0  0.00000000000E+00  0.00000000000E+00  0.20045203455E+04  0.37939939355E+04  0.32212246377E+04 0.  0.
        1    1    3    3  502    0 -0.22779406011E+03  0.14151870382E+04  0.18673121113E+04  0.23540388714E+04  0.50400001928E-02 0.  1.
       -1    1    3    3    0  502  0.22779406011E+03 -0.14151870382E+04  0.13720823424E+03  0.14399550641E+04  0.50400001928E-02 0. -1.
</event>
<event>
 5   0  0.1493485E-06  0.3291941E+04  0.7818609E-02  0.8164949E-01
        2   -1    0    0  501    0  0.00000000000E+00  0.00000000000E+00  0.23405950787E+04  0.23405950787E+04  0.25500000920E-02 0. -1.
       -2   -1    0    0    0  501  0.00000000000E+00  0.00000000000E+00 -0.11574916889E+04  0.11574916889E+04  0.25500000920E-02 0.  1.
    10030    2    1    2    0    0  0.00000000000E+00  0.00000000000E+00  0.11831033898E+04  0.34980867676E+04  0.32919412818E+04 0.  0.
        2    1    3    3  502    0  0.10087690482E+04  0.25686023764E+03  0.19463946986E+04  0.22072708255E+04  0.25500000920E-02 0. -1.
       -2    1    3    3    0  502 -0.10087690482E+04 -0.25686023764E+03 -0.76329130878E+03  0.12908159421E+04  0.25500000920E-02 0.  1.
</event>
<event>
 5   0  0.5177039E-07  0.3191553E+04  0.7818609E-02  0.8191052E-01
       -1   -1    0    0    0  501  0.00000000000E+00  0.00000000000E+00  0.19532293780E+04  0.19532293780E+04  0.50400001928E-02 0. -1.
        1   -1    0    0  501    0  0.00000000000E+00  0.00000000000E+00 -0.13037396372E+04  0.13037396372E+04  0.50400001928E-02 0.  1.
    10030    2    1    2    0    0  0.00000000000E+00  0.00000000000E+00  0.64948974075E+03  0.32569690152E+04  0.31915529516E+04 0.  0.
        3    1    3    3  502    0  0.68265429801E+03  0.52508498394E+03  0.16956982141E+04  0.19018737009E+04  0.10100000352E+00 0. -1.
       -3    1    3    3    0  502 -0.68265429801E+03 -0.52508498394E+03 -0.10462084733E+04  0.13550953143E+04  0.10100000352E+00 0.  1.
</event>
<event>
 5   0  0.1508771E-06  0.3196755E+04  0.7818609E-02  0.8189675E-01
        2   -1    0    0  501    0  0.00000000000E+00  0.00000000000E+00  0.26954290408E+04  0.26954290408E+04  0.25500000920E-02 0. -1.
       -2   -1    0    0    0  501  0.00000000000E+00  0.00000000000E+00 -0.94783068873E+03  0.94783068874E+03  0.25500000920E-02 0.  1.
    10030    2    1    2    0    0  0.00000000000E+00  0.00000000000E+00  0.17475983521E+04  0.36432597296E+04  0.31967548321E+04 0.  0.
        4    1    3    3  502    0  0.51237057023E+03 -0.12957124719E+02 -0.85163827029E+03  0.99397225547E+03  0.12699999809E+01 0.  1.
       -4    1    3    3    0  502 -0.51237057023E+03  0.12957124719E+02  0.25992366224E+04  0.26492874741E+04  0.12699999809E+01 0. -1.
</event>
<event>
 5   0  0.1538349E-06  0.3249833E+04  0.7818609E-02  0.8175779E-01
       -2   -1    0    0    0  501  0.00000000000E+00  0.00000000000E+00  0.13347432256E+04  0.13347432256E+04  0.25500000920E-02 0. -1.
        2   -1    0    0  501    0  0.00000000000E+00  0.00000000000E+00 -0.19781735191E+04  0.19781735191E+04  0.25500000920E-02 0.  1.
    10030    2    1    2    0    0  0.00000000000E+00  0.00000000000E+00 -0.64343029350E+03  0.33129167448E+04  0.32498330442E+04 0.  0.
        1    1    3    3  502    0  0.35059850179E+03  0.88079166387E+03  0.10236145278E+04  0.13951702284E+04  0.50400001928E-02 0. -1.
       -1    1    3    3    0  502 -0.35059850179E+03 -0.88079166387E+03 -0.16670448213E+04  0.19177465164E+04  0.50400001928E-02 0.  1.
</event>
<event>
 5   0  0.5177039E-07  0.3212986E+04  0.7818609E-02  0.8185396E-01
       -1   -1    0    0    0  501  0.00000000000E+00  0.00000000000E+00  0.11616840666E+04  0.11616840667E+04  0.50400001928E-02 0. -1.
        1   -1    0    0  501    0  0.00000000000E+00  0.00000000000E+00 -0.22216188410E+04  0.22216188410E+04  0.50400001928E-02 0.  1.
    10030    2    1    2    0    0  0.00000000000E+00  0.00000000000E+00 -0.10599347743E+04  0.33833029076E+04  0.32129856581E+04 0.  0.
        3    1    3    3  502    0 -0.14904574753E+04  0.24369472941E+03  0.46759219792E+02  0.15109722174E+04  0.10100000352E+00 0. -1.
       -3    1    3    3    0  502  0.14904574753E+04 -0.24369472941E+03 -0.11066939941E+04  0.18723306903E+04  0.10100000352E+00 0.  1.
</event>
<event>
 5   0  0.5281187E-07  0.3199392E+04  0.7818609E-02  0.8188978E-01
       -1   -1    0    0    0  501  0.00000000000E+00  0.00000000000E+00  0.16718106630E+04  0.16718106630E+04  0.50400001928E-02 0. -1.
        1   -1    0    0  501    0  0.00000000000E+00  0.00000000000E+00 -0.15306918576E+04  0.15306918576E+04  0.50400001928E-02 0.  1.
    10030    2    1    2    0    0  0.00000000000E+00  0.00000000000E+00  0.14111880539E+03  0.32025025207E+04  0.31993917981E+04 0.  0.
        5    1    3    3  502    0 -0.11679875277E+04 -0.21072750458E+02 -0.10233736905E+04  0.15530469169E+04  0.46999998093E+01 0.  1.
       -5    1    3    3    0  502  0.11679875277E+04  0.21072750458E+02  0.11644924959E+04  0.16494556037E+04  0.46999998093E+01 0. -1.
</event>
<event>
 5   0  0.5177039E-07  0.3202500E+04  0.7818609E-02  0.8188157E-01
        1   -1    0    0  501    0  0.00000000000E+00  0.00000000000E+00  0.19032643981E+04  0.19032643981E+04  0.50400001928E-02 0.  1.
       -1   -1    0    0    0  501  0.00000000000E+00  0.00000000000E+00 -0.13471603400E+04  0.13471603400E+04  0.50400001928E-02 0. -1.
    10030    2    1    2    0    0  0.00000000000E+00  0.00000000000E+00  0.55610405808E+03  0.32504247382E+04  0.32025004692E+04 0.  0.
        3    1    3    3  502    0 -0.10206465041E+04 -0.12263787985E+04  0.41527156938E+03  0.16486887912E+04  0.10100000352E+00 0.  1.
       -3    1    3    3    0  502  0.10206465041E+04  0.12263787985E+04  0.14083248870E+03  0.16017359470E+04  0.10100000352E+00 0. -1.
</event>
<event>
 5   0  0.5281187E-07  0.3208326E+04  0.7818609E-02  0.8186622E-01
       -1   -1    0    0    0  501  0.00000000000E+00  0.00000000000E+00  0.11950735181E+04  0.11950735181E+04  0.50400001928E-02 0.  1.
        1   -1    0    0  501    0  0.00000000000E+00  0.00000000000E+00 -0.21532895437E+04  0.21532895437E+04  0.50400001928E-02 0. -1.
    10030    2    1    2    0    0  0.00000000000E+00  0.00000000000E+00 -0.95821602565E+03  0.33483630618E+04  0.32083262368E+04 0.  0.
        5    1    3    3  502    0  0.96134644680E+03  0.84236717141E+03 -0.14907188062E+04  0.19636787139E+04  0.46999998093E+01 0. -1.
       -5    1    3    3    0  502 -0.96134644680E+03 -0.84236717141E+03  0.53250278051E+03  0.13846843480E+04  0.46999998093E+01 0.  1.
</event>
<event>
 5   0  0.1493485E-06  0.3188226E+04  0.7818609E-02  0.8191934E-01
        2   -1    0    0  501    0  0.00000000000E+00  0.00000000000E+00  0.13026324954E+04  0.13026324954E+04  0.25500000920E-02 0. -1.
       -2   -1    0    0    0  501  0.00000000000E+00  0.00000000000E+00 -0.19508157986E+04  0.19508157986E+04  0.25500000920E-02 0.  1.
    10030    2    1    2    0    0  0.00000000000E+00  0.00000000000E+00 -0.64818330322E+03  0.32534482939E+04  0.31882258714E+04 0.  0.
        2    1    3    3  502    0  0.13693277410E+04  0.48091694933E+03  0.34883510839E+03  0.14926571969E+04  0.25500000920E-02 0. -1.
       -2    1    3    3    0  502 -0.13693277410E+04 -0.48091694933E+03 -0.99701841161E+03  0.17607910971E+04  0.25500000920E-02 0.  1.
</event>
<event>
 5   0  0.5177039E-07  0.3210465E+04  0.7818609E-02  0.8186059E-01
        1   -1    0    0  501    0  0.00000000000E+00  0.00000000000E+00  0.18036461855E+04  0.18036461855E+04  0.50400001928E-02 0. -1.
       -1   -1    0    0    0  501  0.00000000000E+00  0.00000000000E+00 -0.14286456945E+04  0.14286456945E+04  0.50400001928E-02 0.  1.
    10030    2    1    2    0    0  0.00000000000E+00  0.00000000000E+00  0.37500049098E+03  0.32322918801E+04  0.32104649865E+04 0.  0.
        3    1    3    3  502    0  0.12179865185E+04  0.76363833384E+03  0.90659465169E+03  0.16995730454E+04  0.10100000352E+00 0. -1.
       -3    1    3    3    0  502 -0.12179865185E+04 -0.76363833384E+03 -0.53159416071E+03  0.15327188346E+04  0.10100000352E+00 0.  1.
</event>
<event>
 5   0  0.1538349E-06  0.3196602E+04  0.7818609E-02  0.8189715E-01
       -2   -1    0    0    0  501  0.00000000000E+00  0.00000000000E+00  0.82248995843E+03  0.82248995843E+03  0.25500000920E-02 0. -1.
        2   -1    0    0  501    0  0.00000000000E+00  0.00000000000E+00 -0.31058927870E+04  0.31058927870E+04  0.25500000920E-02 0.  1.
    10030    2    1    2    0    0  0.00000000000E+00  0.00000000000E+00 -0.22834028286E+04  0.39283827455E+04  0.31966017139E+04 0.  0.
        1    1    3    3  502    0 -0.12593348938E+04  0.42166591659E+03 -0.48829321671E+02  0.13289510234E+04  0.50400001928E-02 0. -1.
       -1    1    3    3    0  502  0.12593348938E+04 -0.42166591659E+03 -0.22345735069E+04  0.25994317221E+04  0.50400001928E-02 0.  1.
</event>
<event>
 5   0  0.1508771E-06  0.3201495E+04  0.7818609E-02  0.8188422E-01
        2   -1    0    0  501    0  0.00000000000E+00  0.00000000000E+00  0.26038308984E+04  0.26038308984E+04  0.25500000920E-02 0.  1.
       -2   -1    0    0    0  501  0.00000000000E+00  0.00000000000E+00 -0.98408577762E+03  0.98408577762E+03  0.25500000920E-02 0. -1.
    10030    2    1    2    0    0  0.00000000000E+00  0.00000000000E+00  0.16197451208E+04  0.35879166760E+04  0.32014952472E+04 0.  0.
        4    1    3    3  502    0  0.70647686716E+03 -0.50946227632E+03 -0.69526172116E+03  0.11144737990E+04  0.12699999809E+01 0. -1.
       -4    1    3    3    0  502 -0.70647686716E+03  0.50946227632E+03  0.23150068419E+04  0.24734428770E+04  0.12699999809E+01 0.  1.
</event>
<event>
 5   0  0.5177039E-07  0.3201289E+04  0.7818609E-02  0.8188477E-01
        1   -1    0    0  501    0  0.00000000000E+00  0.00000000000E+00  0.17985910108E+04  0.17985910109E+04  0.50400001928E-02 0.  1.
       -1   -1    0    0    0  501  0.00000000000E+00  0.00000000000E+00 -0.14244836677E+04  0.14244836677E+04  0.50400001928E-02 0. -1.
    10030    2    1    2    0    0  0.00000000000E+00  0.00000000000E+00  0.37410734312E+03  0.32230746786E+04  0.32012894401E+04 0.  0.
        3    1    3    3  502    0 -0.14196844762E+04 -0.61988312193E+03  0.59266548006E+03  0.16586173393E+04  0.10100000352E+00 0.  1.
       -3    1    3    3    0  502  0.14196844762E+04  0.61988312193E+03 -0.21855813694E+03  0.15644573392E+04  0.10100000352E+00 0. -1.
</event>
<event>
 5   0  0.1556396E-06  0.3215062E+04  0.7818609E-02  0.8184851E-01
        2   -1    0    0  501    0  0.00000000000E+00  0.00000000000E+00  0.16428246431E+04  0.16428246431E+04  0.25500000920E-02 0. -1.
       -2   -1    0    0    0  501  0.00000000000E+00  0.00000000000E+00 -0.15729960361E+04  0.15729960361E+04  0.25500000920E-02 0.  1.
    10030    2    1    2    0    0  0.00000000000E+00  0.00000000000E+00  0.69828607011E+02  0.32158206793E+04  0.32150624577E+04 0.  0.
        3    1    3    3  502    0  0.89507313726E+03  0.72611133022E+03  0.11557869234E+04  0.16322490642E+04  0.10100000352E+00 0.  1.
       -3    1    3    3    0  502 -0.89507313726E+03 -0.72611133022E+03 -0.10859583164E+04  0.15835716151E+04  0.10100000352E+00 0. -1.
</event>
<event>
 5   0  0.1538349E-06  0.3200144E+04  0.7818609E-02  0.8188779E-01
        2   -1    0    0  501    0  0.00000000000E+00  0.00000000000E+00  0.11719504108E+04  0.11719504108E+04  0.25500000920E-02 0. -1.
       -2   -1    0    0    0  501  0.00000000000E+00  0.00000000000E+00 -0.21845890640E+04  0.21845890640E+04  0.25500000920E-02 0.  1.
    10030    2    1    2    0    0  0.00000000000E+00  0.00000000000E+00 -0.10126386531E+04  0.33565394748E+04  0.32001437787E+04 0.  0.
        1    1    3    3  502    0  0.14439388760E+04  0.30728103420E+03  0.14097029418E+03  0.14829881104E+04  0.50400001928E-02 0.  1.
       -1    1    3    3    0  502 -0.14439388760E+04 -0.30728103420E+03 -0.11536089473E+04  0.18735513644E+04  0.50400001928E-02 0. -1.
</event>
<event>
 5   0  0.5317728E-07  0.3192877E+04  0.7818609E-02  0.8190701E-01
       -1   -1    0    0    0  501  0.00000000000E+00  0.00000000000E+00  0.18732619382E+04  0.18732619382E+04  0.50400001928E-02 0.  1.
        1   -1    0    0  501    0  0.00000000000E+00  0.00000000000E+00 -0.13605229437E+04  0.13605229437E+04  0.50400001928E-02 0. -1.
    10030    2    1    2    0    0  0.00000000000E+00  0.00000000000E+00  0.51273899452E+03  0.32337848820E+04  0.31928769764E+04 0.  0.
        2    1    3    3  502    0  0.30574661089E+03 -0.13800613639E+04  0.10078771951E+04  0.17360491924E+04  0.25500000920E-02 0.  1.
       -2    1    3    3    0  502 -0.30574661089E+03  0.13800613639E+04 -0.49513820057E+03  0.14977356896E+04  0.25500000920E-02 0. -1.
</event>
<event>
 5   0  0.5281187E-07  0.3128927E+04  0.7818609E-02  0.8207844E-01
       -1   -1    0    0    0  501  0.00000000000E+00  0.00000000000E+00  0.16081096635E+04  0.16081096635E+04  0.50400001928E-02 0.  1.
        1   -1    0    0  501    0  0.00000000000E+00  0.00000000000E+00 -0.15220017718E+04  0.15220017718E+04  0.50400001928E-02 0. -1.
    10030    2    1    2    0    0  0.00000000000E+00  0.00000000000E+00  0.86107891695E+02  0.31301114353E+04  0.31289268173E+04 0.  0.
        5    1    3    3  502    0  0.10537686406E+04 -0.91670687019E+03 -0.66201345577E+03  0.15456596454E+04  0.46999998093E+01 0. -1.
       -5    1    3    3    0  502 -0.10537686406E+04  0.91670687019E+03  0.74812134746E+03  0.15844517898E+04  0.46999998093E+01 0.  1.
</event>
<event>
 5   0  0.5370912E-07  0.3203796E+04  0.7818609E-02  0.8187815E-01
        1   -1    0    0  501    0  0.00000000000E+00  0.00000000000E+00  0.15345120246E+04  0.15345120246E+04  0.50400001928E-02 0.  1.
       -1   -1    0    0    0  501  0.00000000000E+00  0.00000000000E+00 -0.16722431123E+04  0.16722431123E+04  0.50400001928E-02 0. -1.
    10030    2    1    2    0    0  0.00000000000E+00  0.00000000000E+00 -0.13773108772E+03  0.32067551368E+04  0.32037959759E+04 0.  0.
        1    1    3    3  502    0  0.68581384088E+02 -0.91424379110E+03  0.12459428331E+04  0.15469061572E+04  0.50400001928E-02 0.  1.
       -1    1    3    3    0  502 -0.68581384088E+02  0.91424379110E+03 -0.13836739209E+04  0.16598489796E+04  0.50400001928E-02 0. -1.
</event>
<event>
 5   0  0.1572769E-06  0.3223764E+04  0.7818609E-02  0.8182569E-01
        2   -1    0    0  501    0  0.00000000000E+00  0.00000000000E+00  0.16982046078E+04  0.16982046078E+04  0.25500000920E-02 0. -1.
       -2   -1    0    0    0  501  0.00000000000E+00  0.00000000000E+00 -0.15299472141E+04  0.15299472141E+04  0.25500000920E-02 0.  1.
    10030    2    1    2    0    0  0.00000000000E+00  0.00000000000E+00  0.16825739374E+03  0.32281518220E+04  0.32237638926E+04 0.  0.
        5    1    3    3  502    0 -0.10158196483E+03  0.12027724999E+04  0.11538339666E+04  0.16698309779E+04  0.46999998093E+01 0. -1.
       -5    1    3    3    0  502  0.10158196483E+03 -0.12027724999E+04 -0.98557657291E+03  0.15583208441E+04  0.46999998093E+01 0.  1.
</event>
<event>
 5   0  0.1556396E-06  0.3215586E+04  0.7818609E-02  0.8184713E-01
        2   -1    0    0  501    0  0.00000000000E+00  0.00000000000E+00  0.20800556241E+04  0.20800556241E+04  0.25500000920E-02 0. -1.
       -2   -1    0    0    0  501  0.00000000000E+00  0.00000000000E+00 -0.12427541003E+04  0.12427541003E+04  0.25500000920E-02 0.  1.
    10030    2    1    2    0    0  0.00000000000E+00  0.00000000000E+00  0.83730152387E+03  0.33228097244E+04  0.32155855801E+04 0.  0.
        3    1    3    3  502    0 -0.13235806104E+04 -0.79667457977E+03  0.87897282393E+03  0.17773995763E+04  0.10100000352E+00 0. -1.
       -3    1    3    3    0  502  0.13235806104E+04  0.79667457977E+03 -0.41671300057E+02  0.15454101481E+04  0.10100000352E+00 0.  1.
</event>
<event>
 5   0  0.1508771E-06  0.3233129E+04  0.7818609E-02  0.8180122E-01
       -2   -1    0    0    0  501  0.00000000000E+00  0.00000000000E+00  0.15152699749E+04  0.15152699749E+04  0.25500000920E-02 0. -1.
        2   -1    0    0  501    0  0.00000000000E+00  0.00000000000E+00 -0.17246305491E+04  0.17246305491E+04  0.25500000920E-02 0.  1.
    10030    2    1    2    0    0  0.00000000000E+00  0.00000000000E+00 -0.20936057420E+03  0.32399005239E+04  0.32331290656E+04 0.  0.
        4    1    3    3  502    0  0.15205718733E+04  0.11731833922E+03  0.43251789298E+03  0.15852368136E+04  0.12699999809E+01 0. -1.
       -4    1    3    3    0  502 -0.15205718733E+04 -0.11731833922E+03 -0.64187846718E+03  0.16546637103E+04  0.12699999809E+01 0.  1.
</event>
<event>
 5   0  0.1556396E-06  0.3229191E+04  0.7818609E-02  0.8181150E-01
        2   -1    0    0  501    0  0.00000000000E+00  0.00000000000E+00  0.25065704760E+04  0.25065704760E+04  0.25500000920E-02 0.  1.
       -2   -1    0    0    0  501  0.00000000000E+00  0.00000000000E+00 -0.10400341062E+04  0.10400341062E+04  0.25500000920E-02 0. -1.
    10030    2    1    2    0    0  0.00000000000E+00  0.00000000000E+00  0.14665363698E+04  0.35466045821E+04  0.32291910965E+04 0.  0.
        3    1    3    3  502    0 -0.14128119958E+04 -0.47119936244E+03  0.48393199092E+02  0.14901035154E+04  0.10100000352E+00 0. -1.
       -3    1    3    3    0  502  0.14128119958E+04  0.47119936244E+03  0.14181431707E+04  0.20565010667E+04  0.10100000352E+00 0.  1.
</event>
<event>
 5   0  0.5281187E-07  0.3195732E+04  0.7818609E-02  0.8189945E-01
       -1   -1    0    0    0  501  0.00000000000E+00  0.00000000000E+00  0.15575643072E+04  0.15575643072E+04  0.50400001928E-02 0. -1.
        1   -1    0    0  501    0  0.00000000000E+00  0.00000000000E+00 -0.16392109040E+04  0.16392109040E+04  0.50400001928E-02 0.  1.
    10030    2    1    2    0    0  0.00000000000E+00  0.00000000000E+00 -0.81646596826E+02  0.31967752112E+04  0.31957324018E+04 0.  0.
        5    1    3    3  502    0  0.34561682889E+03 -0.60353091109E+03  0.13982057329E+04  0.15616343729E+04  0.46999998093E+01 0. -1.
       -5    1    3    3    0  502 -0.34561682889E+03  0.60353091109E+03 -0.14798523298E+04  0.16351408383E+04  0.46999998093E+01 0.  1.
</event>
<event>
 5   0  0.5233813E-07  0.3183400E+04  0.7818609E-02  0.8193215E-01
        1   -1    0    0  501    0  0.00000000000E+00  0.00000000000E+00  0.11543428085E+04  0.11543428085E+04  0.50400001928E-02 0. -1.
       -1   -1    0    0    0  501  0.00000000000E+00  0.00000000000E+00 -0.21947635011E+04  0.21947635011E+04  0.50400001928E-02 0.  1.
    10030    2    1    2    0    0  0.00000000000E+00  0.00000000000E+00 -0.10404206926E+04  0.33491063096E+04  0.31834003605E+04 0.  0.
        4    1    3    3  502    0  0.12465471526E+04 -0.86824003969E+03 -0.20305428708E+02  0.15192545848E+04  0.12699999809E+01 0. -1.
       -4    1    3    3    0  502 -0.12465471526E+04  0.86824003969E+03 -0.10201152639E+04  0.18298517248E+04  0.12699999809E+01 0.  1.
</event>
<event>
 5   0  0.5281187E-07  0.3129965E+04  0.7818609E-02  0.8207562E-01
       -1   -1    0    0    0  501  0.00000000000E+00  0.00000000000E+00  0.12125267763E+04  0.12125267763E+04  0.50400001928E-02 0. -1.
        1   -1    0    0  501    0  0.00000000000E+00  0.00000000000E+00 -0.20198891275E+04  0.20198891275E+04  0.50400001928E-02 0.  1.
    10030    2    1    2    0    0  0.00000000000E+00  0.00000000000E+00 -0.80736235121E+03  0.32324159038E+04  0.31299646339E+04 0.  0.
        5    1    3    3  502    0 -0.11773925108E+04  0.71737295985E+03 -0.11683708638E+04  0.18072049285E+04  0.46999998093E+01 0.  1.
       -5    1    3    3    0  502  0.11773925108E+04 -0.71737295985E+03  0.36100851261E+03  0.14252109754E+04  0.46999998093E+01 0. -1.
</event>
<event>
 5   0  0.5233813E-07  0.3210671E+04  0.7818609E-02  0.8186005E-01
        1   -1    0    0  501    0  0.00000000000E+00  0.00000000000E+00  0.98716017104E+03  0.98716017105E+03  0.50400001928E-02 0. -1.
       -1   -1    0    0    0  501  0.00000000000E+00  0.00000000000E+00 -0.26106221803E+04  0.26106221803E+04  0.50400001928E-02 0.  1.
    10030    2    1    2    0    0  0.00000000000E+00  0.00000000000E+00 -0.16234620092E+04  0.35977823513E+04  0.32106711062E+04 0.  0.
        4    1    3    3  502    0  0.82478601453E+02 -0.71951587224E+03 -0.24171584425E+04  0.25233236731E+04  0.12699999809E+01 0.  1.
       -4    1    3    3    0  502 -0.82478601453E+02  0.71951587224E+03  0.79369643328E+03  0.10744586782E+04  0.12699999809E+01 0. -1.
</event>
<event>
 5   0  0.1556396E-06  0.3196636E+04  0.7818609E-02  0.8189706E-01
        2   -1    0    0  501    0  0.00000000000E+00  0.00000000000E+00  0.24328963501E+04  0.24328963501E+04  0.25500000920E-02 0.  1.
       -2   -1    0    0    0  501  0.00000000000E+00  0.00000000000E+00 -0.10500325941E+04  0.10500325941E+04  0.25500000920E-02 0. -1.
    10030    2    1    2    0    0  0.00000000000E+00  0.00000000000E+00  0.13828637560E+04  0.34829289442E+04  0.31966360229E+04 0.  0.
        3    1    3    3  502    0 -0.12761518481E+03 -0.59958413504E+03 -0.91685480423E+03  0.11029095668E+04  0.10100000352E+00 0. -1.
       -3    1    3    3    0  502  0.12761518481E+03  0.59958413504E+03  0.22997185602E+04  0.23800193774E+04  0.10100000352E+00 0.  1.
</event>
<event>
 5   0  0.5177039E-07  0.3216084E+04  0.7818609E-02  0.8184582E-01
        1   -1    0    0  501    0  0.00000000000E+00  0.00000000000E+00  0.17660215282E+04  0.17660215283E+04  0.50400001928E-02 0. -1.
       -1   -1    0    0    0  501  0.00000000000E+00  0.00000000000E+00 -0.14641949619E+04  0.14641949619E+04  0.50400001928E-02 0.  1.
    10030    2    1    2    0    0  0.00000000000E+00  0.00000000000E+00  0.30182656635E+03  0.32302164902E+04  0.32160844667E+04 0.  0.
        3    1    3    3  502    0  0.64067014282E+03  0.43857797924E+03 -0.12634616416E+04  0.14829511812E+04  0.10100000352E+00 0.  1.
       -3    1    3    3    0  502 -0.64067014282E+03 -0.43857797924E+03  0.15652882079E+04  0.17472653090E+04  0.10100000352E+00 0. -1.
</event>
<event>
 5   0  0.1572769E-06  0.3177639E+04  0.7818609E-02  0.8194748E-01
       -2   -1    0    0    0  501  0.00000000000E+00  0.00000000000E+00  0.86839108758E+03  0.86839108758E+03  0.25500000920E-02 0.  1.
        2   -1    0    0  501    0  0.00000000000E+00  0.00000000000E+00 -0.29069251760E+04  0.29069251760E+04  0.25500000920E-02 0. -1.
    10030    2    1    2    0    0  0.00000000000E+00  0.00000000000E+00 -0.20385340884E+04  0.37753162635E+04  0.31776393219E+04 0.  0.
        5    1    3    3  502    0 -0.30224665483E+03  0.58131919989E+02 -0.28711585651E+04  0.28876125011E+04  0.46999998093E+01 0. -1.
       -5    1    3    3    0  502  0.30224665483E+03 -0.58131919989E+02  0.83262447677E+03  0.88770376240E+03  0.46999998093E+01 0.  1.
</event>
<event>
 5   0  0.1556396E-06  0.3203801E+04  0.7818609E-02  0.8187814E-01
       -2   -1    0    0    0  501  0.00000000000E+00  0.00000000000E+00  0.13016666022E+04  0.13016666022E+04  0.25500000920E-02 0. -1.
        2   -1    0    0  501    0  0.00000000000E+00  0.00000000000E+00 -0.19713846616E+04  0.19713846616E+04  0.25500000920E-02 0.  1.
    10030    2    1    2    0    0  0.00000000000E+00  0.00000000000E+00 -0.66971805942E+03  0.32730512638E+04  0.32038012261E+04 0.  0.
        3    1    3    3  502    0 -0.41832468342E+03  0.17535289959E+03 -0.19044072205E+04  0.19576800178E+04  0.10100000352E+00 0.  1.
       -3    1    3    3    0  502  0.41832468342E+03 -0.17535289959E+03  0.12346891611E+04  0.13153712460E+04  0.10100000352E+00 0. -1.
</event>
<event>
 5   0  0.5177039E-07  0.3183307E+04  0.7818609E-02  0.8193240E-01
        1   -1    0    0  501    0  0.00000000000E+00  0.00000000000E+00  0.13532582769E+04  0.13532582769E+04  0.50400001928E-02 0.  1.
       -1   -1    0    0    0  501  0.00000000000E+00  0.00000000000E+00 -0.18720458290E+04  0.18720458290E+04  0.50400001928E-02 0. -1.
    10030    2    1    2    0    0  0.00000000000E+00  0.00000000000E+00 -0.51878755208E+03  0.32253041059E+04  0.31833074076E+04 0.  0.
        3    1    3    3  502    0  0.15904219614E+04 -0.61550743404E+02 -0.27099000301E+03  0.16145172967E+04  0.10100000352E+00 0.  1.
       -3    1    3    3    0  502 -0.15904219614E+04  0.61550743404E+02 -0.24779754907E+03  0.16107868092E+04  0.10100000352E+00 0. -1.
</event>
<event>
 5   0  0.1508771E-06  0.3180325E+04  0.7818609E-02  0.8194033E-01
       -2   -1    0    0    0  501  0.00000000000E+00  0.00000000000E+00  0.19444155814E+04  0.19444155814E+04  0.25500000920E-02 0.  1.
        2   -1    0    0  501    0  0.00000000000E+00  0.00000000000E+00 -0.13004508571E+04  0.13004508571E+04  0.25500000920E-02 0. -1.
    10030    2    1    2    0    0  0.00000000000E+00  0.00000000000E+00  0.64396472435E+03  0.32448664385E+04  0.31803250837E+04 0.  0.
        4    1    3    3  502    0  0.37462580867E+02 -0.14582388605E+04 -0.32391389597E+03  0.14942509308E+04  0.12699999809E+01 0. -1.
       -4    1    3    3    0  502 -0.37462580867E+02  0.14582388605E+04  0.96787862032E+03  0.17506155077E+04  0.12699999809E+01 0.  1.
</event>
<event>
 5   0  0.1572769E-06  0.3212545E+04  0.7818609E-02  0.8185512E-01
        2   -1    0    0  501    0  0.00000000000E+00  0.00000000000E+00  0.12640735963E+04  0.12640735963E+04  0.25500000920E-02 0.  1.
       -2   -1    0    0    0  501  0.00000000000E+00  0.00000000000E+00 -0.20411087739E+04  0.20411087739E+04  0.25500000920E-02 0. -1.
    10030    2    1    2    0    0  0.00000000000E+00  0.00000000000E+00 -0.77703517761E+03  0.33051823702E+04  0.32125452266E+04 0.  0.
        5    1    3    3  502    0  0.11896274058E+04  0.70799870876E+03  0.44959810657E+03  0.14555535317E+04  0.46999998093E+01 0.  1.
       -5    1    3    3    0  502 -0.11896274058E+04 -0.70799870876E+03 -0.12266332842E+04  0.18496288385E+04  0.46999998093E+01 0. -1.
</event>
<event>
 5   0  0.5317728E-07  0.3243004E+04  0.7818609E-02  0.8177551E-01
       -1   -1    0    0    0  501  0.00000000000E+00  0.00000000000E+00  0.14192579240E+04  0.14192579240E+04  0.50400001928E-02 0.  1.
        1   -1    0    0  501    0  0.00000000000E+00  0.00000000000E+00 -0.18525661141E+04  0.18525661141E+04  0.50400001928E-02 0. -1.
    10030    2    1    2    0    0  0.00000000000E+00  0.00000000000E+00 -0.43330819007E+03  0.32718240381E+04  0.32430042474E+04 0.  0.
        2    1    3    3  502    0  0.75556939528E+03  0.29510385115E+03 -0.16331604711E+04  0.18235088479E+04  0.25500000920E-02 0. -1.
       -2    1    3    3    0  502 -0.75556939528E+03 -0.29510385115E+03  0.11998522810E+04  0.14483151902E+04  0.25500000920E-02 0.  1.
</event>
<event>
 5   0  0.5233813E-07  0.3205019E+04  0.7818609E-02  0.8187493E-01
       -1   -1    0    0    0  501  0.00000000000E+00  0.00000000000E+00  0.21772294772E+04  0.21772294772E+04  0.50400001928E-02 0. -1.
        1   -1    0    0  501    0  0.00000000000E+00  0.00000000000E+00 -0.11794975080E+04  0.11794975080E+04  0.50400001928E-02 0.  1.
    10030    2    1    2    0    0  0.00000000000E+00  0.00000000000E+00  0.99773196914E+03  0.33567269852E+04  0.32050190282E+04 0.  0.
        4    1    3    3  502    0 -0.67609849348E+03 -0.16532817827E+03 -0.10129251898E+04  0.12290083940E+04  0.12699999809E+01 0.  1.
       -4    1    3    3    0  502  0.67609849348E+03  0.16532817827E+03  0.20106571590E+04  0.21277185912E+04  0.12699999809E+01 0. -1.
</event>
<event>
 5   0  0.5177039E-07  0.3203181E+04  0.7818609E-02  0.8187978E-01
        1   -1    0    0  501    0  0.00000000000E+00  0.00000000000E+00  0.15262013452E+04  0.15262013452E+04  0.50400001928E-02 0.  1.
       -1   -1    0    0    0  501  0.00000000000E+00  0.00000000000E+00 -0.16807031414E+04  0.16807031414E+04  0.50400001928E-02 0. -1.
    10030    2    1    2    0    0  0.00000000000E+00  0.00000000000E+00 -0.15450179619E+03  0.32069044866E+04  0.32031805415E+04 0.  0.
        3    1    3    3  502    0  0.95998865623E+03  0.37561372637E+03  0.11499096051E+04  0.15443302761E+04  0.10100000352E+00 0.  1.
       -3    1    3    3    0  502 -0.95998865623E+03 -0.37561372637E+03 -0.13044114013E+04  0.16625742105E+04  0.10100000352E+00 0. -1.
</event>
<event>
 5   0  0.5281187E-07  0.3209183E+04  0.7818609E-02  0.8186396E-01
        1   -1    0    0  501    0  0.00000000000E+00  0.00000000000E+00  0.20192898380E+04  0.20192898380E+04  0.50400001928E-02 0.  1.
       -1   -1    0    0    0  501  0.00000000000E+00  0.00000000000E+00 -0.12750588090E+04  0.12750588090E+04  0.50400001928E-02 0. -1.
    10030    2    1    2    0    0  0.00000000000E+00  0.00000000000E+00  0.74423102895E+03  0.32943486470E+04  0.32091826348E+04 0.  0.
        5    1    3    3  502    0  0.94271867873E+03 -0.37165552562E+03 -0.90502546960E+03  0.13586535716E+04  0.46999998093E+01 0. -1.
       -5    1    3    3    0  502 -0.94271867873E+03  0.37165552562E+03  0.16492564985E+04  0.19356950754E+04  0.46999998093E+01 0.  1.
</event>
<event>
 5   0  0.1538349E-06  0.3183099E+04  0.7818609E-02  0.8193295E-01
       -2   -1    0    0    0  501  0.00000000000E+00  0.00000000000E+00  0.20401760332E+04  0.20401760332E+04  0.25500000920E-02 0.  1.
        2   -1    0    0  501    0  0.00000000000E+00  0.00000000000E+00 -0.12415741836E+04  0.12415741836E+04  0.25500000920E-02 0. -1.
    10030    2    1    2    0    0  0.00000000000E+00  0.00000000000E+00  0.79860184960E+03  0.32817502168E+04  0.31830990515E+04 0.  0.
        1    1    3    3  502    0 -0.90588777846E+03 -0.64023679227E+03  0.15759399482E+04  0.19272058887E+04  0.50400001928E-02 0.  1.
       -1    1    3    3    0  502  0.90588777846E+03  0.64023679227E+03 -0.77733809855E+03  0.13545443281E+04  0.50400001928E-02 0. -1.
</event>
<event>
 5   0  0.5370912E-07  0.3195896E+04  0.7818609E-02  0.8189902E-01
        1   -1    0    0  501    0  0.00000000000E+00  0.00000000000E+00  0.10802109714E+04  0.10802109714E+04  0.50400001928E-02 0. -1.
       -1   -1    0    0    0  501  0.00000000000E+00  0.00000000000E+00 -0.23638319774E+04  0.23638319774E+04  0.50400001928E-02 0.  1.
    10030    2    1    2    0    0  0.00000000000E+00  0.00000000000E+00 -0.12836210059E+04  0.34440429488E+04  0.31958956407E+04 0.  0.
        1    1    3    3  502    0  0.57712958358E+03 -0.14899817211E+04 -0.62274040563E+03  0.17149139041E+04  0.50400001928E-02 0. -1.
       -1    1    3    3    0  502 -0.57712958358E+03  0.14899817211E+04 -0.66088060032E+03  0.17291290448E+04  0.50400001928E-02 0.  1.
</event>
<event>
 5   0  0.1538349E-06  0.3217878E+04  0.7818609E-02  0.8184112E-01
       -2   -1    0    0    0  501  0.00000000000E+00  0.00000000000E+00  0.17657702680E+04  0.17657702680E+04  0.25500000920E-02 0.  1.
        2   -1    0    0  501    0  0.00000000000E+00  0.00000000000E+00 -0.14660369781E+04  0.14660369781E+04  0.25500000920E-02 0. -1.
    10030    2    1    2    0    0  0.00000000000E+00  0.00000000000E+00  0.29973328993E+03  0.32318072461E+04  0.32178778769E+04 0.  0.
        1    1    3    3  502    0  0.25977618225E+03 -0.34778775185E+03 -0.14061120136E+04  0.14715947064E+04  0.50400001928E-02 0. -1.
       -1    1    3    3    0  502 -0.25977618225E+03  0.34778775185E+03  0.17058453035E+04  0.17602125397E+04  0.50400001928E-02 0.  1.
</event>
<event>
 5   0  0.5177039E-07  0.3223671E+04  0.7818609E-02  0.8182593E-01
       -1   -1    0    0    0  501  0.00000000000E+00  0.00000000000E+00  0.15669956864E+04  0.15669956864E+04  0.50400001928E-02 0.  1.
        1   -1    0    0  501    0  0.00000000000E+00  0.00000000000E+00 -0.16579586493E+04  0.16579586493E+04  0.50400001928E-02 0. -1.
    10030    2    1    2    0    0  0.00000000000E+00  0.00000000000E+00 -0.90962962893E+02  0.32249543358E+04  0.32236712312E+04 0.  0.
        3    1    3    3  502    0  0.34559230831E+03 -0.14217350928E+04  0.63098979688E+03  0.15933966398E+04  0.10100000352E+00 0.  1.
       -3    1    3    3    0  502 -0.34559230831E+03  0.14217350928E+04 -0.72195275978E+03  0.16315576960E+04  0.10100000352E+00 0. -1.
</event>
<event>
 5   0  0.5317728E-07  0.3168208E+04  0.7818609E-02  0.8197264E-01
       -1   -1    0    0    0  501  0.00000000000E+00  0.00000000000E+00  0.12548902616E+04  0.12548902616E+04  0.50400001928E-02 0.  1.
        1   -1    0    0  501    0  0.00000000000E+00  0.00000000000E+00 -0.19996850463E+04  0.19996850463E+04  0.50400001928E-02 0. -1.
    10030    2    1    2    0    0  0.00000000000E+00  0.00000000000E+00 -0.74479478466E+03  0.32545753079E+04  0.31682078789E+04 0.  0.
        2    1    3    3  502    0  0.14813793979E+04 -0.12680411234E+02 -0.94870762962E+03  0.17591736355E+04  0.25500000920E-02 0. -1.
       -2    1    3    3    0  502 -0.14813793979E+04  0.12680411234E+02  0.20391284496E+03  0.14954016724E+04  0.25500000920E-02 0.  1.
</event>
<event>
 5   0  0.5281187E-07  0.3220200E+04  0.7818609E-02  0.8183503E-01
        1   -1    0    0  501    0  0.00000000000E+00  0.00000000000E+00  0.16338634601E+04  0.16338634601E+04  0.50400001928E-02 0.  1.
       -1   -1    0    0    0  501  0.00000000000E+00  0.00000000000E+00 -0.15866819672E+04  0.15866819672E+04  0.50400001928E-02 0. -1.
    10030    2    1    2    0    0  0.00000000000E+00  0.00000000000E+00  0.47181492882E+02  0.32205454273E+04  0.32201998007E+04 0.  0.
        5    1    3    3  502    0 -0.57060332165E+03 -0.20066082929E+03 -0.14687311557E+04  0.15884099650E+04  0.46999998093E+01 0. -1.
       -5    1    3    3    0  502  0.57060332165E+03  0.20066082929E+03  0.15159126486E+04  0.16321354623E+04  0.46999998093E+01 0.  1.
</event>
<event>
 5   0  0.1572769E-06  0.3183901E+04  0.7818609E-02  0.8193082E-01
       -2   -1    0    0    0  501  0.00000000000E+00  0.00000000000E+00  0.11119080428E+04  0.11119080428E+04  0.25500000920E-02 0.  1.
        2   -1    0    0  501    0  0.00000000000E+00  0.00000000000E+00 -0.22792403605E+04  0.22792403605E+04  0.25500000920E-02 0. -1.
    10030    2    1    2    0    0  0.00000000000E+00  0.00000000000E+00 -0.11673323177E+04  0.33911484033E+04  0.31839005564E+04 0.  0.
        5    1    3    3  502    0 -0.76458809222E+02  0.24226207014E+03 -0.22575044982E+04  0.22717582419E+04  0.46999998093E+01 0. -1.
       -5    1    3    3    0  502  0.76458809222E+02 -0.24226207014E+03  0.10901721805E+04  0.11193901614E+04  0.46999998093E+01 0.  1.
</event>
<event>
 5   0  0.1572769E-06  0.3185121E+04  0.7818609E-02  0.8192758E-01
        2   -1    0    0  501    0  0.00000000000E+00  0.00000000000E+00  0.19099035352E+04  0.19099035352E+04  0.25500000920E-02 0. -1.
       -2   -1    0    0    0  501  0.00000000000E+00  0.00000000000E+00 -0.13279456915E+04  0.13279456916E+04  0.25500000920E-02 0.  1.
    10030    2    1    2    0    0  0.00000000000E+00  0.00000000000E+00  0.58195784361E+03  0.32378492267E+04  0.31851205131E+04 0.  0.
        5    1    3    3  502    0  0.76181609914E+03 -0.59669596120E+01  0.17126395582E+04  0.18744481107E+04  0.46999998093E+01 0. -1.
       -5    1    3    3    0  502 -0.76181609914E+03  0.59669596120E+01 -0.11306817146E+04  0.13634011160E+04  0.46999998093E+01 0.  1.
</event>
<event>
 5   0  0.1572769E-06  0.3180232E+04  0.7818609E-02  0.8194058E-01
        2   -1    0    0  501    0  0.00000000000E+00  0.00000000000E+00  0.20033314581E+04  0.20033314581E+04  0.25500000920E-02 0.  1.
       -2   -1    0    0    0  501  0.00000000000E+00  0.00000000000E+00 -0.12621318045E+04  0.12621318045E+04  0.25500000920E-02 0. -1.
    10030    2    1    2    0    0  0.00000000000E+00  0.00000000000E+00  0.74119965361E+03  0.32654632627E+04  0.31802316572E+04 0.  0.
        5    1    3    3  502    0 -0.95331703662E+03  0.34524066776E+03  0.16283535694E+04  0.19182184255E+04  0.46999998093E+01 0.  1.
       -5    1    3    3    0  502  0.95331703662E+03 -0.34524066776E+03 -0.88715391578E+03  0.13472448372E+04  0.46999998093E+01 0. -1.
</event>
<event>
 5   0  0.5233813E-07  0.3240565E+04  0.7818609E-02  0.8178185E-01
       -1   -1    0    0    0  501  0.00000000000E+00  0.00000000000E+00  0.12069387011E+04  0.12069387011E+04  0.50400001928E-02 0. -1.
        1   -1    0    0  501    0  0.00000000000E+00  0.00000000000E+00 -0.21751853735E+04  0.21751853735E+04  0.50400001928E-02 0.  1.
    10030    2    1    2    0    0  0.00000000000E+00  0.00000000000E+00 -0.96824667241E+03  0.33821240746E+04  0.32405650182E+04 0.  0.
        4    1    3    3  502    0 -0.16025560595E+04 -0.16402493721E+03 -0.30267935901E+03  0.16391176014E+04  0.12699999809E+01 0. -1.
       -4    1    3    3    0  502  0.16025560595E+04  0.16402493721E+03 -0.66556731340E+03  0.17430064732E+04  0.12699999809E+01 0.  1.
</event>
<event>
 5   0  0.1493485E-06  0.3207453E+04  0.7818609E-02  0.8186852E-01
       -2   -1    0    0    0  501  0.00000000000E+00  0.00000000000E+00  0.17807273190E+04  0.17807273190E+04  0.25500000920E-02 0. -1.
        2   -1    0    0  501    0  0.00000000000E+00  0.00000000000E+00 -0.14443190405E+04  0.14443190405E+04  0.25500000920E-02 0.  1.
    10030    2    1    2    0    0  0.00000000000E+00  0.00000000000E+00  0.33640827850E+03  0.32250463595E+04  0.32074528042E+04 0.  0.
        2    1    3    3  502    0 -0.77708537941E+03 -0.69904807489E+03 -0.10547769407E+04  0.14849526230E+04  0.25500000920E-02 0.  1.
       -2    1    3    3    0  502  0.77708537941E+03  0.69904807489E+03  0.13911852192E+04  0.17400937366E+04  0.25500000920E-02 0. -1.
</event>
<event>
 5   0  0.1556396E-06  0.3189125E+04  0.7818609E-02  0.8191695E-01
        2   -1    0    0  501    0  0.00000000000E+00  0.00000000000E+00  0.18326680075E+04  0.18326680075E+04  0.25500000920E-02 0.  1.
       -2   -1    0    0    0  501  0.00000000000E+00  0.00000000000E+00 -0.13873921892E+04  0.13873921892E+04  0.25500000920E-02 0. -1.
    10030    2    1    2    0    0  0.00000000000E+00  0.00000000000E+00  0.44527581826E+03  0.32200601967E+04  0.31891248198E+04 0.  0.
        3    1    3    3  502    0  0.10561594818E+04 -0.64034759421E+03  0.12409402194E+04  0.17508428058E+04  0.10100000352E+00 0.  1.
       -3    1    3    3    0  502 -0.10561594818E+04  0.64034759421E+03 -0.79566440117E+03  0.14692173909E+04  0.10100000352E+00 0. -1.
</event>
<event>
 5   0  0.5370912E-07  0.3188140E+04  0.7818609E-02  0.8191956E-01
       -1   -1    0    0    0  501  0.00000000000E+00  0.00000000000E+00  0.18950960560E+04  0.18950960560E+04  0.50400001928E-02 0.  1.
        1   -1    0    0  501    0  0.00000000000E+00  0.00000000000E+00 -0.13408604315E+04  0.13408604315E+04  0.50400001928E-02 0. -1.
    10030    2    1    2    0    0  0.00000000000E+00  0.00000000000E+00  0.55423562452E+03  0.32359564875E+04  0.31881400944E+04 0.  0.
        1    1    3    3  502    0 -0.14412713524E+04  0.66519276911E+03  0.12893230034E+03  0.15925978995E+04  0.50400001928E-02 0. -1.
       -1    1    3    3    0  502  0.14412713524E+04 -0.66519276911E+03  0.42530332418E+03  0.16433585880E+04  0.50400001928E-02 0.  1.
</event>
<event>
 5   0  0.1556396E-06  0.3007584E+04  0.7818609E-02  0.8241568E-01
       -2   -1    0    0    0  501  0.00000000000E+00  0.00000000000E+00  0.98897926610E+03  0.98897926610E+03  0.25500000920E-02 0.  1.
        2   -1    0    0  501    0  0.00000000000E+00  0.00000000000E+00 -0.22865910324E+04  0.22865910324E+04  0.25500000920E-02 0. -1.
    10030    2    1    2    0    0  0.00000000000E+00  0.00000000000E+00 -0.12976117663E+04  0.32755702985E+04  0.30075844933E+04 0.  0.
        3    1    3    3  502    0  0.38319518966E+03  0.51497097830E+03 -0.21298892952E+04  0.22245138979E+04  0.10100000352E+00 0. -1.
       -3    1    3    3    0  502 -0.38319518966E+03 -0.51497097830E+03  0.83227752893E+03  0.10510564006E+04  0.10100000352E+00 0.  1.
</event>
<event>
 5   0  0.5233813E-07  0.3143954E+04  0.7818609E-02  0.8203778E-01
       -1   -1    0    0    0  501  0.00000000000E+00  0.00000000000E+00  0.13923596737E+04  0.13923596737E+04  0.50400001928E-02 0. -1.
        1   -1    0    0  501    0  0.00000000000E+00  0.00000000000E+00 -0.17747649860E+04  0.17747649860E+04  0.50400001928E-02 0.  1.
    10030    2    1    2    0    0  0.00000000000E+00  0.00000000000E+00 -0.38240531226E+03  0.31671246597E+04  0.31439536872E+04 0.  0.
        4    1    3    3  502    0  0.37317771771E+03  0.14003113290E+04 -0.80476968893E+03  0.16576457077E+04  0.12699999809E+01 0. -1.
       -4    1    3    3    0  502 -0.37317771771E+03 -0.14003113290E+04  0.42236437667E+03  0.15094789521E+04  0.12699999809E+01 0.  1.
</event>
<event>
 5   0  0.1572769E-06  0.3183577E+04  0.7818609E-02  0.8193168E-01
        2   -1    0    0  501    0  0.00000000000E+00  0.00000000000E+00  0.16010104624E+04  0.16010104624E+04  0.25500000920E-02 0. -1.
       -2   -1    0    0    0  501  0.00000000000E+00  0.00000000000E+00 -0.15826193156E+04  0.15826193156E+04  0.25500000920E-02 0.  1.
    10030    2    1    2    0    0  0.00000000000E+00  0.00000000000E+00  0.18391146818E+02  0.31836297781E+04  0.31835766568E+04 0.  0.
        5    1    3    3  502    0 -0.39069659069E+03 -0.50778060166E+03 -0.14479776785E+04  0.15833971115E+04  0.46999998093E+01 0.  1.
       -5    1    3    3    0  502  0.39069659069E+03  0.50778060166E+03  0.14663688253E+04  0.16002326666E+04  0.46999998093E+01 0. -1.
</event>
<event>
 5   0  0.5177039E-07  0.3205372E+04  0.7818609E-02  0.8187400E-01
       -1   -1    0    0    0  501  0.00000000000E+00  0.00000000000E+00  0.16484783492E+04  0.16484783492E+04  0.50400001928E-02 0.  1.
        1   -1    0    0  501    0  0.00000000000E+00  0.00000000000E+00 -0.15581653460E+04  0.15581653460E+04  0.50400001928E-02 0. -1.
    10030    2    1    2    0    0  0.00000000000E+00  0.00000000000E+00  0.90313003241E+02  0.32066436952E+04  0.32053716398E+04 0.  0.
        3    1    3    3  502    0  0.94534167331E+03  0.18530277438E+03 -0.12362084858E+04  0.15672330484E+04  0.10100000352E+00 0. -1.
       -3    1    3    3    0  502 -0.94534167331E+03 -0.18530277438E+03  0.13265214891E+04  0.16394106467E+04  0.10100000352E+00 0.  1.
</event>
<event>
 5   0  0.1493485E-06  0.3203602E+04  0.7818609E-02  0.8187867E-01
       -2   -1    0    0    0  501  0.00000000000E+00  0.00000000000E+00  0.19715460575E+04  0.19715460575E+04  0.25500000920E-02 0. -1.
        2   -1    0    0  501    0  0.00000000000E+00  0.00000000000E+00 -0.13013981009E+04  0.13013981009E+04  0.25500000920E-02 0.  1.
    10030    2    1    2    0    0  0.00000000000E+00  0.00000000000E+00  0.67014795664E+03  0.32729441584E+04  0.32036019073E+04 0.  0.
        2    1    3    3  502    0 -0.15694167640E+04 -0.42965456252E+02  0.10629213203E+02  0.15700407605E+04  0.25500000920E-02 0. -1.
       -2    1    3    3    0  502  0.15694167640E+04  0.42965456252E+02  0.65951874344E+03  0.17029033979E+04  0.25500000920E-02 0.  1.
</event>
<event>
 5   0  0.5281187E-07  0.3194210E+04  0.7818609E-02  0.8190348E-01
        1   -1    0    0  501    0  0.00000000000E+00  0.00000000000E+00  0.23424404207E+04  0.23424404207E+04  0.50400001928E-02 0. -1.
       -1   -1    0    0    0  501  0.00000000000E+00  0.00000000000E+00 -0.10889262543E+04  0.10889262543E+04  0.50400001928E-02 0.  1.
    10030    2    1    2    0    0  0.00000000000E+00  0.00000000000E+00  0.12535141664E+04  0.34313666750E+04  0.31942103082E+04 0.  0.
        5    1    3    3  502    0 -0.12914495730E+04  0.19198633405E+03 -0.36132826302E+03  0.13547254171E+04  0.46999998093E+01 0.  1.
       -5    1    3    3    0  502  0.12914495730E+04 -0.19198633405E+03  0.16148424294E+04  0.20766412579E+04  0.46999998093E+01 0. -1.
</event>
<event>
 5   0  0.5317728E-07  0.3022771E+04  0.7818609E-02  0.8237258E-01
       -1   -1    0    0    0  501  0.00000000000E+00  0.00000000000E+00  0.17164955161E+04  0.17164955161E+04  0.50400001928E-02 0. -1.
        1   -1    0    0  501    0  0.00000000000E+00  0.00000000000E+00 -0.13307851621E+04  0.13307851621E+04  0.50400001928E-02 0.  1.
    10030    2    1    2    0    0  0.00000000000E+00  0.00000000000E+00  0.38571035394E+03  0.30472806782E+04  0.30227714195E+04 0.  0.
        2    1    3    3  502    0  0.62498300003E+03 -0.10654219085E+04  0.10708700691E+04  0.16347753052E+04  0.25500000920E-02 0. -1.
       -2    1    3    3    0  502 -0.62498300003E+03  0.10654219085E+04 -0.68515971519E+03  0.14125053730E+04  0.25500000920E-02 0.  1.
</event>
<event>
 5   0  0.5281187E-07  0.2882406E+04  0.7818609E-02  0.8278132E-01
        1   -1    0    0  501    0  0.00000000000E+00  0.00000000000E+00  0.28898545385E+04  0.28898545385E+04  0.50400001928E-02 0. -1.
       -1   -1    0    0    0  501  0.00000000000E+00  0.00000000000E+00 -0.71874416479E+03  0.71874416481E+03  0.50400001928E-02 0.  1.
    10030    2    1    2    0    0  0.00000000000E+00  0.00000000000E+00  0.21711103737E+04  0.36085987033E+04  0.28824059996E+04 0.  0.
        5    1    3    3  502    0  0.10163893621E+04  0.24656002567E+03 -0.15582678510E+03  0.10574229327E+04  0.46999998093E+01 0.  1.
       -5    1    3    3    0  502 -0.10163893621E+04 -0.24656002567E+03  0.23269371588E+04  0.25511757706E+04  0.46999998093E+01 0. -1.
</event>
<event>
 5   0  0.1572769E-06  0.3199839E+04  0.7818609E-02  0.8188860E-01
       -2   -1    0    0    0  501  0.00000000000E+00  0.00000000000E+00  0.12909847972E+04  0.12909847972E+04  0.25500000920E-02 0. -1.
        2   -1    0    0  501    0  0.00000000000E+00  0.00000000000E+00 -0.19827822112E+04  0.19827822112E+04  0.25500000920E-02 0.  1.
    10030    2    1    2    0    0  0.00000000000E+00  0.00000000000E+00 -0.69179741398E+03  0.32737670084E+04  0.31998385527E+04 0.  0.
        5    1    3    3  502    0  0.18257022214E+03  0.54139782304E+03  0.11830429429E+04  0.13137945743E+04  0.46999998093E+01 0. -1.
       -5    1    3    3    0  502 -0.18257022214E+03 -0.54139782304E+03 -0.18748403568E+04  0.19599724341E+04  0.46999998093E+01 0.  1.
</event>
<event>
 5   0  0.5281187E-07  0.3197178E+04  0.7818609E-02  0.8189563E-01
       -1   -1    0    0    0  501  0.00000000000E+00  0.00000000000E+00  0.90176237868E+03  0.90176237870E+03  0.50400001928E-02 0. -1.
        1   -1    0    0  501    0  0.00000000000E+00  0.00000000000E+00 -0.28338800976E+04  0.28338800976E+04  0.50400001928E-02 0.  1.
    10030    2    1    2    0    0  0.00000000000E+00  0.00000000000E+00 -0.19321177189E+04  0.37356424763E+04  0.31971777916E+04 0.  0.
        5    1    3    3  502    0 -0.56225038623E+03  0.11758807729E+04  0.11537141452E+03  0.13084929279E+04  0.46999998093E+01 0. -1.
       -5    1    3    3    0  502  0.56225038623E+03 -0.11758807729E+04 -0.20474891334E+04  0.24271495484E+04  0.46999998093E+01 0.  1.
</event>
<event>
 5   0  0.1538349E-06  0.3197078E+04  0.7818609E-02  0.8189589E-01
        2   -1    0    0  501    0  0.00000000000E+00  0.00000000000E+00  0.25338584058E+04  0.25338584058E+04  0.25500000920E-02 0. -1.
       -2   -1    0    0    0  501  0.00000000000E+00  0.00000000000E+00 -0.10084729433E+04  0.10084729433E+04  0.25500000920E-02 0.  1.
    10030    2    1    2    0    0  0.00000000000E+00  0.00000000000E+00  0.15253854625E+04  0.35423313491E+04  0.31970784441E+04 0.  0.
        1    1    3    3  502    0 -0.11737713509E+04  0.92588011624E+03  0.13897940697E+04  0.20412057050E+04  0.50400001928E-02 0. -1.
       -1    1    3    3    0  502  0.11737713509E+04 -0.92588011624E+03  0.13559139282E+03  0.15011256442E+04  0.50400001928E-02 0.  1.
</event>
<event>
 5   0  0.1572769E-06  0.3189654E+04  0.7818609E-02  0.8191555E-01
       -2   -1    0    0    0  501  0.00000000000E+00  0.00000000000E+00  0.85898000278E+03  0.85898000278E+03  0.25500000920E-02 0. -1.
        2   -1    0    0  501    0  0.00000000000E+00  0.00000000000E+00 -0.29610396424E+04  0.29610396424E+04  0.25500000920E-02 0.  1.
    10030    2    1    2    0    0  0.00000000000E+00  0.00000000000E+00 -0.21020596396E+04  0.38200196452E+04  0.31896544266E+04 0.  0.
        5    1    3    3  502    0  0.40822422198E+03 -0.15208573387E+04 -0.13535291666E+04  0.20764675183E+04  0.46999998093E+01 0.  1.
       -5    1    3    3    0  502 -0.40822422198E+03  0.15208573387E+04 -0.74853047306E+03  0.17435521269E+04  0.46999998093E+01 0. -1.
</event>
<event>
 5   0  0.1572769E-06  0.3203862E+04  0.7818609E-02  0.8187798E-01
       -2   -1    0    0    0  501  0.00000000000E+00  0.00000000000E+00  0.14091945780E+04  0.14091945780E+04  0.25500000920E-02 0. -1.
        2   -1    0    0  501    0  0.00000000000E+00  0.00000000000E+00 -0.18210284945E+04  0.18210284945E+04  0.25500000920E-02 0.  1.
    10030    2    1    2    0    0  0.00000000000E+00  0.00000000000E+00 -0.41183391655E+03  0.32302230725E+04  0.32038623446E+04 0.  0.
        5    1    3    3  502    0  0.15574048146E+04 -0.23186525557E+03  0.91279691047E+02  0.15772207599E+04  0.46999998093E+01 0. -1.
       -5    1    3    3    0  502 -0.15574048146E+04  0.23186525557E+03 -0.50311360760E+03  0.16530023126E+04  0.46999998093E+01 0.  1.
</event>
<event>
 5   0  0.5281187E-07  0.3206700E+04  0.7818609E-02  0.8187050E-01
       -1   -1    0    0    0  501  0.00000000000E+00  0.00000000000E+00  0.14577599863E+04  0.14577599863E+04  0.50400001928E-02 0.  1.
        1   -1    0    0  501    0  0.00000000000E+00  0.00000000000E+00 -0.17634807458E+04  0.17634807458E+04  0.50400001928E-02 0. -1.
    10030    2    1    2    0    0  0.00000000000E+00  0.00000000000E+00 -0.30572075956E+03  0.32212407321E+04  0.32067002778E+04 0.  0.
        5    1    3    3  502    0  0.16016421271E+04 -0.45356770933E+01 -0.22689328586E+03  0.16176466637E+04  0.46999998093E+01 0. -1.
       -5    1    3    3    0  502 -0.16016421271E+04  0.45356770933E+01 -0.78827473705E+02  0.16035940684E+04  0.46999998093E+01 0.  1.
</event>
<event>
 5   0  0.5281187E-07  0.3209712E+04  0.7818609E-02  0.8186257E-01
       -1   -1    0    0    0  501  0.00000000000E+00  0.00000000000E+00  0.14316880858E+04  0.14316880859E+04  0.50400001928E-02 0.  1.
        1   -1    0    0  501    0  0.00000000000E+00  0.00000000000E+00 -0.17989693582E+04  0.17989693582E+04  0.50400001928E-02 0. -1.
    10030    2    1    2    0    0  0.00000000000E+00  0.00000000000E+00 -0.36728127233E+03  0.32306574440E+04  0.32097121347E+04 0.  0.
        5    1    3    3  502    0  0.88743894203E+03  0.69692610869E+02 -0.15276956873E+04  0.17681292767E+04  0.46999998093E+01 0. -1.
       -5    1    3    3    0  502 -0.88743894203E+03 -0.69692610869E+02  0.11604144150E+04  0.14625281674E+04  0.46999998093E+01 0.  1.
</event>
<event>
 5   0  0.1572769E-06  0.3173344E+04  0.7818609E-02  0.8195893E-01
       -2   -1    0    0    0  501  0.00000000000E+00  0.00000000000E+00  0.32729626763E+04  0.32729626763E+04  0.25500000920E-02 0. -1.
        2   -1    0    0  501    0  0.00000000000E+00  0.00000000000E+00 -0.76918931883E+03  0.76918931883E+03  0.25500000920E-02 0.  1.
    10030    2    1    2    0    0  0.00000000000E+00  0.00000000000E+00  0.25037733575E+04  0.40421519951E+04  0.31733439344E+04 0.  0.
        5    1    3    3  502    0  0.81010765595E+03  0.12064766861E+04  0.20631629825E+04  0.25235934678E+04  0.46999998093E+01 0. -1.
       -5    1    3    3    0  502 -0.81010765595E+03 -0.12064766861E+04  0.44061037492E+03  0.15185585273E+04  0.46999998093E+01 0.  1.
</event>
<event>
 5   0  0.5233813E-07  0.3200875E+04  0.7818609E-02  0.8188586E-01
        1   -1    0    0  501    0  0.00000000000E+00  0.00000000000E+00  0.14211476823E+04  0.14211476823E+04  0.50400001928E-02 0. -1.
       -1   -1    0    0    0  501  0.00000000000E+00  0.00000000000E+00 -0.18023461756E+04  0.18023461756E+04  0.50400001928E-02 0.  1.
    10030    2    1    2    0    0  0.00000000000E+00  0.00000000000E+00 -0.38119849327E+03  0.32234938579E+04  0.32008749368E+04 0.  0.
        4    1    3    3  502    0  0.13648088744E+04 -0.80232922042E+03 -0.42669789305E+03  0.16396670840E+04  0.12699999809E+01 0.  1.
       -4    1    3    3    0  502 -0.13648088744E+04  0.80232922042E+03  0.45499399787E+02  0.15838267739E+04  0.12699999809E+01 0. -1.
</event>
<event>
 5   0  0.1538349E-06  0.3184845E+04  0.7818609E-02  0.8192831E-01
       -2   -1    0    0    0  501  0.00000000000E+00  0.00000000000E+00  0.15927478501E+04  0.15927478501E+04  0.25500000920E-02 0. -1.
        2   -1    0    0  501    0  0.00000000000E+00  0.00000000000E+00 -0.15920970818E+04  0.15920970818E+04  0.25500000920E-02 0.  1.
    10030    2    1    2    0    0  0.00000000000E+00  0.00000000000E+00  0.65076830656E+00  0.31848449319E+04  0.31848448654E+04 0.  0.
        1    1    3    3  502    0 -0.14709247844E+04 -0.30507417016E+02  0.60963548243E+03  0.15925469680E+04  0.50400001928E-02 0. -1.
       -1    1    3    3    0  502  0.14709247844E+04  0.30507417016E+02 -0.60898471412E+03  0.15922979639E+04  0.50400001928E-02 0.  1.
</event>
<event>
 5   0  0.5281187E-07  0.3216230E+04  0.7818609E-02  0.8184544E-01
        1   -1    0    0  501    0  0.00000000000E+00  0.00000000000E+00  0.21398104795E+04  0.21398104795E+04  0.50400001928E-02 0. -1.
       -1   -1    0    0    0  501  0.00000000000E+00  0.00000000000E+00 -0.12085343982E+04  0.12085343982E+04  0.50400001928E-02 0.  1.
    10030    2    1    2    0    0  0.00000000000E+00  0.00000000000E+00  0.93127608125E+03  0.33483448777E+04  0.32162304458E+04 0.  0.
        5    1    3    3  502    0 -0.29392272484E+03  0.62457632851E+03 -0.10464445017E+04  0.12536165057E+04  0.46999998093E+01 0.  1.
       -5    1    3    3    0  502  0.29392272484E+03 -0.62457632851E+03  0.19777205829E+04  0.20947283720E+04  0.46999998093E+01 0. -1.
</event>
<event>
 5   0  0.5370912E-07  0.3173064E+04  0.7818609E-02  0.8195967E-01
       -1   -1    0    0    0  501  0.00000000000E+00  0.00000000000E+00  0.11769969315E+04  0.11769969316E+04  0.50400001928E-02 0.  1.
        1   -1    0    0  501    0  0.00000000000E+00  0.00000000000E+00 -0.21385649813E+04  0.21385649813E+04  0.50400001928E-02 0. -1.
    10030    2    1    2    0    0  0.00000000000E+00  0.00000000000E+00 -0.96156804976E+03  0.33155619129E+04  0.31730643996E+04 0.  0.
        1    1    3    3  502    0 -0.12886512535E+03  0.14404990640E+04 -0.11623340620E+04  0.18554417926E+04  0.50400001928E-02 0. -1.
       -1    1    3    3    0  502  0.12886512535E+03 -0.14404990640E+04  0.20076601226E+03  0.14601201203E+04  0.50400001928E-02 0.  1.
</event>
<event>
 5   0  0.5370912E-07  0.3229850E+04  0.7818609E-02  0.8180978E-01
       -1   -1    0    0    0  501  0.00000000000E+00  0.00000000000E+00  0.27241310512E+04  0.27241310512E+04  0.50400001928E-02 0. -1.
        1   -1    0    0  501    0  0.00000000000E+00  0.00000000000E+00 -0.95736316215E+03  0.95736316216E+03  0.50400001928E-02 0.  1.
    10030    2    1    2    0    0  0.00000000000E+00  0.00000000000E+00  0.17667678890E+04  0.36814942133E+04  0.32298499763E+04 0.  0.
        1    1    3    3  502    0  0.10848742317E+03  0.36335469936E+03  0.26726650016E+04  0.26994322310E+04  0.50400001928E-02 0. -1.
       -1    1    3    3    0  502 -0.10848742317E+03 -0.36335469936E+03 -0.90589711262E+03  0.98206198237E+03  0.50400001928E-02 0.  1.
</event>
<event>
 5   0  0.5233813E-07  0.3207960E+04  0.7818609E-02  0.8186718E-01
        1   -1    0    0  501    0  0.00000000000E+00  0.00000000000E+00  0.26340577664E+04  0.26340577664E+04  0.50400001928E-02 0.  1.
       -1   -1    0    0    0  501  0.00000000000E+00  0.00000000000E+00 -0.97672538209E+03  0.97672538210E+03  0.50400001928E-02 0. -1.
    10030    2    1    2    0    0  0.00000000000E+00  0.00000000000E+00  0.16573323843E+04  0.36107831485E+04  0.32079595249E+04 0.  0.
        4    1    3    3  502    0 -0.99465380928E+03 -0.85449643419E+03 -0.21103956448E+03  0.13281715503E+04  0.12699999809E+01 0. -1.
       -4    1    3    3    0  502  0.99465380928E+03  0.85449643419E+03  0.18683719488E+04  0.22826115982E+04  0.12699999809E+01 0.  1.
</event>
<event>
 5   0  0.1508771E-06  0.3210795E+04  0.7818609E-02  0.8185972E-01
       -2   -1    0    0    0  501  0.00000000000E+00  0.00000000000E+00  0.17144481433E+04  0.17144481433E+04  0.25500000920E-02 0.  1.
        2   -1    0    0  501    0  0.00000000000E+00  0.00000000000E+00 -0.15032831005E+04  0.15032831005E+04  0.25500000920E-02 0. -1.
    10030    2    1    2    0    0  0.00000000000E+00  0.00000000000E+00  0.21116504279E+03  0.32177312439E+04  0.32107948677E+04 0.  0.
        4    1    3    3  502    0 -0.51984871127E+02 -0.50281267131E+03 -0.14214468627E+04  0.15086536400E+04  0.12699999809E+01 0. -1.
       -4    1    3    3    0  502  0.51984871127E+02  0.50281267131E+03  0.16326119054E+04  0.17090776038E+04  0.12699999809E+01 0.  1.
</event>
<event>
 5   0  0.1538349E-06  0.3194336E+04  0.7818609E-02  0.8190315E-01
        2   -1    0    0  501    0  0.00000000000E+00  0.00000000000E+00  0.21703911376E+04  0.21703911376E+04  0.25500000920E-02 0.  1.
       -2   -1    0    0    0  501  0.00000000000E+00  0.00000000000E+00 -0.11753389974E+04  0.11753389974E+04  0.25500000920E-02 0. -1.
    10030    2    1    2    0    0  0.00000000000E+00  0.00000000000E+00  0.99505214020E+03  0.33457301350E+04  0.31943358268E+04 0.  0.
        1    1    3    3  502    0 -0.87287754167E+03 -0.14843870827E+03  0.18898110243E+04  0.20869439285E+04  0.50400001928E-02 0.  1.
       -1    1    3    3    0  502  0.87287754167E+03  0.14843870827E+03 -0.89475888414E+03  0.12587862065E+04  0.50400001928E-02 0. -1.
</event>
<event>
 5   0  0.5233813E-07  0.3216258E+04  0.7818609E-02  0.8184537E-01
       -1   -1    0    0    0  501  0.00000000000E+00  0.00000000000E+00  0.13456065885E+04  0.13456065885E+04  0.50400001928E-02 0.  1.
        1   -1    0    0  501    0  0.00000000000E+00  0.00000000000E+00 -0.19218683451E+04  0.19218683451E+04  0.50400001928E-02 0. -1.
    10030    2    1    2    0    0  0.00000000000E+00  0.00000000000E+00 -0.57626175653E+03  0.32674749336E+04  0.32162578923E+04 0.  0.
        4    1    3    3  502    0  0.59561612180E+03  0.13160426826E+04 -0.10060309692E+04  0.17603484970E+04  0.12699999809E+01 0. -1.
       -4    1    3    3    0  502 -0.59561612180E+03 -0.13160426826E+04  0.42976921269E+03  0.15071264366E+04  0.12699999809E+01 0.  1.
</event>
<event>
 5   0  0.1572769E-06  0.3201935E+04  0.7818609E-02  0.8188306E-01
       -2   -1    0    0    0  501  0.00000000000E+00  0.00000000000E+00  0.10025239762E+04  0.10025239762E+04  0.25500000920E-02 0. -1.
        2   -1    0    0  501    0  0.00000000000E+00  0.00000000000E+00 -0.25566434493E+04  0.25566434493E+04  0.25500000920E-02 0.  1.
    10030    2    1    2    0    0  0.00000000000E+00  0.00000000000E+00 -0.15541194732E+04  0.35591674255E+04  0.32019346380E+04 0.  0.
        5    1    3    3  502    0 -0.22984911525E+03 -0.79478529371E+03 -0.23005808936E+04  0.24448330857E+04  0.46999998093E+01 0.  1.
       -5    1    3    3    0  502  0.22984911525E+03  0.79478529371E+03  0.74646142041E+03  0.11143343399E+04  0.46999998093E+01 0. -1.
</event>
<event>
 5   0  0.1556396E-06  0.3198318E+04  0.7818609E-02  0.8189262E-01
        2   -1    0    0  501    0  0.00000000000E+00  0.00000000000E+00  0.21141912910E+04  0.21141912910E+04  0.25500000920E-02 0. -1.
       -2   -1    0    0    0  501  0.00000000000E+00  0.00000000000E+00 -0.12095922690E+04  0.12095922690E+04  0.25500000920E-02 0.  1.
    10030    2    1    2    0    0  0.00000000000E+00  0.00000000000E+00  0.90459902201E+03  0.33237835600E+04  0.31983179584E+04 0.  0.
        3    1    3    3  502    0  0.42133427935E+03  0.39961652309E+03  0.20007478854E+04  0.20833165990E+04  0.10100000352E+00 0. -1.
       -3    1    3    3    0  502 -0.42133427935E+03 -0.39961652309E+03 -0.10961488634E+04  0.12404669610E+04  0.10100000352E+00 0.  1.
</event>
<event>
 5   0  0.1508771E-06  0.3188964E+04  0.7818609E-02  0.8191738E-01
        2   -1    0    0  501    0  0.00000000000E+00  0.00000000000E+00  0.14017577237E+04  0.14017577237E+04  0.25500000920E-02 0.  1.
       -2   -1    0    0    0  501  0.00000000000E+00  0.00000000000E+00 -0.18137036811E+04  0.18137036811E+04  0.25500000920E-02 0. -1.
    10030    2    1    2    0    0  0.00000000000E+00  0.00000000000E+00 -0.41194595734E+03  0.32154614048E+04  0.31889641851E+04 0.  0.
        4    1    3    3  502    0  0.79850956734E+03  0.78329145686E+03 -0.13517282043E+04  0.17545181067E+04  0.12699999809E+01 0.  1.
       -4    1    3    3    0  502 -0.79850956734E+03 -0.78329145686E+03  0.93978224697E+03  0.14609432981E+04  0.12699999809E+01 0. -1.
</event>
<event>
 5   0  0.1493485E-06  0.3184844E+04  0.7818609E-02  0.8192831E-01
        2   -1    0    0  501    0  0.00000000000E+00  0.00000000000E+00  0.21639636529E+04  0.21639636529E+04  0.25500000920E-02 0.  1.
       -2   -1    0    0    0  501  0.00000000000E+00  0.00000000000E+00 -0.11718345453E+04  0.11718345453E+04  0.25500000920E-02 0. -1.
    10030    2    1    2    0    0  0.00000000000E+00  0.00000000000E+00  0.99212910765E+03  0.33357981982E+04  0.31848437094E+04 0.  0.
        2    1    3    3  502    0  0.13748027883E+04 -0.79357494511E+03  0.36372940793E+03  0.16285401384E+04  0.25500000920E-02 0.  1.
       -2    1    3    3    0  502 -0.13748027883E+04  0.79357494511E+03  0.62839969972E+03  0.17072580598E+04  0.25500000920E-02 0. -1.
</event>
<event>
 5   0  0.1493485E-06  0.3155420E+04  0.7818609E-02  0.8200691E-01
        2   -1    0    0  501    0  0.00000000000E+00  0.00000000000E+00  0.16398607001E+04  0.16398607001E+04  0.25500000920E-02 0. -1.
       -2   -1    0    0    0  501  0.00000000000E+00  0.00000000000E+00 -0.15179144011E+04  0.15179144011E+04  0.25500000920E-02 0.  1.
    10030    2    1    2    0    0  0.00000000000E+00  0.00000000000E+00  0.12194629902E+03  0.31577751011E+04  0.31554195742E+04 0.  0.
        2    1    3    3  502    0 -0.11308720900E+04  0.10038939332E+04 -0.38935550331E+03  0.15614968527E+04  0.25500000920E-02 0.  1.
       -2    1    3    3    0  502  0.11308720900E+04 -0.10038939332E+04  0.51130180233E+03  0.15962782484E+04  0.25500000920E-02 0. -1.
</event>
<event>
 5   0  0.1493485E-06  0.3181070E+04  0.7818609E-02  0.8193834E-01
       -2   -1    0    0    0  501  0.00000000000E+00  0.00000000000E+00  0.12498283031E+04  0.12498283031E+04  0.25500000920E-02 0.  1.
        2   -1    0    0  501    0  0.00000000000E+00  0.00000000000E+00 -0.20241194100E+04  0.20241194100E+04  0.25500000920E-02 0. -1.
    10030    2    1    2    0    0  0.00000000000E+00  0.00000000000E+00 -0.77429110693E+03  0.32739477131E+04  0.31810700888E+04 0.  0.
        2    1    3    3  502    0 -0.84157978297E+03 -0.73135531537E+03  0.78028532760E+03  0.13608755714E+04  0.25500000920E-02 0.  1.
       -2    1    3    3    0  502  0.84157978297E+03  0.73135531537E+03 -0.15545764345E+04  0.19130721417E+04  0.25500000920E-02 0. -1.
</event>
<event>
 5   0  0.1556396E-06  0.3204320E+04  0.7818609E-02  0.8187677E-01
        2   -1    0    0  501    0  0.00000000000E+00  0.00000000000E+00  0.90933978625E+03  0.90933978626E+03  0.25500000920E-02 0. -1.
       -2   -1    0    0    0  501  0.00000000000E+00  0.00000000000E+00 -0.28228361967E+04  0.28228361967E+04  0.25500000920E-02 0.  1.
    10030    2    1    2    0    0  0.00000000000E+00  0.00000000000E+00 -0.19134964105E+04  0.37321759830E+04  0.32043203734E+04 0.  0.
        3    1    3    3  502    0 -0.60122842143E+03 -0.34178386732E+03  0.72653218146E+03  0.10030657245E+04  0.10100000352E+00 0. -1.
       -3    1    3    3    0  502  0.60122842143E+03  0.34178386732E+03 -0.26400285919E+04  0.27291102585E+04  0.10100000352E+00 0.  1.
</event>
<event>
 5   0  0.1508771E-06  0.3222204E+04  0.7818609E-02  0.8182978E-01
       -2   -1    0    0    0  501  0.00000000000E+00  0.00000000000E+00  0.12513897384E+04  0.12513897384E+04  0.25500000920E-02 0.  1.
        2   -1    0    0  501    0  0.00000000000E+00  0.00000000000E+00 -0.20742133296E+04  0.20742133296E+04  0.25500000920E-02 0. -1.
    10030    2    1    2    0    0  0.00000000000E+00  0.00000000000E+00 -0.82282359120E+03  0.33256030680E+04  0.32222037651E+04 0.  0.
        4    1    3    3  502    0 -0.37642080143E+03 -0.93655939009E+03  0.88459508695E+03  0.13421423888E+04  0.12699999809E+01 0.  1.
       -4    1    3    3    0  502  0.37642080143E+03  0.93655939009E+03 -0.17074186782E+04  0.19834606793E+04  0.12699999809E+01 0. -1.
</event>
<event>
 5   0  0.1538349E-06  0.3207352E+04  0.7818609E-02  0.8186878E-01
        2   -1    0    0  501    0  0.00000000000E+00  0.00000000000E+00  0.28180743136E+04  0.28180743136E+04  0.25500000920E-02 0. -1.
       -2   -1    0    0    0  501  0.00000000000E+00  0.00000000000E+00 -0.91260084329E+03  0.91260084330E+03  0.25500000920E-02 0.  1.
    10030    2    1    2    0    0  0.00000000000E+00  0.00000000000E+00  0.19054734703E+04  0.37306751569E+04  0.32073521759E+04 0.  0.
        1    1    3    3  502    0 -0.65985190893E+02 -0.14640127837E+04  0.19525955203E+03  0.14784497857E+04  0.50400001928E-02 0.  1.
       -1    1    3    3    0  502  0.65985190893E+02  0.14640127837E+04  0.17102139183E+04  0.22522253712E+04  0.50400001928E-02 0. -1.
</event>
<event>
 5   0  0.5370912E-07  0.3171400E+04  0.7818609E-02  0.8196412E-01
       -1   -1    0    0    0  501  0.00000000000E+00  0.00000000000E+00  0.10873913344E+04  0.10873913344E+04  0.50400001928E-02 0.  1.
        1   -1    0    0  501    0  0.00000000000E+00  0.00000000000E+00 -0.23123633152E+04  0.23123633152E+04  0.50400001928E-02 0. -1.
    10030    2    1    2    0    0  0.00000000000E+00  0.00000000000E+00 -0.12249719808E+04  0.33997546496E+04  0.31713995844E+04 0.  0.
        1    1    3    3  502    0 -0.37081694410E+03  0.14009656206E+04 -0.13024389138E+04  0.19484755580E+04  0.50400001928E-02 0. -1.
       -1    1    3    3    0  502  0.37081694410E+03 -0.14009656206E+04  0.77466933029E+02  0.14512790916E+04  0.50400001928E-02 0.  1.
</event>
<event>
 5   0  0.5177039E-07  0.3192934E+04  0.7818609E-02  0.8190686E-01
        1   -1    0    0  501    0  0.00000000000E+00  0.00000000000E+00  0.18415398129E+04  0.18415398129E+04  0.50400001928E-02 0.  1.
       -1   -1    0    0    0  501  0.00000000000E+00  0.00000000000E+00 -0.13840083936E+04  0.13840083936E+04  0.50400001928E-02 0. -1.
    10030    2    1    2    0    0  0.00000000000E+00  0.00000000000E+00  0.45753141927E+03  0.32255482066E+04  0.31929337972E+04 0.  0.
        3    1    3    3  502    0 -0.10845975340E+04 -0.10723595677E+04 -0.24764412317E+03  0.15451972286E+04  0.10100000352E+00 0. -1.
       -3    1    3    3    0  502  0.10845975340E+04  0.10723595677E+04  0.70517554244E+03  0.16803509780E+04  0.10100000352E+00 0.  1.
</event>
<event>
 5   0  0.5370912E-07  0.3194260E+04  0.7818609E-02  0.8190335E-01
       -1   -1    0    0    0  501  0.00000000000E+00  0.00000000000E+00  0.10384025339E+04  0.10384025339E+04  0.50400001928E-02 0. -1.
        1   -1    0    0  501    0  0.00000000000E+00  0.00000000000E+00 -0.24564894829E+04  0.24564894829E+04  0.50400001928E-02 0.  1.
    10030    2    1    2    0    0  0.00000000000E+00  0.00000000000E+00 -0.14180869490E+04  0.34948920168E+04  0.31942604174E+04 0.  0.
        1    1    3    3  502    0 -0.40821832287E+03 -0.88740009895E+03  0.67348987785E+03  0.11864694477E+04  0.50400001928E-02 0. -1.
       -1    1    3    3    0  502  0.40821832287E+03  0.88740009895E+03 -0.20915768269E+04  0.23084225691E+04  0.50400001928E-02 0.  1.
</event>
<event>
 5   0  0.1508771E-06  0.3225408E+04  0.7818609E-02  0.8182139E-01
        2   -1    0    0  501    0  0.00000000000E+00  0.00000000000E+00  0.18347451280E+04  0.18347451281E+04  0.25500000920E-02 0.  1.
       -2   -1    0    0    0  501  0.00000000000E+00  0.00000000000E+00 -0.14175346139E+04  0.14175346139E+04  0.25500000920E-02 0. -1.
    10030    2    1    2    0    0  0.00000000000E+00  0.00000000000E+00  0.41721051412E+03  0.32522797420E+04  0.32254083318E+04 0.  0.
        4    1    3    3  502    0  0.12543103586E+04  0.90458707439E+03  0.66984470315E+03  0.16853088115E+04  0.12699999809E+01 0.  1.
       -4    1    3    3    0  502 -0.12543103586E+04 -0.90458707439E+03 -0.25263418904E+03  0.15669709305E+04  0.12699999809E+01 0. -1.
</event>
<event>
 5   0  0.1493485E-06  0.3152689E+04  0.7818609E-02  0.8201425E-01
       -2   -1    0    0    0  501  0.00000000000E+00  0.00000000000E+00  0.15080447484E+04  0.15080447484E+04  0.25500000920E-02 0.  1.
        2   -1    0    0  501    0  0.00000000000E+00  0.00000000000E+00 -0.16477380804E+04  0.16477380804E+04  0.25500000920E-02 0. -1.
    10030    2    1    2    0    0  0.00000000000E+00  0.00000000000E+00 -0.13969333198E+03  0.31557828288E+04  0.31526894924E+04 0.  0.
        2    1    3    3  502    0 -0.44309213751E+03  0.14946268072E+04  0.16409791151E+03  0.15675356646E+04  0.25500000920E-02 0. -1.
       -2    1    3    3    0  502  0.44309213751E+03 -0.14946268072E+04 -0.30379124349E+03  0.15882471643E+04  0.25500000920E-02 0.  1.
</event>
<event>
 5   0  0.1493485E-06  0.3208091E+04  0.7818609E-02  0.8186684E-01
       -2   -1    0    0    0  501  0.00000000000E+00  0.00000000000E+00  0.15416119317E+04  0.15416119317E+04  0.25500000920E-02 0.  1.
        2   -1    0    0  501    0  0.00000000000E+00  0.00000000000E+00 -0.16690072350E+04  0.16690072350E+04  0.25500000920E-02 0. -1.
    10030    2    1    2    0    0  0.00000000000E+00  0.00000000000E+00 -0.12739530328E+03  0.32106191667E+04  0.32080906893E+04 0.  0.
        2    1    3    3  502    0  0.54973720814E+03  0.53631207685E+01 -0.15717767229E+04  0.16651491908E+04  0.25500000920E-02 0. -1.
       -2    1    3    3    0  502 -0.54973720814E+03 -0.53631207685E+01  0.14443814196E+04  0.15454699759E+04  0.25500000920E-02 0.  1.
</event>
<event>
 5   0  0.1538349E-06  0.3171917E+04  0.7818609E-02  0.8196273E-01
        2   -1    0    0  501    0  0.00000000000E+00  0.00000000000E+00  0.21598420243E+04  0.21598420243E+04  0.25500000920E-02 0.  1.
       -2   -1    0    0    0  501  0.00000000000E+00  0.00000000000E+00 -0.11645596604E+04  0.11645596604E+04  0.25500000920E-02 0. -1.
    10030    2    1    2    0    0  0.00000000000E+00  0.00000000000E+00  0.99528236386E+03  0.33244016847E+04  0.31719173346E+04 0.  0.
        1    1    3    3  502    0  0.59531634552E+03  0.54664773547E+03  0.19278059972E+04  0.20903734740E+04  0.50400001928E-02 0.  1.
       -1    1    3    3    0  502 -0.59531634552E+03 -0.54664773547E+03 -0.93252363339E+03  0.12340282107E+04  0.50400001928E-02 0. -1.
</event>
<event>
 5   0  0.1572769E-06  0.3187941E+04  0.7818609E-02  0.8192009E-01
        2   -1    0    0  501    0  0.00000000000E+00  0.00000000000E+00  0.15110588250E+04  0.15110588250E+04  0.25500000920E-02 0. -1.
       -2   -1    0    0    0  501  0.00000000000E+00  0.00000000000E+00 -0.16814318162E+04  0.16814318162E+04  0.25500000920E-02 0.  1.
    10030    2    1    2    0    0  0.00000000000E+00  0.00000000000E+00 -0.17037299122E+03  0.31924906412E+04  0.31879412695E+04 0.  0.
        5    1    3    3  502    0  0.78983848320E+03  0.50803096105E+03 -0.13749607900E+04  0.16650764400E+04  0.46999998093E+01 0.  1.
       -5    1    3    3    0  502 -0.78983848320E+03 -0.50803096105E+03  0.12045877988E+04  0.15274142012E+04  0.46999998093E+01 0. -1.
</event>
<event>
 5   0  0.5317728E-07  0.3175250E+04  0.7818609E-02  0.8195384E-01
        1   -1    0    0  501    0  0.00000000000E+00  0.00000000000E+00  0.16437189343E+04  0.16437189343E+04  0.50400001928E-02 0.  1.
       -1   -1    0    0    0  501  0.00000000000E+00  0.00000000000E+00 -0.15334455711E+04  0.15334455711E+04  0.50400001928E-02 0. -1.
    10030    2    1    2    0    0  0.00000000000E+00  0.00000000000E+00  0.11027336321E+03  0.31771645054E+04  0.31752502389E+04 0.  0.
        2    1    3    3  502    0 -0.13723525657E+04  0.53222789860E+03 -0.54014669866E+03  0.15679210939E+04  0.25500000920E-02 0. -1.
       -2    1    3    3    0  502  0.13723525657E+04 -0.53222789860E+03  0.65042006187E+03  0.16092434115E+04  0.25500000920E-02 0.  1.
</event>
<event>
 5   0  0.5177039E-07  0.3202865E+04  0.7818609E-02  0.8188061E-01
        1   -1    0    0  501    0  0.00000000000E+00  0.00000000000E+00  0.23938330487E+04  0.23938330487E+04  0.50400001928E-02 0. -1.
       -1   -1    0    0    0  501  0.00000000000E+00  0.00000000000E+00 -0.10713301790E+04  0.10713301790E+04  0.50400001928E-02 0.  1.
    10030    2    1    2    0    0  0.00000000000E+00  0.00000000000E+00  0.13225028697E+04  0.34651632277E+04  0.32028647106E+04 0.  0.
        3    1    3    3  502    0 -0.67578202865E+03  0.11405877737E+04 -0.31062738573E+03  0.13616575203E+04  0.10100000352E+00 0.  1.
       -3    1    3    3    0  502  0.67578202865E+03 -0.11405877737E+04  0.16331302554E+04  0.21035057074E+04  0.10100000352E+00 0. -1.
</event>
<event>
 5   0  0.5370912E-07  0.3206855E+04  0.7818609E-02  0.8187009E-01
       -1   -1    0    0    0  501  0.00000000000E+00  0.00000000000E+00  0.14800571914E+04  0.14800571914E+04  0.50400001928E-02 0. -1.
        1   -1    0    0  501    0  0.00000000000E+00  0.00000000000E+00 -0.17370809227E+04  0.17370809227E+04  0.50400001928E-02 0.  1.
    10030    2    1    2    0    0  0.00000000000E+00  0.00000000000E+00 -0.25702373127E+03  0.32171381141E+04  0.32068546034E+04 0.  0.
        1    1    3    3  502    0  0.90279629610E+03 -0.12833714468E+04  0.20253980172E+03  0.15821206636E+04  0.50400001928E-02 0. -1.
       -1    1    3    3    0  502 -0.90279629610E+03  0.12833714468E+04 -0.45956353299E+03  0.16350174506E+04  0.50400001928E-02 0.  1.
</event>
<event>
 5   0  0.5317728E-07  0.3310080E+04  0.7818609E-02  0.8160335E-01
        1   -1    0    0  501    0  0.00000000000E+00  0.00000000000E+00  0.12413710012E+04  0.12413710012E+04  0.50400001928E-02 0. -1.
       -1   -1    0    0    0  501  0.00000000000E+00  0.00000000000E+00 -0.22065575952E+04  0.22065575952E+04  0.50400001928E-02 0.  1.
    10030    2    1    2    0    0  0.00000000000E+00  0.00000000000E+00 -0.96518659408E+03  0.34479285964E+04  0.33100795224E+04 0.  0.
        2    1    3    3  502    0  0.42510391935E+03 -0.33550062064E+02 -0.21483523220E+04  0.21902640590E+04  0.25500000920E-02 0.  1.
       -2    1    3    3    0  502 -0.42510391935E+03  0.33550062064E+02  0.11831657279E+04  0.12576645374E+04  0.25500000920E-02 0. -1.
</event>
<event>
 5   0  0.1556396E-06  0.3182265E+04  0.7818609E-02  0.8193517E-01
       -2   -1    0    0    0  501  0.00000000000E+00  0.00000000000E+00  0.13995852138E+04  0.13995852138E+04  0.25500000920E-02 0.  1.
        2   -1    0    0  501    0  0.00000000000E+00  0.00000000000E+00 -0.18088951984E+04  0.18088951984E+04  0.25500000920E-02 0. -1.
    10030    2    1    2    0    0  0.00000000000E+00  0.00000000000E+00 -0.40930998461E+03  0.32084804122E+04  0.31822652140E+04 0.  0.
        3    1    3    3  502    0  0.11060186238E+04 -0.57718443164E+03  0.79104510129E+03  0.14772174609E+04  0.10100000352E+00 0.  1.
       -3    1    3    3    0  502 -0.11060186238E+04  0.57718443164E+03 -0.12003550859E+04  0.17312629513E+04  0.10100000352E+00 0. -1.
</event>
<event>
 5   0  0.5317728E-07  0.3217004E+04  0.7818609E-02  0.8184341E-01
        1   -1    0    0  501    0  0.00000000000E+00  0.00000000000E+00  0.17186583534E+04  0.17186583534E+04  0.50400001928E-02 0.  1.
       -1   -1    0    0    0  501  0.00000000000E+00  0.00000000000E+00 -0.15054056421E+04  0.15054056421E+04  0.50400001928E-02 0. -1.
    10030    2    1    2    0    0  0.00000000000E+00  0.00000000000E+00  0.21325271127E+03  0.32240639954E+04  0.32170035635E+04 0.  0.
        2    1    3    3  502    0 -0.26676072336E+03  0.29908853355E+03  0.16678201750E+04  0.17152957094E+04  0.25500000920E-02 0.  1.
       -2    1    3    3    0  502  0.26676072336E+03 -0.29908853355E+03 -0.14545674637E+04  0.15087682861E+04  0.25500000920E-02 0. -1.
</event>
<event>
 5   0  0.1572769E-06  0.3166659E+04  0.7818609E-02  0.8197678E-01
       -2   -1    0    0    0  501  0.00000000000E+00  0.00000000000E+00  0.11587200907E+04  0.11587200907E+04  0.25500000920E-02 0. -1.
        2   -1    0    0  501    0  0.00000000000E+00  0.00000000000E+00 -0.21635362673E+04  0.21635362673E+04  0.25500000920E-02 0.  1.
    10030    2    1    2    0    0  0.00000000000E+00  0.00000000000E+00 -0.10048161766E+04  0.33222563580E+04  0.31666594007E+04 0.  0.
        5    1    3    3  502    0 -0.77075898410E+03 -0.14187387269E+03 -0.19457665331E+04  0.20976718282E+04  0.46999998093E+01 0.  1.
       -5    1    3    3    0  502  0.77075898410E+03  0.14187387269E+03  0.94095035652E+03  0.12245845299E+04  0.46999998093E+01 0. -1.
</event>
<event>
 5   0  0.1508771E-06  0.3295247E+04  0.7818609E-02  0.8164106E-01
        2   -1    0    0  501    0  0.00000000000E+00  0.00000000000E+00  0.16584989454E+04  0.16584989454E+04  0.25500000920E-02 0. -1.
       -2   -1    0    0    0  501  0.00000000000E+00  0.00000000000E+00 -0.16368194510E+04  0.16368194510E+04  0.25500000920E-02 0.  1.
    10030    2    1    2    0    0  0.00000000000E+00  0.00000000000E+00  0.21679494405E+02  0.32953183965E+04  0.32952470824E+04 0.  0.
        4    1    3    3  502    0 -0.57976050185E+03 -0.15422441101E+04  0.15592306376E+02  0.16476904647E+04  0.12699999809E+01 0. -1.
       -4    1    3    3    0  502  0.57976050185E+03  0.15422441101E+04  0.60871880292E+01  0.16476279317E+04  0.12699999809E+01 0.  1.
</event>
<event>
 5   0  0.5281187E-07  0.2987139E+04  0.7818609E-02  0.8247413E-01
        1   -1    0    0  501    0  0.00000000000E+00  0.00000000000E+00  0.18733175336E+04  0.18733175336E+04  0.50400001928E-02 0. -1.
       -1   -1    0    0    0  501  0.00000000000E+00  0.00000000000E+00 -0.11908016892E+04  0.11908016892E+04  0.50400001928E-02 0.  1.
    10030    2    1    2    0    0  0.00000000000E+00  0.00000000000E+00  0.68251584444E+03  0.30641192229E+04  0.29871388876E+04 0.  0.
        5    1    3    3  502    0 -0.13943974101E+04  0.52764360083E+01  0.89017039053E+03  0.16543268698E+04  0.46999998093E+01 0. -1.
       -5    1    3    3    0  502  0.13943974101E+04 -0.52764360083E+01 -0.20765454609E+03  0.14097923530E+04  0.46999998093E+01 0.  1.
</event>
<event>
 5   0  0.5177039E-07  0.3204621E+04  0.7818609E-02  0.8187598E-01
       -1   -1    0    0    0  501  0.00000000000E+00  0.00000000000E+00  0.22304907593E+04  0.22304907593E+04  0.50400001928E-02 0.  1.
        1   -1    0    0  501    0  0.00000000000E+00  0.00000000000E+00 -0.11510469487E+04  0.11510469487E+04  0.50400001928E-02 0. -1.
    10030    2    1    2    0    0  0.00000000000E+00  0.00000000000E+00  0.10794438106E+04  0.33815377080E+04  0.32046214021E+04 0.  0.
        3    1    3    3  502    0  0.46507428108E+03  0.97239330294E+03  0.17907345473E+04  0.20901131672E+04  0.10100000352E+00 0.  1.
       -3    1    3    3    0  502 -0.46507428108E+03 -0.97239330294E+03 -0.71129073669E+03  0.12914245409E+04  0.10100000352E+00 0. -1.
</event>
<event>
 5   0  0.5370912E-07  0.3227219E+04  0.7818609E-02  0.8181665E-01
        1   -1    0    0  501    0  0.00000000000E+00  0.00000000000E+00  0.13427631850E+04  0.13427631850E+04  0.50400001928E-02 0.  1.
       -1   -1    0    0    0  501  0.00000000000E+00  0.00000000000E+00 -0.19390879049E+04  0.19390879049E+04  0.50400001928E-02 0. -1.
    10030    2    1    2    0    0  0.00000000000E+00  0.00000000000E+00 -0.59632471986E+03  0.32818510899E+04  0.32272191442E+04 0.  0.
        1    1    3    3  502    0  0.96752744336E+03 -0.66107749991E+03  0.82994233226E+03  0.14359446680E+04  0.50400001928E-02 0.  1.
       -1    1    3    3    0  502 -0.96752744336E+03  0.66107749991E+03 -0.14262670521E+04  0.18459064219E+04  0.50400001928E-02 0. -1.
</event>
<event>
 5   0  0.5281187E-07  0.3167648E+04  0.7818609E-02  0.8197414E-01
       -1   -1    0    0    0  501  0.00000000000E+00  0.00000000000E+00  0.14044354983E+04  0.14044354983E+04  0.50400001928E-02 0.  1.
        1   -1    0    0  501    0  0.00000000000E+00  0.00000000000E+00 -0.17861262279E+04  0.17861262280E+04  0.50400001928E-02 0. -1.
    10030    2    1    2    0    0  0.00000000000E+00  0.00000000000E+00 -0.38169072969E+03  0.31905617262E+04  0.31676483889E+04 0.  0.
        5    1    3    3  502    0 -0.30721182903E+03 -0.74468384303E+03  0.11826695984E+04  0.14309656191E+04  0.46999998093E+01 0.  1.
       -5    1    3    3    0  502  0.30721182903E+03  0.74468384303E+03 -0.15643603281E+04  0.17595961071E+04  0.46999998093E+01 0. -1.
</event>
<event>
 5   0  0.1493485E-06  0.3182290E+04  0.7818609E-02  0.8193510E-01
        2   -1    0    0  501    0  0.00000000000E+00  0.00000000000E+00  0.21584284984E+04  0.21584284984E+04  0.25500000920E-02 0.  1.
       -2   -1    0    0    0  501  0.00000000000E+00  0.00000000000E+00 -0.11729561020E+04  0.11729561020E+04  0.25500000920E-02 0. -1.
    10030    2    1    2    0    0  0.00000000000E+00  0.00000000000E+00  0.98547239642E+03  0.33313846004E+04  0.31822896650E+04 0.  0.
        2    1    3    3  502    0 -0.29865343671E+03  0.54107251497E+03  0.20276462734E+04  0.21197411992E+04  0.25500000920E-02 0.  1.
       -2    1    3    3    0  502  0.29865343671E+03 -0.54107251497E+03 -0.10421738770E+04  0.12116434012E+04  0.25500000920E-02 0. -1.
</event>
<event>
 5   0  0.5317728E-07  0.3307173E+04  0.7818609E-02  0.8161072E-01
        1   -1    0    0  501    0  0.00000000000E+00  0.00000000000E+00  0.16874715976E+04  0.16874715976E+04  0.50400001928E-02 0.  1.
       -1   -1    0    0    0  501  0.00000000000E+00  0.00000000000E+00 -0.16203823150E+04  0.16203823150E+04  0.50400001928E-02 0. -1.
    10030    2    1    2    0    0  0.00000000000E+00  0.00000000000E+00  0.67089282624E+02  0.33078539125E+04  0.33071734963E+04 0.  0.
        2    1    3    3  502    0  0.89474472273E+03  0.10780528792E+04  0.91212333863E+03  0.16717461273E+04  0.25500000920E-02 0.  1.
       -2    1    3    3    0  502 -0.89474472273E+03 -0.10780528792E+04 -0.84503405600E+03  0.16361077853E+04  0.25500000920E-02 0. -1.
</event>
<event>
 5   0  0.1572769E-06  0.3189523E+04  0.7818609E-02  0.8191590E-01
       -2   -1    0    0    0  501  0.00000000000E+00  0.00000000000E+00  0.11825165502E+04  0.11825165502E+04  0.25500000920E-02 0. -1.
        2   -1    0    0  501    0  0.00000000000E+00  0.00000000000E+00 -0.21507213303E+04  0.21507213303E+04  0.25500000920E-02 0.  1.
    10030    2    1    2    0    0  0.00000000000E+00  0.00000000000E+00 -0.96820478012E+03  0.33332378805E+04  0.31895225774E+04 0.  0.
        5    1    3    3  502    0 -0.23439043494E+03 -0.51072845511E+02  0.11635457580E+04  0.11880269915E+04  0.46999998093E+01 0. -1.
       -5    1    3    3    0  502  0.23439043494E+03  0.51072845511E+02 -0.21317505381E+04  0.21452108890E+04  0.46999998093E+01 0.  1.
</event>
<event>
 5   0  0.5370912E-07  0.3220867E+04  0.7818609E-02  0.8183328E-01
       -1   -1    0    0    0  501  0.00000000000E+00  0.00000000000E+00  0.13134460663E+04  0.13134460663E+04  0.50400001928E-02 0.  1.
        1   -1    0    0  501    0  0.00000000000E+00  0.00000000000E+00 -0.19745740474E+04  0.19745740474E+04  0.50400001928E-02 0. -1.
    10030    2    1    2    0    0  0.00000000000E+00  0.00000000000E+00 -0.66112798115E+03  0.32880201137E+04  0.32208672839E+04 0.  0.
        1    1    3    3  502    0 -0.15012169662E+04  0.30346232921E+03 -0.83869140979E+03  0.17461801298E+04  0.50400001928E-02 0. -1.
       -1    1    3    3    0  502  0.15012169662E+04 -0.30346232921E+03  0.17756342864E+03  0.15418399839E+04  0.50400001928E-02 0.  1.
</event>
<event>
 5   0  0.1556396E-06  0.3195325E+04  0.7818609E-02  0.8190053E-01
       -2   -1    0    0    0  501  0.00000000000E+00  0.00000000000E+00  0.15154939379E+04  0.15154939379E+04  0.25500000920E-02 0.  1.
        2   -1    0    0  501    0  0.00000000000E+00  0.00000000000E+00 -0.16842862428E+04  0.16842862429E+04  0.25500000920E-02 0. -1.
    10030    2    1    2    0    0  0.00000000000E+00  0.00000000000E+00 -0.16879230498E+03  0.31997801807E+04  0.31953250794E+04 0.  0.
        3    1    3    3  502    0  0.54132655105E+03  0.95505452869E+03  0.10779814743E+04  0.15385732536E+04  0.10100000352E+00 0.  1.
       -3    1    3    3    0  502 -0.54132655105E+03 -0.95505452869E+03 -0.12467737793E+04  0.16612069271E+04  0.10100000352E+00 0. -1.
</event>
<event>
 5   0  0.1572769E-06  0.3195266E+04  0.7818609E-02  0.8190069E-01
        2   -1    0    0  501    0  0.00000000000E+00  0.00000000000E+00  0.14869433699E+04  0.14869433699E+04  0.25500000920E-02 0. -1.
       -2   -1    0    0    0  501  0.00000000000E+00  0.00000000000E+00 -0.17165621859E+04  0.17165621859E+04  0.25500000920E-02 0.  1.
    10030    2    1    2    0    0  0.00000000000E+00  0.00000000000E+00 -0.22961881603E+03  0.32035055558E+04  0.31952657238E+04 0.  0.
        5    1    3    3  502    0  0.98676871158E+03  0.12316680251E+04  0.13420592356E+03  0.15839040167E+04  0.46999998093E+01 0. -1.
       -5    1    3    3    0  502 -0.98676871158E+03 -0.12316680251E+04 -0.36382473960E+03  0.16196015391E+04  0.46999998093E+01 0.  1.
</event>
<event>
 5   0  0.1572769E-06  0.3176254E+04  0.7818609E-02  0.8195117E-01
       -2   -1    0    0    0  501  0.00000000000E+00  0.00000000000E+00  0.17728273129E+04  0.17728273129E+04  0.25500000920E-02 0. -1.
        2   -1    0    0  501    0  0.00000000000E+00  0.00000000000E+00 -0.14226697392E+04  0.14226697392E+04  0.25500000920E-02 0.  1.
    10030    2    1    2    0    0  0.00000000000E+00  0.00000000000E+00  0.35015757372E+03  0.31954970521E+04  0.31762542536E+04 0.  0.
        5    1    3    3  502    0 -0.43038988364E+03  0.10848265923E+03  0.17091517297E+04  0.17658498420E+04  0.46999998093E+01 0. -1.
       -5    1    3    3    0  502  0.43038988364E+03 -0.10848265923E+03 -0.13589941560E+04  0.14296472101E+04  0.46999998093E+01 0.  1.
</event>
<event>
 5   0  0.1556396E-06  0.3142814E+04  0.7818609E-02  0.8204085E-01
        2   -1    0    0  501    0  0.00000000000E+00  0.00000000000E+00  0.23632019254E+04  0.23632019254E+04  0.25500000920E-02 0.  1.
       -2   -1    0    0    0  501  0.00000000000E+00  0.00000000000E+00 -0.10449041187E+04  0.10449041187E+04  0.25500000920E-02 0. -1.
    10030    2    1    2    0    0  0.00000000000E+00  0.00000000000E+00  0.13182978067E+04  0.34081060441E+04  0.31428136599E+04 0.  0.
        3    1    3    3  502    0  0.16286805890E+02  0.95801722371E+03 -0.69148101613E+03  0.11816125705E+04  0.10100000352E+00 0. -1.
       -3    1    3    3    0  502 -0.16286805890E+02 -0.95801722371E+03  0.20097788228E+04  0.22264934736E+04  0.10100000352E+00 0.  1.
</event>
<event>
 5   0  0.5370912E-07  0.3240662E+04  0.7818609E-02  0.8178160E-01
       -1   -1    0    0    0  501  0.00000000000E+00  0.00000000000E+00  0.12563407484E+04  0.12563407485E+04  0.50400001928E-02 0.  1.
        1   -1    0    0  501    0  0.00000000000E+00  0.00000000000E+00 -0.20897780426E+04  0.20897780426E+04  0.50400001928E-02 0. -1.
    10030    2    1    2    0    0  0.00000000000E+00  0.00000000000E+00 -0.83343729414E+03  0.33461187910E+04  0.32406624694E+04 0.  0.
        1    1    3    3  502    0 -0.11832106463E+04  0.33574502582E+03 -0.15059209063E+04  0.19443533454E+04  0.50400001928E-02 0. -1.
       -1    1    3    3    0  502  0.11832106463E+04 -0.33574502582E+03  0.67248361213E+03  0.14017654456E+04  0.50400001928E-02 0.  1.
</event>
<event>
 5   0  0.5233813E-07  0.3228464E+04  0.7818609E-02  0.8181340E-01
       -1   -1    0    0    0  501  0.00000000000E+00  0.00000000000E+00  0.14934518776E+04  0.14934518776E+04  0.50400001928E-02 0. -1.
        1   -1    0    0  501    0  0.00000000000E+00  0.00000000000E+00 -0.17447800756E+04  0.17447800756E+04  0.50400001928E-02 0.  1.
    10030    2    1    2    0    0  0.00000000000E+00  0.00000000000E+00 -0.25132819804E+03  0.32382319532E+04  0.32284640806E+04 0.  0.
        4    1    3    3  502    0  0.73033358355E+03  0.60236027098E+03 -0.14371054954E+04  0.17209005948E+04  0.12699999809E+01 0.  1.
       -4    1    3    3    0  502 -0.73033358355E+03 -0.60236027098E+03  0.11857772974E+04  0.15173313584E+04  0.12699999809E+01 0. -1.
</event>
<event>
 5   0  0.5281187E-07  0.3194726E+04  0.7818609E-02  0.8190212E-01
        1   -1    0    0  501    0  0.00000000000E+00  0.00000000000E+00  0.18922692225E+04  0.18922692225E+04  0.50400001928E-02 0. -1.
       -1   -1    0    0    0  501  0.00000000000E+00  0.00000000000E+00 -0.13484168883E+04  0.13484168883E+04  0.50400001928E-02 0.  1.
    10030    2    1    2    0    0  0.00000000000E+00  0.00000000000E+00  0.54385233420E+03  0.32406861108E+04  0.31947255136E+04 0.  0.
        5    1    3    3  502    0  0.36916146897E+03  0.52402580970E+02  0.18475002589E+04  0.18847560896E+04  0.46999998093E+01 0. -1.
       -5    1    3    3    0  502 -0.36916146897E+03 -0.52402580970E+02 -0.13036479247E+04  0.13559300212E+04  0.46999998093E+01 0.  1.
</event>
<event>
 5   0  0.1493485E-06  0.3295436E+04  0.7818609E-02  0.8164058E-01
        2   -1    0    0  501    0  0.00000000000E+00  0.00000000000E+00  0.17303928684E+04  0.17303928684E+04  0.25500000920E-02 0. -1.
       -2   -1    0    0    0  501  0.00000000000E+00  0.00000000000E+00 -0.15689928145E+04  0.15689928145E+04  0.25500000920E-02 0.  1.
    10030    2    1    2    0    0  0.00000000000E+00  0.00000000000E+00  0.16140005391E+03  0.32993856830E+04  0.32954356173E+04 0.  0.
        2    1    3    3  502    0  0.26734845665E+03 -0.91544242066E+03 -0.12645861054E+04  0.15838838470E+04  0.25500000920E-02 0.  1.
       -2    1    3    3    0  502 -0.26734845665E+03  0.91544242066E+03  0.14259861593E+04  0.17155018360E+04  0.25500000920E-02 0. -1.
</event>
<event>
 5   0  0.5177039E-07  0.3220750E+04  0.7818609E-02  0.8183359E-01
        1   -1    0    0  501    0  0.00000000000E+00  0.00000000000E+00  0.92010292367E+03  0.92010292369E+03  0.50400001928E-02 0.  1.
       -1   -1    0    0    0  501  0.00000000000E+00  0.00000000000E+00 -0.28184970624E+04  0.28184970624E+04  0.50400001928E-02 0. -1.
    10030    2    1    2    0    0  0.00000000000E+00  0.00000000000E+00 -0.18983941387E+04  0.37385999861E+04  0.32207498428E+04 0.  0.
        3    1    3    3  502    0 -0.16922004495E+03  0.16013093563E+04 -0.92375760566E+03  0.18563822888E+04  0.10100000352E+00 0.  1.
       -3    1    3    3    0  502  0.16922004495E+03 -0.16013093563E+04 -0.97463653306E+03  0.18822176973E+04  0.10100000352E+00 0. -1.
</event>
<event>
 5   0  0.5233813E-07  0.3133903E+04  0.7818609E-02  0.8206495E-01
        1   -1    0    0  501    0  0.00000000000E+00  0.00000000000E+00  0.18031393372E+04  0.18031393372E+04  0.50400001928E-02 0. -1.
       -1   -1    0    0    0  501  0.00000000000E+00  0.00000000000E+00 -0.13617012314E+04  0.13617012315E+04  0.50400001928E-02 0.  1.
    10030    2    1    2    0    0  0.00000000000E+00  0.00000000000E+00  0.44143810578E+03  0.31648405687E+04  0.31339030336E+04 0.  0.
        4    1    3    3  502    0  0.51356410256E+03  0.13064068275E+04 -0.48249452822E+03  0.14843346890E+04  0.12699999809E+01 0. -1.
       -4    1    3    3    0  502 -0.51356410256E+03 -0.13064068275E+04  0.92393263400E+03  0.16805058796E+04  0.12699999809E+01 0.  1.
</event>
<event>
 5   0  0.1508771E-06  0.3200095E+04  0.7818609E-02  0.8188792E-01
       -2   -1    0    0    0  501  0.00000000000E+00  0.00000000000E+00  0.10324662547E+04  0.10324662547E+04  0.25500000920E-02 0. -1.
        2   -1    0    0  501    0  0.00000000000E+00  0.00000000000E+00 -0.24796466386E+04  0.24796466386E+04  0.25500000920E-02 0.  1.
    10030    2    1    2    0    0  0.00000000000E+00  0.00000000000E+00 -0.14471803839E+04  0.35121128934E+04  0.32000946724E+04 0.  0.
        4    1    3    3  502    0  0.12506830345E+04  0.59848810077E+03 -0.16000503324E+04  0.21172054077E+04  0.12699999809E+01 0.  1.
       -4    1    3    3    0  502 -0.12506830345E+04 -0.59848810077E+03  0.15286994845E+03  0.13949074856E+04  0.12699999809E+01 0. -1.
</event>
<event>
 5   0  0.5233813E-07  0.3210570E+04  0.7818609E-02  0.8186031E-01
       -1   -1    0    0    0  501  0.00000000000E+00  0.00000000000E+00  0.13367840503E+04  0.13367840503E+04  0.50400001928E-02 0.  1.
        1   -1    0    0  501    0  0.00000000000E+00  0.00000000000E+00 -0.19277164967E+04  0.19277164967E+04  0.50400001928E-02 0. -1.
    10030    2    1    2    0    0  0.00000000000E+00  0.00000000000E+00 -0.59093244639E+03  0.32645005470E+04  0.32105704579E+04 0.  0.
        4    1    3    3  502    0  0.15552331407E+04 -0.16517265906E+03  0.72421969756E+02  0.15656559915E+04  0.12699999809E+01 0.  1.
       -4    1    3    3    0  502 -0.15552331407E+04  0.16517265906E+03 -0.66335441615E+03  0.16988445555E+04  0.12699999809E+01 0. -1.
</event>
<event>
 5   0  0.5233813E-07  0.3192556E+04  0.7818609E-02  0.8190786E-01
       -1   -1    0    0    0  501  0.00000000000E+00  0.00000000000E+00  0.13060534143E+04  0.13060534143E+04  0.50400001928E-02 0. -1.
        1   -1    0    0  501    0  0.00000000000E+00  0.00000000000E+00 -0.19509946163E+04  0.19509946163E+04  0.50400001928E-02 0.  1.
    10030    2    1    2    0    0  0.00000000000E+00  0.00000000000E+00 -0.64494120204E+03  0.32570480306E+04  0.31925558287E+04 0.  0.
        4    1    3    3  502    0 -0.72047575180E+03  0.11659312396E+04 -0.11573044819E+04  0.17938328353E+04  0.12699999809E+01 0.  1.
       -4    1    3    3    0  502  0.72047575180E+03 -0.11659312396E+04  0.51236327982E+03  0.14632151953E+04  0.12699999809E+01 0. -1.
</event>
<event>
 5   0  0.5370912E-07  0.3220511E+04  0.7818609E-02  0.8183421E-01
       -1   -1    0    0    0  501  0.00000000000E+00  0.00000000000E+00  0.15402175407E+04  0.15402175407E+04  0.50400001928E-02 0. -1.
        1   -1    0    0  501    0  0.00000000000E+00  0.00000000000E+00 -0.16834782206E+04  0.16834782206E+04  0.50400001928E-02 0.  1.
    10030    2    1    2    0    0  0.00000000000E+00  0.00000000000E+00 -0.14326067994E+03  0.32236957613E+04  0.32205109438E+04 0.  0.
        1    1    3    3  502    0  0.86710001034E+03 -0.13502570011E+04 -0.20542735684E+03  0.16177938051E+04  0.50400001928E-02 0.  1.
       -1    1    3    3    0  502 -0.86710001034E+03  0.13502570011E+04  0.62166676908E+02  0.16059019561E+04  0.50400001928E-02 0. -1.
</event>
<event>
 5   0  0.1538349E-06  0.3213988E+04  0.7818609E-02  0.8185133E-01
        2   -1    0    0  501    0  0.00000000000E+00  0.00000000000E+00  0.16785009079E+04  0.16785009079E+04  0.25500000920E-02 0.  1.
       -2   -1    0    0    0  501  0.00000000000E+00  0.00000000000E+00 -0.15385330222E+04  0.15385330222E+04  0.25500000920E-02 0. -1.
    10030    2    1    2    0    0  0.00000000000E+00  0.00000000000E+00  0.13996788577E+03  0.32170339301E+04  0.32139876009E+04 0.  0.
        1    1    3    3  502    0 -0.24299900132E+03  0.73310857402E+03  0.14805507915E+04  0.16698884221E+04  0.50400001928E-02 0.  1.
       -1    1    3    3    0  502  0.24299900132E+03 -0.73310857402E+03 -0.13405829057E+04  0.15471455081E+04  0.50400001928E-02 0. -1.
</event>
<event>
 5   0  0.5177039E-07  0.3220886E+04  0.7818609E-02  0.8183323E-01
       -1   -1    0    0    0  501  0.00000000000E+00  0.00000000000E+00  0.22753163990E+04  0.22753163990E+04  0.50400001928E-02 0.  1.
        1   -1    0    0  501    0  0.00000000000E+00  0.00000000000E+00 -0.11398530740E+04  0.11398530740E+04  0.50400001928E-02 0. -1.
    10030    2    1    2    0    0  0.00000000000E+00  0.00000000000E+00  0.11354633250E+04  0.34151694730E+04  0.32208858357E+04 0.  0.
        3    1    3    3  502    0 -0.33456509094E+03 -0.16565611380E+03 -0.10933368134E+04  0.11553186339E+04  0.10100000352E+00 0. -1.
       -3    1    3    3    0  502  0.33456509094E+03  0.16565611380E+03  0.22288001384E+04  0.22598508391E+04  0.10100000352E+00 0.  1.
</event>
<event>
 5   0  0.1493485E-06  0.3204867E+04  0.7818609E-02  0.8187533E-01
       -2   -1    0    0    0  501  0.00000000000E+00  0.00000000000E+00  0.17712215343E+04  0.17712215343E+04  0.25500000920E-02 0.  1.
        2   -1    0    0  501    0  0.00000000000E+00  0.00000000000E+00 -0.14497297331E+04  0.14497297331E+04  0.25500000920E-02 0. -1.
    10030    2    1    2    0    0  0.00000000000E+00  0.00000000000E+00  0.32149180125E+03  0.32209512674E+04  0.32048666257E+04 0.  0.
        2    1    3    3  502    0 -0.35956743572E+03 -0.15517585161E+04 -0.14914855318E+02  0.15929424616E+04  0.25500000920E-02 0. -1.
       -2    1    3    3    0  502  0.35956743572E+03  0.15517585161E+04  0.33640665657E+03  0.16280088058E+04  0.25500000920E-02 0.  1.
</event>
<event>
 5   0  0.1556396E-06  0.3190948E+04  0.7818609E-02  0.8191212E-01
        2   -1    0    0  501    0  0.00000000000E+00  0.00000000000E+00  0.10809811987E+04  0.10809811987E+04  0.25500000920E-02 0. -1.
       -2   -1    0    0    0  501  0.00000000000E+00  0.00000000000E+00 -0.23548398292E+04  0.23548398292E+04  0.25500000920E-02 0.  1.
    10030    2    1    2    0    0  0.00000000000E+00  0.00000000000E+00 -0.12738586305E+04  0.34358210278E+04  0.31909481859E+04 0.  0.
        3    1    3    3  502    0 -0.13652399685E+04  0.46738630976E+01  0.25204026241E+03  0.13883178024E+04  0.10100000352E+00 0. -1.
       -3    1    3    3    0  502  0.13652399685E+04 -0.46738630976E+01 -0.15258988929E+04  0.20475032254E+04  0.10100000352E+00 0.  1.
</event>
<event>
 5   0  0.5281187E-07  0.3182864E+04  0.7818609E-02  0.8193358E-01
       -1   -1    0    0    0  501  0.00000000000E+00  0.00000000000E+00  0.11613019293E+04  0.11613019293E+04  0.50400001928E-02 0. -1.
        1   -1    0    0  501    0  0.00000000000E+00  0.00000000000E+00 -0.21808755941E+04  0.21808755941E+04  0.50400001928E-02 0.  1.
    10030    2    1    2    0    0  0.00000000000E+00  0.00000000000E+00 -0.10195736648E+04  0.33421775235E+04  0.31828635127E+04 0.  0.
        5    1    3    3  502    0 -0.87590965473E+03  0.12905110123E+04 -0.84183722987E+03  0.17723849491E+04  0.46999998093E+01 0. -1.
       -5    1    3    3    0  502  0.87590965473E+03 -0.12905110123E+04 -0.17773643494E+03  0.15697925744E+04  0.46999998093E+01 0.  1.
</event>
<event>
 5   0  0.1508771E-06  0.2924582E+04  0.7818609E-02  0.8265601E-01
       -2   -1    0    0    0  501  0.00000000000E+00  0.00000000000E+00  0.11248492467E+04  0.11248492467E+04  0.25500000920E-02 0. -1.
        2   -1    0    0  501    0  0.00000000000E+00  0.00000000000E+00 -0.19009618045E+04  0.19009618045E+04  0.25500000920E-02 0.  1.
    10030    2    1    2    0    0  0.00000000000E+00  0.00000000000E+00 -0.77611255781E+03  0.30258110511E+04  0.29245823317E+04 0.  0.
        4    1    3    3  502    0 -0.14166599725E+04 -0.33499868704E+03 -0.24490440054E+03  0.14761874461E+04  0.12699999809E+01 0.  1.
       -4    1    3    3    0  502  0.14166599725E+04  0.33499868704E+03 -0.53120815727E+03  0.15496236050E+04  0.12699999809E+01 0. -1.
</event>
<event>
 5   0  0.1508771E-06  0.3191786E+04  0.7818609E-02  0.8190990E-01
       -2   -1    0    0    0  501  0.00000000000E+00  0.00000000000E+00  0.15997057877E+04  0.15997057877E+04  0.25500000920E-02 0.  1.
        2   -1    0    0  501    0  0.00000000000E+00  0.00000000000E+00 -0.15920893911E+04  0.15920893911E+04  0.25500000920E-02 0. -1.
    10030    2    1    2    0    0  0.00000000000E+00  0.00000000000E+00  0.76163966034E+01  0.31917951788E+04  0.31917860915E+04 0.  0.
        4    1    3    3  502    0 -0.39251693199E+03 -0.14456739224E+04  0.55411001827E+03  0.15972107428E+04  0.12699999809E+01 0.  1.
       -4    1    3    3    0  502  0.39251693199E+03  0.14456739224E+04 -0.54649362167E+03  0.15945844359E+04  0.12699999809E+01 0. -1.
</event>
<event>
 5   0  0.1493485E-06  0.3261176E+04  0.7818609E-02  0.8172845E-01
        2   -1    0    0  501    0  0.00000000000E+00  0.00000000000E+00  0.17944828754E+04  0.17944828754E+04  0.25500000920E-02 0.  1.
       -2   -1    0    0    0  501  0.00000000000E+00  0.00000000000E+00 -0.14816624152E+04  0.14816624152E+04  0.25500000920E-02 0. -1.
    10030    2    1    2    0    0  0.00000000000E+00  0.00000000000E+00  0.31282046018E+03  0.32761452906E+04  0.32611763714E+04 0.  0.
        2    1    3    3  502    0 -0.90167294069E+03  0.23569194739E+03  0.15005550949E+04  0.17664173852E+04  0.25500000920E-02 0.  1.
       -2    1    3    3    0  502  0.90167294069E+03 -0.23569194739E+03 -0.11877346347E+04  0.15097279054E+04  0.25500000920E-02 0. -1.
</event>
<event>
 5   0  0.5281187E-07  0.3035748E+04  0.7818609E-02  0.8233596E-01
       -1   -1    0    0    0  501  0.00000000000E+00  0.00000000000E+00  0.10147169926E+04  0.10147169926E+04  0.50400001928E-02 0. -1.
        1   -1    0    0  501    0  0.00000000000E+00  0.00000000000E+00 -0.22705256047E+04  0.22705256047E+04  0.50400001928E-02 0.  1.
    10030    2    1    2    0    0  0.00000000000E+00  0.00000000000E+00 -0.12558086121E+04  0.32852425972E+04  0.30357476266E+04 0.  0.
        5    1    3    3  502    0  0.11397900187E+04 -0.40915383347E+03  0.36239355695E+03  0.12640725163E+04  0.46999998093E+01 0. -1.
       -5    1    3    3    0  502 -0.11397900187E+04  0.40915383347E+03 -0.16182021691E+04  0.20211700810E+04  0.46999998093E+01 0.  1.
</event>
<event>
 5   0  0.1556396E-06  0.3203196E+04  0.7818609E-02  0.8187974E-01
       -2   -1    0    0    0  501  0.00000000000E+00  0.00000000000E+00  0.18791220168E+04  0.18791220168E+04  0.25500000920E-02 0.  1.
        2   -1    0    0  501    0  0.00000000000E+00  0.00000000000E+00 -0.13650611298E+04  0.13650611298E+04  0.25500000920E-02 0. -1.
    10030    2    1    2    0    0  0.00000000000E+00  0.00000000000E+00  0.51406088697E+03  0.32441831465E+04  0.32031961683E+04 0.  0.
        3    1    3    3  502    0  0.44407486624E+02  0.24717918456E+03  0.18590563886E+04  0.18759424939E+04  0.10100000352E+00 0.  1.
       -3    1    3    3    0  502 -0.44407486624E+02 -0.24717918456E+03 -0.13449955016E+04  0.13682406527E+04  0.10100000352E+00 0. -1.
</event>
<event>
 5   0  0.4995625E-07  0.3140611E+04  0.7818609E-02  0.8204680E-01
       -3   -1    0    0    0  501  0.00000000000E+00  0.00000000000E+00  0.12598389041E+04  0.12598389081E+04  0.10100000352E+00 0. -1.
        3   -1    0    0  501    0  0.00000000000E+00  0.00000000000E+00 -0.19572811776E+04  0.19572811802E+04  0.10100000352E+00 0.  1.
    10030    2    1    2    0    0  0.00000000000E+00  0.00000000000E+00 -0.69744227351E+03  0.32171200883E+04  0.31406107587E+04 0.  0.
        4    1    3    3  502    0 -0.68320648622E+03  0.38206792998E+03  0.10457316067E+04  0.13062554161E+04  0.12699999809E+01 0. -1.
       -4    1    3    3    0  502  0.68320648622E+03 -0.38206792998E+03 -0.17431738802E+04  0.19108646722E+04  0.12699999809E+01 0.  1.
</event>
<event>
 5   0  0.5177039E-07  0.3196694E+04  0.7818609E-02  0.8189691E-01
        1   -1    0    0  501    0  0.00000000000E+00  0.00000000000E+00  0.93154365856E+03  0.93154365858E+03  0.50400001928E-02 0. -1.
       -1   -1    0    0    0  501  0.00000000000E+00  0.00000000000E+00 -0.27424521036E+04  0.27424521036E+04  0.50400001928E-02 0.  1.
    10030    2    1    2    0    0  0.00000000000E+00  0.00000000000E+00 -0.18109084450E+04  0.36739957622E+04  0.31966944590E+04 0.  0.
        3    1    3    3  502    0  0.13580155403E+04  0.65830484904E+03 -0.15105010513E+04  0.21352247933E+04  0.10100000352E+00 0.  1.
       -3    1    3    3    0  502 -0.13580155403E+04 -0.65830484904E+03 -0.30040739376E+03  0.15387709688E+04  0.10100000352E+00 0. -1.
</event>
<event>
 5   0  0.4995625E-07  0.3183071E+04  0.7818609E-02  0.8193303E-01
       -3   -1    0    0    0  501  0.00000000000E+00  0.00000000000E+00  0.24990817781E+04  0.24990817802E+04  0.10100000352E+00 0.  1.
        3   -1    0    0  501    0  0.00000000000E+00  0.00000000000E+00 -0.10135660787E+04  0.10135660837E+04  0.10100000352E+00 0. -1.
    10030    2    1    2    0    0  0.00000000000E+00  0.00000000000E+00  0.14855156995E+04  0.35126478639E+04  0.31830705493E+04 0.  0.
        1    1    3    3  502    0  0.67871771227E+03  0.72473804188E+03  0.21153608897E+04  0.23368043683E+04  0.50400001928E-02 0.  1.
       -1    1    3    3    0  502 -0.67871771227E+03 -0.72473804188E+03 -0.62984519021E+03  0.11758434955E+04  0.50400001928E-02 0. -1.
</event>
<event>
 5   0  0.1508771E-06  0.3187815E+04  0.7818609E-02  0.8192043E-01
        2   -1    0    0  501    0  0.00000000000E+00  0.00000000000E+00  0.20869642925E+04  0.20869642925E+04  0.25500000920E-02 0.  1.
       -2   -1    0    0    0  501  0.00000000000E+00  0.00000000000E+00 -0.12173384045E+04  0.12173384045E+04  0.25500000920E-02 0. -1.
    10030    2    1    2    0    0  0.00000000000E+00  0.00000000000E+00  0.86962588802E+03  0.33043026971E+04  0.31878154164E+04 0.  0.
        4    1    3    3  502    0  0.14346701371E+04  0.55867345709E+03  0.72528219430E+01  0.15396261398E+04  0.12699999809E+01 0. -1.
       -4    1    3    3    0  502 -0.14346701371E+04 -0.55867345709E+03  0.86237306608E+03  0.17646765573E+04  0.12699999809E+01 0.  1.
</event>
<event>
 5   0  0.5233813E-07  0.3201489E+04  0.7818609E-02  0.8188424E-01
       -1   -1    0    0    0  501  0.00000000000E+00  0.00000000000E+00  0.18513059946E+04  0.18513059947E+04  0.50400001928E-02 0.  1.
        1   -1    0    0  501    0  0.00000000000E+00  0.00000000000E+00 -0.13840946447E+04  0.13840946447E+04  0.50400001928E-02 0. -1.
    10030    2    1    2    0    0  0.00000000000E+00  0.00000000000E+00  0.46721134997E+03  0.32354006393E+04  0.32014888492E+04 0.  0.
        4    1    3    3  502    0  0.69854141536E+03  0.22496162315E+03 -0.12040712157E+04  0.14100911127E+04  0.12699999809E+01 0. -1.
       -4    1    3    3    0  502 -0.69854141536E+03 -0.22496162315E+03  0.16712825656E+04  0.18253095266E+04  0.12699999809E+01 0.  1.
</event>
<event>
 5   0  0.5177039E-07  0.3229875E+04  0.7818609E-02  0.8180971E-01
       -1   -1    0    0    0  501  0.00000000000E+00  0.00000000000E+00  0.12366997251E+04  0.12366997251E+04  0.50400001928E-02 0.  1.
        1   -1    0    0  501    0  0.00000000000E+00  0.00000000000E+00 -0.21088578186E+04  0.21088578186E+04  0.50400001928E-02 0. -1.
    10030    2    1    2    0    0  0.00000000000E+00  0.00000000000E+00 -0.87215809346E+03  0.33455575437E+04  0.32298754679E+04 0.  0.
        3    1    3    3  502    0  0.10452237142E+04  0.23995790195E+03 -0.16867822435E+04  0.19988263443E+04  0.10100000352E+00 0. -1.
       -3    1    3    3    0  502 -0.10452237142E+04 -0.23995790195E+03  0.81462415008E+03  0.13467311994E+04  0.10100000352E+00 0.  1.
</event>
<event>
 5   0  0.1493485E-06  0.3194341E+04  0.7818609E-02  0.8190313E-01
        2   -1    0    0  501    0  0.00000000000E+00  0.00000000000E+00  0.19186220831E+04  0.19186220831E+04  0.25500000920E-02 0. -1.
       -2   -1    0    0    0  501  0.00000000000E+00  0.00000000000E+00 -0.13295754993E+04  0.13295754993E+04  0.25500000920E-02 0.  1.
    10030    2    1    2    0    0  0.00000000000E+00  0.00000000000E+00  0.58904658378E+03  0.32481975824E+04  0.31943405667E+04 0.  0.
        2    1    3    3  502    0  0.99123641585E+03  0.66225332638E+03 -0.78632958795E+03  0.14280907959E+04  0.25500000920E-02 0.  1.
       -2    1    3    3    0  502 -0.99123641585E+03 -0.66225332638E+03  0.13753761717E+04  0.18201067865E+04  0.25500000920E-02 0. -1.
</event>
<event>
 5   0  0.5177039E-07  0.3205843E+04  0.7818609E-02  0.8187276E-01
       -1   -1    0    0    0  501  0.00000000000E+00  0.00000000000E+00  0.17385057756E+04  0.17385057756E+04  0.50400001928E-02 0.  1.
        1   -1    0    0  501    0  0.00000000000E+00  0.00000000000E+00 -0.14779108920E+04  0.14779108920E+04  0.50400001928E-02 0. -1.
    10030    2    1    2    0    0  0.00000000000E+00  0.00000000000E+00  0.26059488356E+03  0.32164166676E+04  0.32058425548E+04 0.  0.
        3    1    3    3  502    0 -0.93878128913E+02 -0.40194350266E+03  0.16842718929E+04  0.17341117328E+04  0.10100000352E+00 0.  1.
       -3    1    3    3    0  502  0.93878128913E+02  0.40194350266E+03 -0.14236770094E+04  0.14823049348E+04  0.10100000352E+00 0. -1.
</event>
<event>
 5   0  0.1508771E-06  0.3006598E+04  0.7818609E-02  0.8241849E-01
       -2   -1    0    0    0  501  0.00000000000E+00  0.00000000000E+00  0.22273715471E+04  0.22273715471E+04  0.25500000920E-02 0. -1.
        2   -1    0    0  501    0  0.00000000000E+00  0.00000000000E+00 -0.10146073518E+04  0.10146073518E+04  0.25500000920E-02 0.  1.
    10030    2    1    2    0    0  0.00000000000E+00  0.00000000000E+00  0.12127641952E+04  0.32419788989E+04  0.30065977762E+04 0.  0.
        4    1    3    3  502    0 -0.14123605528E+04 -0.76307188605E+02  0.57279445180E+02  0.14155803283E+04  0.12699999809E+01 0.  1.
       -4    1    3    3    0  502  0.14123605528E+04  0.76307188605E+02  0.11554847501E+04  0.18263985706E+04  0.12699999809E+01 0. -1.
</event>
<event>
 5   0  0.1538349E-06  0.3197292E+04  0.7818609E-02  0.8189533E-01
        2   -1    0    0  501    0  0.00000000000E+00  0.00000000000E+00  0.17303781584E+04  0.17303781584E+04  0.25500000920E-02 0.  1.
       -2   -1    0    0    0  501  0.00000000000E+00  0.00000000000E+00 -0.14769424361E+04  0.14769424361E+04  0.25500000920E-02 0. -1.
    10030    2    1    2    0    0  0.00000000000E+00  0.00000000000E+00  0.25343572227E+03  0.32073205946E+04  0.31972919371E+04 0.  0.
        1    1    3    3  502    0 -0.14001662443E+04  0.75883668588E+03  0.26633164938E+03  0.16146922850E+04  0.50400001928E-02 0.  1.
       -1    1    3    3    0  502  0.14001662443E+04 -0.75883668588E+03 -0.12895927108E+02  0.15926283096E+04  0.50400001928E-02 0. -1.
</event>
<event>
 5   0  0.1538349E-06  0.3209224E+04  0.7818609E-02  0.8186385E-01
       -2   -1    0    0    0  501  0.00000000000E+00  0.00000000000E+00  0.10126623528E+04  0.10126623528E+04  0.25500000920E-02 0.  1.
        2   -1    0    0  501    0  0.00000000000E+00  0.00000000000E+00 -0.25425840044E+04  0.25425840044E+04  0.25500000920E-02 0. -1.
    10030    2    1    2    0    0  0.00000000000E+00  0.00000000000E+00 -0.15299216515E+04  0.35552463572E+04  0.32092236446E+04 0.  0.
        1    1    3    3  502    0  0.70768209732E+03  0.38827059348E+03  0.77136451758E+03  0.11164995404E+04  0.50400001928E-02 0.  1.
       -1    1    3    3    0  502 -0.70768209732E+03 -0.38827059348E+03 -0.23012861691E+04  0.24387468169E+04  0.50400001928E-02 0. -1.
</event>
<event>
 5   0  0.1556396E-06  0.3199768E+04  0.7818609E-02  0.8188879E-01
        2   -1    0    0  501    0  0.00000000000E+00  0.00000000000E+00  0.74387800198E+03  0.74387800199E+03  0.25500000920E-02 0. -1.
       -2   -1    0    0    0  501  0.00000000000E+00  0.00000000000E+00 -0.34409250935E+04  0.34409250935E+04  0.25500000920E-02 0.  1.
    10030    2    1    2    0    0  0.00000000000E+00  0.00000000000E+00 -0.26970470915E+04  0.41848030955E+04  0.31997677938E+04 0.  0.
        3    1    3    3  502    0 -0.11731654163E+04  0.30133041535E+03 -0.27155267930E+04  0.29734160299E+04  0.10100000352E+00 0.  1.
       -3    1    3    3    0  502  0.11731654163E+04 -0.30133041535E+03  0.18479701437E+02  0.12113870656E+04  0.10100000352E+00 0. -1.
</event>
<event>
 5   0  0.1572769E-06  0.3242066E+04  0.7818609E-02  0.8177795E-01
       -2   -1    0    0    0  501  0.00000000000E+00  0.00000000000E+00  0.13084267030E+04  0.13084267030E+04  0.25500000920E-02 0. -1.
        2   -1    0    0  501    0  0.00000000000E+00  0.00000000000E+00 -0.20083270631E+04  0.20083270631E+04  0.25500000920E-02 0.  1.
    10030    2    1    2    0    0  0.00000000000E+00  0.00000000000E+00 -0.69990036011E+03  0.33167537661E+04  0.32420664754E+04 0.  0.
        5    1    3    3  502    0 -0.10994144661E+04  0.53196092504E+03  0.74045175130E+03  0.14282806027E+04  0.46999998093E+01 0. -1.
       -5    1    3    3    0  502  0.10994144661E+04 -0.53196092504E+03 -0.14403521114E+04  0.18884731634E+04  0.46999998093E+01 0.  1.
</event>
<event>
 5   0  0.5177039E-07  0.3196970E+04  0.7818609E-02  0.8189618E-01
        1   -1    0    0  501    0  0.00000000000E+00  0.00000000000E+00  0.15190799252E+04  0.15190799252E+04  0.50400001928E-02 0. -1.
       -1   -1    0    0    0  501  0.00000000000E+00  0.00000000000E+00 -0.16820406881E+04  0.16820406881E+04  0.50400001928E-02 0.  1.
    10030    2    1    2    0    0  0.00000000000E+00  0.00000000000E+00 -0.16296076293E+03  0.32011206133E+04  0.31969699671E+04 0.  0.
        3    1    3    3  502    0 -0.15887572345E+04  0.16967623202E+03 -0.12860163780E+03  0.16029591278E+04  0.10100000352E+00 0.  1.
       -3    1    3    3    0  502  0.15887572345E+04 -0.16967623202E+03 -0.34359125120E+02  0.15981614855E+04  0.10100000352E+00 0. -1.
</event>
<event>
 5   0  0.5233813E-07  0.3194188E+04  0.7818609E-02  0.8190354E-01
        1   -1    0    0  501    0  0.00000000000E+00  0.00000000000E+00  0.16661716553E+04  0.16661716553E+04  0.50400001928E-02 0. -1.
       -1   -1    0    0    0  501  0.00000000000E+00  0.00000000000E+00 -0.15308800110E+04  0.15308800110E+04  0.50400001928E-02 0.  1.
    10030    2    1    2    0    0  0.00000000000E+00  0.00000000000E+00  0.13529164434E+03  0.31970516663E+04  0.31941877729E+04 0.  0.
        4    1    3    3  502    0  0.87033228597E+03  0.20624797865E+03  0.13919688499E+04  0.16545680429E+04  0.12699999809E+01 0. -1.
       -4    1    3    3    0  502 -0.87033228597E+03 -0.20624797865E+03 -0.12566772055E+04  0.15424836234E+04  0.12699999809E+01 0.  1.
</event>
<event>
 5   0  0.1508771E-06  0.3191073E+04  0.7818609E-02  0.8191179E-01
        2   -1    0    0  501    0  0.00000000000E+00  0.00000000000E+00  0.22237735367E+04  0.22237735367E+04  0.25500000920E-02 0.  1.
       -2   -1    0    0    0  501  0.00000000000E+00  0.00000000000E+00 -0.11447821937E+04  0.11447821937E+04  0.25500000920E-02 0. -1.
    10030    2    1    2    0    0  0.00000000000E+00  0.00000000000E+00  0.10789913430E+04  0.33685557305E+04  0.31910727649E+04 0.  0.
        4    1    3    3  502    0 -0.60414418345E+03 -0.82812570518E+03 -0.75119064435E+03  0.12708545845E+04  0.12699999809E+01 0. -1.
       -4    1    3    3    0  502  0.60414418345E+03  0.82812570518E+03  0.18301819873E+04  0.20977011459E+04  0.12699999809E+01 0.  1.
</event>
<event>
 5   0  0.5177039E-07  0.3265017E+04  0.7818609E-02  0.8171854E-01
       -1   -1    0    0    0  501  0.00000000000E+00  0.00000000000E+00  0.13460845113E+04  0.13460845113E+04  0.50400001928E-02 0. -1.
        1   -1    0    0  501    0  0.00000000000E+00  0.00000000000E+00 -0.19798792525E+04  0.19798792525E+04  0.50400001928E-02 0.  1.
    10030    2    1    2    0    0  0.00000000000E+00  0.00000000000E+00 -0.63379474113E+03  0.33259637638E+04  0.32650174860E+04 0.  0.
        3    1    3    3  502    0  0.15844151986E+03 -0.10642254482E+04 -0.15675797057E+04  0.19013115641E+04  0.10100000352E+00 0.  1.
       -3    1    3    3    0  502 -0.15844151986E+03  0.10642254482E+04  0.93378496454E+03  0.14246521997E+04  0.10100000352E+00 0. -1.
</event>
<event>
 5   0  0.5317728E-07  0.3195489E+04  0.7818609E-02  0.8190010E-01
       -1   -1    0    0    0  501  0.00000000000E+00  0.00000000000E+00  0.10285085329E+04  0.10285085329E+04  0.50400001928E-02 0.  1.
        1   -1    0    0  501    0  0.00000000000E+00  0.00000000000E+00 -0.24820279965E+04  0.24820279965E+04  0.50400001928E-02 0. -1.
    10030    2    1    2    0    0  0.00000000000E+00  0.00000000000E+00 -0.14535194636E+04  0.35105365294E+04  0.31954886783E+04 0.  0.
        2    1    3    3  502    0  0.83402056960E+02 -0.15854114054E+04 -0.52931333572E+03  0.16735166073E+04  0.25500000920E-02 0.  1.
       -2    1    3    3    0  502 -0.83402056960E+02  0.15854114054E+04 -0.92420612789E+03  0.18370199221E+04  0.25500000920E-02 0. -1.
</event>
<event>
 5   0  0.5177039E-07  0.3178551E+04  0.7818609E-02  0.8194505E-01
       -1   -1    0    0    0  501  0.00000000000E+00  0.00000000000E+00  0.14736105017E+04  0.14736105017E+04  0.50400001928E-02 0. -1.
        1   -1    0    0  501    0  0.00000000000E+00  0.00000000000E+00 -0.17140187242E+04  0.17140187242E+04  0.50400001928E-02 0.  1.
    10030    2    1    2    0    0  0.00000000000E+00  0.00000000000E+00 -0.24040822257E+03  0.31876292259E+04  0.31785506081E+04 0.  0.
        3    1    3    3  502    0 -0.87869636047E+03 -0.43247525219E+03 -0.13754395550E+04  0.16884833779E+04  0.10100000352E+00 0.  1.
       -3    1    3    3    0  502  0.87869636047E+03  0.43247525219E+03  0.11350313325E+04  0.14991458480E+04  0.10100000352E+00 0. -1.
</event>
<event>
 5   0  0.5177039E-07  0.3224933E+04  0.7818609E-02  0.8182263E-01
       -1   -1    0    0    0  501  0.00000000000E+00  0.00000000000E+00  0.96127866012E+03  0.96127866013E+03  0.50400001928E-02 0. -1.
        1   -1    0    0  501    0  0.00000000000E+00  0.00000000000E+00 -0.27047804903E+04  0.27047804903E+04  0.50400001928E-02 0.  1.
    10030    2    1    2    0    0  0.00000000000E+00  0.00000000000E+00 -0.17435018302E+04  0.36660591504E+04  0.32249327222E+04 0.  0.
        3    1    3    3  502    0  0.62477044648E+03  0.66768960277E+03  0.63803656089E+03  0.11150059102E+04  0.10100000352E+00 0. -1.
       -3    1    3    3    0  502 -0.62477044648E+03 -0.66768960277E+03 -0.23815383911E+04  0.25510532403E+04  0.10100000352E+00 0.  1.
</event>
<event>
 5   0  0.5281187E-07  0.3195951E+04  0.7818609E-02  0.8189887E-01
       -1   -1    0    0    0  501  0.00000000000E+00  0.00000000000E+00  0.14133205130E+04  0.14133205130E+04  0.50400001928E-02 0. -1.
        1   -1    0    0  501    0  0.00000000000E+00  0.00000000000E+00 -0.18067565640E+04  0.18067565640E+04  0.50400001928E-02 0.  1.
    10030    2    1    2    0    0  0.00000000000E+00  0.00000000000E+00 -0.39343605104E+03  0.32200770770E+04  0.31959512598E+04 0.  0.
        5    1    3    3  502    0  0.47475712088E+02 -0.11821614522E+03 -0.18016251021E+04  0.18061295908E+04  0.46999998093E+01 0.  1.
       -5    1    3    3    0  502 -0.47475712088E+02  0.11821614522E+03  0.14081890510E+04  0.14139474862E+04  0.46999998093E+01 0. -1.
</event>
<event>
 5   0  0.5317728E-07  0.3219074E+04  0.7818609E-02  0.8183798E-01
       -1   -1    0    0    0  501  0.00000000000E+00  0.00000000000E+00  0.28875625552E+04  0.28875625552E+04  0.50400001928E-02 0. -1.
        1   -1    0    0  501    0  0.00000000000E+00  0.00000000000E+00 -0.89716111466E+03  0.89716111467E+03  0.50400001928E-02 0.  1.
    10030    2    1    2    0    0  0.00000000000E+00  0.00000000000E+00  0.19904014405E+04  0.37847236698E+04  0.32190736808E+04 0.  0.
        2    1    3    3  502    0  0.15627253244E+03 -0.43213437391E+02  0.28779365915E+04  0.28825002221E+04  0.25500000920E-02 0. -1.
       -2    1    3    3    0  502 -0.15627253244E+03  0.43213437391E+02 -0.88753515096E+03  0.90222344780E+03  0.25500000920E-02 0.  1.
</event>
<event>
 5   0  0.5317728E-07  0.3194941E+04  0.7818609E-02  0.8190155E-01
        1   -1    0    0  501    0  0.00000000000E+00  0.00000000000E+00  0.17248481200E+04  0.17248481200E+04  0.50400001928E-02 0. -1.
       -1   -1    0    0    0  501  0.00000000000E+00  0.00000000000E+00 -0.14794994036E+04  0.14794994036E+04  0.50400001928E-02 0.  1.
    10030    2    1    2    0    0  0.00000000000E+00  0.00000000000E+00  0.24534871633E+03  0.32043475236E+04  0.31949408538E+04 0.  0.
        2    1    3    3  502    0  0.59460026218E+03 -0.20526273710E+03 -0.13500595294E+04  0.14894102846E+04  0.25500000920E-02 0.  1.
       -2    1    3    3    0  502 -0.59460026218E+03  0.20526273710E+03  0.15954082457E+04  0.17149372390E+04  0.25500000920E-02 0. -1.
</event>
<event>
 5   0  0.1572769E-06  0.3212922E+04  0.7818609E-02  0.8185413E-01
       -2   -1    0    0    0  501  0.00000000000E+00  0.00000000000E+00  0.19589181917E+04  0.19589181917E+04  0.25500000920E-02 0.  1.
        2   -1    0    0  501    0  0.00000000000E+00  0.00000000000E+00 -0.13174195430E+04  0.13174195430E+04  0.25500000920E-02 0. -1.
    10030    2    1    2    0    0  0.00000000000E+00  0.00000000000E+00  0.64149864865E+03  0.32763377347E+04  0.32129221024E+04 0.  0.
        5    1    3    3  502    0  0.25358508642E+03 -0.14964113122E+04  0.85758364582E+03  0.17432796709E+04  0.46999998093E+01 0.  1.
       -5    1    3    3    0  502 -0.25358508642E+03  0.14964113122E+04 -0.21608499717E+03  0.15330580639E+04  0.46999998093E+01 0. -1.
</event>
<event>
 5   0  0.5177039E-07  0.3206759E+04  0.7818609E-02  0.8187035E-01
       -1   -1    0    0    0  501  0.00000000000E+00  0.00000000000E+00  0.14250822949E+04  0.14250822949E+04  0.50400001928E-02 0. -1.
        1   -1    0    0  501    0  0.00000000000E+00  0.00000000000E+00 -0.18039837055E+04  0.18039837055E+04  0.50400001928E-02 0.  1.
    10030    2    1    2    0    0  0.00000000000E+00  0.00000000000E+00 -0.37890141065E+03  0.32290660004E+04  0.32067586370E+04 0.  0.
        3    1    3    3  502    0 -0.11253089548E+04  0.86469635535E+02 -0.13362444686E+04  0.17490987770E+04  0.10100000352E+00 0.  1.
       -3    1    3    3    0  502  0.11253089548E+04 -0.86469635535E+02  0.95734305797E+03  0.14799672234E+04  0.10100000352E+00 0. -1.
</event>
<event>
 5   0  0.1572769E-06  0.2809003E+04  0.7818609E-02  0.8300479E-01
        2   -1    0    0  501    0  0.00000000000E+00  0.00000000000E+00  0.17116773367E+04  0.17116773367E+04  0.25500000920E-02 0. -1.
       -2   -1    0    0    0  501  0.00000000000E+00  0.00000000000E+00 -0.11524512627E+04  0.11524512627E+04  0.25500000920E-02 0.  1.
    10030    2    1    2    0    0  0.00000000000E+00  0.00000000000E+00  0.55922607399E+03  0.28641285994E+04  0.28090031741E+04 0.  0.
        5    1    3    3  502    0 -0.45692104133E+03 -0.11181093283E+04  0.10103768285E+04  0.15747471968E+04  0.46999998093E+01 0. -1.
       -5    1    3    3    0  502  0.45692104133E+03  0.11181093283E+04 -0.45115075452E+03  0.12893814026E+04  0.46999998093E+01 0.  1.
</event>
<event>
 5   0  0.5177039E-07  0.3200480E+04  0.7818609E-02  0.8188691E-01
        1   -1    0    0  501    0  0.00000000000E+00  0.00000000000E+00  0.28625303754E+04  0.28625303754E+04  0.50400001928E-02 0.  1.
       -1   -1    0    0    0  501  0.00000000000E+00  0.00000000000E+00 -0.89458173758E+03  0.89458173760E+03  0.50400001928E-02 0. -1.
    10030    2    1    2    0    0  0.00000000000E+00  0.00000000000E+00  0.19679486378E+04  0.37571121130E+04  0.32004795872E+04 0.  0.
        3    1    3    3  502    0  0.70412496465E+03 -0.14294564341E+04  0.81132511362E+03  0.17881236291E+04  0.10100000352E+00 0.  1.
       -3    1    3    3    0  502 -0.70412496465E+03  0.14294564341E+04  0.11566235242E+04  0.19689884839E+04  0.10100000352E+00 0. -1.
</event>
<event>
 5   0  0.1508771E-06  0.3221436E+04  0.7818609E-02  0.8183179E-01
        2   -1    0    0  501    0  0.00000000000E+00  0.00000000000E+00  0.16755255333E+04  0.16755255333E+04  0.25500000920E-02 0. -1.
       -2   -1    0    0    0  501  0.00000000000E+00  0.00000000000E+00 -0.15484175111E+04  0.15484175111E+04  0.25500000920E-02 0.  1.
    10030    2    1    2    0    0  0.00000000000E+00  0.00000000000E+00  0.12710802221E+03  0.32239430444E+04  0.32214363728E+04 0.  0.
        4    1    3    3  502    0 -0.72870786504E+03  0.10329082337E+04 -0.93546965603E+03  0.15725837536E+04  0.12699999809E+01 0.  1.
       -4    1    3    3    0  502  0.72870786504E+03 -0.10329082337E+04  0.10625776782E+04  0.16513592907E+04  0.12699999809E+01 0. -1.
</event>
<event>
 5   0  0.5233813E-07  0.3207627E+04  0.7818609E-02  0.8186806E-01
        1   -1    0    0  501    0  0.00000000000E+00  0.00000000000E+00  0.13227705545E+04  0.13227705545E+04  0.50400001928E-02 0.  1.
       -1   -1    0    0    0  501  0.00000000000E+00  0.00000000000E+00 -0.19445679960E+04  0.19445679960E+04  0.50400001928E-02 0. -1.
    10030    2    1    2    0    0  0.00000000000E+00  0.00000000000E+00 -0.62179744155E+03  0.32673385505E+04  0.32076267154E+04 0.  0.
        4    1    3    3  502    0  0.13214809250E+04  0.63728464376E+03 -0.97085795650E+03  0.17592641464E+04  0.12699999809E+01 0. -1.
       -4    1    3    3    0  502 -0.13214809250E+04 -0.63728464376E+03  0.34906051495E+03  0.15080744041E+04  0.12699999809E+01 0.  1.
</event>
<event>
 5   0  0.1508771E-06  0.3207679E+04  0.7818609E-02  0.8186792E-01
        2   -1    0    0  501    0  0.00000000000E+00  0.00000000000E+00  0.30027589732E+04  0.30027589732E+04  0.25500000920E-02 0.  1.
       -2   -1    0    0    0  501  0.00000000000E+00  0.00000000000E+00 -0.85664608239E+03  0.85664608239E+03  0.25500000920E-02 0. -1.
    10030    2    1    2    0    0  0.00000000000E+00  0.00000000000E+00  0.21461128908E+04  0.38594050556E+04  0.32076793548E+04 0.  0.
        4    1    3    3  502    0 -0.11384265725E+03  0.58024987568E+03  0.28668190062E+04  0.29271663595E+04  0.12699999809E+01 0.  1.
       -4    1    3    3    0  502  0.11384265725E+03 -0.58024987568E+03 -0.72070611540E+03  0.93223869610E+03  0.12699999809E+01 0. -1.
</event>
<event>
 5   0  0.1493485E-06  0.3190674E+04  0.7818609E-02  0.8191284E-01
        2   -1    0    0  501    0  0.00000000000E+00  0.00000000000E+00  0.28497501728E+04  0.28497501728E+04  0.25500000920E-02 0.  1.
       -2   -1    0    0    0  501  0.00000000000E+00  0.00000000000E+00 -0.89309592048E+03  0.89309592048E+03  0.25500000920E-02 0. -1.
    10030    2    1    2    0    0  0.00000000000E+00  0.00000000000E+00  0.19566542523E+04  0.37428460932E+04  0.31906740690E+04 0.  0.
        2    1    3    3  502    0  0.79527363185E+03 -0.35608325465E+03 -0.58929500331E+03  0.10519144617E+04  0.25500000920E-02 0. -1.
       -2    1    3    3    0  502 -0.79527363185E+03  0.35608325465E+03  0.25459492556E+04  0.26909316316E+04  0.25500000920E-02 0.  1.
</event>
<event>
 5   0  0.5370912E-07  0.3213502E+04  0.7818609E-02  0.8185260E-01
        1   -1    0    0  501    0  0.00000000000E+00  0.00000000000E+00  0.23972601331E+04  0.23972601331E+04  0.50400001928E-02 0. -1.
       -1   -1    0    0    0  501  0.00000000000E+00  0.00000000000E+00 -0.10769163954E+04  0.10769163954E+04  0.50400001928E-02 0.  1.
    10030    2    1    2    0    0  0.00000000000E+00  0.00000000000E+00  0.13203437377E+04  0.34741765285E+04  0.32135019785E+04 0.  0.
        1    1    3    3  502    0  0.13503481479E+04 -0.78168327733E+03  0.24541123967E+03  0.15794605229E+04  0.50400001928E-02 0.  1.
       -1    1    3    3    0  502 -0.13503481479E+04  0.78168327733E+03  0.10749324980E+04  0.18947160057E+04  0.50400001928E-02 0. -1.
</event>
<event>
 5   0  0.4995625E-07  0.3216177E+04  0.7818609E-02  0.8184558E-01
       -3   -1    0    0    0  501  0.00000000000E+00  0.00000000000E+00  0.15460909065E+04  0.15460909098E+04  0.10100000352E+00 0.  1.
        3   -1    0    0  501    0  0.00000000000E+00  0.00000000000E+00 -0.16725723280E+04  0.16725723311E+04  0.10100000352E+00 0. -1.
    10030    2    1    2    0    0  0.00000000000E+00  0.00000000000E+00 -0.12648142152E+03  0.32186632409E+04  0.32161771575E+04 0.  0.
        3    1    3    3  502    0  0.78017974795E+03  0.11294727958E+04  0.77499830786E+03  0.15763919636E+04  0.10100000352E+00 0.  1.
       -3    1    3    3    0  502 -0.78017974795E+03 -0.11294727958E+04 -0.90147972937E+03  0.16422712773E+04  0.10100000352E+00 0. -1.
</event>
<event>
 5   0  0.5370912E-07  0.3164440E+04  0.7818609E-02  0.8198272E-01
       -1   -1    0    0    0  501  0.00000000000E+00  0.00000000000E+00  0.10134821851E+04  0.10134821851E+04  0.50400001928E-02 0. -1.
        1   -1    0    0  501    0  0.00000000000E+00  0.00000000000E+00 -0.24701176357E+04  0.24701176357E+04  0.50400001928E-02 0.  1.
    10030    2    1    2    0    0  0.00000000000E+00  0.00000000000E+00 -0.14566354506E+04  0.34835998208E+04  0.31644400572E+04 0.  0.
        1    1    3    3  502    0 -0.11652413107E+04 -0.21402338831E+03 -0.18828167068E+04  0.22245431159E+04  0.50400001928E-02 0.  1.
       -1    1    3    3    0  502  0.11652413107E+04  0.21402338831E+03  0.42618125619E+03  0.12590567049E+04  0.50400001928E-02 0. -1.
</event>
<event>
 5   0  0.1572769E-06  0.3200619E+04  0.7818609E-02  0.8188654E-01
        2   -1    0    0  501    0  0.00000000000E+00  0.00000000000E+00  0.84158676847E+03  0.84158676847E+03  0.25500000920E-02 0.  1.
       -2   -1    0    0    0  501  0.00000000000E+00  0.00000000000E+00 -0.30430504655E+04  0.30430504655E+04  0.25500000920E-02 0. -1.
    10030    2    1    2    0    0  0.00000000000E+00  0.00000000000E+00 -0.22014636971E+04  0.38846372340E+04  0.32006193198E+04 0.  0.
        5    1    3    3  502    0  0.71718280355E+03 -0.45856173350E+02  0.63471609833E+03  0.95882249548E+03  0.46999998093E+01 0.  1.
       -5    1    3    3    0  502 -0.71718280355E+03  0.45856173350E+02 -0.28361797954E+04  0.29258147385E+04  0.46999998093E+01 0. -1.
</event>
<event>
 5   0  0.1556396E-06  0.3207766E+04  0.7818609E-02  0.8186769E-01
        2   -1    0    0  501    0  0.00000000000E+00  0.00000000000E+00  0.20515987348E+04  0.20515987348E+04  0.25500000920E-02 0.  1.
       -2   -1    0    0    0  501  0.00000000000E+00  0.00000000000E+00 -0.12538713801E+04  0.12538713801E+04  0.25500000920E-02 0. -1.
    10030    2    1    2    0    0  0.00000000000E+00  0.00000000000E+00  0.79772735466E+03  0.33054701149E+04  0.32077661617E+04 0.  0.
        3    1    3    3  502    0  0.71247050218E+03  0.68948553907E+03 -0.90026482415E+03  0.13392092028E+04  0.10100000352E+00 0. -1.
       -3    1    3    3    0  502 -0.71247050218E+03 -0.68948553907E+03  0.16979921788E+04  0.19662609121E+04  0.10100000352E+00 0.  1.
</event>
<event>
 5   0  0.1556396E-06  0.3177072E+04  0.7818609E-02  0.8194899E-01
       -2   -1    0    0    0  501  0.00000000000E+00  0.00000000000E+00  0.15715831171E+04  0.15715831171E+04  0.25500000920E-02 0. -1.
        2   -1    0    0  501    0  0.00000000000E+00  0.00000000000E+00 -0.16056715742E+04  0.16056715742E+04  0.25500000920E-02 0.  1.
    10030    2    1    2    0    0  0.00000000000E+00  0.00000000000E+00 -0.34088457143E+02  0.31772546913E+04  0.31770718202E+04 0.  0.
        3    1    3    3  502    0 -0.39796450433E+03  0.12218515357E+04  0.91689892255E+03  0.15786071602E+04  0.10100000352E+00 0. -1.
       -3    1    3    3    0  502  0.39796450433E+03 -0.12218515357E+04 -0.95098737969E+03  0.15986475310E+04  0.10100000352E+00 0.  1.
</event>
<event>
 5   0  0.5317728E-07  0.3178524E+04  0.7818609E-02  0.8194512E-01
        1   -1    0    0  501    0  0.00000000000E+00  0.00000000000E+00  0.29636088913E+04  0.29636088913E+04  0.50400001928E-02 0. -1.
       -1   -1    0    0    0  501  0.00000000000E+00  0.00000000000E+00 -0.85225626124E+03  0.85225626125E+03  0.50400001928E-02 0.  1.
    10030    2    1    2    0    0  0.00000000000E+00  0.00000000000E+00  0.21113526300E+04  0.38158651525E+04  0.31785243328E+04 0.  0.
        2    1    3    3  502    0  0.68820596551E+03 -0.10622327870E+04  0.22095378728E+04  0.25463745907E+04  0.25500000920E-02 0. -1.
       -2    1    3    3    0  502 -0.68820596551E+03  0.10622327870E+04 -0.98185242793E+02  0.12694905618E+04  0.25500000920E-02 0.  1.
</event>
<event>
 5   0  0.1508771E-06  0.3219508E+04  0.7818609E-02  0.8183684E-01
       -2   -1    0    0    0  501  0.00000000000E+00  0.00000000000E+00  0.11945783428E+04  0.11945783428E+04  0.25500000920E-02 0. -1.
        2   -1    0    0  501    0  0.00000000000E+00  0.00000000000E+00 -0.21692238017E+04  0.21692238017E+04  0.25500000920E-02 0.  1.
    10030    2    1    2    0    0  0.00000000000E+00  0.00000000000E+00 -0.97464545895E+03  0.33638021445E+04  0.32195078967E+04 0.  0.
        4    1    3    3  502    0 -0.13797552093E+04 -0.76096113570E+03 -0.14313483755E+03  0.15821742894E+04  0.12699999809E+01 0.  1.
       -4    1    3    3    0  502  0.13797552093E+04  0.76096113570E+03 -0.83151062140E+03  0.17816278551E+04  0.12699999809E+01 0. -1.
</event>
<event>
 5   0  0.5370912E-07  0.3237153E+04  0.7818609E-02  0.8179074E-01
        1   -1    0    0  501    0  0.00000000000E+00  0.00000000000E+00  0.34811088477E+04  0.34811088477E+04  0.50400001928E-02 0. -1.
       -1   -1    0    0    0  501  0.00000000000E+00  0.00000000000E+00 -0.75257332054E+03  0.75257332056E+03  0.50400001928E-02 0.  1.
    10030    2    1    2    0    0  0.00000000000E+00  0.00000000000E+00  0.27285355271E+04  0.42336821682E+04  0.32371528507E+04 0.  0.
        1    1    3    3  502    0  0.14021779738E+04  0.57245826861E+03  0.21109731096E+04  0.25980798697E+04  0.50400001928E-02 0.  1.
       -1    1    3    3    0  502 -0.14021779738E+04 -0.57245826861E+03  0.61756241747E+03  0.16356022985E+04  0.50400001928E-02 0. -1.
</event>
<event>
 5   0  0.1556396E-06  0.3188459E+04  0.7818609E-02  0.8191872E-01
       -2   -1    0    0    0  501  0.00000000000E+00  0.00000000000E+00  0.10894279242E+04  0.10894279242E+04  0.25500000920E-02 0.  1.
        2   -1    0    0  501    0  0.00000000000E+00  0.00000000000E+00 -0.23329375340E+04  0.23329375340E+04  0.25500000920E-02 0. -1.
    10030    2    1    2    0    0  0.00000000000E+00  0.00000000000E+00 -0.12435096098E+04  0.34223654582E+04  0.31884587468E+04 0.  0.
        3    1    3    3  502    0  0.44690529696E+03  0.14144934212E+04 -0.12485929795E+04  0.19389431198E+04  0.10100000352E+00 0. -1.
       -3    1    3    3    0  502 -0.44690529696E+03 -0.14144934212E+04  0.50833697487E+01  0.14834223384E+04  0.10100000352E+00 0.  1.
</event>
<event>
 5   0  0.5370912E-07  0.3172809E+04  0.7818609E-02  0.8196035E-01
       -1   -1    0    0    0  501  0.00000000000E+00  0.00000000000E+00  0.11281099331E+04  0.11281099331E+04  0.50400001928E-02 0. -1.
        1   -1    0    0  501    0  0.00000000000E+00  0.00000000000E+00 -0.22308815063E+04  0.22308815064E+04  0.50400001928E-02 0.  1.
    10030    2    1    2    0    0  0.00000000000E+00  0.00000000000E+00 -0.11027715732E+04  0.33589914395E+04  0.31728092202E+04 0.  0.
        1    1    3    3  502    0 -0.37425475826E+00  0.73729347745E+03 -0.20384750580E+04  0.21677136283E+04  0.50400001928E-02 0.  1.
       -1    1    3    3    0  502  0.37425475826E+00 -0.73729347745E+03  0.93570348479E+03  0.11912778112E+04  0.50400001928E-02 0. -1.
</event>
<event>
 5   0  0.1572769E-06  0.3331289E+04  0.7818609E-02  0.8154979E-01
       -2   -1    0    0    0  501  0.00000000000E+00  0.00000000000E+00  0.13273702554E+04  0.13273702554E+04  0.25500000920E-02 0. -1.
        2   -1    0    0  501    0  0.00000000000E+00  0.00000000000E+00 -0.20901270111E+04  0.20901270111E+04  0.25500000920E-02 0.  1.
    10030    2    1    2    0    0  0.00000000000E+00  0.00000000000E+00 -0.76275675577E+03  0.34174972665E+04  0.33312894948E+04 0.  0.
        5    1    3    3  502    0  0.11268282057E+04  0.89724841382E+03  0.47665931161E+03  0.15172418102E+04  0.46999998093E+01 0. -1.
       -5    1    3    3    0  502 -0.11268282057E+04 -0.89724841382E+03 -0.12394160674E+04  0.19002554563E+04  0.46999998093E+01 0.  1.
</event>
<event>
 5   0  0.4995625E-07  0.3196694E+04  0.7818609E-02  0.8189691E-01
        3   -1    0    0  501    0  0.00000000000E+00  0.00000000000E+00  0.18875368640E+04  0.18875368667E+04  0.10100000352E+00 0. -1.
       -3   -1    0    0    0  501  0.00000000000E+00  0.00000000000E+00 -0.13534643497E+04  0.13534643535E+04  0.10100000352E+00 0.  1.
    10030    2    1    2    0    0  0.00000000000E+00  0.00000000000E+00  0.53407251428E+03  0.32410012202E+04  0.31966944582E+04 0.  0.
        5    1    3    3  502    0  0.11094377645E+04  0.26752119185E+03  0.14015960983E+04  0.18074604987E+04  0.46999998093E+01 0. -1.
       -5    1    3    3    0  502 -0.11094377645E+04 -0.26752119185E+03 -0.86752358403E+03  0.14335407215E+04  0.46999998093E+01 0.  1.
</event>
<event>
 5   0  0.5233813E-07  0.3194216E+04  0.7818609E-02  0.8190346E-01
       -1   -1    0    0    0  501  0.00000000000E+00  0.00000000000E+00  0.12602473370E+04  0.12602473371E+04  0.50400001928E-02 0. -1.
        1   -1    0    0  501    0  0.00000000000E+00  0.00000000000E+00 -0.20240105190E+04  0.20240105190E+04  0.50400001928E-02 0.  1.
    10030    2    1    2    0    0  0.00000000000E+00  0.00000000000E+00 -0.76376318194E+03  0.32842578561E+04  0.31942159393E+04 0.  0.
        4    1    3    3  502    0 -0.93371927249E+03 -0.99312580883E+03 -0.12375805871E+04  0.18411240790E+04  0.12699999809E+01 0.  1.
       -4    1    3    3    0  502  0.93371927249E+03  0.99312580883E+03  0.47381740517E+03  0.14431337770E+04  0.12699999809E+01 0. -1.
</event>
<event>
 5   0  0.1493485E-06  0.3195487E+04  0.7818609E-02  0.8190010E-01
       -2   -1    0    0    0  501  0.00000000000E+00  0.00000000000E+00  0.16371785651E+04  0.16371785651E+04  0.25500000920E-02 0.  1.
        2   -1    0    0  501    0  0.00000000000E+00  0.00000000000E+00 -0.15592580790E+04  0.15592580790E+04  0.25500000920E-02 0. -1.
    10030    2    1    2    0    0  0.00000000000E+00  0.00000000000E+00  0.77920486146E+02  0.31964366441E+04  0.31954867575E+04 0.  0.
        2    1    3    3  502    0 -0.65458627866E+03  0.14181633447E+04 -0.29746314177E+03  0.15900172292E+04  0.25500000920E-02 0. -1.
       -2    1    3    3    0  502  0.65458627866E+03 -0.14181633447E+04  0.37538362792E+03  0.16064194149E+04  0.25500000920E-02 0.  1.
</event>
<event>
 5   0  0.1556396E-06  0.3202637E+04  0.7818609E-02  0.8188121E-01
        2   -1    0    0  501    0  0.00000000000E+00  0.00000000000E+00  0.14732968109E+04  0.14732968109E+04  0.25500000920E-02 0. -1.
       -2   -1    0    0    0  501  0.00000000000E+00  0.00000000000E+00 -0.17404646331E+04  0.17404646331E+04  0.25500000920E-02 0.  1.
    10030    2    1    2    0    0  0.00000000000E+00  0.00000000000E+00 -0.26716782216E+03  0.32137614440E+04  0.32026370343E+04 0.  0.
        3    1    3    3  502    0 -0.88888883440E+03  0.13194568476E+04 -0.31623607790E+03  0.16220650418E+04  0.10100000352E+00 0. -1.
       -3    1    3    3    0  502  0.88888883440E+03 -0.13194568476E+04  0.49068255747E+02  0.15916964022E+04  0.10100000352E+00 0.  1.
</event>
<event>
 5   0  0.5281187E-07  0.3223174E+04  0.7818609E-02  0.8182724E-01
       -1   -1    0    0    0  501  0.00000000000E+00  0.00000000000E+00  0.11812299929E+04  0.11812299929E+04  0.50400001928E-02 0.  1.
        1   -1    0    0  501    0  0.00000000000E+00  0.00000000000E+00 -0.21987354229E+04  0.21987354229E+04  0.50400001928E-02 0. -1.
    10030    2    1    2    0    0  0.00000000000E+00  0.00000000000E+00 -0.10175054300E+04  0.33799654157E+04  0.32231737328E+04 0.  0.
        5    1    3    3  502    0  0.13975558350E+04 -0.78389365172E+03 -0.68898113075E+03  0.17442387043E+04  0.46999998093E+01 0. -1.
       -5    1    3    3    0  502 -0.13975558350E+04  0.78389365172E+03 -0.32852429927E+03  0.16357267114E+04  0.46999998093E+01 0.  1.
</event>
<event>
 5   0  0.4995625E-07  0.3212047E+04  0.7818609E-02  0.8185643E-01
        4   -1    0    0  501    0  0.00000000000E+00  0.00000000000E+00  0.13380529344E+04  0.13380535371E+04  0.12699999809E+01 0. -1.
       -4   -1    0    0    0  501  0.00000000000E+00  0.00000000000E+00 -0.19276595153E+04  0.19276599337E+04  0.12699999809E+01 0.  1.
    10030    2    1    2    0    0  0.00000000000E+00  0.00000000000E+00 -0.58960658099E+03  0.32657134708E+04  0.32120474082E+04 0.  0.
        1    1    3    3  502    0 -0.10769429351E+04 -0.65261264540E+03 -0.13082537681E+04  0.18158296375E+04  0.50400001928E-02 0.  1.
       -1    1    3    3    0  502  0.10769429351E+04  0.65261264540E+03  0.71864718712E+03  0.14498838333E+04  0.50400001928E-02 0. -1.
</event>
<event>
 5   0  0.1508771E-06  0.3185964E+04  0.7818609E-02  0.8192534E-01
        2   -1    0    0  501    0  0.00000000000E+00  0.00000000000E+00  0.13375841981E+04  0.13375841981E+04  0.25500000920E-02 0. -1.
       -2   -1    0    0    0  501  0.00000000000E+00  0.00000000000E+00 -0.18971456907E+04  0.18971456907E+04  0.25500000920E-02 0.  1.
    10030    2    1    2    0    0  0.00000000000E+00  0.00000000000E+00 -0.55956149261E+03  0.32347298887E+04  0.31859642793E+04 0.  0.
        4    1    3    3  502    0 -0.11468250060E+04  0.50018601424E+03 -0.12808732791E+04  0.17905394755E+04  0.12699999809E+01 0.  1.
       -4    1    3    3    0  502  0.11468250060E+04 -0.50018601424E+03  0.72131178654E+03  0.14441904132E+04  0.12699999809E+01 0. -1.
</event>
<event>
 5   0  0.1493485E-06  0.3207720E+04  0.7818609E-02  0.8186781E-01
        2   -1    0    0  501    0  0.00000000000E+00  0.00000000000E+00  0.16256136298E+04  0.16256136298E+04  0.25500000920E-02 0.  1.
       -2   -1    0    0    0  501  0.00000000000E+00  0.00000000000E+00 -0.15823978152E+04  0.15823978152E+04  0.25500000920E-02 0. -1.
    10030    2    1    2    0    0  0.00000000000E+00  0.00000000000E+00  0.43215814629E+02  0.32080114449E+04  0.32077203470E+04 0.  0.
        2    1    3    3  502    0  0.21930261606E+03 -0.12609474434E+04 -0.94506418943E+03  0.15909834740E+04  0.25500000920E-02 0. -1.
       -2    1    3    3    0  502 -0.21930261606E+03  0.12609474434E+04  0.98828000406E+03  0.16170279709E+04  0.25500000920E-02 0.  1.
</event>
<event>
 5   0  0.5317728E-07  0.3214696E+04  0.7818609E-02  0.8184947E-01
       -1   -1    0    0    0  501  0.00000000000E+00  0.00000000000E+00  0.20645710273E+04  0.20645710273E+04  0.50400001928E-02 0.  1.
        1   -1    0    0  501    0  0.00000000000E+00  0.00000000000E+00 -0.12513819138E+04  0.12513819139E+04  0.50400001928E-02 0. -1.
    10030    2    1    2    0    0  0.00000000000E+00  0.00000000000E+00  0.81318911343E+03  0.33159529411E+04  0.32146955336E+04 0.  0.
        2    1    3    3  502    0 -0.49758076006E+01 -0.14565391653E+04 -0.29454795395E+03  0.14860314922E+04  0.25500000920E-02 0.  1.
       -2    1    3    3    0  502  0.49758076006E+01  0.14565391653E+04  0.11077370674E+04  0.18299214489E+04  0.25500000920E-02 0. -1.
</event>
<event>
 5   0  0.1493485E-06  0.3192404E+04  0.7818609E-02  0.8190826E-01
        2   -1    0    0  501    0  0.00000000000E+00  0.00000000000E+00  0.24477509670E+04  0.24477509670E+04  0.25500000920E-02 0.  1.
       -2   -1    0    0    0  501  0.00000000000E+00  0.00000000000E+00 -0.10408990303E+04  0.10408990303E+04  0.25500000920E-02 0. -1.
    10030    2    1    2    0    0  0.00000000000E+00  0.00000000000E+00  0.14068519367E+04  0.34886499972E+04  0.31924044906E+04 0.  0.
        2    1    3    3  502    0  0.10075371427E+04 -0.90366263918E+03  0.16281959152E+04  0.21172527477E+04  0.25500000920E-02 0.  1.
       -2    1    3    3    0  502 -0.10075371427E+04  0.90366263918E+03 -0.22134397851E+03  0.13713972496E+04  0.25500000920E-02 0. -1.
</event>
<event>
 5   0  0.1572769E-06  0.3100791E+04  0.7818609E-02  0.8215521E-01
        2   -1    0    0  501    0  0.00000000000E+00  0.00000000000E+00  0.23166050225E+04  0.23166050225E+04  0.25500000920E-02 0.  1.
       -2   -1    0    0    0  501  0.00000000000E+00  0.00000000000E+00 -0.10376072510E+04  0.10376072510E+04  0.25500000920E-02 0. -1.
    10030    2    1    2    0    0  0.00000000000E+00  0.00000000000E+00  0.12789977716E+04  0.33542122735E+04  0.31007909759E+04 0.  0.
        5    1    3    3  502    0 -0.11528291122E+04 -0.80414578827E+03 -0.68217994577E+02  0.14072459612E+04  0.46999998093E+01 0. -1.
       -5    1    3    3    0  502  0.11528291122E+04  0.80414578827E+03  0.13472157661E+04  0.19469663123E+04  0.46999998093E+01 0.  1.
</event>
<event>
 5   0  0.1508771E-06  0.3195303E+04  0.7818609E-02  0.8190059E-01
        2   -1    0    0  501    0  0.00000000000E+00  0.00000000000E+00  0.18291528194E+04  0.18291528194E+04  0.25500000920E-02 0. -1.
       -2   -1    0    0    0  501  0.00000000000E+00  0.00000000000E+00 -0.13954494956E+04  0.13954494956E+04  0.25500000920E-02 0.  1.
    10030    2    1    2    0    0  0.00000000000E+00  0.00000000000E+00  0.43370332383E+03  0.32246023150E+04  0.31953030399E+04 0.  0.
        4    1    3    3  502    0  0.28378791113E+03  0.62630211894E+03 -0.12384878955E+04  0.14165605540E+04  0.12699999809E+01 0.  1.
       -4    1    3    3    0  502 -0.28378791113E+03 -0.62630211894E+03  0.16721912194E+04  0.18080417611E+04  0.12699999809E+01 0. -1.
</event>
<event>
 5   0  0.1493485E-06  0.3074466E+04  0.7818609E-02  0.8222780E-01
        2   -1    0    0  501    0  0.00000000000E+00  0.00000000000E+00  0.23693170307E+04  0.23693170307E+04  0.25500000920E-02 0. -1.
       -2   -1    0    0    0  501  0.00000000000E+00  0.00000000000E+00 -0.99737012504E+03  0.99737012504E+03  0.25500000920E-02 0.  1.
    10030    2    1    2    0    0  0.00000000000E+00  0.00000000000E+00  0.13719469057E+04  0.33666871558E+04  0.30744664729E+04 0.  0.
        2    1    3    3  502    0 -0.14132530536E+03 -0.47154641130E+03 -0.90872462955E+03  0.10334937408E+04  0.25500000920E-02 0.  1.
       -2    1    3    3    0  502  0.14132530536E+03  0.47154641130E+03  0.22806715352E+04  0.23331934150E+04  0.25500000920E-02 0. -1.
</event>
<event>
 5   0  0.1572769E-06  0.3199257E+04  0.7818609E-02  0.8189013E-01
       -2   -1    0    0    0  501  0.00000000000E+00  0.00000000000E+00  0.13567447610E+04  0.13567447610E+04  0.25500000920E-02 0. -1.
        2   -1    0    0  501    0  0.00000000000E+00  0.00000000000E+00 -0.18859932384E+04  0.18859932384E+04  0.25500000920E-02 0.  1.
    10030    2    1    2    0    0  0.00000000000E+00  0.00000000000E+00 -0.52924847743E+03  0.32427379993E+04  0.31992570671E+04 0.  0.
        5    1    3    3  502    0 -0.20534401788E+03 -0.69057365371E+03 -0.17122263047E+04  0.18576326724E+04  0.46999998093E+01 0.  1.
       -5    1    3    3    0  502  0.20534401788E+03  0.69057365371E+03  0.11829778273E+04  0.13851053270E+04  0.46999998093E+01 0. -1.
</event>
<event>
 5   0  0.5370912E-07  0.3211388E+04  0.7818609E-02  0.8185816E-01
        1   -1    0    0  501    0  0.00000000000E+00  0.00000000000E+00  0.18562396634E+04  0.18562396634E+04  0.50400001928E-02 0. -1.
       -1   -1    0    0    0  501  0.00000000000E+00  0.00000000000E+00 -0.13889654496E+04  0.13889654497E+04  0.50400001928E-02 0.  1.
    10030    2    1    2    0    0  0.00000000000E+00  0.00000000000E+00  0.46727421371E+03  0.32452051130E+04  0.32113877117E+04 0.  0.
        1    1    3    3  502    0  0.14541525545E+04  0.67815253640E+03  0.17132543331E+03  0.16136303538E+04  0.50400001928E-02 0. -1.
       -1    1    3    3    0  502 -0.14541525545E+04 -0.67815253640E+03  0.29594878040E+03  0.16315747593E+04  0.50400001928E-02 0.  1.
</event>
<event>
 5   0  0.1556396E-06  0.3217657E+04  0.7818609E-02  0.8184170E-01
        2   -1    0    0  501    0  0.00000000000E+00  0.00000000000E+00  0.20107678046E+04  0.20107678046E+04  0.25500000920E-02 0. -1.
       -2   -1    0    0    0  501  0.00000000000E+00  0.00000000000E+00 -0.12872342658E+04  0.12872342658E+04  0.25500000920E-02 0.  1.
    10030    2    1    2    0    0  0.00000000000E+00  0.00000000000E+00  0.72353353875E+03  0.32980020704E+04  0.32176570474E+04 0.  0.
        3    1    3    3  502    0 -0.27534660871E+03  0.14507558544E+04  0.10163214194E+04  0.17926007759E+04  0.10100000352E+00 0. -1.
       -3    1    3    3    0  502  0.27534660871E+03 -0.14507558544E+04 -0.29278788063E+03  0.15054012945E+04  0.10100000352E+00 0.  1.
</event>
<event>
 5   0  0.5370912E-07  0.3106371E+04  0.7818609E-02  0.8213991E-01
        1   -1    0    0  501    0  0.00000000000E+00  0.00000000000E+00  0.19866128816E+04  0.19866128816E+04  0.50400001928E-02 0.  1.
       -1   -1    0    0    0  501  0.00000000000E+00  0.00000000000E+00 -0.12143210833E+04  0.12143210833E+04  0.50400001928E-02 0. -1.
    10030    2    1    2    0    0  0.00000000000E+00  0.00000000000E+00  0.77229179829E+03  0.32009339649E+04  0.31063714565E+04 0.  0.
        1    1    3    3  502    0  0.12913689511E+04 -0.85779694260E+03  0.28873487184E+03  0.15769645490E+04  0.50400001928E-02 0. -1.
       -1    1    3    3    0  502 -0.12913689511E+04  0.85779694260E+03  0.48355692644E+03  0.16239694159E+04  0.50400001928E-02 0.  1.
</event>
<event>
 5   0  0.1493485E-06  0.3190994E+04  0.7818609E-02  0.8191200E-01
       -2   -1    0    0    0  501  0.00000000000E+00  0.00000000000E+00  0.14559488580E+04  0.14559488580E+04  0.25500000920E-02 0. -1.
        2   -1    0    0  501    0  0.00000000000E+00  0.00000000000E+00 -0.17484207260E+04  0.17484207260E+04  0.25500000920E-02 0.  1.
    10030    2    1    2    0    0  0.00000000000E+00  0.00000000000E+00 -0.29247186798E+03  0.32043695840E+04  0.31909943023E+04 0.  0.
        2    1    3    3  502    0  0.12547847414E+04  0.61336725233E+01  0.84333297639E+03  0.15118640409E+04  0.25500000920E-02 0. -1.
       -2    1    3    3    0  502 -0.12547847414E+04 -0.61336725233E+01 -0.11358048444E+04  0.16925055431E+04  0.25500000920E-02 0.  1.
</event>
<event>
 5   0  0.1572769E-06  0.3234048E+04  0.7818609E-02  0.8179883E-01
        2   -1    0    0  501    0  0.00000000000E+00  0.00000000000E+00  0.19685814726E+04  0.19685814726E+04  0.25500000920E-02 0. -1.
       -2   -1    0    0    0  501  0.00000000000E+00  0.00000000000E+00 -0.13282488361E+04  0.13282488361E+04  0.25500000920E-02 0.  1.
    10030    2    1    2    0    0  0.00000000000E+00  0.00000000000E+00  0.64033263657E+03  0.32968303087E+04  0.32340476495E+04 0.  0.
        5    1    3    3  502    0 -0.91226467671E+03  0.70297057537E+03  0.14772560102E+04  0.18731529248E+04  0.46999998093E+01 0. -1.
       -5    1    3    3    0  502  0.91226467671E+03 -0.70297057537E+03 -0.83692337359E+03  0.14236773839E+04  0.46999998093E+01 0.  1.
</event>
<event>
 5   0  0.5177039E-07  0.3262316E+04  0.7818609E-02  0.8172551E-01
       -1   -1    0    0    0  501  0.00000000000E+00  0.00000000000E+00  0.10246459396E+04  0.10246459396E+04  0.50400001928E-02 0. -1.
        1   -1    0    0  501    0  0.00000000000E+00  0.00000000000E+00 -0.25966781518E+04  0.25966781518E+04  0.50400001928E-02 0.  1.
    10030    2    1    2    0    0  0.00000000000E+00  0.00000000000E+00 -0.15720322122E+04  0.36213240914E+04  0.32623155732E+04 0.  0.
        3    1    3    3  502    0  0.28540601286E+03 -0.56686180695E+02 -0.25676351357E+04  0.25840704548E+04  0.10100000352E+00 0.  1.
       -3    1    3    3    0  502 -0.28540601286E+03  0.56686180695E+02  0.99560292348E+03  0.10372536366E+04  0.10100000352E+00 0. -1.
</event>
<event>
 5   0  0.5370912E-07  0.3189185E+04  0.7818609E-02  0.8191679E-01
       -1   -1    0    0    0  501  0.00000000000E+00  0.00000000000E+00  0.10037880195E+04  0.10037880195E+04  0.50400001928E-02 0.  1.
        1   -1    0    0  501    0  0.00000000000E+00  0.00000000000E+00 -0.25331290687E+04  0.25331290687E+04  0.50400001928E-02 0. -1.
    10030    2    1    2    0    0  0.00000000000E+00  0.00000000000E+00 -0.15293410492E+04  0.35369170882E+04  0.31891846049E+04 0.  0.
        1    1    3    3  502    0 -0.25021672958E+03  0.79656655523E+03  0.74198429998E+03  0.11169903268E+04  0.50400001928E-02 0.  1.
       -1    1    3    3    0  502  0.25021672958E+03 -0.79656655523E+03 -0.22713253492E+04  0.24199267614E+04  0.50400001928E-02 0. -1.
</event>
<event>
 5   0  0.5281187E-07  0.3150668E+04  0.7818609E-02  0.8201969E-01
        1   -1    0    0  501    0  0.00000000000E+00  0.00000000000E+00  0.22069275084E+04  0.22069275084E+04  0.50400001928E-02 0. -1.
       -1   -1    0    0    0  501  0.00000000000E+00  0.00000000000E+00 -0.11244940096E+04  0.11244940096E+04  0.50400001928E-02 0.  1.
    10030    2    1    2    0    0  0.00000000000E+00  0.00000000000E+00  0.10824334988E+04  0.33314215180E+04  0.31506677152E+04 0.  0.
        5    1    3    3  502    0  0.11615397627E+04  0.45808077274E+02  0.16654062827E+04  0.20309783792E+04  0.46999998093E+01 0. -1.
       -5    1    3    3    0  502 -0.11615397627E+04 -0.45808077274E+02 -0.58297278398E+03  0.13004431388E+04  0.46999998093E+01 0.  1.
</event>
<event>
 5   0  0.4995625E-07  0.3197464E+04  0.7818609E-02  0.8189487E-01
       -3   -1    0    0    0  501  0.00000000000E+00  0.00000000000E+00  0.23053021653E+04  0.23053021675E+04  0.10100000352E+00 0.  1.
        3   -1    0    0  501    0  0.00000000000E+00  0.00000000000E+00 -0.11087239243E+04  0.11087239289E+04  0.10100000352E+00 0. -1.
    10030    2    1    2    0    0  0.00000000000E+00  0.00000000000E+00  0.11965782409E+04  0.34140260964E+04  0.31974637919E+04 0.  0.
        5    1    3    3  502    0 -0.59394723770E+03  0.13677967899E+04  0.12137683997E+04  0.19227317019E+04  0.46999998093E+01 0.  1.
       -5    1    3    3    0  502  0.59394723770E+03 -0.13677967899E+04 -0.17190158743E+02  0.14912943945E+04  0.46999998093E+01 0. -1.
</event>
<event>
 5   0  0.4995625E-07  0.3265787E+04  0.7818609E-02  0.8171656E-01
       -3   -1    0    0    0  501  0.00000000000E+00  0.00000000000E+00  0.10045020660E+04  0.10045020711E+04  0.10100000352E+00 0. -1.
        3   -1    0    0  501    0  0.00000000000E+00  0.00000000000E+00 -0.26543917068E+04  0.26543917088E+04  0.10100000352E+00 0.  1.
    10030    2    1    2    0    0  0.00000000000E+00  0.00000000000E+00 -0.16498896408E+04  0.36588937798E+04  0.32657874801E+04 0.  0.
        4    1    3    3  502    0 -0.48175186388E+02  0.97319016905E+03  0.64309204725E+03  0.11674711765E+04  0.12699999809E+01 0. -1.
       -4    1    3    3    0  502  0.48175186388E+02 -0.97319016905E+03 -0.22929816881E+04  0.24914226034E+04  0.12699999809E+01 0.  1.
</event>
<event>
 5   0  0.5177039E-07  0.3207564E+04  0.7818609E-02  0.8186822E-01
       -1   -1    0    0    0  501  0.00000000000E+00  0.00000000000E+00  0.10571538073E+04  0.10571538073E+04  0.50400001928E-02 0.  1.
        1   -1    0    0  501    0  0.00000000000E+00  0.00000000000E+00 -0.24330578122E+04  0.24330578122E+04  0.50400001928E-02 0. -1.
    10030    2    1    2    0    0  0.00000000000E+00  0.00000000000E+00 -0.13759040050E+04  0.34902116195E+04  0.32075637668E+04 0.  0.
        3    1    3    3  502    0 -0.49745214552E+03 -0.80600742467E+03  0.72031539787E+03  0.11899415483E+04  0.10100000352E+00 0.  1.
       -3    1    3    3    0  502  0.49745214552E+03  0.80600742467E+03 -0.20962194028E+04  0.23002700713E+04  0.10100000352E+00 0. -1.
</event>
<event>
 5   0  0.1572769E-06  0.3190741E+04  0.7818609E-02  0.8191267E-01
       -2   -1    0    0    0  501  0.00000000000E+00  0.00000000000E+00  0.11929097286E+04  0.11929097286E+04  0.25500000920E-02 0. -1.
        2   -1    0    0  501    0  0.00000000000E+00  0.00000000000E+00 -0.21336130505E+04  0.21336130505E+04  0.25500000920E-02 0.  1.
    10030    2    1    2    0    0  0.00000000000E+00  0.00000000000E+00 -0.94070332195E+03  0.33265227791E+04  0.31907414593E+04 0.  0.
        5    1    3    3  502    0 -0.65244450915E+03  0.24126531664E+03 -0.19671687690E+04  0.20865444751E+04  0.46999998093E+01 0.  1.
       -5    1    3    3    0  502  0.65244450915E+03 -0.24126531664E+03  0.10264654471E+04  0.12399783041E+04  0.46999998093E+01 0. -1.
</event>
<event>
 5   0  0.4995625E-07  0.3208550E+04  0.7818609E-02  0.8186563E-01
        3   -1    0    0  501    0  0.00000000000E+00  0.00000000000E+00  0.13998782565E+04  0.13998782602E+04  0.10100000352E+00 0. -1.
       -3   -1    0    0    0  501  0.00000000000E+00  0.00000000000E+00 -0.18385163531E+04  0.18385163559E+04  0.10100000352E+00 0.  1.
    10030    2    1    2    0    0  0.00000000000E+00  0.00000000000E+00 -0.43863809657E+03  0.32383946161E+04  0.32085504998E+04 0.  0.
        4    1    3    3  502    0  0.98650373079E+03  0.94672097617E+03  0.62766903833E+03  0.15044734136E+04  0.12699999809E+01 0. -1.
       -4    1    3    3    0  502 -0.98650373079E+03 -0.94672097617E+03 -0.10663071349E+04  0.17339212025E+04  0.12699999809E+01 0.  1.
</event>
<event>
 5   0  0.1572769E-06  0.3199130E+04  0.7818609E-02  0.8189047E-01
        2   -1    0    0  501    0  0.00000000000E+00  0.00000000000E+00  0.10404271975E+04  0.10404271975E+04  0.25500000920E-02 0.  1.
       -2   -1    0    0    0  501  0.00000000000E+00  0.00000000000E+00 -0.24591902801E+04  0.24591902801E+04  0.25500000920E-02 0. -1.
    10030    2    1    2    0    0  0.00000000000E+00  0.00000000000E+00 -0.14187630826E+04  0.34996174776E+04  0.31991301638E+04 0.  0.
        5    1    3    3  502    0  0.83055563714E+02  0.15941059825E+04 -0.82155182935E+03  0.17952831555E+04  0.46999998093E+01 0.  1.
       -5    1    3    3    0  502 -0.83055563714E+02 -0.15941059825E+04 -0.59721125327E+03  0.17043343220E+04  0.46999998093E+01 0. -1.
</event>
<event>
 5   0  0.5370912E-07  0.3175951E+04  0.7818609E-02  0.8195197E-01
        1   -1    0    0  501    0  0.00000000000E+00  0.00000000000E+00  0.17102720948E+04  0.17102720948E+04  0.50400001928E-02 0. -1.
       -1   -1    0    0    0  501  0.00000000000E+00  0.00000000000E+00 -0.14744241911E+04  0.14744241911E+04  0.50400001928E-02 0.  1.
    10030    2    1    2    0    0  0.00000000000E+00  0.00000000000E+00  0.23584790371E+03  0.31846962860E+04  0.31759512276E+04 0.  0.
        1    1    3    3  502    0 -0.93683973092E+02  0.12307271799E+04  0.11197748282E+04  0.16665418518E+04  0.50400001928E-02 0. -1.
       -1    1    3    3    0  502  0.93683973092E+02 -0.12307271799E+04 -0.88392692446E+03  0.15181544341E+04  0.50400001928E-02 0.  1.
</event>
<event>
 5   0  0.5281187E-07  0.3181822E+04  0.7818609E-02  0.8193634E-01
       -1   -1    0    0    0  501  0.00000000000E+00  0.00000000000E+00  0.94237735811E+03  0.94237735812E+03  0.50400001928E-02 0.  1.
        1   -1    0    0  501    0  0.00000000000E+00  0.00000000000E+00 -0.26857582309E+04  0.26857582309E+04  0.50400001928E-02 0. -1.
    10030    2    1    2    0    0  0.00000000000E+00  0.00000000000E+00 -0.17433808728E+04  0.36281355890E+04  0.31818219599E+04 0.  0.
        5    1    3    3  502    0 -0.12351108155E+04 -0.24470176449E+03 -0.19805100541E+04  0.23468744842E+04  0.46999998093E+01 0. -1.
       -5    1    3    3    0  502  0.12351108155E+04  0.24470176449E+03  0.23712918127E+03  0.12812611049E+04  0.46999998093E+01 0.  1.
</event>
<event>
 5   0  0.1556396E-06  0.3193207E+04  0.7818609E-02  0.8190614E-01
        2   -1    0    0  501    0  0.00000000000E+00  0.00000000000E+00  0.20914228031E+04  0.20914228031E+04  0.25500000920E-02 0. -1.
       -2   -1    0    0    0  501  0.00000000000E+00  0.00000000000E+00 -0.12188554619E+04  0.12188554619E+04  0.25500000920E-02 0.  1.
    10030    2    1    2    0    0  0.00000000000E+00  0.00000000000E+00  0.87256734117E+03  0.33102782650E+04  0.31932066057E+04 0.  0.
        3    1    3    3  502    0  0.11776383879E+03  0.15919304422E+04  0.40299336754E+03  0.16463640299E+04  0.10100000352E+00 0. -1.
       -3    1    3    3    0  502 -0.11776383879E+03 -0.15919304422E+04  0.46957397363E+03  0.16639142350E+04  0.10100000352E+00 0.  1.
</event>
<event>
 5   0  0.1572769E-06  0.3197525E+04  0.7818609E-02  0.8189471E-01
        2   -1    0    0  501    0  0.00000000000E+00  0.00000000000E+00  0.15026735785E+04  0.15026735785E+04  0.25500000920E-02 0. -1.
       -2   -1    0    0    0  501  0.00000000000E+00  0.00000000000E+00 -0.17009959011E+04  0.17009959011E+04  0.25500000920E-02 0.  1.
    10030    2    1    2    0    0  0.00000000000E+00  0.00000000000E+00 -0.19832232252E+03  0.32036694796E+04  0.31975250415E+04 0.  0.
        5    1    3    3  502    0 -0.43828046206E+03 -0.30079387715E+03  0.14115335868E+04  0.15083155759E+04  0.46999998093E+01 0. -1.
       -5    1    3    3    0  502  0.43828046206E+03  0.30079387715E+03 -0.16098559093E+04  0.16953539037E+04  0.46999998093E+01 0.  1.
</event>
<event>
 5   0  0.4995625E-07  0.3183633E+04  0.7818609E-02  0.8193153E-01
       -3   -1    0    0    0  501  0.00000000000E+00  0.00000000000E+00  0.14864324549E+04  0.14864324583E+04  0.10100000352E+00 0.  1.
        3   -1    0    0  501    0  0.00000000000E+00  0.00000000000E+00 -0.17046721702E+04  0.17046721732E+04  0.10100000352E+00 0. -1.
    10030    2    1    2    0    0  0.00000000000E+00  0.00000000000E+00 -0.21823971532E+03  0.31911046315E+04  0.31836331754E+04 0.  0.
        1    1    3    3  502    0 -0.15538668356E+04 -0.97098543137E+01  0.23706529398E+03  0.15718767057E+04  0.50400001928E-02 0.  1.
       -1    1    3    3    0  502  0.15538668356E+04  0.97098543137E+01 -0.45530500930E+03  0.16192279258E+04  0.50400001928E-02 0. -1.
</event>
<event>
 5   0  0.1508771E-06  0.3052451E+04  0.7818609E-02  0.8228910E-01
       -2   -1    0    0    0  501  0.00000000000E+00  0.00000000000E+00  0.12005259555E+04  0.12005259555E+04  0.25500000920E-02 0.  1.
        2   -1    0    0  501    0  0.00000000000E+00  0.00000000000E+00 -0.19402866488E+04  0.19402866488E+04  0.25500000920E-02 0. -1.
    10030    2    1    2    0    0  0.00000000000E+00  0.00000000000E+00 -0.73976069326E+03  0.31408126043E+04  0.30524511351E+04 0.  0.
        4    1    3    3  502    0 -0.78710979859E+03  0.45145352137E+03  0.89284047322E+03  0.12729956168E+04  0.12699999809E+01 0.  1.
       -4    1    3    3    0  502  0.78710979859E+03 -0.45145352137E+03 -0.16326011665E+04  0.18678169875E+04  0.12699999809E+01 0. -1.
</event>
<event>
 5   0  0.5177039E-07  0.3200891E+04  0.7818609E-02  0.8188582E-01
        1   -1    0    0  501    0  0.00000000000E+00  0.00000000000E+00  0.18041805237E+04  0.18041805237E+04  0.50400001928E-02 0. -1.
       -1   -1    0    0    0  501  0.00000000000E+00  0.00000000000E+00 -0.14197171467E+04  0.14197171467E+04  0.50400001928E-02 0.  1.
    10030    2    1    2    0    0  0.00000000000E+00  0.00000000000E+00  0.38446337697E+03  0.32238976704E+04  0.32008911417E+04 0.  0.
        3    1    3    3  502    0  0.37609340738E+03  0.15108462519E+04 -0.18100348560E+03  0.15674389685E+04  0.10100000352E+00 0. -1.
       -3    1    3    3    0  502 -0.37609340738E+03 -0.15108462519E+04  0.56546686258E+03  0.16564587019E+04  0.10100000352E+00 0.  1.
</event>
<event>
 5   0  0.5233813E-07  0.3245767E+04  0.7818609E-02  0.8176834E-01
       -1   -1    0    0    0  501  0.00000000000E+00  0.00000000000E+00  0.11113903455E+04  0.11113903455E+04  0.50400001928E-02 0.  1.
        1   -1    0    0  501    0  0.00000000000E+00  0.00000000000E+00 -0.23697801685E+04  0.23697801686E+04  0.50400001928E-02 0. -1.
    10030    2    1    2    0    0  0.00000000000E+00  0.00000000000E+00 -0.12583898230E+04  0.34811705141E+04  0.32457669666E+04 0.  0.
        4    1    3    3  502    0 -0.10384571605E+03 -0.15999713426E+04 -0.89851854598E+03  0.18379416259E+04  0.12699999809E+01 0. -1.
       -4    1    3    3    0  502  0.10384571605E+03  0.15999713426E+04 -0.35987127707E+03  0.16432288882E+04  0.12699999809E+01 0.  1.
</event>
<event>
 5   0  0.5233813E-07  0.3224607E+04  0.7818609E-02  0.8182349E-01
       -1   -1    0    0    0  501  0.00000000000E+00  0.00000000000E+00  0.21067142044E+04  0.21067142044E+04  0.50400001928E-02 0. -1.
        1   -1    0    0  501    0  0.00000000000E+00  0.00000000000E+00 -0.12339224803E+04  0.12339224803E+04  0.50400001928E-02 0.  1.
    10030    2    1    2    0    0  0.00000000000E+00  0.00000000000E+00  0.87279172408E+03  0.33406366847E+04  0.32246066529E+04 0.  0.
        4    1    3    3  502    0 -0.96015564116E+03 -0.19441762519E+03  0.17630295807E+04  0.20169214123E+04  0.12699999809E+01 0. -1.
       -4    1    3    3    0  502  0.96015564116E+03  0.19441762519E+03 -0.89023785657E+03  0.13237152724E+04  0.12699999809E+01 0.  1.
</event>
<event>
 5   0  0.5233813E-07  0.3204957E+04  0.7818609E-02  0.8187509E-01
       -1   -1    0    0    0  501  0.00000000000E+00  0.00000000000E+00  0.17722200935E+04  0.17722200935E+04  0.50400001928E-02 0.  1.
        1   -1    0    0  501    0  0.00000000000E+00  0.00000000000E+00 -0.14489950189E+04  0.14489950189E+04  0.50400001928E-02 0. -1.
    10030    2    1    2    0    0  0.00000000000E+00  0.00000000000E+00  0.32322507458E+03  0.32212151124E+04  0.32049574649E+04 0.  0.
        4    1    3    3  502    0  0.13330220849E+04 -0.83251555360E+03 -0.15287475991E+03  0.15790510856E+04  0.12699999809E+01 0. -1.
       -4    1    3    3    0  502 -0.13330220849E+04  0.83251555360E+03  0.47609983449E+03  0.16421640268E+04  0.12699999809E+01 0.  1.
</event>
<event>
 5   0  0.5370912E-07  0.3189673E+04  0.7818609E-02  0.8191550E-01
       -1   -1    0    0    0  501  0.00000000000E+00  0.00000000000E+00  0.11580385326E+04  0.11580385326E+04  0.50400001928E-02 0.  1.
        1   -1    0    0  501    0  0.00000000000E+00  0.00000000000E+00 -0.21963894917E+04  0.21963894917E+04  0.50400001928E-02 0. -1.
    10030    2    1    2    0    0  0.00000000000E+00  0.00000000000E+00 -0.10383509591E+04  0.33544280243E+04  0.31896731268E+04 0.  0.
        1    1    3    3  502    0  0.13500606689E+04 -0.81818706657E+03 -0.75762429195E+03  0.17510249722E+04  0.50400001928E-02 0.  1.
       -1    1    3    3    0  502 -0.13500606689E+04  0.81818706657E+03 -0.28072666718E+03  0.16034030520E+04  0.50400001928E-02 0. -1.
</event>
<event>
 5   0  0.5281187E-07  0.3192775E+04  0.7818609E-02  0.8190728E-01
        1   -1    0    0  501    0  0.00000000000E+00  0.00000000000E+00  0.17260502261E+04  0.17260502261E+04  0.50400001928E-02 0.  1.
       -1   -1    0    0    0  501  0.00000000000E+00  0.00000000000E+00 -0.14764648718E+04  0.14764648718E+04  0.50400001928E-02 0. -1.
    10030    2    1    2    0    0  0.00000000000E+00  0.00000000000E+00  0.24958535427E+03  0.32025150979E+04  0.31927746716E+04 0.  0.
        5    1    3    3  502    0  0.51201389489E+03 -0.12174485313E+04  0.10242397086E+04  0.16713552063E+04  0.46999998093E+01 0.  1.
       -5    1    3    3    0  502 -0.51201389489E+03  0.12174485313E+04 -0.77465435436E+03  0.15311598916E+04  0.46999998093E+01 0. -1.
</event>
<event>
 5   0  0.1508771E-06  0.3171547E+04  0.7818609E-02  0.8196372E-01
       -2   -1    0    0    0  501  0.00000000000E+00  0.00000000000E+00  0.15297909518E+04  0.15297909518E+04  0.25500000920E-02 0.  1.
        2   -1    0    0  501    0  0.00000000000E+00  0.00000000000E+00 -0.16438049960E+04  0.16438049960E+04  0.25500000920E-02 0. -1.
    10030    2    1    2    0    0  0.00000000000E+00  0.00000000000E+00 -0.11401404420E+03  0.31735959478E+04  0.31715472624E+04 0.  0.
        4    1    3    3  502    0 -0.13159380890E+04  0.85658241114E+03  0.16505955062E+03  0.15788200497E+04  0.12699999809E+01 0.  1.
       -4    1    3    3    0  502  0.13159380890E+04 -0.85658241114E+03 -0.27907359483E+03  0.15947758981E+04  0.12699999809E+01 0. -1.
</event>
<event>
 5   0  0.5281187E-07  0.3165771E+04  0.7818609E-02  0.8197916E-01
        1   -1    0    0  501    0  0.00000000000E+00  0.00000000000E+00  0.24490908307E+04  0.24490908307E+04  0.50400001928E-02 0.  1.
       -1   -1    0    0    0  501  0.00000000000E+00  0.00000000000E+00 -0.10230435835E+04  0.10230435835E+04  0.50400001928E-02 0. -1.
    10030    2    1    2    0    0  0.00000000000E+00  0.00000000000E+00  0.14260472472E+04  0.34721344142E+04  0.31657710970E+04 0.  0.
        5    1    3    3  502    0  0.12147277069E+04 -0.39381443698E+03 -0.31282706545E+03  0.13147380255E+04  0.46999998093E+01 0. -1.
       -5    1    3    3    0  502 -0.12147277069E+04  0.39381443698E+03  0.17388743127E+04  0.21573963887E+04  0.46999998093E+01 0.  1.
</event>
<event>
 5   0  0.1508771E-06  0.3172947E+04  0.7818609E-02  0.8195999E-01
       -2   -1    0    0    0  501  0.00000000000E+00  0.00000000000E+00  0.99232444880E+03  0.99232444881E+03  0.25500000920E-02 0. -1.
        2   -1    0    0  501    0  0.00000000000E+00  0.00000000000E+00 -0.25363659485E+04  0.25363659485E+04  0.25500000920E-02 0.  1.
    10030    2    1    2    0    0  0.00000000000E+00  0.00000000000E+00 -0.15440414997E+04  0.35286903973E+04  0.31729468586E+04 0.  0.
        4    1    3    3  502    0  0.10650688152E+04 -0.64326651792E+03 -0.18666140603E+04  0.22433040492E+04  0.12699999809E+01 0.  1.
       -4    1    3    3    0  502 -0.10650688152E+04  0.64326651792E+03  0.32257256059E+03  0.12853863481E+04  0.12699999809E+01 0. -1.
</event>
<event>
 5   0  0.5370912E-07  0.3209319E+04  0.7818609E-02  0.8186360E-01
       -1   -1    0    0    0  501  0.00000000000E+00  0.00000000000E+00  0.12127073046E+04  0.12127073046E+04  0.50400001928E-02 0. -1.
        1   -1    0    0  501    0  0.00000000000E+00  0.00000000000E+00 -0.21232928191E+04  0.21232928191E+04  0.50400001928E-02 0.  1.
    10030    2    1    2    0    0  0.00000000000E+00  0.00000000000E+00 -0.91058551456E+03  0.33360001237E+04  0.32093193743E+04 0.  0.
        1    1    3    3  502    0 -0.80585047543E+03  0.94317537915E+03 -0.15132891309E+04  0.19567878726E+04  0.50400001928E-02 0.  1.
       -1    1    3    3    0  502  0.80585047543E+03 -0.94317537915E+03  0.60270361632E+03  0.13792122512E+04  0.50400001928E-02 0. -1.
</event>
<event>
 5   0  0.1538349E-06  0.3217067E+04  0.7818609E-02  0.8184324E-01
        2   -1    0    0  501    0  0.00000000000E+00  0.00000000000E+00  0.15588085399E+04  0.15588085399E+04  0.25500000920E-02 0.  1.
       -2   -1    0    0    0  501  0.00000000000E+00  0.00000000000E+00 -0.16598446739E+04  0.16598446739E+04  0.25500000920E-02 0. -1.
    10030    2    1    2    0    0  0.00000000000E+00  0.00000000000E+00 -0.10103613398E+03  0.32186532138E+04  0.32170670199E+04 0.  0.
        1    1    3    3  502    0 -0.11056301035E+04 -0.22035551835E+03 -0.11984309624E+04  0.16453605234E+04  0.50400001928E-02 0. -1.
       -1    1    3    3    0  502  0.11056301035E+04  0.22035551835E+03  0.10973948284E+04  0.15732926904E+04  0.50400001928E-02 0.  1.
</event>
<event>
 5   0  0.5177039E-07  0.3200232E+04  0.7818609E-02  0.8188756E-01
       -1   -1    0    0    0  501  0.00000000000E+00  0.00000000000E+00  0.13134678543E+04  0.13134678543E+04  0.50400001928E-02 0.  1.
        1   -1    0    0  501    0  0.00000000000E+00  0.00000000000E+00 -0.19493216914E+04  0.19493216914E+04  0.50400001928E-02 0. -1.
    10030    2    1    2    0    0  0.00000000000E+00  0.00000000000E+00 -0.63585383708E+03  0.32627895457E+04  0.32002321037E+04 0.  0.
        3    1    3    3  502    0  0.30776163295E+03 -0.45330247153E+03  0.12148474703E+04  0.13326870374E+04  0.10100000352E+00 0.  1.
       -3    1    3    3    0  502 -0.30776163295E+03  0.45330247153E+03 -0.18507013073E+04  0.19301025083E+04  0.10100000352E+00 0. -1.
</event>
<event>
 5   0  0.1493485E-06  0.3171099E+04  0.7818609E-02  0.8196492E-01
       -2   -1    0    0    0  501  0.00000000000E+00  0.00000000000E+00  0.88733900721E+03  0.88733900721E+03  0.25500000920E-02 0.  1.
        2   -1    0    0  501    0  0.00000000000E+00  0.00000000000E+00 -0.28331529687E+04  0.28331529687E+04  0.25500000920E-02 0. -1.
    10030    2    1    2    0    0  0.00000000000E+00  0.00000000000E+00 -0.19458139615E+04  0.37204919759E+04  0.31710989531E+04 0.  0.
        2    1    3    3  502    0 -0.15594452143E+04  0.17441933822E+03 -0.12396134782E+04  0.19997332466E+04  0.25500000920E-02 0. -1.
       -2    1    3    3    0  502  0.15594452143E+04 -0.17441933822E+03 -0.70620048326E+03  0.17207587293E+04  0.25500000920E-02 0.  1.
</event>
<event>
 5   0  0.5370912E-07  0.3193445E+04  0.7818609E-02  0.8190550E-01
       -1   -1    0    0    0  501  0.00000000000E+00  0.00000000000E+00  0.10030373095E+04  0.10030373095E+04  0.50400001928E-02 0.  1.
        1   -1    0    0  501    0  0.00000000000E+00  0.00000000000E+00 -0.25418029181E+04  0.25418029181E+04  0.50400001928E-02 0. -1.
    10030    2    1    2    0    0  0.00000000000E+00  0.00000000000E+00 -0.15387656087E+04  0.35448402276E+04  0.31934452619E+04 0.  0.
        1    1    3    3  502    0 -0.38201745675E+03  0.15323551915E+04 -0.10308273239E+04  0.18859095264E+04  0.50400001928E-02 0.  1.
       -1    1    3    3    0  502  0.38201745675E+03 -0.15323551915E+04 -0.50793828476E+03  0.16589307012E+04  0.50400001928E-02 0. -1.
</event>
<event>
 5   0  0.5177039E-07  0.3190253E+04  0.7818609E-02  0.8191396E-01
        1   -1    0    0  501    0  0.00000000000E+00  0.00000000000E+00  0.23208845728E+04  0.23208845728E+04  0.50400001928E-02 0. -1.
       -1   -1    0    0    0  501  0.00000000000E+00  0.00000000000E+00 -0.10963187001E+04  0.10963187001E+04  0.50400001928E-02 0.  1.
    10030    2    1    2    0    0  0.00000000000E+00  0.00000000000E+00  0.12245658727E+04  0.34172032728E+04  0.31902533804E+04 0.  0.
        3    1    3    3  502    0  0.17161611778E+03  0.10332793084E+04 -0.67634207528E+03  0.12468186853E+04  0.10100000352E+00 0.  1.
       -3    1    3    3    0  502 -0.17161611778E+03 -0.10332793084E+04  0.19009079480E+04  0.21703845876E+04  0.10100000352E+00 0. -1.
</event>
<event>
 5   0  0.5370912E-07  0.3198679E+04  0.7818609E-02  0.8189166E-01
        1   -1    0    0  501    0  0.00000000000E+00  0.00000000000E+00  0.20750721200E+04  0.20750721200E+04  0.50400001928E-02 0.  1.
       -1   -1    0    0    0  501  0.00000000000E+00  0.00000000000E+00 -0.12326738920E+04  0.12326738920E+04  0.50400001928E-02 0. -1.
    10030    2    1    2    0    0  0.00000000000E+00  0.00000000000E+00  0.84239822796E+03  0.33077460120E+04  0.31986792439E+04 0.  0.
        1    1    3    3  502    0 -0.20474488447E+03  0.15831886172E+04  0.32051093679E+03  0.16282303050E+04  0.50400001928E-02 0. -1.
       -1    1    3    3    0  502  0.20474488447E+03 -0.15831886172E+04  0.52188729117E+03  0.16795157070E+04  0.50400001928E-02 0.  1.
</event>
<event>
 5   0  0.1572769E-06  0.3209034E+04  0.7818609E-02  0.8186435E-01
       -2   -1    0    0    0  501  0.00000000000E+00  0.00000000000E+00  0.11045319256E+04  0.11045319256E+04  0.25500000920E-02 0. -1.
        2   -1    0    0  501    0  0.00000000000E+00  0.00000000000E+00 -0.23308284336E+04  0.23308284336E+04  0.25500000920E-02 0.  1.
    10030    2    1    2    0    0  0.00000000000E+00  0.00000000000E+00 -0.12262965080E+04  0.34353603592E+04  0.32090337598E+04 0.  0.
        5    1    3    3  502    0  0.74258343540E+03  0.27785336198E+03  0.88015946363E+03  0.11846245906E+04  0.46999998093E+01 0. -1.
       -5    1    3    3    0  502 -0.74258343540E+03 -0.27785336198E+03 -0.21064559717E+04  0.22507357686E+04  0.46999998093E+01 0.  1.
</event>
<event>
 5   0  0.1556396E-06  0.3243573E+04  0.7818609E-02  0.8177403E-01
        2   -1    0    0  501    0  0.00000000000E+00  0.00000000000E+00  0.31393179978E+04  0.31393179978E+04  0.25500000920E-02 0.  1.
       -2   -1    0    0    0  501  0.00000000000E+00  0.00000000000E+00 -0.83782270466E+03  0.83782270466E+03  0.25500000920E-02 0. -1.
    10030    2    1    2    0    0  0.00000000000E+00  0.00000000000E+00  0.23014952932E+04  0.39771407025E+04  0.32435732739E+04 0.  0.
        3    1    3    3  502    0  0.87085226670E+03  0.11097332763E+04  0.16958933987E+03  0.14207927960E+04  0.10100000352E+00 0. -1.
       -3    1    3    3    0  502 -0.87085226670E+03 -0.11097332763E+04  0.21319059533E+04  0.25563479064E+04  0.10100000352E+00 0.  1.
</event>
<event>
 5   0  0.1538349E-06  0.3292809E+04  0.7818609E-02  0.8164727E-01
        2   -1    0    0  501    0  0.00000000000E+00  0.00000000000E+00  0.14504087584E+04  0.14504087584E+04  0.25500000920E-02 0. -1.
       -2   -1    0    0    0  501  0.00000000000E+00  0.00000000000E+00 -0.18688856325E+04  0.18688856325E+04  0.25500000920E-02 0.  1.
    10030    2    1    2    0    0  0.00000000000E+00  0.00000000000E+00 -0.41847687410E+03  0.33192943909E+04  0.32928091896E+04 0.  0.
        1    1    3    3  502    0  0.10055050711E+04  0.66990125546E+03 -0.13366437539E+04  0.18017837453E+04  0.50400001928E-02 0.  1.
       -1    1    3    3    0  502 -0.10055050711E+04 -0.66990125546E+03  0.91816687980E+03  0.15175106455E+04  0.50400001928E-02 0. -1.
</event>
<event>
 5   0  0.5317728E-07  0.3177589E+04  0.7818609E-02  0.8194761E-01
       -1   -1    0    0    0  501  0.00000000000E+00  0.00000000000E+00  0.11924336620E+04  0.11924336621E+04  0.50400001928E-02 0. -1.
        1   -1    0    0  501    0  0.00000000000E+00  0.00000000000E+00 -0.21169039983E+04  0.21169039983E+04  0.50400001928E-02 0.  1.
    10030    2    1    2    0    0  0.00000000000E+00  0.00000000000E+00 -0.92447033622E+03  0.33093376603E+04  0.31775887631E+04 0.  0.
        2    1    3    3  502    0 -0.79554392047E+03 -0.65087200022E+03 -0.17239709335E+04  0.20071373320E+04  0.25500000920E-02 0.  1.
       -2    1    3    3    0  502  0.79554392047E+03  0.65087200022E+03  0.79950059726E+03  0.13022003283E+04  0.25500000920E-02 0. -1.
</event>
<event>
 5   0  0.5370912E-07  0.3186891E+04  0.7818609E-02  0.8192288E-01
       -1   -1    0    0    0  501  0.00000000000E+00  0.00000000000E+00  0.11119615188E+04  0.11119615188E+04  0.50400001928E-02 0. -1.
        1   -1    0    0  501    0  0.00000000000E+00  0.00000000000E+00 -0.22834136103E+04  0.22834136103E+04  0.50400001928E-02 0.  1.
    10030    2    1    2    0    0  0.00000000000E+00  0.00000000000E+00 -0.11714520915E+04  0.33953751291E+04  0.31868906892E+04 0.  0.
        1    1    3    3  502    0 -0.21784553646E+03  0.96594281020E+03  0.74437053628E+03  0.12387855689E+04  0.50400001928E-02 0. -1.
       -1    1    3    3    0  502  0.21784553646E+03 -0.96594281020E+03 -0.19158226278E+04  0.21565895603E+04  0.50400001928E-02 0.  1.
</event>
<event>
 5   0  0.1572769E-06  0.3211301E+04  0.7818609E-02  0.8185839E-01
        2   -1    0    0  501    0  0.00000000000E+00  0.00000000000E+00  0.22067371621E+04  0.22067371621E+04  0.25500000920E-02 0. -1.
       -2   -1    0    0    0  501  0.00000000000E+00  0.00000000000E+00 -0.11682919023E+04  0.11682919023E+04  0.25500000920E-02 0.  1.
    10030    2    1    2    0    0  0.00000000000E+00  0.00000000000E+00  0.10384452598E+04  0.33750290644E+04  0.32113007689E+04 0.  0.
        5    1    3    3  502    0 -0.13122154943E+04  0.89610655478E+03  0.76157578275E+03  0.17620829220E+04  0.46999998093E+01 0.  1.
       -5    1    3    3    0  502  0.13122154943E+04 -0.89610655478E+03  0.27686947709E+03  0.16129461424E+04  0.46999998093E+01 0. -1.
</event>
<event>
 5   0  0.5281187E-07  0.3186229E+04  0.7818609E-02  0.8192464E-01
        1   -1    0    0  501    0  0.00000000000E+00  0.00000000000E+00  0.14466443549E+04  0.14466443549E+04  0.50400001928E-02 0. -1.
       -1   -1    0    0    0  501  0.00000000000E+00  0.00000000000E+00 -0.17544141645E+04  0.17544141646E+04  0.50400001928E-02 0.  1.
    10030    2    1    2    0    0  0.00000000000E+00  0.00000000000E+00 -0.30776980962E+03  0.32010585195E+04  0.31862287095E+04 0.  0.
        5    1    3    3  502    0 -0.55766641950E+03  0.61600423653E+02  0.13440964363E+04  0.14565039539E+04  0.46999998093E+01 0. -1.
       -5    1    3    3    0  502  0.55766641950E+03 -0.61600423653E+02 -0.16518662460E+04  0.17445545656E+04  0.46999998093E+01 0.  1.
</event>
<event>
 5   0  0.5233813E-07  0.3216263E+04  0.7818609E-02  0.8184535E-01
        1   -1    0    0  501    0  0.00000000000E+00  0.00000000000E+00  0.18266460181E+04  0.18266460181E+04  0.50400001928E-02 0. -1.
       -1   -1    0    0    0  501  0.00000000000E+00  0.00000000000E+00 -0.14157569505E+04  0.14157569505E+04  0.50400001928E-02 0.  1.
    10030    2    1    2    0    0  0.00000000000E+00  0.00000000000E+00  0.41088906759E+03  0.32424029686E+04  0.32162629222E+04 0.  0.
        4    1    3    3  502    0  0.10928584728E+04  0.52049979507E+02  0.13935972041E+04  0.17717685013E+04  0.12699999809E+01 0. -1.
       -4    1    3    3    0  502 -0.10928584728E+04 -0.52049979507E+02 -0.98270813648E+03  0.14706344673E+04  0.12699999809E+01 0.  1.
</event>
<event>
 5   0  0.1556396E-06  0.3174321E+04  0.7818609E-02  0.8195632E-01
        2   -1    0    0  501    0  0.00000000000E+00  0.00000000000E+00  0.14808784961E+04  0.14808784961E+04  0.25500000920E-02 0.  1.
       -2   -1    0    0    0  501  0.00000000000E+00  0.00000000000E+00 -0.17010703226E+04  0.17010703226E+04  0.25500000920E-02 0. -1.
    10030    2    1    2    0    0  0.00000000000E+00  0.00000000000E+00 -0.22019182650E+03  0.31819488187E+04  0.31743210052E+04 0.  0.
        3    1    3    3  502    0 -0.14503274402E+04  0.35969001411E+03  0.42621484144E+03  0.15538615419E+04  0.10100000352E+00 0.  1.
       -3    1    3    3    0  502  0.14503274402E+04 -0.35969001411E+03 -0.64640666794E+03  0.16280872768E+04  0.10100000352E+00 0. -1.
</event>
<event>
 5   0  0.5281187E-07  0.3195799E+04  0.7818609E-02  0.8189927E-01
        1   -1    0    0  501    0  0.00000000000E+00  0.00000000000E+00  0.19244495339E+04  0.19244495339E+04  0.50400001928E-02 0. -1.
       -1   -1    0    0    0  501  0.00000000000E+00  0.00000000000E+00 -0.13267602260E+04  0.13267602260E+04  0.50400001928E-02 0.  1.
    10030    2    1    2    0    0  0.00000000000E+00  0.00000000000E+00  0.59768930794E+03  0.32512097599E+04  0.31957991792E+04 0.  0.
        5    1    3    3  502    0  0.70177011049E+03  0.10259074561E+04 -0.72270390844E+03  0.14378075065E+04  0.46999998093E+01 0.  1.
       -5    1    3    3    0  502 -0.70177011049E+03 -0.10259074561E+04  0.13203932164E+04  0.18134022533E+04  0.46999998093E+01 0. -1.
</event>
<event>
 5   0  0.1572769E-06  0.3158531E+04  0.7818609E-02  0.8199856E-01
        2   -1    0    0  501    0  0.00000000000E+00  0.00000000000E+00  0.10065797518E+04  0.10065797518E+04  0.25500000920E-02 0. -1.
       -2   -1    0    0    0  501  0.00000000000E+00  0.00000000000E+00 -0.24777761138E+04  0.24777761138E+04  0.25500000920E-02 0.  1.
    10030    2    1    2    0    0  0.00000000000E+00  0.00000000000E+00 -0.14711963620E+04  0.34843558656E+04  0.31585308393E+04 0.  0.
        5    1    3    3  502    0  0.22920663490E+03  0.22465880717E+03  0.97021593392E+03  0.10219336131E+04  0.46999998093E+01 0. -1.
       -5    1    3    3    0  502 -0.22920663490E+03 -0.22465880717E+03 -0.24414122959E+04  0.24624222526E+04  0.46999998093E+01 0.  1.
</event>
<event>
 5   0  0.1508771E-06  0.3220625E+04  0.7818609E-02  0.8183391E-01
       -2   -1    0    0    0  501  0.00000000000E+00  0.00000000000E+00  0.12382779612E+04  0.12382779612E+04  0.25500000920E-02 0.  1.
        2   -1    0    0  501    0  0.00000000000E+00  0.00000000000E+00 -0.20941225347E+04  0.20941225347E+04  0.25500000920E-02 0. -1.
    10030    2    1    2    0    0  0.00000000000E+00  0.00000000000E+00 -0.85584457352E+03  0.33324004959E+04  0.32206246492E+04 0.  0.
        4    1    3    3  502    0  0.73734654041E+03  0.34211727971E+02  0.10529205309E+04  0.12858824286E+04  0.12699999809E+01 0.  1.
       -4    1    3    3    0  502 -0.73734654041E+03 -0.34211727971E+02 -0.19087651044E+04  0.20465180673E+04  0.12699999809E+01 0. -1.
</event>
<event>
 5   0  0.1538349E-06  0.3174124E+04  0.7818609E-02  0.8195685E-01
        2   -1    0    0  501    0  0.00000000000E+00  0.00000000000E+00  0.16870377079E+04  0.16870377079E+04  0.25500000920E-02 0. -1.
       -2   -1    0    0    0  501  0.00000000000E+00  0.00000000000E+00 -0.14930107947E+04  0.14930107947E+04  0.25500000920E-02 0.  1.
    10030    2    1    2    0    0  0.00000000000E+00  0.00000000000E+00  0.19402691318E+03  0.31800485026E+04  0.31741238217E+04 0.  0.
        1    1    3    3  502    0  0.13022240615E+04  0.72905608199E+03 -0.44386017240E+03  0.15570234840E+04  0.50400001928E-02 0.  1.
       -1    1    3    3    0  502 -0.13022240615E+04 -0.72905608199E+03  0.63788708557E+03  0.16230250186E+04  0.50400001928E-02 0. -1.
</event>
<event>
 5   0  0.1538349E-06  0.3197623E+04  0.7818609E-02  0.8189445E-01
       -2   -1    0    0    0  501  0.00000000000E+00  0.00000000000E+00  0.20878826281E+04  0.20878826281E+04  0.25500000920E-02 0. -1.
        2   -1    0    0  501    0  0.00000000000E+00  0.00000000000E+00 -0.12243015172E+04  0.12243015172E+04  0.25500000920E-02 0.  1.
    10030    2    1    2    0    0  0.00000000000E+00  0.00000000000E+00  0.86358111089E+03  0.33121841453E+04  0.31976227854E+04 0.  0.
        1    1    3    3  502    0  0.25198108243E+03  0.15767477643E+04  0.34783173484E+03  0.16342016075E+04  0.50400001928E-02 0.  1.
       -1    1    3    3    0  502 -0.25198108243E+03 -0.15767477643E+04  0.51574937605E+03  0.16779825378E+04  0.50400001928E-02 0. -1.
</event>
<event>
 5   0  0.5317728E-07  0.3183894E+04  0.7818609E-02  0.8193084E-01
       -1   -1    0    0    0  501  0.00000000000E+00  0.00000000000E+00  0.14026347721E+04  0.14026347721E+04  0.50400001928E-02 0. -1.
        1   -1    0    0  501    0  0.00000000000E+00  0.00000000000E+00 -0.18068102655E+04  0.18068102655E+04  0.50400001928E-02 0.  1.
    10030    2    1    2    0    0  0.00000000000E+00  0.00000000000E+00 -0.40417549347E+03  0.32094450376E+04  0.31838937828E+04 0.  0.
        2    1    3    3  502    0 -0.53757310749E+03  0.69660836107E+03 -0.15394020388E+04  0.17731347077E+04  0.25500000920E-02 0.  1.
       -2    1    3    3    0  502  0.53757310749E+03 -0.69660836107E+03  0.11352265453E+04  0.14363103299E+04  0.25500000920E-02 0. -1.
</event>
<event>
 5   0  0.1538349E-06  0.3214572E+04  0.7818609E-02  0.8184979E-01
       -2   -1    0    0    0  501  0.00000000000E+00  0.00000000000E+00  0.12032353204E+04  0.12032353204E+04  0.25500000920E-02 0.  1.
        2   -1    0    0  501    0  0.00000000000E+00  0.00000000000E+00 -0.21470189060E+04  0.21470189060E+04  0.25500000920E-02 0. -1.
    10030    2    1    2    0    0  0.00000000000E+00  0.00000000000E+00 -0.94378358562E+03  0.33502542264E+04  0.32145724326E+04 0.  0.
        1    1    3    3  502    0  0.18629502641E+02 -0.14634579425E+04  0.22046155525E+03  0.14800876680E+04  0.50400001928E-02 0.  1.
       -1    1    3    3    0  502 -0.18629502641E+02  0.14634579425E+04 -0.11642451409E+04  0.18701665583E+04  0.50400001928E-02 0. -1.
</event>
<event>
 5   0  0.5281187E-07  0.3207605E+04  0.7818609E-02  0.8186812E-01
       -1   -1    0    0    0  501  0.00000000000E+00  0.00000000000E+00  0.93376620875E+03  0.93376620876E+03  0.50400001928E-02 0.  1.
        1   -1    0    0  501    0  0.00000000000E+00  0.00000000000E+00 -0.27546316643E+04  0.27546316643E+04  0.50400001928E-02 0. -1.
    10030    2    1    2    0    0  0.00000000000E+00  0.00000000000E+00 -0.18208654556E+04  0.36883978731E+04  0.32076046924E+04 0.  0.
        5    1    3    3  502    0 -0.83993728731E+03  0.64962076135E+03  0.47166725188E+03  0.11618923645E+04  0.46999998093E+01 0.  1.
       -5    1    3    3    0  502  0.83993728731E+03 -0.64962076135E+03 -0.22925327075E+04  0.25265055086E+04  0.46999998093E+01 0. -1.
</event>
<event>
 5   0  0.5177039E-07  0.3209280E+04  0.7818609E-02  0.8186371E-01
       -1   -1    0    0    0  501  0.00000000000E+00  0.00000000000E+00  0.17103755405E+04  0.17103755405E+04  0.50400001928E-02 0. -1.
        1   -1    0    0  501    0  0.00000000000E+00  0.00000000000E+00 -0.15054406595E+04  0.15054406595E+04  0.50400001928E-02 0.  1.
    10030    2    1    2    0    0  0.00000000000E+00  0.00000000000E+00  0.20493488101E+03  0.32158161999E+04  0.32092795962E+04 0.  0.
        3    1    3    3  502    0  0.37432055781E+03  0.10355715484E+04 -0.10671050496E+04  0.15333745495E+04  0.10100000352E+00 0.  1.
       -3    1    3    3    0  502 -0.37432055781E+03 -0.10355715484E+04  0.12720399307E+04  0.16824416505E+04  0.10100000352E+00 0. -1.
</event>
<event>
 5   0  0.1508771E-06  0.3211687E+04  0.7818609E-02  0.8185737E-01
        2   -1    0    0  501    0  0.00000000000E+00  0.00000000000E+00  0.21175894356E+04  0.21175894356E+04  0.25500000920E-02 0. -1.
       -2   -1    0    0    0  501  0.00000000000E+00  0.00000000000E+00 -0.12177684126E+04  0.12177684126E+04  0.25500000920E-02 0.  1.
    10030    2    1    2    0    0  0.00000000000E+00  0.00000000000E+00  0.89982102305E+03  0.33353578482E+04  0.32116871115E+04 0.  0.
        4    1    3    3  502    0 -0.41407929024E+03  0.67588645910E+03 -0.10004513367E+04  0.12763967464E+04  0.12699999809E+01 0.  1.
       -4    1    3    3    0  502  0.41407929024E+03 -0.67588645910E+03  0.19002723598E+04  0.20589611018E+04  0.12699999809E+01 0. -1.
</event>
<event>
 5   0  0.5233813E-07  0.3215889E+04  0.7818609E-02  0.8184633E-01
        1   -1    0    0  501    0  0.00000000000E+00  0.00000000000E+00  0.24357003469E+04  0.24357003469E+04  0.50400001928E-02 0.  1.
       -1   -1    0    0    0  501  0.00000000000E+00  0.00000000000E+00 -0.10614957557E+04  0.10614957557E+04  0.50400001928E-02 0. -1.
    10030    2    1    2    0    0  0.00000000000E+00  0.00000000000E+00  0.13742045912E+04  0.34971961026E+04  0.32158890406E+04 0.  0.
        4    1    3    3  502    0  0.76111993129E+03  0.11824001140E+04  0.15351301966E+04  0.20818261005E+04  0.12699999809E+01 0.  1.
       -4    1    3    3    0  502 -0.76111993129E+03 -0.11824001140E+04 -0.16092560540E+03  0.14153700021E+04  0.12699999809E+01 0. -1.
</event>
<event>
 5   0  0.1556396E-06  0.3210958E+04  0.7818609E-02  0.8185929E-01
       -2   -1    0    0    0  501  0.00000000000E+00  0.00000000000E+00  0.90591666859E+03  0.90591666860E+03  0.25500000920E-02 0. -1.
        2   -1    0    0  501    0  0.00000000000E+00  0.00000000000E+00 -0.28452542235E+04  0.28452542235E+04  0.25500000920E-02 0.  1.
    10030    2    1    2    0    0  0.00000000000E+00  0.00000000000E+00 -0.19393375549E+04  0.37511708921E+04  0.32109582541E+04 0.  0.
        3    1    3    3  502    0  0.19889543117E+03 -0.41627490724E+03 -0.27661470263E+04  0.28043561778E+04  0.10100000352E+00 0.  1.
       -3    1    3    3    0  502 -0.19889543117E+03  0.41627490724E+03  0.82680947139E+03  0.94681471425E+03  0.10100000352E+00 0. -1.
</event>
<event>
 5   0  0.1556396E-06  0.3201942E+04  0.7818609E-02  0.8188305E-01
       -2   -1    0    0    0  501  0.00000000000E+00  0.00000000000E+00  0.14513160624E+04  0.14513160624E+04  0.25500000920E-02 0.  1.
        2   -1    0    0  501    0  0.00000000000E+00  0.00000000000E+00 -0.17660575198E+04  0.17660575198E+04  0.25500000920E-02 0. -1.
    10030    2    1    2    0    0  0.00000000000E+00  0.00000000000E+00 -0.31474145740E+03  0.32173735821E+04  0.32019416893E+04 0.  0.
        3    1    3    3  502    0  0.10241630263E+04 -0.62183014115E+03 -0.12243381626E+04  0.17130635060E+04  0.10100000352E+00 0. -1.
       -3    1    3    3    0  502 -0.10241630263E+04  0.62183014115E+03  0.90959670523E+03  0.15043100761E+04  0.10100000352E+00 0.  1.
</event>
<event>
 5   0  0.1556396E-06  0.3020700E+04  0.7818609E-02  0.8237844E-01
       -2   -1    0    0    0  501  0.00000000000E+00  0.00000000000E+00  0.12414562167E+04  0.12414562167E+04  0.25500000920E-02 0. -1.
        2   -1    0    0  501    0  0.00000000000E+00  0.00000000000E+00 -0.18374850181E+04  0.18374850181E+04  0.25500000920E-02 0.  1.
    10030    2    1    2    0    0  0.00000000000E+00  0.00000000000E+00 -0.59602880140E+03  0.30789412348E+04  0.30207000506E+04 0.  0.
        3    1    3    3  502    0 -0.14759066031E+04 -0.28414244616E+03 -0.44960977376E+03  0.15688168120E+04  0.10100000352E+00 0.  1.
       -3    1    3    3    0  502  0.14759066031E+04  0.28414244616E+03 -0.14641902764E+03  0.15101244229E+04  0.10100000352E+00 0. -1.
</event>
<event>
 5   0  0.5317728E-07  0.3178820E+04  0.7818609E-02  0.8194433E-01
       -1   -1    0    0    0  501  0.00000000000E+00  0.00000000000E+00  0.14583067745E+04  0.14583067745E+04  0.50400001928E-02 0.  1.
        1   -1    0    0  501    0  0.00000000000E+00  0.00000000000E+00 -0.17322992793E+04  0.17322992793E+04  0.50400001928E-02 0. -1.
    10030    2    1    2    0    0  0.00000000000E+00  0.00000000000E+00 -0.27399250477E+03  0.31906060538E+04  0.31788197649E+04 0.  0.
        2    1    3    3  502    0  0.78332523668E+03  0.52034460076E+03 -0.14231007194E+04  0.17057469295E+04  0.25500000920E-02 0. -1.
       -2    1    3    3    0  502 -0.78332523668E+03 -0.52034460076E+03  0.11491082146E+04  0.14848591243E+04  0.25500000920E-02 0.  1.
</event>
<event>
 5   0  0.1572769E-06  0.3210550E+04  0.7818609E-02  0.8186036E-01
       -2   -1    0    0    0  501  0.00000000000E+00  0.00000000000E+00  0.15662977703E+04  0.15662977703E+04  0.25500000920E-02 0.  1.
        2   -1    0    0  501    0  0.00000000000E+00  0.00000000000E+00 -0.16452224384E+04  0.16452224384E+04  0.25500000920E-02 0. -1.
    10030    2    1    2    0    0  0.00000000000E+00  0.00000000000E+00 -0.78924668040E+02  0.32115202087E+04  0.32105502562E+04 0.  0.
        5    1    3    3  502    0  0.15057118288E+04  0.29240594698E+03 -0.51312075139E+03  0.16174004899E+04  0.46999998093E+01 0. -1.
       -5    1    3    3    0  502 -0.15057118288E+04 -0.29240594698E+03  0.43419608335E+03  0.15941197188E+04  0.46999998093E+01 0.  1.
</event>
<event>
 5   0  0.1572769E-06  0.3421678E+04  0.7818609E-02  0.8132606E-01
       -2   -1    0    0    0  501  0.00000000000E+00  0.00000000000E+00  0.13965001478E+04  0.13965001478E+04  0.25500000920E-02 0.  1.
        2   -1    0    0  501    0  0.00000000000E+00  0.00000000000E+00 -0.20959331268E+04  0.20959331268E+04  0.25500000920E-02 0. -1.
    10030    2    1    2    0    0  0.00000000000E+00  0.00000000000E+00 -0.69943297906E+03  0.34924332746E+04  0.34216784895E+04 0.  0.
        5    1    3    3  502    0 -0.61818721182E+03  0.53236346142E+03 -0.18846018216E+04  0.20536096026E+04  0.46999998093E+01 0. -1.
       -5    1    3    3    0  502  0.61818721182E+03 -0.53236346142E+03  0.11851688425E+04  0.14388236720E+04  0.46999998093E+01 0.  1.
</event>
<event>
 5   0  0.1508771E-06  0.3128027E+04  0.7818609E-02  0.8208088E-01
        2   -1    0    0  501    0  0.00000000000E+00  0.00000000000E+00  0.15346616983E+04  0.15346616983E+04  0.25500000920E-02 0.  1.
       -2   -1    0    0    0  501  0.00000000000E+00  0.00000000000E+00 -0.15939271273E+04  0.15939271273E+04  0.25500000920E-02 0. -1.
    10030    2    1    2    0    0  0.00000000000E+00  0.00000000000E+00 -0.59265429027E+02  0.31285888256E+04  0.31280274373E+04 0.  0.
        4    1    3    3  502    0 -0.59574852612E+03  0.12714045835E+04  0.65951298907E+03  0.15512398000E+04  0.12699999809E+01 0.  1.
       -4    1    3    3    0  502  0.59574852612E+03 -0.12714045835E+04 -0.71877841809E+03  0.15773490256E+04  0.12699999809E+01 0. -1.
</event>
<event>
 5   0  0.1508771E-06  0.3209730E+04  0.7818609E-02  0.8186252E-01
       -2   -1    0    0    0  501  0.00000000000E+00  0.00000000000E+00  0.12911193542E+04  0.12911193542E+04  0.25500000920E-02 0. -1.
        2   -1    0    0  501    0  0.00000000000E+00  0.00000000000E+00 -0.19948514210E+04  0.19948514210E+04  0.25500000920E-02 0.  1.
    10030    2    1    2    0    0  0.00000000000E+00  0.00000000000E+00 -0.70373206675E+03  0.32859707752E+04  0.32097297572E+04 0.  0.
        4    1    3    3  502    0 -0.10532277364E+04 -0.98713443108E+03 -0.10698568698E+04  0.17967521767E+04  0.12699999809E+01 0.  1.
       -4    1    3    3    0  502  0.10532277364E+04  0.98713443108E+03  0.36612480305E+03  0.14892185985E+04  0.12699999809E+01 0. -1.
</event>
<event>
 5   0  0.5317728E-07  0.3197724E+04  0.7818609E-02  0.8189419E-01
        1   -1    0    0  501    0  0.00000000000E+00  0.00000000000E+00  0.27077023786E+04  0.27077023786E+04  0.50400001928E-02 0. -1.
       -1   -1    0    0    0  501  0.00000000000E+00  0.00000000000E+00 -0.94410642572E+03  0.94410642573E+03  0.50400001928E-02 0.  1.
    10030    2    1    2    0    0  0.00000000000E+00  0.00000000000E+00  0.17635959529E+04  0.36518088043E+04  0.31977236995E+04 0.  0.
        2    1    3    3  502    0  0.98642925393E+03  0.43603437746E+03  0.22297435526E+04  0.24768780676E+04  0.25500000920E-02 0. -1.
       -2    1    3    3    0  502 -0.98642925393E+03 -0.43603437746E+03 -0.46614759975E+03  0.11749307367E+04  0.25500000920E-02 0.  1.
</event>
<event>
 5   0  0.1556396E-06  0.3194752E+04  0.7818609E-02  0.8190204E-01
        2   -1    0    0  501    0  0.00000000000E+00  0.00000000000E+00  0.20862282512E+04  0.20862282512E+04  0.25500000920E-02 0.  1.
       -2   -1    0    0    0  501  0.00000000000E+00  0.00000000000E+00 -0.12230735065E+04  0.12230735065E+04  0.25500000920E-02 0. -1.
    10030    2    1    2    0    0  0.00000000000E+00  0.00000000000E+00  0.86315474464E+03  0.33093017577E+04  0.31947522612E+04 0.  0.
        3    1    3    3  502    0 -0.19123466421E+03  0.85205571646E+03 -0.95393150431E+03  0.12932729665E+04  0.10100000352E+00 0. -1.
       -3    1    3    3    0  502  0.19123466421E+03 -0.85205571646E+03  0.18170862490E+04  0.20160287912E+04  0.10100000352E+00 0.  1.
</event>
<event>
 5   0  0.5233813E-07  0.3180484E+04  0.7818609E-02  0.8193990E-01
       -1   -1    0    0    0  501  0.00000000000E+00  0.00000000000E+00  0.94370761281E+03  0.94370761282E+03  0.50400001928E-02 0. -1.
        1   -1    0    0  501    0  0.00000000000E+00  0.00000000000E+00 -0.26797178350E+04  0.26797178350E+04  0.50400001928E-02 0.  1.
    10030    2    1    2    0    0  0.00000000000E+00  0.00000000000E+00 -0.17360102222E+04  0.36234254478E+04  0.31804843160E+04 0.  0.
        4    1    3    3  502    0 -0.75806349565E+03  0.92416514715E+03  0.32693871204E+03  0.12392062044E+04  0.12699999809E+01 0. -1.
       -4    1    3    3    0  502  0.75806349565E+03 -0.92416514715E+03 -0.20629489342E+04  0.23842192434E+04  0.12699999809E+01 0.  1.
</event>
<event>
 5   0  0.1538349E-06  0.2988329E+04  0.7818609E-02  0.8247072E-01
        2   -1    0    0  501    0  0.00000000000E+00  0.00000000000E+00  0.16580094538E+04  0.16580094538E+04  0.25500000920E-02 0.  1.
       -2   -1    0    0    0  501  0.00000000000E+00  0.00000000000E+00 -0.13465104898E+04  0.13465104898E+04  0.25500000920E-02 0. -1.
    10030    2    1    2    0    0  0.00000000000E+00  0.00000000000E+00  0.31149896392E+03  0.30045199436E+04  0.29883287113E+04 0.  0.
        1    1    3    3  502    0  0.26499621768E+03  0.32796000100E+03 -0.12854557631E+04  0.13528404475E+04  0.50400001928E-02 0. -1.
       -1    1    3    3    0  502 -0.26499621768E+03 -0.32796000100E+03  0.15969547270E+04  0.16516794961E+04  0.50400001928E-02 0.  1.
</event>
<event>
 5   0  0.1493485E-06  0.3259496E+04  0.7818609E-02  0.8173279E-01
       -2   -1    0    0    0  501  0.00000000000E+00  0.00000000000E+00  0.15601355806E+04  0.15601355806E+04  0.25500000920E-02 0.  1.
        2   -1    0    0  501    0  0.00000000000E+00  0.00000000000E+00 -0.17024663306E+04  0.17024663306E+04  0.25500000920E-02 0. -1.
    10030    2    1    2    0    0  0.00000000000E+00  0.00000000000E+00 -0.14233075004E+03  0.32626019112E+04  0.32594958488E+04 0.  0.
        2    1    3    3  502    0  0.11658618040E+04  0.70032494775E+03 -0.97001303292E+03  0.16705131135E+04  0.25500000920E-02 0. -1.
       -2    1    3    3    0  502 -0.11658618040E+04 -0.70032494775E+03  0.82768228288E+03  0.15920887977E+04  0.25500000920E-02 0.  1.
</event>
<event>
 5   0  0.5233813E-07  0.3168703E+04  0.7818609E-02  0.8197132E-01
        1   -1    0    0  501    0  0.00000000000E+00  0.00000000000E+00  0.16568111021E+04  0.16568111021E+04  0.50400001928E-02 0. -1.
       -1   -1    0    0    0  501  0.00000000000E+00  0.00000000000E+00 -0.15150605356E+04  0.15150605356E+04  0.50400001928E-02 0.  1.
    10030    2    1    2    0    0  0.00000000000E+00  0.00000000000E+00  0.14175056647E+03  0.31718716378E+04  0.31687026467E+04 0.  0.
        4    1    3    3  502    0  0.28142716344E+03 -0.14809782575E+04 -0.41712602394E+03  0.15641270985E+04  0.12699999809E+01 0.  1.
       -4    1    3    3    0  502 -0.28142716344E+03  0.14809782575E+04  0.55887659041E+03  0.16077445393E+04  0.12699999809E+01 0. -1.
</event>
<event>
 5   0  0.5317728E-07  0.3190472E+04  0.7818609E-02  0.8191338E-01
        1   -1    0    0  501    0  0.00000000000E+00  0.00000000000E+00  0.25816638509E+04  0.25816638509E+04  0.50400001928E-02 0. -1.
       -1   -1    0    0    0  501  0.00000000000E+00  0.00000000000E+00 -0.98571233927E+03  0.98571233928E+03  0.50400001928E-02 0.  1.
    10030    2    1    2    0    0  0.00000000000E+00  0.00000000000E+00  0.15959515116E+04  0.35673761902E+04  0.31904720113E+04 0.  0.
        2    1    3    3  502    0  0.10094839806E+04  0.12226587933E+04  0.60166282493E+03  0.16958627854E+04  0.25500000920E-02 0.  1.
       -2    1    3    3    0  502 -0.10094839806E+04 -0.12226587933E+04  0.99428868670E+03  0.18715134048E+04  0.25500000920E-02 0. -1.
</event>
<event>
 5   0  0.1508771E-06  0.3199110E+04  0.7818609E-02  0.8189052E-01
        2   -1    0    0  501    0  0.00000000000E+00  0.00000000000E+00  0.18699693368E+04  0.18699693368E+04  0.25500000920E-02 0.  1.
       -2   -1    0    0    0  501  0.00000000000E+00  0.00000000000E+00 -0.13682449758E+04  0.13682449758E+04  0.25500000920E-02 0. -1.
    10030    2    1    2    0    0  0.00000000000E+00  0.00000000000E+00  0.50172436101E+03  0.32382143126E+04  0.31991099700E+04 0.  0.
        4    1    3    3  502    0 -0.11414859650E+04  0.13787764462E+03  0.13764684123E+04  0.17935069992E+04  0.12699999809E+01 0.  1.
       -4    1    3    3    0  502  0.11414859650E+04 -0.13787764462E+03 -0.87474405132E+03  0.14447073134E+04  0.12699999809E+01 0. -1.
</event>
<event>
 5   0  0.1508771E-06  0.3208923E+04  0.7818609E-02  0.8186465E-01
       -2   -1    0    0    0  501  0.00000000000E+00  0.00000000000E+00  0.12426786303E+04  0.12426786303E+04  0.25500000920E-02 0.  1.
        2   -1    0    0  501    0  0.00000000000E+00  0.00000000000E+00 -0.20715711660E+04  0.20715711660E+04  0.25500000920E-02 0. -1.
    10030    2    1    2    0    0  0.00000000000E+00  0.00000000000E+00 -0.82889253573E+03  0.33142497963E+04  0.32089233204E+04 0.  0.
        4    1    3    3  502    0 -0.15335740496E+04 -0.31170571628E+03 -0.48871004658E+02  0.15656946724E+04  0.12699999809E+01 0.  1.
       -4    1    3    3    0  502  0.15335740496E+04  0.31170571628E+03 -0.78002153108E+03  0.17485551238E+04  0.12699999809E+01 0. -1.
</event>
<event>
 5   0  0.5233813E-07  0.3159731E+04  0.7818609E-02  0.8199534E-01
       -1   -1    0    0    0  501  0.00000000000E+00  0.00000000000E+00  0.12406456993E+04  0.12406456993E+04  0.50400001928E-02 0. -1.
        1   -1    0    0  501    0  0.00000000000E+00  0.00000000000E+00 -0.20118354224E+04  0.20118354224E+04  0.50400001928E-02 0.  1.
    10030    2    1    2    0    0  0.00000000000E+00  0.00000000000E+00 -0.77118972311E+03  0.32524811217E+04  0.31597309788E+04 0.  0.
        4    1    3    3  502    0  0.14267406417E+04  0.18355206731E+03 -0.10579868070E+04  0.17856701590E+04  0.12699999809E+01 0.  1.
       -4    1    3    3    0  502 -0.14267406417E+04 -0.18355206731E+03  0.28679708390E+03  0.14668109627E+04  0.12699999809E+01 0. -1.
</event>
<event>
 5   0  0.5317728E-07  0.3210272E+04  0.7818609E-02  0.8186110E-01
        1   -1    0    0  501    0  0.00000000000E+00  0.00000000000E+00  0.18935686379E+04  0.18935686379E+04  0.50400001928E-02 0.  1.
       -1   -1    0    0    0  501  0.00000000000E+00  0.00000000000E+00 -0.13606378260E+04  0.13606378260E+04  0.50400001928E-02 0. -1.
    10030    2    1    2    0    0  0.00000000000E+00  0.00000000000E+00  0.53293081191E+03  0.32542064639E+04  0.32102717111E+04 0.  0.
        2    1    3    3  502    0  0.42411076259E+03 -0.15013958747E+04 -0.11606041067E+03  0.15644582227E+04  0.25500000920E-02 0. -1.
       -2    1    3    3    0  502 -0.42411076259E+03  0.15013958747E+04  0.64899122258E+03  0.16897482412E+04  0.25500000920E-02 0.  1.
</event>
<event>
 5   0  0.1572769E-06  0.3200263E+04  0.7818609E-02  0.8188748E-01
        2   -1    0    0  501    0  0.00000000000E+00  0.00000000000E+00  0.12491097449E+04  0.12491097449E+04  0.25500000920E-02 0. -1.
       -2   -1    0    0    0  501  0.00000000000E+00  0.00000000000E+00 -0.20497962968E+04  0.20497962968E+04  0.25500000920E-02 0.  1.
    10030    2    1    2    0    0  0.00000000000E+00  0.00000000000E+00 -0.80068655195E+03  0.32989060417E+04  0.32002628201E+04 0.  0.
        5    1    3    3  502    0  0.13200140329E+04  0.82583721881E+03 -0.78042828691E+03  0.17417044985E+04  0.46999998093E+01 0.  1.
       -5    1    3    3    0  502 -0.13200140329E+04 -0.82583721881E+03 -0.20258265034E+02  0.15572015433E+04  0.46999998093E+01 0. -1.
</event>
<event>
 5   0  0.1572769E-06  0.3194894E+04  0.7818609E-02  0.8190167E-01
        2   -1    0    0  501    0  0.00000000000E+00  0.00000000000E+00  0.86534837245E+03  0.86534837245E+03  0.25500000920E-02 0. -1.
       -2   -1    0    0    0  501  0.00000000000E+00  0.00000000000E+00 -0.29489120085E+04  0.29489120085E+04  0.25500000920E-02 0.  1.
    10030    2    1    2    0    0  0.00000000000E+00  0.00000000000E+00 -0.20835636361E+04  0.38142603810E+04  0.31948935551E+04 0.  0.
        5    1    3    3  502    0  0.15435161942E+04 -0.11718333689E+03 -0.57078879662E+03  0.16498473009E+04  0.46999998093E+01 0. -1.
       -5    1    3    3    0  502 -0.15435161942E+04  0.11718333689E+03 -0.15127748395E+04  0.21644130800E+04  0.46999998093E+01 0.  1.
</event>
<event>
 5   0  0.5281187E-07  0.3145981E+04  0.7818609E-02  0.8203231E-01
       -1   -1    0    0    0  501  0.00000000000E+00  0.00000000000E+00  0.17534182814E+04  0.17534182814E+04  0.50400001928E-02 0. -1.
        1   -1    0    0  501    0  0.00000000000E+00  0.00000000000E+00 -0.14111286968E+04  0.14111286968E+04  0.50400001928E-02 0.  1.
    10030    2    1    2    0    0  0.00000000000E+00  0.00000000000E+00  0.34228958466E+03  0.31645469782E+04  0.31459808355E+04 0.  0.
        5    1    3    3  502    0 -0.72967513945E+03  0.55778894207E+03 -0.11133888995E+04  0.14433333796E+04  0.46999998093E+01 0.  1.
       -5    1    3    3    0  502  0.72967513945E+03 -0.55778894207E+03  0.14556784841E+04  0.17212135987E+04  0.46999998093E+01 0. -1.
</event>
<event>
 5   0  0.1493485E-06  0.3204797E+04  0.7818609E-02  0.8187551E-01
       -2   -1    0    0    0  501  0.00000000000E+00  0.00000000000E+00  0.16938259848E+04  0.16938259848E+04  0.25500000920E-02 0.  1.
        2   -1    0    0  501    0  0.00000000000E+00  0.00000000000E+00 -0.15159059642E+04  0.15159059642E+04  0.25500000920E-02 0. -1.
    10030    2    1    2    0    0  0.00000000000E+00  0.00000000000E+00  0.17792002053E+03  0.32097319490E+04  0.32047969750E+04 0.  0.
        2    1    3    3  502    0  0.79565471904E+03  0.11068373224E+04 -0.75467051358E+03  0.15581023312E+04  0.25500000920E-02 0. -1.
       -2    1    3    3    0  502 -0.79565471904E+03 -0.11068373224E+04  0.93259053412E+03  0.16516296179E+04  0.25500000920E-02 0.  1.
</event>
<event>
 5   0  0.5233813E-07  0.3209148E+04  0.7818609E-02  0.8186405E-01
       -1   -1    0    0    0  501  0.00000000000E+00  0.00000000000E+00  0.15913145194E+04  0.15913145194E+04  0.50400001928E-02 0. -1.
        1   -1    0    0  501    0  0.00000000000E+00  0.00000000000E+00 -0.16179439477E+04  0.16179439477E+04  0.50400001928E-02 0.  1.
    10030    2    1    2    0    0  0.00000000000E+00  0.00000000000E+00 -0.26629428284E+02  0.32092584671E+04  0.32091479839E+04 0.  0.
        4    1    3    3  502    0 -0.35344246772E+03  0.94767262188E+03  0.12323810543E+04  0.15942928377E+04  0.12699999809E+01 0. -1.
       -4    1    3    3    0  502  0.35344246772E+03 -0.94767262188E+03 -0.12590104826E+04  0.16149656295E+04  0.12699999809E+01 0.  1.
</event>
<event>
 5   0  0.1556396E-06  0.3197942E+04  0.7818609E-02  0.8189361E-01
       -2   -1    0    0    0  501  0.00000000000E+00  0.00000000000E+00  0.12944727417E+04  0.12944727417E+04  0.25500000920E-02 0. -1.
        2   -1    0    0  501    0  0.00000000000E+00  0.00000000000E+00 -0.19750960467E+04  0.19750960467E+04  0.25500000920E-02 0.  1.
    10030    2    1    2    0    0  0.00000000000E+00  0.00000000000E+00 -0.68062330495E+03  0.32695687884E+04  0.31979418348E+04 0.  0.
        3    1    3    3  502    0 -0.12302124569E+04 -0.19303799809E+03 -0.13657831101E+04  0.18482559000E+04  0.10100000352E+00 0.  1.
       -3    1    3    3    0  502  0.12302124569E+04  0.19303799809E+03  0.68515980520E+03  0.14213128884E+04  0.10100000352E+00 0. -1.
</event>
<event>
 5   0  0.1572769E-06  0.3202505E+04  0.7818609E-02  0.8188156E-01
        2   -1    0    0  501    0  0.00000000000E+00  0.00000000000E+00  0.26567082687E+04  0.26567082687E+04  0.25500000920E-02 0. -1.
       -2   -1    0    0    0  501  0.00000000000E+00  0.00000000000E+00 -0.96510794519E+03  0.96510794519E+03  0.25500000920E-02 0.  1.
    10030    2    1    2    0    0  0.00000000000E+00  0.00000000000E+00  0.16916003235E+04  0.36218162139E+04  0.32025054306E+04 0.  0.
        5    1    3    3  502    0  0.12611611579E+04  0.82019252729E+03  0.14660057627E+04  0.21005804518E+04  0.46999998093E+01 0. -1.
       -5    1    3    3    0  502 -0.12611611579E+04 -0.82019252729E+03  0.22559456079E+03  0.15212357621E+04  0.46999998093E+01 0.  1.
</event>
<event>
 5   0  0.1493485E-06  0.3198963E+04  0.7818609E-02  0.8189091E-01
       -2   -1    0    0    0  501  0.00000000000E+00  0.00000000000E+00  0.24865877109E+04  0.24865877109E+04  0.25500000920E-02 0. -1.
        2   -1    0    0  501    0  0.00000000000E+00  0.00000000000E+00 -0.10288558880E+04  0.10288558880E+04  0.25500000920E-02 0.  1.
    10030    2    1    2    0    0  0.00000000000E+00  0.00000000000E+00  0.14577318229E+04  0.35154435989E+04  0.31989625864E+04 0.  0.
        2    1    3    3  502    0 -0.39242206324E+03 -0.41292093046E+03  0.23713348476E+04  0.24387963691E+04  0.25500000920E-02 0. -1.
       -2    1    3    3    0  502  0.39242206324E+03  0.41292093046E+03 -0.91360302474E+03  0.10766472298E+04  0.25500000920E-02 0.  1.
</event>
<event>
 5   0  0.5177039E-07  0.3194266E+04  0.7818609E-02  0.8190333E-01
        1   -1    0    0  501    0  0.00000000000E+00  0.00000000000E+00  0.14550558902E+04  0.14550558902E+04  0.50400001928E-02 0.  1.
       -1   -1    0    0    0  501  0.00000000000E+00  0.00000000000E+00 -0.17530825402E+04  0.17530825402E+04  0.50400001928E-02 0. -1.
    10030    2    1    2    0    0  0.00000000000E+00  0.00000000000E+00 -0.29802665007E+03  0.32081384304E+04  0.31942655345E+04 0.  0.
        3    1    3    3  502    0  0.66965072791E+03  0.12625369377E+04  0.56710613279E+03  0.15375438181E+04  0.10100000352E+00 0.  1.
       -3    1    3    3    0  502 -0.66965072791E+03 -0.12625369377E+04 -0.86513278286E+03  0.16705946123E+04  0.10100000352E+00 0. -1.
</event>
<event>
 5   0  0.1493485E-06  0.3203053E+04  0.7818609E-02  0.8188011E-01
        2   -1    0    0  501    0  0.00000000000E+00  0.00000000000E+00  0.24091966845E+04  0.24091966845E+04  0.25500000920E-02 0. -1.
       -2   -1    0    0    0  501  0.00000000000E+00  0.00000000000E+00 -0.10646231658E+04  0.10646231658E+04  0.25500000920E-02 0.  1.
    10030    2    1    2    0    0  0.00000000000E+00  0.00000000000E+00  0.13445735187E+04  0.34738198504E+04  0.32030526698E+04 0.  0.
        2    1    3    3  502    0 -0.60549460345E+03 -0.84252162685E+02  0.22776773011E+04  0.23582909128E+04  0.25500000920E-02 0. -1.
       -2    1    3    3    0  502  0.60549460345E+03  0.84252162685E+02 -0.93310378238E+03  0.11155289375E+04  0.25500000920E-02 0.  1.
</event>
<event>
 5   0  0.5281187E-07  0.3201069E+04  0.7818609E-02  0.8188535E-01
       -1   -1    0    0    0  501  0.00000000000E+00  0.00000000000E+00  0.17728100556E+04  0.17728100556E+04  0.50400001928E-02 0. -1.
        1   -1    0    0  501    0  0.00000000000E+00  0.00000000000E+00 -0.14450002615E+04  0.14450002615E+04  0.50400001928E-02 0.  1.
    10030    2    1    2    0    0  0.00000000000E+00  0.00000000000E+00  0.32780979415E+03  0.32178103171E+04  0.32010691926E+04 0.  0.
        5    1    3    3  502    0 -0.65708880984E+03 -0.11924116945E+04 -0.68196932649E+03  0.15227329396E+04  0.46999998093E+01 0.  1.
       -5    1    3    3    0  502  0.65708880984E+03  0.11924116945E+04  0.10097791206E+04  0.16950773775E+04  0.46999998093E+01 0. -1.
</event>
<event>
 5   0  0.5233813E-07  0.3219112E+04  0.7818609E-02  0.8183788E-01
        1   -1    0    0  501    0  0.00000000000E+00  0.00000000000E+00  0.95655012984E+03  0.95655012985E+03  0.50400001928E-02 0. -1.
       -1   -1    0    0    0  501  0.00000000000E+00  0.00000000000E+00 -0.27083479657E+04  0.27083479657E+04  0.50400001928E-02 0.  1.
    10030    2    1    2    0    0  0.00000000000E+00  0.00000000000E+00 -0.17517978359E+04  0.36648980955E+04  0.32191120504E+04 0.  0.
        4    1    3    3  502    0  0.12337852503E+04  0.52115440927E+03  0.14037704049E+03  0.13466756434E+04  0.12699999809E+01 0. -1.
       -4    1    3    3    0  502 -0.12337852503E+04 -0.52115440927E+03 -0.18921748763E+04  0.23182224522E+04  0.12699999809E+01 0.  1.
</event>
<event>
 5   0  0.1556396E-06  0.3280708E+04  0.7818609E-02  0.8167822E-01
        2   -1    0    0  501    0  0.00000000000E+00  0.00000000000E+00  0.15201603112E+04  0.15201603112E+04  0.25500000920E-02 0. -1.
       -2   -1    0    0    0  501  0.00000000000E+00  0.00000000000E+00 -0.17700511950E+04  0.17700511950E+04  0.25500000920E-02 0.  1.
    10030    2    1    2    0    0  0.00000000000E+00  0.00000000000E+00 -0.24989088383E+03  0.32902115062E+04  0.32807082012E+04 0.  0.
        3    1    3    3  502    0 -0.14279149653E+04 -0.75553018423E+03  0.16047438071E+03  0.16234281766E+04  0.10100000352E+00 0. -1.
       -3    1    3    3    0  502  0.14279149653E+04  0.75553018423E+03 -0.41036526453E+03  0.16667833296E+04  0.10100000352E+00 0.  1.
</event>
<event>
 5   0  0.5177039E-07  0.3196486E+04  0.7818609E-02  0.8189746E-01
       -1   -1    0    0    0  501  0.00000000000E+00  0.00000000000E+00  0.10948087805E+04  0.10948087805E+04  0.50400001928E-02 0.  1.
        1   -1    0    0  501    0  0.00000000000E+00  0.00000000000E+00 -0.23331756924E+04  0.23331756924E+04  0.50400001928E-02 0. -1.
    10030    2    1    2    0    0  0.00000000000E+00  0.00000000000E+00 -0.12383669118E+04  0.34279844729E+04  0.31964863425E+04 0.  0.
        3    1    3    3  502    0  0.88107757176E+03  0.12754046845E+04 -0.10365011811E+04  0.18647491802E+04  0.10100000352E+00 0. -1.
       -3    1    3    3    0  502 -0.88107757176E+03 -0.12754046845E+04 -0.20186573080E+03  0.15632352926E+04  0.10100000352E+00 0.  1.
</event>
<event>
 5   0  0.5317728E-07  0.3191091E+04  0.7818609E-02  0.8191174E-01
       -1   -1    0    0    0  501  0.00000000000E+00  0.00000000000E+00  0.12165027076E+04  0.12165027076E+04  0.50400001928E-02 0.  1.
        1   -1    0    0  501    0  0.00000000000E+00  0.00000000000E+00 -0.20926920831E+04  0.20926920831E+04  0.50400001928E-02 0. -1.
    10030    2    1    2    0    0  0.00000000000E+00  0.00000000000E+00 -0.87618937550E+03  0.33091947908E+04  0.31910910895E+04 0.  0.
        2    1    3    3  502    0  0.38272273532E+03  0.13271711461E+03  0.11622899919E+04  0.12308568356E+04  0.25500000920E-02 0.  1.
       -2    1    3    3    0  502 -0.38272273532E+03 -0.13271711461E+03 -0.20384793674E+04  0.20783379551E+04  0.25500000920E-02 0. -1.
</event>
<event>
 5   0  0.5317728E-07  0.3201833E+04  0.7818609E-02  0.8188333E-01
        1   -1    0    0  501    0  0.00000000000E+00  0.00000000000E+00  0.20243792202E+04  0.20243792202E+04  0.50400001928E-02 0.  1.
       -1   -1    0    0    0  501  0.00000000000E+00  0.00000000000E+00 -0.12660346296E+04  0.12660346296E+04  0.50400001928E-02 0. -1.
    10030    2    1    2    0    0  0.00000000000E+00  0.00000000000E+00  0.75834459058E+03  0.32904138498E+04  0.32018333475E+04 0.  0.
        2    1    3    3  502    0  0.93138142786E+03  0.11532663211E+04 -0.24206800241E+03  0.15020291240E+04  0.25500000920E-02 0. -1.
       -2    1    3    3    0  502 -0.93138142786E+03 -0.11532663211E+04  0.10004125930E+04  0.17883847259E+04  0.25500000920E-02 0.  1.
</event>
<event>
 5   0  0.1508771E-06  0.3174115E+04  0.7818609E-02  0.8195687E-01
       -2   -1    0    0    0  501  0.00000000000E+00  0.00000000000E+00  0.11791090235E+04  0.11791090235E+04  0.25500000920E-02 0. -1.
        2   -1    0    0  501    0  0.00000000000E+00  0.00000000000E+00 -0.21361474416E+04  0.21361474416E+04  0.25500000920E-02 0.  1.
    10030    2    1    2    0    0  0.00000000000E+00  0.00000000000E+00 -0.95703841802E+03  0.33152564651E+04  0.31741145058E+04 0.  0.
        4    1    3    3  502    0  0.19702194331E+03  0.48459268821E+03 -0.20435126450E+04  0.21094059028E+04  0.12699999809E+01 0.  1.
       -4    1    3    3    0  502 -0.19702194331E+03 -0.48459268821E+03  0.10864742270E+04  0.12058505623E+04  0.12699999809E+01 0. -1.
</event>
<event>
 5   0  0.5370912E-07  0.3188603E+04  0.7818609E-02  0.8191834E-01
        1   -1    0    0  501    0  0.00000000000E+00  0.00000000000E+00  0.22909242555E+04  0.22909242555E+04  0.50400001928E-02 0.  1.
       -1   -1    0    0    0  501  0.00000000000E+00  0.00000000000E+00 -0.11095073366E+04  0.11095073366E+04  0.50400001928E-02 0. -1.
    10030    2    1    2    0    0  0.00000000000E+00  0.00000000000E+00  0.11814169189E+04  0.34004315921E+04  0.31886029976E+04 0.  0.
        1    1    3    3  502    0  0.54189202997E+03 -0.37546881861E+03  0.21387540138E+04  0.22380555260E+04  0.50400001928E-02 0.  1.
       -1    1    3    3    0  502 -0.54189202997E+03  0.37546881861E+03 -0.95733709488E+03  0.11623760661E+04  0.50400001928E-02 0. -1.
</event>
<event>
 5   0  0.5370912E-07  0.3100125E+04  0.7818609E-02  0.8215704E-01
       -1   -1    0    0    0  501  0.00000000000E+00  0.00000000000E+00  0.88461598285E+03  0.88461598287E+03  0.50400001928E-02 0. -1.
        1   -1    0    0  501    0  0.00000000000E+00  0.00000000000E+00 -0.27160862776E+04  0.27160862776E+04  0.50400001928E-02 0.  1.
    10030    2    1    2    0    0  0.00000000000E+00  0.00000000000E+00 -0.18314702948E+04  0.36007022605E+04  0.31001247278E+04 0.  0.
        1    1    3    3  502    0 -0.69909286515E+03  0.12490233281E+04 -0.22477928901E+03  0.14489015968E+04  0.50400001928E-02 0. -1.
       -1    1    3    3    0  502  0.69909286515E+03 -0.12490233281E+04 -0.16066910058E+04  0.21518006637E+04  0.50400001928E-02 0.  1.
</event>
<event>
 5   0  0.1572769E-06  0.3187392E+04  0.7818609E-02  0.8192155E-01
       -2   -1    0    0    0  501  0.00000000000E+00  0.00000000000E+00  0.19084761234E+04  0.19084761234E+04  0.25500000920E-02 0. -1.
        2   -1    0    0  501    0  0.00000000000E+00  0.00000000000E+00 -0.13308348999E+04  0.13308348999E+04  0.25500000920E-02 0.  1.
    10030    2    1    2    0    0  0.00000000000E+00  0.00000000000E+00  0.57764122347E+03  0.32393110233E+04  0.31873918056E+04 0.  0.
        5    1    3    3  502    0 -0.15112002526E+04 -0.26803845549E+03 -0.14744291203E+03  0.15418600194E+04  0.46999998093E+01 0. -1.
       -5    1    3    3    0  502  0.15112002526E+04  0.26803845549E+03  0.72508413549E+03  0.16974510039E+04  0.46999998093E+01 0.  1.
</event>
<event>
 5   0  0.1538349E-06  0.2861566E+04  0.7818609E-02  0.8284406E-01
       -2   -1    0    0    0  501  0.00000000000E+00  0.00000000000E+00  0.86101624888E+03  0.86101624888E+03  0.25500000920E-02 0. -1.
        2   -1    0    0  501    0  0.00000000000E+00  0.00000000000E+00 -0.23775852198E+04  0.23775852198E+04  0.25500000920E-02 0.  1.
    10030    2    1    2    0    0  0.00000000000E+00  0.00000000000E+00 -0.15165689709E+04  0.32386014687E+04  0.28615656605E+04 0.  0.
        1    1    3    3  502    0 -0.60278680995E+03 -0.62307930825E+03  0.52991320320E+03  0.10160648432E+04  0.50400001928E-02 0. -1.
       -1    1    3    3    0  502  0.60278680995E+03  0.62307930825E+03 -0.20464821741E+04  0.22225366255E+04  0.50400001928E-02 0.  1.
</event>
<event>
 5   0  0.1538349E-06  0.3218040E+04  0.7818609E-02  0.8184069E-01
        2   -1    0    0  501    0  0.00000000000E+00  0.00000000000E+00  0.97534113550E+03  0.97534113550E+03  0.25500000920E-02 0. -1.
       -2   -1    0    0    0  501  0.00000000000E+00  0.00000000000E+00 -0.26543992379E+04  0.26543992379E+04  0.25500000920E-02 0.  1.
    10030    2    1    2    0    0  0.00000000000E+00  0.00000000000E+00 -0.16790581024E+04  0.36297403734E+04  0.32180396311E+04 0.  0.
        1    1    3    3  502    0  0.73946600324E+03  0.85276514421E+03 -0.21329351285E+04  0.24131785312E+04  0.50400001928E-02 0.  1.
       -1    1    3    3    0  502 -0.73946600324E+03 -0.85276514421E+03  0.45387702607E+03  0.12165618422E+04  0.50400001928E-02 0. -1.
</event>
<event>
 5   0  0.5177039E-07  0.3195419E+04  0.7818609E-02  0.8190028E-01
        1   -1    0    0  501    0  0.00000000000E+00  0.00000000000E+00  0.11866088276E+04  0.11866088276E+04  0.50400001928E-02 0. -1.
       -1   -1    0    0    0  501  0.00000000000E+00  0.00000000000E+00 -0.21512355048E+04  0.21512355048E+04  0.50400001928E-02 0.  1.
    10030    2    1    2    0    0  0.00000000000E+00  0.00000000000E+00 -0.96462667726E+03  0.33378443324E+04  0.31954186206E+04 0.  0.
        3    1    3    3  502    0  0.15088720473E+04  0.51015696141E+03 -0.61328136245E+03  0.17067715196E+04  0.10100000352E+00 0.  1.
       -3    1    3    3    0  502 -0.15088720473E+04 -0.51015696141E+03 -0.35134531482E+03  0.16310728128E+04  0.10100000352E+00 0. -1.
</event>
<event>
 5   0  0.1572769E-06  0.3232545E+04  0.7818609E-02  0.8180275E-01
       -2   -1    0    0    0  501  0.00000000000E+00  0.00000000000E+00  0.12756563017E+04  0.12756563017E+04  0.25500000920E-02 0.  1.
        2   -1    0    0  501    0  0.00000000000E+00  0.00000000000E+00 -0.20478373742E+04  0.20478373742E+04  0.25500000920E-02 0. -1.
    10030    2    1    2    0    0  0.00000000000E+00  0.00000000000E+00 -0.77218107247E+03  0.33234936758E+04  0.32325449115E+04 0.  0.
        5    1    3    3  502    0  0.57167554115E+03 -0.10900211090E+04 -0.14631110743E+04  0.19119819686E+04  0.46999998093E+01 0. -1.
       -5    1    3    3    0  502 -0.57167554115E+03  0.10900211090E+04  0.69093000184E+03  0.14115117073E+04  0.46999998093E+01 0.  1.
</event>
<event>
 5   0  0.1493485E-06  0.3196373E+04  0.7818609E-02  0.8189776E-01
        2   -1    0    0  501    0  0.00000000000E+00  0.00000000000E+00  0.26987013629E+04  0.26987013629E+04  0.25500000920E-02 0. -1.
       -2   -1    0    0    0  501  0.00000000000E+00  0.00000000000E+00 -0.94645497596E+03  0.94645497596E+03  0.25500000920E-02 0.  1.
    10030    2    1    2    0    0  0.00000000000E+00  0.00000000000E+00  0.17522463869E+04  0.36451563388E+04  0.31963725274E+04 0.  0.
        2    1    3    3  502    0 -0.10071361252E+04 -0.28072136190E+03  0.22545843454E+04  0.24852119081E+04  0.25500000920E-02 0. -1.
       -2    1    3    3    0  502  0.10071361252E+04  0.28072136190E+03 -0.50233795852E+03  0.11599444307E+04  0.25500000920E-02 0.  1.
</event>
<event>
 5   0  0.5281187E-07  0.3192230E+04  0.7818609E-02  0.8190872E-01
       -1   -1    0    0    0  501  0.00000000000E+00  0.00000000000E+00  0.19017544568E+04  0.19017544568E+04  0.50400001928E-02 0. -1.
        1   -1    0    0  501    0  0.00000000000E+00  0.00000000000E+00 -0.13395963193E+04  0.13395963193E+04  0.50400001928E-02 0.  1.
    10030    2    1    2    0    0  0.00000000000E+00  0.00000000000E+00  0.56215813747E+03  0.32413507761E+04  0.31922301111E+04 0.  0.
        5    1    3    3  502    0  0.14036524978E+04  0.30517174211E+03 -0.42546657517E+03  0.14981368507E+04  0.46999998093E+01 0.  1.
       -5    1    3    3    0  502 -0.14036524978E+04 -0.30517174211E+03  0.98762471264E+03  0.17432139254E+04  0.46999998093E+01 0. -1.
</event>
<event>
 5   0  0.1538349E-06  0.3193310E+04  0.7818609E-02  0.8190586E-01
        2   -1    0    0  501    0  0.00000000000E+00  0.00000000000E+00  0.27349167489E+04  0.27349167489E+04  0.25500000920E-02 0. -1.
       -2   -1    0    0    0  501  0.00000000000E+00  0.00000000000E+00 -0.93213326350E+03  0.93213326350E+03  0.25500000920E-02 0.  1.
    10030    2    1    2    0    0  0.00000000000E+00  0.00000000000E+00  0.18027834854E+04  0.36670500124E+04  0.31933098030E+04 0.  0.
        1    1    3    3  502    0  0.97183515651E+03  0.47328971411E+03  0.22508127970E+04  0.24969231009E+04  0.50400001928E-02 0. -1.
       -1    1    3    3    0  502 -0.97183515651E+03 -0.47328971411E+03 -0.44802931156E+03  0.11701269115E+04  0.50400001928E-02 0.  1.
</event>
<event>
 5   0  0.1508771E-06  0.3212558E+04  0.7818609E-02  0.8185509E-01
       -2   -1    0    0    0  501  0.00000000000E+00  0.00000000000E+00  0.12089540254E+04  0.12089540254E+04  0.25500000920E-02 0.  1.
        2   -1    0    0  501    0  0.00000000000E+00  0.00000000000E+00 -0.21341851939E+04  0.21341851939E+04  0.25500000920E-02 0. -1.
    10030    2    1    2    0    0  0.00000000000E+00  0.00000000000E+00 -0.92523116853E+03  0.33431392193E+04  0.32125577232E+04 0.  0.
        4    1    3    3  502    0  0.79570006613E+03 -0.64504059879E+03 -0.17502095958E+04  0.20279179499E+04  0.12699999809E+01 0.  1.
       -4    1    3    3    0  502 -0.79570006613E+03  0.64504059879E+03  0.82497842726E+03  0.13152212695E+04  0.12699999809E+01 0. -1.
</event>
<event>
 5   0  0.1538349E-06  0.3062493E+04  0.7818609E-02  0.8226107E-01
        2   -1    0    0  501    0  0.00000000000E+00  0.00000000000E+00  0.16829678279E+04  0.16829678279E+04  0.25500000920E-02 0.  1.
       -2   -1    0    0    0  501  0.00000000000E+00  0.00000000000E+00 -0.13932032360E+04  0.13932032360E+04  0.25500000920E-02 0. -1.
    10030    2    1    2    0    0  0.00000000000E+00  0.00000000000E+00  0.28976459187E+03  0.30761710639E+04  0.30624932482E+04 0.  0.
        1    1    3    3  502    0 -0.20984146584E+03  0.11121064019E+04  0.11809453397E+04  0.16356790593E+04  0.50400001928E-02 0.  1.
       -1    1    3    3    0  502  0.20984146584E+03 -0.11121064019E+04 -0.89118074780E+03  0.14404920045E+04  0.50400001928E-02 0. -1.
</event>
<event>
 5   0  0.1493485E-06  0.3226008E+04  0.7818609E-02  0.8181982E-01
        2   -1    0    0  501    0  0.00000000000E+00  0.00000000000E+00  0.12795196413E+04  0.12795196413E+04  0.25500000920E-02 0.  1.
       -2   -1    0    0    0  501  0.00000000000E+00  0.00000000000E+00 -0.20334056744E+04  0.20334056744E+04  0.25500000920E-02 0. -1.
    10030    2    1    2    0    0  0.00000000000E+00  0.00000000000E+00 -0.75388603306E+03  0.33129253157E+04  0.32260083690E+04 0.  0.
        2    1    3    3  502    0 -0.73666881416E+02  0.64138124473E+02 -0.20303658334E+04  0.20327139311E+04  0.25500000920E-02 0. -1.
       -2    1    3    3    0  502  0.73666881416E+02 -0.64138124473E+02  0.12764798003E+04  0.12802113845E+04  0.25500000920E-02 0.  1.
</event>
<event>
 5   0  0.5317728E-07  0.3209041E+04  0.7818609E-02  0.8186434E-01
       -1   -1    0    0    0  501  0.00000000000E+00  0.00000000000E+00  0.18917614403E+04  0.18917614404E+04  0.50400001928E-02 0. -1.
        1   -1    0    0  501    0  0.00000000000E+00  0.00000000000E+00 -0.13608935270E+04  0.13608935270E+04  0.50400001928E-02 0.  1.
    10030    2    1    2    0    0  0.00000000000E+00  0.00000000000E+00  0.53086791337E+03  0.32526549673E+04  0.32090409151E+04 0.  0.
        2    1    3    3  502    0  0.10117665876E+04 -0.65081889834E+03  0.13415836301E+04  0.18019665654E+04  0.25500000920E-02 0. -1.
       -2    1    3    3    0  502 -0.10117665876E+04  0.65081889834E+03 -0.81071571670E+03  0.14506884020E+04  0.25500000920E-02 0.  1.
</event>
<event>
 5   0  0.5317728E-07  0.3101401E+04  0.7818609E-02  0.8215354E-01
        1   -1    0    0  501    0  0.00000000000E+00  0.00000000000E+00  0.11758171412E+04  0.11758171412E+04  0.50400001928E-02 0. -1.
       -1   -1    0    0    0  501  0.00000000000E+00  0.00000000000E+00 -0.20451065804E+04  0.20451065804E+04  0.50400001928E-02 0.  1.
    10030    2    1    2    0    0  0.00000000000E+00  0.00000000000E+00 -0.86928943920E+03  0.32209237216E+04  0.31014005693E+04 0.  0.
        2    1    3    3  502    0 -0.30835292739E+03 -0.67765510763E+03  0.97806282967E+03  0.12291887046E+04  0.25500000920E-02 0. -1.
       -2    1    3    3    0  502  0.30835292739E+03  0.67765510763E+03 -0.18473522689E+04  0.19917350170E+04  0.25500000920E-02 0.  1.
</event>
<event>
 5   0  0.1538349E-06  0.3180219E+04  0.7818609E-02  0.8194061E-01
       -2   -1    0    0    0  501  0.00000000000E+00  0.00000000000E+00  0.14008300567E+04  0.14008300567E+04  0.25500000920E-02 0. -1.
        2   -1    0    0  501    0  0.00000000000E+00  0.00000000000E+00 -0.18049637606E+04  0.18049637606E+04  0.25500000920E-02 0.  1.
    10030    2    1    2    0    0  0.00000000000E+00  0.00000000000E+00 -0.40413370388E+03  0.32057938173E+04  0.31802185378E+04 0.  0.
        1    1    3    3  502    0 -0.73681298248E+03  0.14073313224E+04 -0.13098262960E+03  0.15939357802E+04  0.50400001928E-02 0. -1.
       -1    1    3    3    0  502  0.73681298248E+03 -0.14073313224E+04 -0.27315107428E+03  0.16118580371E+04  0.50400001928E-02 0.  1.
</event>
<event>
 5   0  0.5370912E-07  0.3224986E+04  0.7818609E-02  0.8182250E-01
       -1   -1    0    0    0  501  0.00000000000E+00  0.00000000000E+00  0.31017782673E+04  0.31017782674E+04  0.50400001928E-02 0.  1.
        1   -1    0    0  501    0  0.00000000000E+00  0.00000000000E+00 -0.83827172782E+03  0.83827172784E+03  0.50400001928E-02 0. -1.
    10030    2    1    2    0    0  0.00000000000E+00  0.00000000000E+00  0.22635065395E+04  0.39400499952E+04  0.32249855984E+04 0.  0.
        1    1    3    3  502    0 -0.10971772678E+04  0.10122997838E+04  0.38701686583E+03  0.15421837970E+04  0.50400001928E-02 0. -1.
       -1    1    3    3    0  502  0.10971772678E+04 -0.10122997838E+04  0.18764896737E+04  0.23978661982E+04  0.50400001928E-02 0.  1.
</event>
<event>
 5   0  0.5281187E-07  0.3036872E+04  0.7818609E-02  0.8233280E-01
        1   -1    0    0  501    0  0.00000000000E+00  0.00000000000E+00  0.15163254173E+04  0.15163254173E+04  0.50400001928E-02 0. -1.
       -1   -1    0    0    0  501  0.00000000000E+00  0.00000000000E+00 -0.15205491620E+04  0.15205491620E+04  0.50400001928E-02 0.  1.
    10030    2    1    2    0    0  0.00000000000E+00  0.00000000000E+00 -0.42237447760E+01  0.30368745793E+04  0.30368716421E+04 0.  0.
        5    1    3    3  502    0 -0.93288280063E+03 -0.64302001260E+03  0.10087700065E+04  0.15170313353E+04  0.46999998093E+01 0. -1.
       -5    1    3    3    0  502  0.93288280063E+03  0.64302001260E+03 -0.10129937513E+04  0.15198432440E+04  0.46999998093E+01 0.  1.
</event>
<event>
 5   0  0.1538349E-06  0.3159973E+04  0.7818609E-02  0.8199469E-01
       -2   -1    0    0    0  501  0.00000000000E+00  0.00000000000E+00  0.11082254816E+04  0.11082254816E+04  0.25500000920E-02 0. -1.
        2   -1    0    0  501    0  0.00000000000E+00  0.00000000000E+00 -0.22525722885E+04  0.22525722885E+04  0.25500000920E-02 0.  1.
    10030    2    1    2    0    0  0.00000000000E+00  0.00000000000E+00 -0.11443468068E+04  0.33607977701E+04  0.31599734235E+04 0.  0.
        1    1    3    3  502    0 -0.12397306956E+04  0.78909519312E+03  0.45012091605E+02  0.14702481117E+04  0.50400001928E-02 0. -1.
       -1    1    3    3    0  502  0.12397306956E+04 -0.78909519312E+03 -0.11893588984E+04  0.18905496584E+04  0.50400001928E-02 0.  1.
</event>
<event>
 5   0  0.5233813E-07  0.3209865E+04  0.7818609E-02  0.8186217E-01
        1   -1    0    0  501    0  0.00000000000E+00  0.00000000000E+00  0.30398651811E+04  0.30398651811E+04  0.50400001928E-02 0. -1.
       -1   -1    0    0    0  501  0.00000000000E+00  0.00000000000E+00 -0.84734277200E+03  0.84734277201E+03  0.50400001928E-02 0.  1.
    10030    2    1    2    0    0  0.00000000000E+00  0.00000000000E+00  0.21925224091E+04  0.38872079531E+04  0.32098646633E+04 0.  0.
        4    1    3    3  502    0  0.29735132978E+03 -0.11697782536E+04  0.23773153713E+04  0.26661637165E+04  0.12699999809E+01 0. -1.
       -4    1    3    3    0  502 -0.29735132978E+03  0.11697782536E+04 -0.18479296217E+03  0.12210442366E+04  0.12699999809E+01 0.  1.
</event>
<event>
 5   0  0.1493485E-06  0.3185757E+04  0.7818609E-02  0.8192589E-01
        2   -1    0    0  501    0  0.00000000000E+00  0.00000000000E+00  0.16632226040E+04  0.16632226040E+04  0.25500000920E-02 0.  1.
       -2   -1    0    0    0  501  0.00000000000E+00  0.00000000000E+00 -0.15255095437E+04  0.15255095437E+04  0.25500000920E-02 0. -1.
    10030    2    1    2    0    0  0.00000000000E+00  0.00000000000E+00  0.13771306027E+03  0.31887321477E+04  0.31857570251E+04 0.  0.
        2    1    3    3  502    0  0.36383268039E+03 -0.30709304254E+03 -0.14526227625E+04  0.15286573345E+04  0.25500000920E-02 0. -1.
       -2    1    3    3    0  502 -0.36383268039E+03  0.30709304254E+03  0.15903358228E+04  0.16600748132E+04  0.25500000920E-02 0.  1.
</event>
<event>
 5   0  0.5233813E-07  0.3209693E+04  0.7818609E-02  0.8186262E-01
        1   -1    0    0  501    0  0.00000000000E+00  0.00000000000E+00  0.25797511024E+04  0.25797511024E+04  0.50400001928E-02 0.  1.
       -1   -1    0    0    0  501  0.00000000000E+00  0.00000000000E+00 -0.99836474267E+03  0.99836474268E+03  0.50400001928E-02 0. -1.
    10030    2    1    2    0    0  0.00000000000E+00  0.00000000000E+00  0.15813863598E+04  0.35781158451E+04  0.32096931601E+04 0.  0.
        4    1    3    3  502    0  0.15327220184E+03 -0.67502713124E+03  0.24047750783E+04  0.25024185873E+04  0.12699999809E+01 0.  1.
       -4    1    3    3    0  502 -0.15327220184E+03  0.67502713124E+03 -0.82338871856E+03  0.10756972578E+04  0.12699999809E+01 0. -1.
</event>
<event>
 5   0  0.5370912E-07  0.3193975E+04  0.7818609E-02  0.8190410E-01
       -1   -1    0    0    0  501  0.00000000000E+00  0.00000000000E+00  0.12417068952E+04  0.12417068952E+04  0.50400001928E-02 0. -1.
        1   -1    0    0  501    0  0.00000000000E+00  0.00000000000E+00 -0.20539219362E+04  0.20539219362E+04  0.50400001928E-02 0.  1.
    10030    2    1    2    0    0  0.00000000000E+00  0.00000000000E+00 -0.81221504104E+03  0.32956288314E+04  0.31939749719E+04 0.  0.
        1    1    3    3  502    0  0.92193231639E+03  0.50590354820E+03 -0.16462205306E+04  0.19534430198E+04  0.50400001928E-02 0.  1.
       -1    1    3    3    0  502 -0.92193231639E+03 -0.50590354820E+03  0.83400548959E+03  0.13421858116E+04  0.50400001928E-02 0. -1.
</event>
<event>
 5   0  0.1572769E-06  0.3236522E+04  0.7818609E-02  0.8179238E-01
        2   -1    0    0  501    0  0.00000000000E+00  0.00000000000E+00  0.17647941095E+04  0.17647941095E+04  0.25500000920E-02 0. -1.
       -2   -1    0    0    0  501  0.00000000000E+00  0.00000000000E+00 -0.14838943518E+04  0.14838943518E+04  0.25500000920E-02 0.  1.
    10030    2    1    2    0    0  0.00000000000E+00  0.00000000000E+00  0.28089975765E+03  0.32486884613E+04  0.32365215965E+04 0.  0.
        5    1    3    3  502    0 -0.11464012293E+04 -0.38461749453E+03  0.12199366053E+04  0.17176826850E+04  0.46999998093E+01 0. -1.
       -5    1    3    3    0  502  0.11464012293E+04  0.38461749453E+03 -0.93903684764E+03  0.15310057762E+04  0.46999998093E+01 0.  1.
</event>
<event>
 5   0  0.5177039E-07  0.3196157E+04  0.7818609E-02  0.8189833E-01
       -1   -1    0    0    0  501  0.00000000000E+00  0.00000000000E+00  0.15441203840E+04  0.15441203840E+04  0.50400001928E-02 0.  1.
        1   -1    0    0  501    0  0.00000000000E+00  0.00000000000E+00 -0.16539218857E+04  0.16539218857E+04  0.50400001928E-02 0. -1.
    10030    2    1    2    0    0  0.00000000000E+00  0.00000000000E+00 -0.10980150176E+03  0.31980422697E+04  0.31961567529E+04 0.  0.
        3    1    3    3  502    0 -0.94007586685E+03 -0.79463909061E+03  0.96484745728E+03  0.15640091259E+04  0.10100000352E+00 0.  1.
       -3    1    3    3    0  502  0.94007586685E+03  0.79463909061E+03 -0.10746489590E+04  0.16340331438E+04  0.10100000352E+00 0. -1.
</event>
<event>
 5   0  0.5177039E-07  0.3171980E+04  0.7818609E-02  0.8196257E-01
        1   -1    0    0  501    0  0.00000000000E+00  0.00000000000E+00  0.99428923392E+03  0.99428923393E+03  0.50400001928E-02 0.  1.
       -1   -1    0    0    0  501  0.00000000000E+00  0.00000000000E+00 -0.25298115273E+04  0.25298115273E+04  0.50400001928E-02 0. -1.
    10030    2    1    2    0    0  0.00000000000E+00  0.00000000000E+00 -0.15355222934E+04  0.35241007613E+04  0.31719800539E+04 0.  0.
        3    1    3    3  502    0 -0.33730004335E+03 -0.10148161040E+04 -0.20689908804E+04  0.23290226099E+04  0.10100000352E+00 0. -1.
       -3    1    3    3    0  502  0.33730004335E+03  0.10148161040E+04  0.53346858699E+03  0.11950781513E+04  0.10100000352E+00 0.  1.
</event>
<event>
 5   0  0.1493485E-06  0.3255042E+04  0.7818609E-02  0.8174430E-01
        2   -1    0    0  501    0  0.00000000000E+00  0.00000000000E+00  0.15444252485E+04  0.15444252485E+04  0.25500000920E-02 0. -1.
       -2   -1    0    0    0  501  0.00000000000E+00  0.00000000000E+00 -0.17150879574E+04  0.17150879574E+04  0.25500000920E-02 0.  1.
    10030    2    1    2    0    0  0.00000000000E+00  0.00000000000E+00 -0.17066270889E+03  0.32595132059E+04  0.32550423314E+04 0.  0.
        2    1    3    3  502    0  0.22534177443E+03  0.10671412463E+04  0.11243244580E+04  0.15664210296E+04  0.25500000920E-02 0. -1.
       -2    1    3    3    0  502 -0.22534177443E+03 -0.10671412463E+04 -0.12949871669E+04  0.16930921763E+04  0.25500000920E-02 0.  1.
</event>
<event>
 5   0  0.1508771E-06  0.3174249E+04  0.7818609E-02  0.8195651E-01
       -2   -1    0    0    0  501  0.00000000000E+00  0.00000000000E+00  0.14212384211E+04  0.14212384211E+04  0.25500000920E-02 0. -1.
        2   -1    0    0  501    0  0.00000000000E+00  0.00000000000E+00 -0.17723721859E+04  0.17723721859E+04  0.25500000920E-02 0.  1.
    10030    2    1    2    0    0  0.00000000000E+00  0.00000000000E+00 -0.35113376480E+03  0.31936106070E+04  0.31742485392E+04 0.  0.
        4    1    3    3  502    0 -0.25281721660E+03  0.10912986140E+04  0.95561884779E+03  0.14724327506E+04  0.12699999809E+01 0. -1.
       -4    1    3    3    0  502  0.25281721660E+03 -0.10912986140E+04 -0.13067526126E+04  0.17211778564E+04  0.12699999809E+01 0.  1.
</event>
<event>
 5   0  0.5177039E-07  0.3219231E+04  0.7818609E-02  0.8183757E-01
       -1   -1    0    0    0  501  0.00000000000E+00  0.00000000000E+00  0.12451437341E+04  0.12451437341E+04  0.50400001928E-02 0.  1.
        1   -1    0    0  501    0  0.00000000000E+00  0.00000000000E+00 -0.20807733866E+04  0.20807733867E+04  0.50400001928E-02 0. -1.
    10030    2    1    2    0    0  0.00000000000E+00  0.00000000000E+00 -0.83562965257E+03  0.33259171207E+04  0.32192309296E+04 0.  0.
        3    1    3    3  502    0  0.36400123039E+03  0.50945288928E+03 -0.19497994491E+04  0.20478664614E+04  0.10100000352E+00 0. -1.
       -3    1    3    3    0  502 -0.36400123039E+03 -0.50945288928E+03  0.11141697965E+04  0.12780506593E+04  0.10100000352E+00 0.  1.
</event>
<event>
 5   0  0.1493485E-06  0.3214814E+04  0.7818609E-02  0.8184916E-01
       -2   -1    0    0    0  501  0.00000000000E+00  0.00000000000E+00  0.17644329071E+04  0.17644329071E+04  0.25500000920E-02 0. -1.
        2   -1    0    0  501    0  0.00000000000E+00  0.00000000000E+00 -0.14643552163E+04  0.14643552163E+04  0.25500000920E-02 0.  1.
    10030    2    1    2    0    0  0.00000000000E+00  0.00000000000E+00  0.30007769075E+03  0.32287881234E+04  0.32148135444E+04 0.  0.
        2    1    3    3  502    0 -0.74943432654E+03 -0.13117691215E+04 -0.40131605651E+03  0.15631521408E+04  0.25500000920E-02 0. -1.
       -2    1    3    3    0  502  0.74943432654E+03  0.13117691215E+04  0.70139374726E+03  0.16656359826E+04  0.25500000920E-02 0.  1.
</event>
<event>
 5   0  0.1508771E-06  0.3201929E+04  0.7818609E-02  0.8188308E-01
       -2   -1    0    0    0  501  0.00000000000E+00  0.00000000000E+00  0.28174651745E+04  0.28174651745E+04  0.25500000920E-02 0. -1.
        2   -1    0    0  501    0  0.00000000000E+00  0.00000000000E+00 -0.90971421406E+03  0.90971421406E+03  0.25500000920E-02 0.  1.
    10030    2    1    2    0    0  0.00000000000E+00  0.00000000000E+00  0.19077509605E+04  0.37271793886E+04  0.32019294914E+04 0.  0.
        4    1    3    3  502    0  0.69771335061E+03  0.11281452141E+04  0.19973471162E+04  0.23976890247E+04  0.12699999809E+01 0. -1.
       -4    1    3    3    0  502 -0.69771335061E+03 -0.11281452141E+04 -0.89596155776E+02  0.13294903639E+04  0.12699999809E+01 0.  1.
</event>
<event>
 5   0  0.1556396E-06  0.3118746E+04  0.7818609E-02  0.8210612E-01
        2   -1    0    0  501    0  0.00000000000E+00  0.00000000000E+00  0.11891008521E+04  0.11891008521E+04  0.25500000920E-02 0. -1.
       -2   -1    0    0    0  501  0.00000000000E+00  0.00000000000E+00 -0.20449438301E+04  0.20449438301E+04  0.25500000920E-02 0.  1.
    10030    2    1    2    0    0  0.00000000000E+00  0.00000000000E+00 -0.85584297799E+03  0.32340446821E+04  0.31187461909E+04 0.  0.
        3    1    3    3  502    0  0.10185718130E+04  0.98626525888E+03  0.24526002442E+03  0.14388746258E+04  0.10100000352E+00 0. -1.
       -3    1    3    3    0  502 -0.10185718130E+04 -0.98626525888E+03 -0.11011030024E+04  0.17951700563E+04  0.10100000352E+00 0.  1.
</event>
<event>
 5   0  0.5177039E-07  0.3211715E+04  0.7818609E-02  0.8185730E-01
        1   -1    0    0  501    0  0.00000000000E+00  0.00000000000E+00  0.24349761196E+04  0.24349761196E+04  0.50400001928E-02 0.  1.
       -1   -1    0    0    0  501  0.00000000000E+00  0.00000000000E+00 -0.10590569167E+04  0.10590569168E+04  0.50400001928E-02 0. -1.
    10030    2    1    2    0    0  0.00000000000E+00  0.00000000000E+00  0.13759192029E+04  0.34940330364E+04  0.32117149946E+04 0.  0.
        3    1    3    3  502    0  0.12925466184E+04  0.86632233602E+03  0.11198269751E+04  0.19170820575E+04  0.10100000352E+00 0.  1.
       -3    1    3    3    0  502 -0.12925466184E+04 -0.86632233602E+03  0.25609222776E+03  0.15769509789E+04  0.10100000352E+00 0. -1.
</event>
<event>
 5   0  0.1493485E-06  0.3114200E+04  0.7818609E-02  0.8211852E-01
        2   -1    0    0  501    0  0.00000000000E+00  0.00000000000E+00  0.27213755159E+04  0.27213755159E+04  0.25500000920E-02 0.  1.
       -2   -1    0    0    0  501  0.00000000000E+00  0.00000000000E+00 -0.89093217598E+03  0.89093217599E+03  0.25500000920E-02 0. -1.
    10030    2    1    2    0    0  0.00000000000E+00  0.00000000000E+00  0.18304433399E+04  0.36123076919E+04  0.31142003854E+04 0.  0.
        2    1    3    3  502    0  0.12142627062E+04 -0.95588364027E+03  0.11365666783E+04  0.19183146946E+04  0.25500000920E-02 0.  1.
       -2    1    3    3    0  502 -0.12142627062E+04  0.95588364027E+03  0.69387666167E+03  0.16939929973E+04  0.25500000920E-02 0. -1.
</event>
<event>
 5   0  0.4995625E-07  0.3204065E+04  0.7818609E-02  0.8187744E-01
       -3   -1    0    0    0  501  0.00000000000E+00  0.00000000000E+00  0.19553618028E+04  0.19553618054E+04  0.10100000352E+00 0. -1.
        3   -1    0    0  501    0  0.00000000000E+00  0.00000000000E+00 -0.13125488888E+04  0.13125488927E+04  0.10100000352E+00 0.  1.
    10030    2    1    2    0    0  0.00000000000E+00  0.00000000000E+00  0.64281291400E+03  0.32679106980E+04  0.32040649007E+04 0.  0.
        2    1    3    3  502    0  0.12111829287E+04  0.74510541795E+03 -0.43110427307E+03  0.14859330620E+04  0.25500000920E-02 0.  1.
       -2    1    3    3    0  502 -0.12111829287E+04 -0.74510541795E+03  0.10739171871E+04  0.17819776360E+04  0.25500000920E-02 0. -1.
</event>
<event>
 5   0  0.5233813E-07  0.3206657E+04  0.7818609E-02  0.8187061E-01
        1   -1    0    0  501    0  0.00000000000E+00  0.00000000000E+00  0.16820024846E+04  0.16820024846E+04  0.50400001928E-02 0.  1.
       -1   -1    0    0    0  501  0.00000000000E+00  0.00000000000E+00 -0.15283342536E+04  0.15283342537E+04  0.50400001928E-02 0. -1.
    10030    2    1    2    0    0  0.00000000000E+00  0.00000000000E+00  0.15366823094E+03  0.32103367383E+04  0.32066568335E+04 0.  0.
        4    1    3    3  502    0 -0.46297125073E+03  0.98572469196E+03  0.12549023269E+04  0.16615586088E+04  0.12699999809E+01 0.  1.
       -4    1    3    3    0  502  0.46297125073E+03 -0.98572469196E+03 -0.11012340960E+04  0.15487781295E+04  0.12699999809E+01 0. -1.
</event>
<event>
 5   0  0.1493485E-06  0.3151928E+04  0.7818609E-02  0.8201629E-01
        2   -1    0    0  501    0  0.00000000000E+00  0.00000000000E+00  0.23462195024E+04  0.23462195024E+04  0.25500000920E-02 0. -1.
       -2   -1    0    0    0  501  0.00000000000E+00  0.00000000000E+00 -0.10585809480E+04  0.10585809480E+04  0.25500000920E-02 0.  1.
    10030    2    1    2    0    0  0.00000000000E+00  0.00000000000E+00  0.12876385544E+04  0.34048004504E+04  0.31519284668E+04 0.  0.
        2    1    3    3  502    0  0.10188134396E+04  0.11986923596E+04  0.54237521364E+03  0.16640357779E+04  0.25500000920E-02 0.  1.
       -2    1    3    3    0  502 -0.10188134396E+04 -0.11986923596E+04  0.74526334073E+03  0.17407646724E+04  0.25500000920E-02 0. -1.
</event>
<event>
 5   0  0.5281187E-07  0.3196523E+04  0.7818609E-02  0.8189736E-01
        1   -1    0    0  501    0  0.00000000000E+00  0.00000000000E+00  0.12725735090E+04  0.12725735090E+04  0.50400001928E-02 0.  1.
       -1   -1    0    0    0  501  0.00000000000E+00  0.00000000000E+00 -0.20073029296E+04  0.20073029296E+04  0.50400001928E-02 0. -1.
    10030    2    1    2    0    0  0.00000000000E+00  0.00000000000E+00 -0.73472942056E+03  0.32798764386E+04  0.31965234444E+04 0.  0.
        5    1    3    3  502    0 -0.97760680723E+03  0.99914291487E+03 -0.11624358878E+04  0.18180431560E+04  0.46999998093E+01 0. -1.
       -5    1    3    3    0  502  0.97760680723E+03 -0.99914291487E+03  0.42770646724E+03  0.14618332826E+04  0.46999998093E+01 0.  1.
</event>
<event>
 5   0  0.5281187E-07  0.3183926E+04  0.7818609E-02  0.8193075E-01
       -1   -1    0    0    0  501  0.00000000000E+00  0.00000000000E+00  0.12179327408E+04  0.12179327408E+04  0.50400001928E-02 0.  1.
        1   -1    0    0  501    0  0.00000000000E+00  0.00000000000E+00 -0.20808592499E+04  0.20808592499E+04  0.50400001928E-02 0. -1.
    10030    2    1    2    0    0  0.00000000000E+00  0.00000000000E+00 -0.86292650908E+03  0.32987919907E+04  0.31839262614E+04 0.  0.
        5    1    3    3  502    0 -0.34120206287E+03  0.22308853312E+03 -0.20258561789E+04  0.20664710714E+04  0.46999998093E+01 0. -1.
       -5    1    3    3    0  502  0.34120206287E+03 -0.22308853312E+03  0.11629296698E+04  0.12323209193E+04  0.46999998093E+01 0.  1.
</event>
<event>
 5   0  0.5177039E-07  0.3197913E+04  0.7818609E-02  0.8189369E-01
        1   -1    0    0  501    0  0.00000000000E+00  0.00000000000E+00  0.20238277894E+04  0.20238277894E+04  0.50400001928E-02 0. -1.
       -1   -1    0    0    0  501  0.00000000000E+00  0.00000000000E+00 -0.12632804780E+04  0.12632804780E+04  0.50400001928E-02 0.  1.
    10030    2    1    2    0    0  0.00000000000E+00  0.00000000000E+00  0.76054731142E+03  0.32871082674E+04  0.31979131553E+04 0.  0.
        3    1    3    3  502    0  0.76498610861E+03 -0.13545205783E+04  0.18663842062E+00  0.15556123516E+04  0.10100000352E+00 0.  1.
       -3    1    3    3    0  502 -0.76498610861E+03  0.13545205783E+04  0.76036067300E+03  0.17314959159E+04  0.10100000352E+00 0. -1.
</event>
<event>
 5   0  0.5317728E-07  0.3088283E+04  0.7818609E-02  0.8218961E-01
       -1   -1    0    0    0  501  0.00000000000E+00  0.00000000000E+00  0.13769786014E+04  0.13769786014E+04  0.50400001928E-02 0. -1.
        1   -1    0    0  501    0  0.00000000000E+00  0.00000000000E+00 -0.17315977278E+04  0.17315977278E+04  0.50400001928E-02 0.  1.
    10030    2    1    2    0    0  0.00000000000E+00  0.00000000000E+00 -0.35461912639E+03  0.31085763292E+04  0.30882830294E+04 0.  0.
        2    1    3    3  502    0  0.64884202276E+03 -0.10857076046E+03 -0.15834822892E+04  0.17147010646E+04  0.25500000920E-02 0.  1.
       -2    1    3    3    0  502 -0.64884202276E+03  0.10857076046E+03  0.12288631628E+04  0.13938752647E+04  0.25500000920E-02 0. -1.
</event>
<event>
 5   0  0.1572769E-06  0.3209430E+04  0.7818609E-02  0.8186331E-01
       -2   -1    0    0    0  501  0.00000000000E+00  0.00000000000E+00  0.98258397794E+03  0.98258397795E+03  0.25500000920E-02 0.  1.
        2   -1    0    0  501    0  0.00000000000E+00  0.00000000000E+00 -0.26207535949E+04  0.26207535949E+04  0.25500000920E-02 0. -1.
    10030    2    1    2    0    0  0.00000000000E+00  0.00000000000E+00 -0.16381696169E+04  0.36033375728E+04  0.32094301628E+04 0.  0.
        5    1    3    3  502    0 -0.12119680296E+04 -0.97640796420E+03 -0.12580285571E+04  0.20012238650E+04  0.46999998093E+01 0. -1.
       -5    1    3    3    0  502  0.12119680296E+04  0.97640796420E+03 -0.38014105981E+03  0.16021137078E+04  0.46999998093E+01 0.  1.
</event>
<event>
 5   0  0.5233813E-07  0.3229712E+04  0.7818609E-02  0.8181014E-01
        1   -1    0    0  501    0  0.00000000000E+00  0.00000000000E+00  0.26421023346E+04  0.26421023346E+04  0.50400001928E-02 0.  1.
       -1   -1    0    0    0  501  0.00000000000E+00  0.00000000000E+00 -0.98700175041E+03  0.98700175042E+03  0.50400001928E-02 0. -1.
    10030    2    1    2    0    0  0.00000000000E+00  0.00000000000E+00  0.16551005842E+04  0.36291040850E+04  0.32297118318E+04 0.  0.
        4    1    3    3  502    0 -0.29197777812E+03 -0.14491915815E+04  0.15578015039E+04  0.21475926991E+04  0.12699999809E+01 0.  1.
       -4    1    3    3    0  502  0.29197777812E+03  0.14491915815E+04  0.97299080307E+02  0.14815113859E+04  0.12699999809E+01 0. -1.
</event>
<event>
 5   0  0.5281187E-07  0.3190684E+04  0.7818609E-02  0.8191282E-01
       -1   -1    0    0    0  501  0.00000000000E+00  0.00000000000E+00  0.78883141488E+03  0.78883141490E+03  0.50400001928E-02 0.  1.
        1   -1    0    0  501    0  0.00000000000E+00  0.00000000000E+00 -0.32264392515E+04  0.32264392515E+04  0.50400001928E-02 0. -1.
    10030    2    1    2    0    0  0.00000000000E+00  0.00000000000E+00 -0.24376078366E+04  0.40152706664E+04  0.31906843403E+04 0.  0.
        5    1    3    3  502    0 -0.54027208402E+03  0.72558010453E+03  0.43484656715E+03  0.10037300632E+04  0.46999998093E+01 0.  1.
       -5    1    3    3    0  502  0.54027208402E+03 -0.72558010453E+03 -0.28724544038E+04  0.30115406032E+04  0.46999998093E+01 0. -1.
</event>
<event>
 5   0  0.1493485E-06  0.3189695E+04  0.7818609E-02  0.8191544E-01
       -2   -1    0    0    0  501  0.00000000000E+00  0.00000000000E+00  0.13455512547E+04  0.13455512547E+04  0.25500000920E-02 0. -1.
        2   -1    0    0  501    0  0.00000000000E+00  0.00000000000E+00 -0.18903320945E+04  0.18903320945E+04  0.25500000920E-02 0.  1.
    10030    2    1    2    0    0  0.00000000000E+00  0.00000000000E+00 -0.54478083981E+03  0.32358833492E+04  0.31896951086E+04 0.  0.
        2    1    3    3  502    0  0.13211911526E+04  0.87022491305E+03 -0.67723518293E+02  0.15834847444E+04  0.25500000920E-02 0. -1.
       -2    1    3    3    0  502 -0.13211911526E+04 -0.87022491305E+03 -0.47705732151E+03  0.16523986047E+04  0.25500000920E-02 0.  1.
</event>
<event>
 5   0  0.5317728E-07  0.3223879E+04  0.7818609E-02  0.8182539E-01
       -1   -1    0    0    0  501  0.00000000000E+00  0.00000000000E+00  0.25864271432E+04  0.25864271432E+04  0.50400001928E-02 0.  1.
        1   -1    0    0  501    0  0.00000000000E+00  0.00000000000E+00 -0.10046093420E+04  0.10046093420E+04  0.50400001928E-02 0. -1.
    10030    2    1    2    0    0  0.00000000000E+00  0.00000000000E+00  0.15818178013E+04  0.35910364852E+04  0.32238789496E+04 0.  0.
        2    1    3    3  502    0 -0.14941571445E+02 -0.42026837241E+03 -0.94242941836E+03  0.10319990136E+04  0.25500000920E-02 0. -1.
       -2    1    3    3    0  502  0.14941571445E+02  0.42026837241E+03  0.25242472196E+04  0.25590374716E+04  0.25500000920E-02 0.  1.
</event>
<event>
 5   0  0.1572769E-06  0.3194048E+04  0.7818609E-02  0.8190391E-01
        2   -1    0    0  501    0  0.00000000000E+00  0.00000000000E+00  0.17338573859E+04  0.17338573859E+04  0.25500000920E-02 0.  1.
       -2   -1    0    0    0  501  0.00000000000E+00  0.00000000000E+00 -0.14709888981E+04  0.14709888981E+04  0.25500000920E-02 0. -1.
    10030    2    1    2    0    0  0.00000000000E+00  0.00000000000E+00  0.26286848782E+03  0.32048462840E+04  0.31940475673E+04 0.  0.
        5    1    3    3  502    0  0.98397891385E+03  0.12100908058E+04 -0.21313413716E+03  0.15741608912E+04  0.46999998093E+01 0. -1.
       -5    1    3    3    0  502 -0.98397891385E+03 -0.12100908058E+04  0.47600262498E+03  0.16306853927E+04  0.46999998093E+01 0.  1.
</event>
<event>
 5   0  0.5370912E-07  0.3150690E+04  0.7818609E-02  0.8201963E-01
       -1   -1    0    0    0  501  0.00000000000E+00  0.00000000000E+00  0.13406041123E+04  0.13406041123E+04  0.50400001928E-02 0. -1.
        1   -1    0    0  501    0  0.00000000000E+00  0.00000000000E+00 -0.18511891244E+04  0.18511891244E+04  0.50400001928E-02 0.  1.
    10030    2    1    2    0    0  0.00000000000E+00  0.00000000000E+00 -0.51058501213E+03  0.31917932367E+04  0.31506899262E+04 0.  0.
        1    1    3    3  502    0  0.11502524259E+04  0.69014856806E+03 -0.10920990468E+04  0.17297589478E+04  0.50400001928E-02 0.  1.
       -1    1    3    3    0  502 -0.11502524259E+04 -0.69014856806E+03  0.58151403469E+03  0.14620342889E+04  0.50400001928E-02 0. -1.
</event>
<event>
 5   0  0.1556396E-06  0.3202037E+04  0.7818609E-02  0.8188280E-01
       -2   -1    0    0    0  501  0.00000000000E+00  0.00000000000E+00  0.14834222004E+04  0.14834222004E+04  0.25500000920E-02 0.  1.
        2   -1    0    0  501    0  0.00000000000E+00  0.00000000000E+00 -0.17279365934E+04  0.17279365934E+04  0.25500000920E-02 0. -1.
    10030    2    1    2    0    0  0.00000000000E+00  0.00000000000E+00 -0.24451439306E+03  0.32113587938E+04  0.32020365416E+04 0.  0.
        3    1    3    3  502    0 -0.26599588886E+03  0.15012013759E+03  0.14539320234E+04  0.14856675965E+04  0.10100000352E+00 0.  1.
       -3    1    3    3    0  502  0.26599588886E+03 -0.15012013759E+03 -0.16984464164E+04  0.17256911972E+04  0.10100000352E+00 0. -1.
</event>
<event>
 5   0  0.1572769E-06  0.3198522E+04  0.7818609E-02  0.8189208E-01
       -2   -1    0    0    0  501  0.00000000000E+00  0.00000000000E+00  0.24927262204E+04  0.24927262204E+04  0.25500000920E-02 0. -1.
        2   -1    0    0  501    0  0.00000000000E+00  0.00000000000E+00 -0.10260393247E+04  0.10260393247E+04  0.25500000920E-02 0.  1.
    10030    2    1    2    0    0  0.00000000000E+00  0.00000000000E+00  0.14666868957E+04  0.35187655451E+04  0.31985216134E+04 0.  0.
        5    1    3    3  502    0  0.19191160945E+03 -0.14999894720E+04  0.16084140222E+03  0.15207532767E+04  0.46999998093E+01 0.  1.
       -5    1    3    3    0  502 -0.19191160945E+03  0.14999894720E+04  0.13058454935E+04  0.19980122684E+04  0.46999998093E+01 0. -1.
</event>
<event>
 5   0  0.5370912E-07  0.3183839E+04  0.7818609E-02  0.8193098E-01
       -1   -1    0    0    0  501  0.00000000000E+00  0.00000000000E+00  0.11510232408E+04  0.11510232408E+04  0.50400001928E-02 0.  1.
        1   -1    0    0  501    0  0.00000000000E+00  0.00000000000E+00 -0.22016993846E+04  0.22016993846E+04  0.50400001928E-02 0. -1.
    10030    2    1    2    0    0  0.00000000000E+00  0.00000000000E+00 -0.10506761438E+04  0.33527226254E+04  0.31838386649E+04 0.  0.
        1    1    3    3  502    0  0.21256265281E+03  0.15759434152E+04 -0.60291127952E+03  0.17006712028E+04  0.50400001928E-02 0.  1.
       -1    1    3    3    0  502 -0.21256265281E+03 -0.15759434152E+04 -0.44776486424E+03  0.16520514226E+04  0.50400001928E-02 0. -1.
</event>
<event>
 5   0  0.1493485E-06  0.3194318E+04  0.7818609E-02  0.8190319E-01
        2   -1    0    0  501    0  0.00000000000E+00  0.00000000000E+00  0.28477286086E+04  0.28477286086E+04  0.25500000920E-02 0. -1.
       -2   -1    0    0    0  501  0.00000000000E+00  0.00000000000E+00 -0.89577224769E+03  0.89577224770E+03  0.25500000920E-02 0.  1.
    10030    2    1    2    0    0  0.00000000000E+00  0.00000000000E+00  0.19519563609E+04  0.37435008563E+04  0.31943176151E+04 0.  0.
        2    1    3    3  502    0 -0.14708486436E+04  0.22195506125E+03  0.29438866737E+03  0.15163523565E+04  0.25500000920E-02 0.  1.
       -2    1    3    3    0  502  0.14708486436E+04 -0.22195506125E+03  0.16575676935E+04  0.22271484998E+04  0.25500000920E-02 0. -1.
</event>
<event>
 5   0  0.1572769E-06  0.3214970E+04  0.7818609E-02  0.8184875E-01
       -2   -1    0    0    0  501  0.00000000000E+00  0.00000000000E+00  0.86040848994E+03  0.86040848995E+03  0.25500000920E-02 0. -1.
        2   -1    0    0  501    0  0.00000000000E+00  0.00000000000E+00 -0.30032348724E+04  0.30032348724E+04  0.25500000920E-02 0.  1.
    10030    2    1    2    0    0  0.00000000000E+00  0.00000000000E+00 -0.21428263825E+04  0.38636433624E+04  0.32149704705E+04 0.  0.
        5    1    3    3  502    0 -0.35992122731E+03  0.85096429973E+03  0.50940215770E+03  0.10550811237E+04  0.46999998093E+01 0. -1.
       -5    1    3    3    0  502  0.35992122731E+03 -0.85096429973E+03 -0.26522285402E+04  0.28085622387E+04  0.46999998093E+01 0.  1.
</event>
<event>
 5   0  0.5317728E-07  0.3363104E+04  0.7818609E-02  0.8147022E-01
        1   -1    0    0  501    0  0.00000000000E+00  0.00000000000E+00  0.16902472448E+04  0.16902472448E+04  0.50400001928E-02 0. -1.
       -1   -1    0    0    0  501  0.00000000000E+00  0.00000000000E+00 -0.16729018460E+04  0.16729018460E+04  0.50400001928E-02 0.  1.
    10030    2    1    2    0    0  0.00000000000E+00  0.00000000000E+00  0.17345398744E+02  0.33631490908E+04  0.33631043612E+04 0.  0.
        2    1    3    3  502    0  0.39054031869E+03  0.10551468724E+04  0.12583937148E+04  0.16880199657E+04  0.25500000920E-02 0. -1.
       -2    1    3    3    0  502 -0.39054031869E+03 -0.10551468724E+04 -0.12410483161E+04  0.16751291251E+04  0.25500000920E-02 0.  1.
</event>
<event>
 5   0  0.1572769E-06  0.3333577E+04  0.7818609E-02  0.8154404E-01
       -2   -1    0    0    0  501  0.00000000000E+00  0.00000000000E+00  0.14839663166E+04  0.14839663166E+04  0.25500000920E-02 0.  1.
        2   -1    0    0  501    0  0.00000000000E+00  0.00000000000E+00 -0.18721345668E+04  0.18721345668E+04  0.25500000920E-02 0. -1.
    10030    2    1    2    0    0  0.00000000000E+00  0.00000000000E+00 -0.38816825020E+03  0.33561008834E+04  0.33335774401E+04 0.  0.
        5    1    3    3  502    0  0.97488893100E+03 -0.65798687401E+03 -0.13830833707E+04  0.18155706691E+04  0.46999998093E+01 0. -1.
       -5    1    3    3    0  502 -0.97488893100E+03  0.65798687401E+03  0.99491512053E+03  0.15405302143E+04  0.46999998093E+01 0.  1.
</event>
<event>
 5   0  0.5233813E-07  0.3105226E+04  0.7818609E-02  0.8214305E-01
       -1   -1    0    0    0  501  0.00000000000E+00  0.00000000000E+00  0.17041686904E+04  0.17041686904E+04  0.50400001928E-02 0.  1.
        1   -1    0    0  501    0  0.00000000000E+00  0.00000000000E+00 -0.14145351679E+04  0.14145351679E+04  0.50400001928E-02 0. -1.
    10030    2    1    2    0    0  0.00000000000E+00  0.00000000000E+00  0.28963352247E+03  0.31187038584E+04  0.31052256245E+04 0.  0.
        4    1    3    3  502    0  0.11396678314E+04 -0.10307704768E+04  0.36775861329E+03  0.15800565029E+04  0.12699999809E+01 0. -1.
       -4    1    3    3    0  502 -0.11396678314E+04  0.10307704768E+04 -0.78125090822E+02  0.15386473555E+04  0.12699999809E+01 0.  1.
</event>
<event>
 5   0  0.5281187E-07  0.3112146E+04  0.7818609E-02  0.8212413E-01
       -1   -1    0    0    0  501  0.00000000000E+00  0.00000000000E+00  0.97521838619E+03  0.97521838621E+03  0.50400001928E-02 0. -1.
        1   -1    0    0  501    0  0.00000000000E+00  0.00000000000E+00 -0.24828929404E+04  0.24828929404E+04  0.50400001928E-02 0.  1.
    10030    2    1    2    0    0  0.00000000000E+00  0.00000000000E+00 -0.15076745542E+04  0.34581113266E+04  0.31121457848E+04 0.  0.
        5    1    3    3  502    0  0.59403538483E+03  0.98089136563E+03 -0.19225786225E+04  0.22386059410E+04  0.46999998093E+01 0.  1.
       -5    1    3    3    0  502 -0.59403538483E+03 -0.98089136563E+03  0.41490406827E+03  0.12195053856E+04  0.46999998093E+01 0. -1.
</event>
<event>
 5   0  0.5281187E-07  0.3225004E+04  0.7818609E-02  0.8182245E-01
        1   -1    0    0  501    0  0.00000000000E+00  0.00000000000E+00  0.18593065837E+04  0.18593065837E+04  0.50400001928E-02 0. -1.
       -1   -1    0    0    0  501  0.00000000000E+00  0.00000000000E+00 -0.13984583271E+04  0.13984583271E+04  0.50400001928E-02 0.  1.
    10030    2    1    2    0    0  0.00000000000E+00  0.00000000000E+00  0.46084825664E+03  0.32577649108E+04  0.32250040463E+04 0.  0.
        5    1    3    3  502    0  0.15165755891E+04  0.40882542806E+03 -0.13797350122E+03  0.15767683803E+04  0.46999998093E+01 0. -1.
       -5    1    3    3    0  502 -0.15165755891E+04 -0.40882542806E+03  0.59882175785E+03  0.16809965305E+04  0.46999998093E+01 0.  1.
</event>
<event>
 5   0  0.4995625E-07  0.3207103E+04  0.7818609E-02  0.8186944E-01
       -3   -1    0    0    0  501  0.00000000000E+00  0.00000000000E+00  0.21455414042E+04  0.21455414066E+04  0.10100000352E+00 0. -1.
        3   -1    0    0  501    0  0.00000000000E+00  0.00000000000E+00 -0.11984746442E+04  0.11984746485E+04  0.10100000352E+00 0.  1.
    10030    2    1    2    0    0  0.00000000000E+00  0.00000000000E+00  0.94706676000E+03  0.33440160551E+04  0.32071027312E+04 0.  0.
        4    1    3    3  502    0  0.11458352493E+04  0.64205943926E+03  0.14326935306E+04  0.19436540607E+04  0.12699999809E+01 0. -1.
       -4    1    3    3    0  502 -0.11458352493E+04 -0.64205943926E+03 -0.48562677058E+03  0.14003619944E+04  0.12699999809E+01 0.  1.
</event>
<event>
 5   0  0.1556396E-06  0.3194544E+04  0.7818609E-02  0.8190260E-01
        2   -1    0    0  501    0  0.00000000000E+00  0.00000000000E+00  0.19661058556E+04  0.19661058556E+04  0.25500000920E-02 0.  1.
       -2   -1    0    0    0  501  0.00000000000E+00  0.00000000000E+00 -0.12976299422E+04  0.12976299422E+04  0.25500000920E-02 0. -1.
    10030    2    1    2    0    0  0.00000000000E+00  0.00000000000E+00  0.66847591336E+03  0.32637357978E+04  0.31945439911E+04 0.  0.
        3    1    3    3  502    0  0.12642135566E+04 -0.26355755947E+03 -0.62611060837E+03  0.14351700275E+04  0.10100000352E+00 0. -1.
       -3    1    3    3    0  502 -0.12642135566E+04  0.26355755947E+03  0.12945865217E+04  0.18285657703E+04  0.10100000352E+00 0.  1.
</event>
<event>
 5   0  0.5281187E-07  0.3212109E+04  0.7818609E-02  0.8185627E-01
        1   -1    0    0  501    0  0.00000000000E+00  0.00000000000E+00  0.22344717310E+04  0.22344717310E+04  0.50400001928E-02 0.  1.
       -1   -1    0    0    0  501  0.00000000000E+00  0.00000000000E+00 -0.11543717491E+04  0.11543717491E+04  0.50400001928E-02 0. -1.
    10030    2    1    2    0    0  0.00000000000E+00  0.00000000000E+00  0.10800999819E+04  0.33888434801E+04  0.32121089897E+04 0.  0.
        5    1    3    3  502    0  0.10457463072E+04 -0.11386373065E+04  0.81014231244E+02  0.15481168078E+04  0.46999998093E+01 0. -1.
       -5    1    3    3    0  502 -0.10457463072E+04  0.11386373065E+04  0.99908575068E+03  0.18407266723E+04  0.46999998093E+01 0.  1.
</event>
<event>
 5   0  0.5281187E-07  0.3152257E+04  0.7818609E-02  0.8201541E-01
       -1   -1    0    0    0  501  0.00000000000E+00  0.00000000000E+00  0.11851406019E+04  0.11851406019E+04  0.50400001928E-02 0. -1.
        1   -1    0    0  501    0  0.00000000000E+00  0.00000000000E+00 -0.20961066626E+04  0.20961066626E+04  0.50400001928E-02 0.  1.
    10030    2    1    2    0    0  0.00000000000E+00  0.00000000000E+00 -0.91096606069E+03  0.32812472645E+04  0.31522570401E+04 0.  0.
        5    1    3    3  502    0 -0.77022616599E+03 -0.81896602130E+03  0.69434739015E+03  0.13213985315E+04  0.46999998093E+01 0. -1.
       -5    1    3    3    0  502  0.77022616599E+03  0.81896602130E+03 -0.16053134508E+04  0.19598487330E+04  0.46999998093E+01 0.  1.
</event>
<event>
 5   0  0.1556396E-06  0.3211200E+04  0.7818609E-02  0.8185866E-01
       -2   -1    0    0    0  501  0.00000000000E+00  0.00000000000E+00  0.17357562750E+04  0.17357562750E+04  0.25500000920E-02 0.  1.
        2   -1    0    0  501    0  0.00000000000E+00  0.00000000000E+00 -0.14852033168E+04  0.14852033169E+04  0.25500000920E-02 0. -1.
    10030    2    1    2    0    0  0.00000000000E+00  0.00000000000E+00  0.25055295811E+03  0.32209595918E+04  0.32111997613E+04 0.  0.
        3    1    3    3  502    0 -0.59194125576E+03  0.96349969345E+02  0.16191900405E+04  0.17266887862E+04  0.10100000352E+00 0.  1.
       -3    1    3    3    0  502  0.59194125576E+03 -0.96349969345E+02 -0.13686370824E+04  0.14942708056E+04  0.10100000352E+00 0. -1.
</event>
<event>
 5   0  0.1538349E-06  0.3197993E+04  0.7818609E-02  0.8189347E-01
       -2   -1    0    0    0  501  0.00000000000E+00  0.00000000000E+00  0.17260694785E+04  0.17260694785E+04  0.25500000920E-02 0.  1.
        2   -1    0    0  501    0  0.00000000000E+00  0.00000000000E+00 -0.14812789207E+04  0.14812789207E+04  0.25500000920E-02 0. -1.
    10030    2    1    2    0    0  0.00000000000E+00  0.00000000000E+00  0.24479055774E+03  0.32073483992E+04  0.31979933297E+04 0.  0.
        1    1    3    3  502    0 -0.66110992352E+02 -0.26640586776E+03 -0.14574739387E+04  0.14830957595E+04  0.50400001928E-02 0. -1.
       -1    1    3    3    0  502  0.66110992352E+02  0.26640586776E+03  0.17022644965E+04  0.17242526397E+04  0.50400001928E-02 0.  1.
</event>
<event>
 5   0  0.1508771E-06  0.3190148E+04  0.7818609E-02  0.8191424E-01
        2   -1    0    0  501    0  0.00000000000E+00  0.00000000000E+00  0.14922628981E+04  0.14922628981E+04  0.25500000920E-02 0. -1.
       -2   -1    0    0    0  501  0.00000000000E+00  0.00000000000E+00 -0.17049680896E+04  0.17049680896E+04  0.25500000920E-02 0.  1.
    10030    2    1    2    0    0  0.00000000000E+00  0.00000000000E+00 -0.21270519153E+03  0.31972309877E+04  0.31901477223E+04 0.  0.
        4    1    3    3  502    0  0.10169013038E+04  0.38450243219E+03 -0.12761325129E+04  0.16764385421E+04  0.12699999809E+01 0.  1.
       -4    1    3    3    0  502 -0.10169013038E+04 -0.38450243219E+03  0.10634273213E+04  0.15207924456E+04  0.12699999809E+01 0. -1.
</event>
<event>
 5   0  0.5317728E-07  0.3199316E+04  0.7818609E-02  0.8188998E-01
        1   -1    0    0  501    0  0.00000000000E+00  0.00000000000E+00  0.15694424006E+04  0.15694424006E+04  0.50400001928E-02 0. -1.
       -1   -1    0    0    0  501  0.00000000000E+00  0.00000000000E+00 -0.16304553868E+04  0.16304553868E+04  0.50400001928E-02 0.  1.
    10030    2    1    2    0    0  0.00000000000E+00  0.00000000000E+00 -0.61012986177E+02  0.31998977874E+04  0.31993160621E+04 0.  0.
        2    1    3    3  502    0  0.21943432248E+03 -0.32012305874E+03 -0.15826506505E+04  0.16295438859E+04  0.25500000920E-02 0.  1.
       -2    1    3    3    0  502 -0.21943432248E+03  0.32012305874E+03  0.15216376643E+04  0.15703539015E+04  0.25500000920E-02 0. -1.
</event>
<event>
 5   0  0.1572769E-06  0.3180356E+04  0.7818609E-02  0.8194024E-01
        2   -1    0    0  501    0  0.00000000000E+00  0.00000000000E+00  0.15954222201E+04  0.15954222201E+04  0.25500000920E-02 0.  1.
       -2   -1    0    0    0  501  0.00000000000E+00  0.00000000000E+00 -0.15849508684E+04  0.15849508684E+04  0.25500000920E-02 0. -1.
    10030    2    1    2    0    0  0.00000000000E+00  0.00000000000E+00  0.10471351742E+02  0.31803730885E+04  0.31803558500E+04 0.  0.
        5    1    3    3  502    0 -0.13981072989E+03  0.14930718665E+04 -0.52375972875E+03  0.15884448313E+04  0.46999998093E+01 0. -1.
       -5    1    3    3    0  502  0.13981072989E+03 -0.14930718665E+04  0.53423108050E+03  0.15919282572E+04  0.46999998093E+01 0.  1.
</event>
<event>
 5   0  0.5233813E-07  0.3276552E+04  0.7818609E-02  0.8168888E-01
       -1   -1    0    0    0  501  0.00000000000E+00  0.00000000000E+00  0.10927087283E+04  0.10927087283E+04  0.50400001928E-02 0.  1.
        1   -1    0    0  501    0  0.00000000000E+00  0.00000000000E+00 -0.24562332265E+04  0.24562332265E+04  0.50400001928E-02 0. -1.
    10030    2    1    2    0    0  0.00000000000E+00  0.00000000000E+00 -0.13635244983E+04  0.35489419548E+04  0.32765515319E+04 0.  0.
        4    1    3    3  502    0 -0.73705032877E+03 -0.36583993117E+03 -0.22161702218E+04  0.23639995996E+04  0.12699999809E+01 0. -1.
       -4    1    3    3    0  502  0.73705032877E+03  0.36583993117E+03  0.85264572351E+03  0.11849423552E+04  0.12699999809E+01 0.  1.
</event>
<event>
 5   0  0.1538349E-06  0.3203187E+04  0.7818609E-02  0.8187976E-01
        2   -1    0    0  501    0  0.00000000000E+00  0.00000000000E+00  0.23515698589E+04  0.23515698589E+04  0.25500000920E-02 0. -1.
       -2   -1    0    0    0  501  0.00000000000E+00  0.00000000000E+00 -0.10908042484E+04  0.10908042484E+04  0.25500000920E-02 0.  1.
    10030    2    1    2    0    0  0.00000000000E+00  0.00000000000E+00  0.12607656105E+04  0.34423741073E+04  0.32031874078E+04 0.  0.
        1    1    3    3  502    0 -0.68934107353E+02  0.15875971796E+04  0.84500972870E+03  0.17997939208E+04  0.50400001928E-02 0. -1.
       -1    1    3    3    0  502  0.68934107353E+02 -0.15875971796E+04  0.41575588178E+03  0.16425801865E+04  0.50400001928E-02 0.  1.
</event>
<event>
 5   0  0.1572769E-06  0.3200149E+04  0.7818609E-02  0.8188778E-01
        2   -1    0    0  501    0  0.00000000000E+00  0.00000000000E+00  0.20125841884E+04  0.20125841884E+04  0.25500000920E-02 0. -1.
       -2   -1    0    0    0  501  0.00000000000E+00  0.00000000000E+00 -0.12721147090E+04  0.12721147090E+04  0.25500000920E-02 0.  1.
    10030    2    1    2    0    0  0.00000000000E+00  0.00000000000E+00  0.74046947933E+03  0.32846988974E+04  0.32001487148E+04 0.  0.
        5    1    3    3  502    0  0.35682710266E+02  0.36277152024E+03  0.19693901025E+04  0.20028469481E+04  0.46999998093E+01 0. -1.
       -5    1    3    3    0  502 -0.35682710266E+02 -0.36277152024E+03 -0.12289206232E+04  0.12818519493E+04  0.46999998093E+01 0.  1.
</event>
<event>
 5   0  0.1493485E-06  0.3188354E+04  0.7818609E-02  0.8191900E-01
        2   -1    0    0  501    0  0.00000000000E+00  0.00000000000E+00  0.20227092143E+04  0.20227092143E+04  0.25500000920E-02 0. -1.
       -2   -1    0    0    0  501  0.00000000000E+00  0.00000000000E+00 -0.12564340082E+04  0.12564340082E+04  0.25500000920E-02 0.  1.
    10030    2    1    2    0    0  0.00000000000E+00  0.00000000000E+00  0.76627520608E+03  0.32791432225E+04  0.31883542121E+04 0.  0.
        2    1    3    3  502    0  0.46398930210E+03  0.15205182484E+04  0.26084489918E+03  0.16109940651E+04  0.25500000920E-02 0. -1.
       -2    1    3    3    0  502 -0.46398930210E+03 -0.15205182484E+04  0.50543030690E+03  0.16681491574E+04  0.25500000920E-02 0.  1.
</event>
<event>
 5   0  0.5370912E-07  0.3182090E+04  0.7818609E-02  0.8193563E-01
        1   -1    0    0  501    0  0.00000000000E+00  0.00000000000E+00  0.20007989242E+04  0.20007989242E+04  0.50400001928E-02 0. -1.
       -1   -1    0    0    0  501  0.00000000000E+00  0.00000000000E+00 -0.12652067511E+04  0.12652067511E+04  0.50400001928E-02 0.  1.
    10030    2    1    2    0    0  0.00000000000E+00  0.00000000000E+00  0.73559217304E+03  0.32660056753E+04  0.31820900720E+04 0.  0.
        1    1    3    3  502    0 -0.60333841122E+03 -0.35303923756E+03  0.18347424703E+04  0.19633985520E+04  0.50400001928E-02 0. -1.
       -1    1    3    3    0  502  0.60333841122E+03  0.35303923756E+03 -0.10991502972E+04  0.13026071233E+04  0.50400001928E-02 0.  1.
</event>
<event>
 5   0  0.5233813E-07  0.3195312E+04  0.7818609E-02  0.8190056E-01
        1   -1    0    0  501    0  0.00000000000E+00  0.00000000000E+00  0.22942267415E+04  0.22942267415E+04  0.50400001928E-02 0. -1.
       -1   -1    0    0    0  501  0.00000000000E+00  0.00000000000E+00 -0.11125776590E+04  0.11125776590E+04  0.50400001928E-02 0.  1.
    10030    2    1    2    0    0  0.00000000000E+00  0.00000000000E+00  0.11816490825E+04  0.34068044005E+04  0.31953124525E+04 0.  0.
        4    1    3    3  502    0  0.15662847284E+04 -0.31227178072E+03  0.54632106339E+03  0.16879661823E+04  0.12699999809E+01 0. -1.
       -4    1    3    3    0  502 -0.15662847284E+04  0.31227178072E+03  0.63532801909E+03  0.17188382181E+04  0.12699999809E+01 0.  1.
</event>
<event>
 5   0  0.1493485E-06  0.3205238E+04  0.7818609E-02  0.8187435E-01
        2   -1    0    0  501    0  0.00000000000E+00  0.00000000000E+00  0.20547870784E+04  0.20547870784E+04  0.25500000920E-02 0.  1.
       -2   -1    0    0    0  501  0.00000000000E+00  0.00000000000E+00 -0.12499531670E+04  0.12499531670E+04  0.25500000920E-02 0. -1.
    10030    2    1    2    0    0  0.00000000000E+00  0.00000000000E+00  0.80483391135E+03  0.33047402454E+04  0.32052379731E+04 0.  0.
        2    1    3    3  502    0 -0.11846865630E+04  0.80761426819E+03 -0.33581645607E+03  0.14725813223E+04  0.25500000920E-02 0. -1.
       -2    1    3    3    0  502  0.11846865630E+04 -0.80761426819E+03  0.11406503674E+04  0.18321589231E+04  0.25500000920E-02 0.  1.
</event>
<event>
 5   0  0.1572769E-06  0.3197803E+04  0.7818609E-02  0.8189398E-01
        2   -1    0    0  501    0  0.00000000000E+00  0.00000000000E+00  0.18893490453E+04  0.18893490453E+04  0.25500000920E-02 0. -1.
       -2   -1    0    0    0  501  0.00000000000E+00  0.00000000000E+00 -0.13531040670E+04  0.13531040670E+04  0.25500000920E-02 0.  1.
    10030    2    1    2    0    0  0.00000000000E+00  0.00000000000E+00  0.53624497835E+03  0.32424531123E+04  0.31978029190E+04 0.  0.
        5    1    3    3  502    0  0.10349410567E+04  0.10746018618E+04  0.85112166415E+03  0.17176444130E+04  0.46999998093E+01 0. -1.
       -5    1    3    3    0  502 -0.10349410567E+04 -0.10746018618E+04 -0.31487668579E+03  0.15248086993E+04  0.46999998093E+01 0.  1.
</event>
<event>
 5   0  0.5233813E-07  0.3281057E+04  0.7818609E-02  0.8167732E-01
       -1   -1    0    0    0  501  0.00000000000E+00  0.00000000000E+00  0.31383841494E+04  0.31383841494E+04  0.50400001928E-02 0.  1.
        1   -1    0    0  501    0  0.00000000000E+00  0.00000000000E+00 -0.85755415129E+03  0.85755415130E+03  0.50400001928E-02 0. -1.
    10030    2    1    2    0    0  0.00000000000E+00  0.00000000000E+00  0.22808299981E+04  0.39959383007E+04  0.32810573635E+04 0.  0.
        4    1    3    3  502    0 -0.24311171204E+03 -0.94324068726E+03  0.27480766022E+04  0.29156016400E+04  0.12699999809E+01 0.  1.
       -4    1    3    3    0  502  0.24311171204E+03  0.94324068726E+03 -0.46724660406E+03  0.10803366607E+04  0.12699999809E+01 0. -1.
</event>
<event>
 5   0  0.5317728E-07  0.3177504E+04  0.7818609E-02  0.8194784E-01
        1   -1    0    0  501    0  0.00000000000E+00  0.00000000000E+00  0.17794627258E+04  0.17794627258E+04  0.50400001928E-02 0.  1.
       -1   -1    0    0    0  501  0.00000000000E+00  0.00000000000E+00 -0.14184799552E+04  0.14184799552E+04  0.50400001928E-02 0. -1.
    10030    2    1    2    0    0  0.00000000000E+00  0.00000000000E+00  0.36098277061E+03  0.31979426811E+04  0.31775035532E+04 0.  0.
        2    1    3    3  502    0  0.69239324437E+03 -0.66635233020E+03  0.14538167269E+04  0.17427039072E+04  0.25500000920E-02 0.  1.
       -2    1    3    3    0  502 -0.69239324437E+03  0.66635233020E+03 -0.10928339563E+04  0.14552387738E+04  0.25500000920E-02 0. -1.
</event>
<event>
 5   0  0.1508771E-06  0.3188802E+04  0.7818609E-02  0.8191781E-01
       -2   -1    0    0    0  501  0.00000000000E+00  0.00000000000E+00  0.13766376450E+04  0.13766376450E+04  0.25500000920E-02 0. -1.
        2   -1    0    0  501    0  0.00000000000E+00  0.00000000000E+00 -0.18466115291E+04  0.18466115291E+04  0.25500000920E-02 0.  1.
    10030    2    1    2    0    0  0.00000000000E+00  0.00000000000E+00 -0.46997388412E+03  0.32232491741E+04  0.31888022495E+04 0.  0.
        4    1    3    3  502    0  0.64584785565E+03  0.56191453575E+03 -0.15945992743E+04  0.18098662538E+04  0.12699999809E+01 0.  1.
       -4    1    3    3    0  502 -0.64584785565E+03 -0.56191453575E+03  0.11246253902E+04  0.14133829203E+04  0.12699999809E+01 0. -1.
</event>
<event>
 5   0  0.5281187E-07  0.3186373E+04  0.7818609E-02  0.8192425E-01
       -1   -1    0    0    0  501  0.00000000000E+00  0.00000000000E+00  0.93939235525E+03  0.93939235526E+03  0.50400001928E-02 0.  1.
        1   -1    0    0  501    0  0.00000000000E+00  0.00000000000E+00 -0.27020061687E+04  0.27020061687E+04  0.50400001928E-02 0. -1.
    10030    2    1    2    0    0  0.00000000000E+00  0.00000000000E+00 -0.17626138134E+04  0.36413985239E+04  0.31863734487E+04 0.  0.
        5    1    3    3  502    0  0.29136170314E+03  0.12804153642E+04  0.14966819570E+03  0.13216572195E+04  0.46999998093E+01 0.  1.
       -5    1    3    3    0  502 -0.29136170314E+03 -0.12804153642E+04 -0.19122820091E+04  0.23197413044E+04  0.46999998093E+01 0. -1.
</event>
<event>
 5   0  0.1508771E-06  0.2915514E+04  0.7818609E-02  0.8268276E-01
       -2   -1    0    0    0  501  0.00000000000E+00  0.00000000000E+00  0.12323437192E+04  0.12323437192E+04  0.25500000920E-02 0. -1.
        2   -1    0    0  501    0  0.00000000000E+00  0.00000000000E+00 -0.17244018546E+04  0.17244018546E+04  0.25500000920E-02 0.  1.
    10030    2    1    2    0    0  0.00000000000E+00  0.00000000000E+00 -0.49205813538E+03  0.29567455737E+04  0.29155142221E+04 0.  0.
        4    1    3    3  502    0 -0.29081749164E+02  0.10790012318E+04 -0.12396630589E+04  0.16437321919E+04  0.12699999809E+01 0.  1.
       -4    1    3    3    0  502  0.29081749164E+02 -0.10790012318E+04  0.74760492349E+03  0.13130133818E+04  0.12699999809E+01 0. -1.
</event>
<event>
 5   0  0.1508771E-06  0.3248907E+04  0.7818609E-02  0.8176019E-01
       -2   -1    0    0    0  501  0.00000000000E+00  0.00000000000E+00  0.29082647958E+04  0.29082647958E+04  0.25500000920E-02 0. -1.
        2   -1    0    0  501    0  0.00000000000E+00  0.00000000000E+00 -0.90736228125E+03  0.90736228125E+03  0.25500000920E-02 0.  1.
    10030    2    1    2    0    0  0.00000000000E+00  0.00000000000E+00  0.20009025145E+04  0.38156270770E+04  0.32489073730E+04 0.  0.
        4    1    3    3  502    0  0.16069480904E+04 -0.22163461220E+03  0.89912203869E+03  0.18546768236E+04  0.12699999809E+01 0.  1.
       -4    1    3    3    0  502 -0.16069480904E+04  0.22163461220E+03  0.11017804758E+04  0.19609502534E+04  0.12699999809E+01 0. -1.
</event>
<event>
 5   0  0.1556396E-06  0.3247858E+04  0.7818609E-02  0.8176291E-01
        2   -1    0    0  501    0  0.00000000000E+00  0.00000000000E+00  0.10334780192E+04  0.10334780192E+04  0.25500000920E-02 0. -1.
       -2   -1    0    0    0  501  0.00000000000E+00  0.00000000000E+00 -0.25517186385E+04  0.25517186385E+04  0.25500000920E-02 0.  1.
    10030    2    1    2    0    0  0.00000000000E+00  0.00000000000E+00 -0.15182406193E+04  0.35851966577E+04  0.32478578319E+04 0.  0.
        3    1    3    3  502    0  0.77675117492E+03 -0.12749409035E+04 -0.53744152631E+02  0.14938892661E+04  0.10100000352E+00 0. -1.
       -3    1    3    3    0  502 -0.77675117492E+03  0.12749409035E+04 -0.14644964667E+04  0.20913073916E+04  0.10100000352E+00 0.  1.
</event>
<event>
 5   0  0.5317728E-07  0.3202200E+04  0.7818609E-02  0.8188236E-01
       -1   -1    0    0    0  501  0.00000000000E+00  0.00000000000E+00  0.11645593994E+04  0.11645593994E+04  0.50400001928E-02 0. -1.
        1   -1    0    0  501    0  0.00000000000E+00  0.00000000000E+00 -0.22012796513E+04  0.22012796513E+04  0.50400001928E-02 0.  1.
    10030    2    1    2    0    0  0.00000000000E+00  0.00000000000E+00 -0.10367202519E+04  0.33658390508E+04  0.32021998118E+04 0.  0.
        2    1    3    3  502    0 -0.97380050423E+03  0.12696311260E+04 -0.45825132232E+03  0.16644052669E+04  0.25500000920E-02 0.  1.
       -2    1    3    3    0  502  0.97380050423E+03 -0.12696311260E+04 -0.57846892960E+03  0.17014337838E+04  0.25500000920E-02 0. -1.
</event>
<event>
 5   0  0.5370912E-07  0.3207266E+04  0.7818609E-02  0.8186901E-01
       -1   -1    0    0    0  501  0.00000000000E+00  0.00000000000E+00  0.28968690583E+04  0.28968690583E+04  0.50400001928E-02 0.  1.
        1   -1    0    0  501    0  0.00000000000E+00  0.00000000000E+00 -0.88773017602E+03  0.88773017603E+03  0.50400001928E-02 0. -1.
    10030    2    1    2    0    0  0.00000000000E+00  0.00000000000E+00  0.20091388823E+04  0.37845992343E+04  0.32072655513E+04 0.  0.
        1    1    3    3  502    0  0.19030206365E+03  0.10637136441E+04  0.24027353483E+04  0.26345471615E+04  0.50400001928E-02 0.  1.
       -1    1    3    3    0  502 -0.19030206365E+03 -0.10637136441E+04 -0.39359646603E+03  0.11500520728E+04  0.50400001928E-02 0. -1.
</event>
<event>
 5   0  0.5281187E-07  0.3198599E+04  0.7818609E-02  0.8189187E-01
       -1   -1    0    0    0  501  0.00000000000E+00  0.00000000000E+00  0.17245228560E+04  0.17245228560E+04  0.50400001928E-02 0.  1.
        1   -1    0    0  501    0  0.00000000000E+00  0.00000000000E+00 -0.14831687054E+04  0.14831687054E+04  0.50400001928E-02 0. -1.
    10030    2    1    2    0    0  0.00000000000E+00  0.00000000000E+00  0.24135415059E+03  0.32076915614E+04  0.31985986505E+04 0.  0.
        5    1    3    3  502    0 -0.50309557767E+03 -0.56403082200E+03  0.15341164026E+04  0.17101962330E+04  0.46999998093E+01 0.  1.
       -5    1    3    3    0  502  0.50309557767E+03  0.56403082200E+03 -0.12927622520E+04  0.14974953284E+04  0.46999998093E+01 0. -1.
</event>
<event>
 5   0  0.1538349E-06  0.3209591E+04  0.7818609E-02  0.8186289E-01
        2   -1    0    0  501    0  0.00000000000E+00  0.00000000000E+00  0.19653696721E+04  0.19653696721E+04  0.25500000920E-02 0.  1.
       -2   -1    0    0    0  501  0.00000000000E+00  0.00000000000E+00 -0.13103738514E+04  0.13103738514E+04  0.25500000920E-02 0. -1.
    10030    2    1    2    0    0  0.00000000000E+00  0.00000000000E+00  0.65499582068E+03  0.32757435234E+04  0.32095912678E+04 0.  0.
        1    1    3    3  502    0  0.42806089884E+02 -0.92741799648E+03 -0.10084627339E+04  0.13707419842E+04  0.50400001928E-02 0. -1.
       -1    1    3    3    0  502 -0.42806089884E+02  0.92741799648E+03  0.16634585546E+04  0.19050015392E+04  0.50400001928E-02 0.  1.
</event>
<event>
 5   0  0.1572769E-06  0.3193015E+04  0.7818609E-02  0.8190664E-01
        2   -1    0    0  501    0  0.00000000000E+00  0.00000000000E+00  0.13713286503E+04  0.13713286503E+04  0.25500000920E-02 0. -1.
       -2   -1    0    0    0  501  0.00000000000E+00  0.00000000000E+00 -0.18586613255E+04  0.18586613255E+04  0.25500000920E-02 0.  1.
    10030    2    1    2    0    0  0.00000000000E+00  0.00000000000E+00 -0.48733267514E+03  0.32299899758E+04  0.31930145799E+04 0.  0.
        5    1    3    3  502    0 -0.14976125776E+04 -0.24061144579E+03  0.26017380676E+03  0.15389768680E+04  0.46999998093E+01 0. -1.
       -5    1    3    3    0  502  0.14976125776E+04  0.24061144579E+03 -0.74750648190E+03  0.16910131078E+04  0.46999998093E+01 0.  1.
</event>
<event>
 5   0  0.1508771E-06  0.3200385E+04  0.7818609E-02  0.8188716E-01
        2   -1    0    0  501    0  0.00000000000E+00  0.00000000000E+00  0.14075930877E+04  0.14075930877E+04  0.25500000920E-02 0.  1.
       -2   -1    0    0    0  501  0.00000000000E+00  0.00000000000E+00 -0.18191448447E+04  0.18191448447E+04  0.25500000920E-02 0. -1.
    10030    2    1    2    0    0  0.00000000000E+00  0.00000000000E+00 -0.41155175694E+03  0.32267379324E+04  0.32003847950E+04 0.  0.
        4    1    3    3  502    0 -0.79572042485E+03  0.13677961050E+04  0.34041766858E+02  0.15827816129E+04  0.12699999809E+01 0.  1.
       -4    1    3    3    0  502  0.79572042485E+03 -0.13677961050E+04 -0.44559352380E+03  0.16439563196E+04  0.12699999809E+01 0. -1.
</event>
<event>
 5   0  0.5281187E-07  0.3222855E+04  0.7818609E-02  0.8182807E-01
       -1   -1    0    0    0  501  0.00000000000E+00  0.00000000000E+00  0.12911264592E+04  0.12911264592E+04  0.50400001928E-02 0. -1.
        1   -1    0    0  501    0  0.00000000000E+00  0.00000000000E+00 -0.20111884377E+04  0.20111884377E+04  0.50400001928E-02 0.  1.
    10030    2    1    2    0    0  0.00000000000E+00  0.00000000000E+00 -0.72006197848E+03  0.33023148969E+04  0.32228550115E+04 0.  0.
        5    1    3    3  502    0 -0.15133694918E+04  0.45856855866E+03 -0.67768097626E+03  0.17204202793E+04  0.46999998093E+01 0. -1.
       -5    1    3    3    0  502  0.15133694918E+04 -0.45856855866E+03 -0.42381002226E+02  0.15818946176E+04  0.46999998093E+01 0.  1.
</event>
<event>
 5   0  0.5370912E-07  0.3163526E+04  0.7818609E-02  0.8198517E-01
        1   -1    0    0  501    0  0.00000000000E+00  0.00000000000E+00  0.24169567811E+04  0.24169567811E+04  0.50400001928E-02 0. -1.
       -1   -1    0    0    0  501  0.00000000000E+00  0.00000000000E+00 -0.10351756587E+04  0.10351756587E+04  0.50400001928E-02 0.  1.
    10030    2    1    2    0    0  0.00000000000E+00  0.00000000000E+00  0.13817811224E+04  0.34521324398E+04  0.31635264045E+04 0.  0.
        1    1    3    3  502    0 -0.91359881025E+02 -0.15400248964E+03 -0.10240800239E+04  0.10396168958E+04  0.50400001928E-02 0.  1.
       -1    1    3    3    0  502  0.91359881025E+02  0.15400248964E+03  0.24058611463E+04  0.24125155440E+04  0.50400001928E-02 0. -1.
</event>
<event>
 5   0  0.5317728E-07  0.3197928E+04  0.7818609E-02  0.8189365E-01
        1   -1    0    0  501    0  0.00000000000E+00  0.00000000000E+00  0.21677884422E+04  0.21677884423E+04  0.50400001928E-02 0.  1.
       -1   -1    0    0    0  501  0.00000000000E+00  0.00000000000E+00 -0.11793984135E+04  0.11793984135E+04  0.50400001928E-02 0. -1.
    10030    2    1    2    0    0  0.00000000000E+00  0.00000000000E+00  0.98839002873E+03  0.33471868558E+04  0.31979282354E+04 0.  0.
        2    1    3    3  502    0 -0.44494056787E+03  0.14034330942E+04  0.11470791350E+04  0.18663834281E+04  0.25500000920E-02 0.  1.
       -2    1    3    3    0  502  0.44494056787E+03 -0.14034330942E+04 -0.15868910630E+03  0.14808034276E+04  0.25500000920E-02 0. -1.
</event>
<event>
 5   0  0.5317728E-07  0.3191339E+04  0.7818609E-02  0.8191108E-01
        1   -1    0    0  501    0  0.00000000000E+00  0.00000000000E+00  0.18250730955E+04  0.18250730955E+04  0.50400001928E-02 0. -1.
       -1   -1    0    0    0  501  0.00000000000E+00  0.00000000000E+00 -0.13951010468E+04  0.13951010468E+04  0.50400001928E-02 0.  1.
    10030    2    1    2    0    0  0.00000000000E+00  0.00000000000E+00  0.42997204875E+03  0.32201741423E+04  0.31913391459E+04 0.  0.
        2    1    3    3  502    0 -0.37111589084E+03 -0.11343436693E+04 -0.85368622167E+03  0.14673931749E+04  0.25500000920E-02 0.  1.
       -2    1    3    3    0  502  0.37111589084E+03  0.11343436693E+04  0.12836582704E+04  0.17527809674E+04  0.25500000920E-02 0. -1.
</event>
<event>
 5   0  0.5281187E-07  0.3199749E+04  0.7818609E-02  0.8188884E-01
        1   -1    0    0  501    0  0.00000000000E+00  0.00000000000E+00  0.19764606847E+04  0.19764606847E+04  0.50400001928E-02 0.  1.
       -1   -1    0    0    0  501  0.00000000000E+00  0.00000000000E+00 -0.12950410025E+04  0.12950410025E+04  0.50400001928E-02 0. -1.
    10030    2    1    2    0    0  0.00000000000E+00  0.00000000000E+00  0.68141968224E+03  0.32715016872E+04  0.31997485067E+04 0.  0.
        5    1    3    3  502    0  0.28679719305E+03  0.30014696551E+03  0.19204252827E+04  0.19647890949E+04  0.46999998093E+01 0.  1.
       -5    1    3    3    0  502 -0.28679719305E+03 -0.30014696551E+03 -0.12390056005E+04  0.13067125923E+04  0.46999998093E+01 0. -1.
</event>
<event>
 5   0  0.1538349E-06  0.3214797E+04  0.7818609E-02  0.8184920E-01
        2   -1    0    0  501    0  0.00000000000E+00  0.00000000000E+00  0.23236423110E+04  0.23236423110E+04  0.25500000920E-02 0. -1.
       -2   -1    0    0    0  501  0.00000000000E+00  0.00000000000E+00 -0.11119309148E+04  0.11119309148E+04  0.25500000920E-02 0.  1.
    10030    2    1    2    0    0  0.00000000000E+00  0.00000000000E+00  0.12117113963E+04  0.34355732258E+04  0.32147968648E+04 0.  0.
        1    1    3    3  502    0 -0.79093012686E+03 -0.39491343307E+03 -0.82879932620E+03  0.12117901668E+04  0.50400001928E-02 0.  1.
       -1    1    3    3    0  502  0.79093012686E+03  0.39491343307E+03  0.20405107224E+04  0.22237830590E+04  0.50400001928E-02 0. -1.
</event>
<event>
 5   0  0.5233813E-07  0.3224851E+04  0.7818609E-02  0.8182285E-01
        1   -1    0    0  501    0  0.00000000000E+00  0.00000000000E+00  0.12309064055E+04  0.12309064055E+04  0.50400001928E-02 0. -1.
       -1   -1    0    0    0  501  0.00000000000E+00  0.00000000000E+00 -0.21121958989E+04  0.21121958990E+04  0.50400001928E-02 0.  1.
    10030    2    1    2    0    0  0.00000000000E+00  0.00000000000E+00 -0.88128949347E+03  0.33431023044E+04  0.32248506704E+04 0.  0.
        4    1    3    3  502    0 -0.12313744831E+04  0.92812364394E+03  0.48040159444E+02  0.15427268345E+04  0.12699999809E+01 0. -1.
       -4    1    3    3    0  502  0.12313744831E+04 -0.92812364394E+03 -0.92932965291E+03  0.18003754699E+04  0.12699999809E+01 0.  1.
</event>
<event>
 5   0  0.5370912E-07  0.3219760E+04  0.7818609E-02  0.8183618E-01
        1   -1    0    0  501    0  0.00000000000E+00  0.00000000000E+00  0.18343668445E+04  0.18343668445E+04  0.50400001928E-02 0.  1.
       -1   -1    0    0    0  501  0.00000000000E+00  0.00000000000E+00 -0.14128655590E+04  0.14128655590E+04  0.50400001928E-02 0. -1.
    10030    2    1    2    0    0  0.00000000000E+00  0.00000000000E+00  0.42150128552E+03  0.32472324035E+04  0.32197600762E+04 0.  0.
        1    1    3    3  502    0  0.76640860638E+03 -0.43856181072E+03 -0.11468385539E+04  0.14473967260E+04  0.50400001928E-02 0. -1.
       -1    1    3    3    0  502 -0.76640860638E+03  0.43856181072E+03  0.15683398394E+04  0.17998356774E+04  0.50400001928E-02 0.  1.
</event>
<event>
 5   0  0.1508771E-06  0.3170741E+04  0.7818609E-02  0.8196587E-01
        2   -1    0    0  501    0  0.00000000000E+00  0.00000000000E+00  0.21338404659E+04  0.21338404659E+04  0.25500000920E-02 0. -1.
       -2   -1    0    0    0  501  0.00000000000E+00  0.00000000000E+00 -0.11778762425E+04  0.11778762425E+04  0.25500000920E-02 0.  1.
    10030    2    1    2    0    0  0.00000000000E+00  0.00000000000E+00  0.95596422340E+03  0.33117167084E+04  0.31707412320E+04 0.  0.
        4    1    3    3  502    0 -0.74758791299E+03  0.13418190303E+04  0.68062788391E+02  0.15375305375E+04  0.12699999809E+01 0.  1.
       -4    1    3    3    0  502  0.74758791299E+03 -0.13418190303E+04  0.88790143500E+03  0.17741861709E+04  0.12699999809E+01 0. -1.
</event>
<event>
 5   0  0.5281187E-07  0.3187112E+04  0.7818609E-02  0.8192229E-01
       -1   -1    0    0    0  501  0.00000000000E+00  0.00000000000E+00  0.10389158523E+04  0.10389158523E+04  0.50400001928E-02 0.  1.
        1   -1    0    0  501    0  0.00000000000E+00  0.00000000000E+00 -0.24442991004E+04  0.24442991005E+04  0.50400001928E-02 0. -1.
    10030    2    1    2    0    0  0.00000000000E+00  0.00000000000E+00 -0.14053832482E+04  0.34832149527E+04  0.31871122247E+04 0.  0.
        5    1    3    3  502    0  0.69222820785E+03  0.12489156640E+04 -0.14758243427E+04  0.20535456674E+04  0.46999998093E+01 0. -1.
       -5    1    3    3    0  502 -0.69222820785E+03 -0.12489156640E+04  0.70441094548E+02  0.14296692853E+04  0.46999998093E+01 0.  1.
</event>
<event>
 5   0  0.5281187E-07  0.3216163E+04  0.7818609E-02  0.8184561E-01
       -1   -1    0    0    0  501  0.00000000000E+00  0.00000000000E+00  0.11823792504E+04  0.11823792504E+04  0.50400001928E-02 0.  1.
        1   -1    0    0  501    0  0.00000000000E+00  0.00000000000E+00 -0.21870534792E+04  0.21870534792E+04  0.50400001928E-02 0. -1.
    10030    2    1    2    0    0  0.00000000000E+00  0.00000000000E+00 -0.10046742288E+04  0.33694327295E+04  0.32161633374E+04 0.  0.
        5    1    3    3  502    0 -0.36013705490E+03  0.38274837527E+02  0.11390896961E+04  0.11952870313E+04  0.46999998093E+01 0.  1.
       -5    1    3    3    0  502  0.36013705490E+03 -0.38274837527E+02 -0.21437639249E+04  0.21741456982E+04  0.46999998093E+01 0. -1.
</event>
<event>
 5   0  0.5317728E-07  0.3192643E+04  0.7818609E-02  0.8190763E-01
       -1   -1    0    0    0  501  0.00000000000E+00  0.00000000000E+00  0.13925820443E+04  0.13925820443E+04  0.50400001928E-02 0. -1.
        1   -1    0    0  501    0  0.00000000000E+00  0.00000000000E+00 -0.18298691574E+04  0.18298691574E+04  0.50400001928E-02 0.  1.
    10030    2    1    2    0    0  0.00000000000E+00  0.00000000000E+00 -0.43728711305E+03  0.32224512017E+04  0.31926433763E+04 0.  0.
        2    1    3    3  502    0  0.52147454970E+02 -0.15469532446E+04  0.17546222547E+03  0.15577453869E+04  0.25500000920E-02 0.  1.
       -2    1    3    3    0  502 -0.52147454970E+02  0.15469532446E+04 -0.61274933852E+03  0.16647058148E+04  0.25500000920E-02 0. -1.
</event>
<event>
 5   0  0.1538349E-06  0.2859977E+04  0.7818609E-02  0.8284886E-01
        2   -1    0    0  501    0  0.00000000000E+00  0.00000000000E+00  0.16439024515E+04  0.16439024515E+04  0.25500000920E-02 0.  1.
       -2   -1    0    0    0  501  0.00000000000E+00  0.00000000000E+00 -0.12439100310E+04  0.12439100310E+04  0.25500000920E-02 0. -1.
    10030    2    1    2    0    0  0.00000000000E+00  0.00000000000E+00  0.39999242047E+03  0.28878124825E+04  0.28599767477E+04 0.  0.
        1    1    3    3  502    0 -0.17734422568E+03 -0.13814084576E+04 -0.12739158321E+03  0.13985595864E+04  0.50400001928E-02 0.  1.
       -1    1    3    3    0  502  0.17734422568E+03  0.13814084576E+04  0.52738400368E+03  0.14892528961E+04  0.50400001928E-02 0. -1.
</event>
<event>
 5   0  0.5233813E-07  0.3235727E+04  0.7818609E-02  0.8179445E-01
        1   -1    0    0  501    0  0.00000000000E+00  0.00000000000E+00  0.10687135760E+04  0.10687135760E+04  0.50400001928E-02 0. -1.
       -1   -1    0    0    0  501  0.00000000000E+00  0.00000000000E+00 -0.24491899247E+04  0.24491899247E+04  0.50400001928E-02 0.  1.
    10030    2    1    2    0    0  0.00000000000E+00  0.00000000000E+00 -0.13804763487E+04  0.35179035007E+04  0.32357271348E+04 0.  0.
        4    1    3    3  502    0  0.70291387541E+03 -0.11441788631E+04  0.29080994052E+03  0.13739742433E+04  0.12699999809E+01 0.  1.
       -4    1    3    3    0  502 -0.70291387541E+03  0.11441788631E+04 -0.16712862892E+04  0.21439292573E+04  0.12699999809E+01 0. -1.
</event>
<event>
 5   0  0.1538349E-06  0.3205520E+04  0.7818609E-02  0.8187361E-01
        2   -1    0    0  501    0  0.00000000000E+00  0.00000000000E+00  0.17621883034E+04  0.17621883034E+04  0.25500000920E-02 0. -1.
       -2   -1    0    0    0  501  0.00000000000E+00  0.00000000000E+00 -0.14577553946E+04  0.14577553946E+04  0.25500000920E-02 0.  1.
    10030    2    1    2    0    0  0.00000000000E+00  0.00000000000E+00  0.30443290875E+03  0.32199436980E+04  0.32055199301E+04 0.  0.
        1    1    3    3  502    0  0.39328610264E+03 -0.11364365529E+04 -0.91211600588E+03  0.15093434352E+04  0.50400001928E-02 0.  1.
       -1    1    3    3    0  502 -0.39328610264E+03  0.11364365529E+04  0.12165489146E+04  0.17106002627E+04  0.50400001928E-02 0. -1.
</event>
<event>
 5   0  0.1556396E-06  0.3176134E+04  0.7818609E-02  0.8195149E-01
        2   -1    0    0  501    0  0.00000000000E+00  0.00000000000E+00  0.19661031814E+04  0.19661031814E+04  0.25500000920E-02 0. -1.
       -2   -1    0    0    0  501  0.00000000000E+00  0.00000000000E+00 -0.12827187843E+04  0.12827187843E+04  0.25500000920E-02 0.  1.
    10030    2    1    2    0    0  0.00000000000E+00  0.00000000000E+00  0.68338439711E+03  0.32488219658E+04  0.31761344321E+04 0.  0.
        3    1    3    3  502    0 -0.84982631045E+01  0.12242636382E+03  0.19612456480E+04  0.19650814072E+04  0.10100000352E+00 0. -1.
       -3    1    3    3    0  502  0.84982631045E+01 -0.12242636382E+03 -0.12778612509E+04  0.12837405586E+04  0.10100000352E+00 0.  1.
</event>
<event>
 5   0  0.1556396E-06  0.3056015E+04  0.7818609E-02  0.8227914E-01
        2   -1    0    0  501    0  0.00000000000E+00  0.00000000000E+00  0.25369016345E+04  0.25369016345E+04  0.25500000920E-02 0. -1.
       -2   -1    0    0    0  501  0.00000000000E+00  0.00000000000E+00 -0.92033819285E+03  0.92033819286E+03  0.25500000920E-02 0.  1.
    10030    2    1    2    0    0  0.00000000000E+00  0.00000000000E+00  0.16165634417E+04  0.34572398274E+04  0.30560153571E+04 0.  0.
        3    1    3    3  502    0  0.58203442232E+03 -0.13599959723E+04  0.37534432405E+03  0.15261836341E+04  0.10100000352E+00 0.  1.
       -3    1    3    3    0  502 -0.58203442232E+03  0.13599959723E+04  0.12412191176E+04  0.19310561932E+04  0.10100000352E+00 0. -1.
</event>
<event>
 5   0  0.5370912E-07  0.3189240E+04  0.7818609E-02  0.8191665E-01
        1   -1    0    0  501    0  0.00000000000E+00  0.00000000000E+00  0.16226116394E+04  0.16226116394E+04  0.50400001928E-02 0. -1.
       -1   -1    0    0    0  501  0.00000000000E+00  0.00000000000E+00 -0.15671108420E+04  0.15671108420E+04  0.50400001928E-02 0.  1.
    10030    2    1    2    0    0  0.00000000000E+00  0.00000000000E+00  0.55500797454E+02  0.31897224814E+04  0.31892395912E+04 0.  0.
        1    1    3    3  502    0  0.13267760053E+04  0.66112053652E+02 -0.85448685296E+03  0.15795104159E+04  0.50400001928E-02 0.  1.
       -1    1    3    3    0  502 -0.13267760053E+04 -0.66112053652E+02  0.90998765041E+03  0.16102120655E+04  0.50400001928E-02 0. -1.
</event>
<event>
 5   0  0.5281187E-07  0.3198586E+04  0.7818609E-02  0.8189191E-01
        1   -1    0    0  501    0  0.00000000000E+00  0.00000000000E+00  0.25729258944E+04  0.25729258945E+04  0.50400001928E-02 0.  1.
       -1   -1    0    0    0  501  0.00000000000E+00  0.00000000000E+00 -0.99409721948E+03  0.99409721949E+03  0.50400001928E-02 0. -1.
    10030    2    1    2    0    0  0.00000000000E+00  0.00000000000E+00  0.15788286750E+04  0.35670231139E+04  0.31985862362E+04 0.  0.
        5    1    3    3  502    0 -0.22163185671E+03  0.15756460812E+04  0.96900845732E+03  0.18630031490E+04  0.46999998093E+01 0.  1.
       -5    1    3    3    0  502  0.22163185671E+03 -0.15756460812E+04  0.60982021765E+03  0.17040199649E+04  0.46999998093E+01 0. -1.
</event>
<event>
 5   0  0.1556396E-06  0.3229429E+04  0.7818609E-02  0.8181088E-01
       -2   -1    0    0    0  501  0.00000000000E+00  0.00000000000E+00  0.11341811351E+04  0.11341811351E+04  0.25500000920E-02 0.  1.
        2   -1    0    0  501    0  0.00000000000E+00  0.00000000000E+00 -0.22988422124E+04  0.22988422124E+04  0.25500000920E-02 0. -1.
    10030    2    1    2    0    0  0.00000000000E+00  0.00000000000E+00 -0.11646610773E+04  0.34330233475E+04  0.32294293427E+04 0.  0.
        3    1    3    3  502    0 -0.28073504438E+03  0.42289240232E+03 -0.22118249062E+04  0.22693213908E+04  0.10100000352E+00 0. -1.
       -3    1    3    3    0  502  0.28073504438E+03 -0.42289240232E+03  0.10471638289E+04  0.11637019566E+04  0.10100000352E+00 0.  1.
</event>
<event>
 5   0  0.5281187E-07  0.3225945E+04  0.7818609E-02  0.8181999E-01
        1   -1    0    0  501    0  0.00000000000E+00  0.00000000000E+00  0.30602057868E+04  0.30602057868E+04  0.50400001928E-02 0.  1.
       -1   -1    0    0    0  501  0.00000000000E+00  0.00000000000E+00 -0.85016515001E+03  0.85016515003E+03  0.50400001928E-02 0. -1.
    10030    2    1    2    0    0  0.00000000000E+00  0.00000000000E+00  0.22100406368E+04  0.39103709368E+04  0.32259450162E+04 0.  0.
        5    1    3    3  502    0 -0.12484789890E+04  0.97827523072E+03  0.14603639897E+04  0.21560165318E+04  0.46999998093E+01 0.  1.
       -5    1    3    3    0  502  0.12484789890E+04 -0.97827523072E+03  0.74967664707E+03  0.17543544050E+04  0.46999998093E+01 0. -1.
</event>
<event>
 5   0  0.1493485E-06  0.3150875E+04  0.7818609E-02  0.8201913E-01
        2   -1    0    0  501    0  0.00000000000E+00  0.00000000000E+00  0.11028283705E+04  0.11028283705E+04  0.25500000920E-02 0.  1.
       -2   -1    0    0    0  501  0.00000000000E+00  0.00000000000E+00 -0.22505801406E+04  0.22505801406E+04  0.25500000920E-02 0. -1.
    10030    2    1    2    0    0  0.00000000000E+00  0.00000000000E+00 -0.11477517701E+04  0.33534085111E+04  0.31508751985E+04 0.  0.
        2    1    3    3  502    0 -0.39145984302E+03  0.10698349904E+04  0.58428983667E+03  0.12803055607E+04  0.25500000920E-02 0.  1.
       -2    1    3    3    0  502  0.39145984302E+03 -0.10698349904E+04 -0.17320416068E+04  0.20731029505E+04  0.25500000920E-02 0. -1.
</event>
<event>
 5   0  0.5177039E-07  0.3200330E+04  0.7818609E-02  0.8188730E-01
       -1   -1    0    0    0  501  0.00000000000E+00  0.00000000000E+00  0.13014494125E+04  0.13014494125E+04  0.50400001928E-02 0.  1.
        1   -1    0    0  501    0  0.00000000000E+00  0.00000000000E+00 -0.19674435205E+04  0.19674435205E+04  0.50400001928E-02 0. -1.
    10030    2    1    2    0    0  0.00000000000E+00  0.00000000000E+00 -0.66599410797E+03  0.32688929330E+04  0.32003301167E+04 0.  0.
        3    1    3    3  502    0 -0.21403696301E+03 -0.77239195238E+03  0.10816386115E+04  0.13462329834E+04  0.10100000352E+00 0.  1.
       -3    1    3    3    0  502  0.21403696301E+03  0.77239195238E+03 -0.17476327194E+04  0.19226599496E+04  0.10100000352E+00 0. -1.
</event>
<event>
 5   0  0.5370912E-07  0.3224157E+04  0.7818609E-02  0.8182466E-01
       -1   -1    0    0    0  501  0.00000000000E+00  0.00000000000E+00  0.17941699251E+04  0.17941699251E+04  0.50400001928E-02 0.  1.
        1   -1    0    0  501    0  0.00000000000E+00  0.00000000000E+00 -0.14484674815E+04  0.14484674815E+04  0.50400001928E-02 0. -1.
    10030    2    1    2    0    0  0.00000000000E+00  0.00000000000E+00  0.34570244353E+03  0.32426374066E+04  0.32241568155E+04 0.  0.
        1    1    3    3  502    0 -0.79083096593E+03 -0.13122560212E+04  0.67709045203E+03  0.16750764049E+04  0.50400001928E-02 0.  1.
       -1    1    3    3    0  502  0.79083096593E+03  0.13122560212E+04 -0.33138800850E+03  0.15675610017E+04  0.50400001928E-02 0. -1.
</event>
<event>
 5   0  0.5233813E-07  0.3197470E+04  0.7818609E-02  0.8189486E-01
       -1   -1    0    0    0  501  0.00000000000E+00  0.00000000000E+00  0.12564434693E+04  0.12564434693E+04  0.50400001928E-02 0. -1.
        1   -1    0    0  501    0  0.00000000000E+00  0.00000000000E+00 -0.20342765776E+04  0.20342765776E+04  0.50400001928E-02 0.  1.
    10030    2    1    2    0    0  0.00000000000E+00  0.00000000000E+00 -0.77783310830E+03  0.32907200469E+04  0.31974699502E+04 0.  0.
        4    1    3    3  502    0  0.30596932550E+03 -0.45423489442E+03 -0.19347209106E+04  0.20107444348E+04  0.12699999809E+01 0.  1.
       -4    1    3    3    0  502 -0.30596932550E+03  0.45423489442E+03  0.11568878023E+04  0.12799756120E+04  0.12699999809E+01 0. -1.
</event>
<event>
 5   0  0.1508771E-06  0.3195263E+04  0.7818609E-02  0.8190069E-01
       -2   -1    0    0    0  501  0.00000000000E+00  0.00000000000E+00  0.19389624862E+04  0.19389624862E+04  0.25500000920E-02 0. -1.
        2   -1    0    0  501    0  0.00000000000E+00  0.00000000000E+00 -0.13163873591E+04  0.13163873591E+04  0.25500000920E-02 0.  1.
    10030    2    1    2    0    0  0.00000000000E+00  0.00000000000E+00  0.62257512709E+03  0.32553498453E+04  0.31952625599E+04 0.  0.
        4    1    3    3  502    0  0.13846401206E+04 -0.37762762765E+03 -0.40376064968E+03  0.14909242650E+04  0.12699999809E+01 0.  1.
       -4    1    3    3    0  502 -0.13846401206E+04  0.37762762765E+03  0.10263357768E+04  0.17644255803E+04  0.12699999809E+01 0. -1.
</event>
<event>
 5   0  0.5177039E-07  0.3169039E+04  0.7818609E-02  0.8197042E-01
        1   -1    0    0  501    0  0.00000000000E+00  0.00000000000E+00  0.20476975673E+04  0.20476975673E+04  0.50400001928E-02 0.  1.
       -1   -1    0    0    0  501  0.00000000000E+00  0.00000000000E+00 -0.12261094582E+04  0.12261094582E+04  0.50400001928E-02 0. -1.
    10030    2    1    2    0    0  0.00000000000E+00  0.00000000000E+00  0.82158810908E+03  0.32738070255E+04  0.31690385639E+04 0.  0.
        3    1    3    3  502    0  0.93016516155E+03  0.40550470728E+03  0.16680158049E+04  0.19524133863E+04  0.10100000352E+00 0.  1.
       -3    1    3    3    0  502 -0.93016516155E+03 -0.40550470728E+03 -0.84642769580E+03  0.13213936392E+04  0.10100000352E+00 0. -1.
</event>
<event>
 5   0  0.5281187E-07  0.3222999E+04  0.7818609E-02  0.8182769E-01
        1   -1    0    0  501    0  0.00000000000E+00  0.00000000000E+00  0.15200790937E+04  0.15200790938E+04  0.50400001928E-02 0.  1.
       -1   -1    0    0    0  501  0.00000000000E+00  0.00000000000E+00 -0.17084183452E+04  0.17084183452E+04  0.50400001928E-02 0. -1.
    10030    2    1    2    0    0  0.00000000000E+00  0.00000000000E+00 -0.18833925142E+03  0.32284974389E+04  0.32229992305E+04 0.  0.
        5    1    3    3  502    0 -0.54293299902E+03 -0.15146182081E+04 -0.18412461534E+03  0.16194963790E+04  0.46999998093E+01 0. -1.
       -5    1    3    3    0  502  0.54293299902E+03  0.15146182081E+04 -0.42146360769E+01  0.16090010599E+04  0.46999998093E+01 0.  1.
</event>
<event>
 5   0  0.5233813E-07  0.3053395E+04  0.7818609E-02  0.8228646E-01
        1   -1    0    0  501    0  0.00000000000E+00  0.00000000000E+00  0.26825169897E+04  0.26825169897E+04  0.50400001928E-02 0. -1.
       -1   -1    0    0    0  501  0.00000000000E+00  0.00000000000E+00 -0.86888732792E+03  0.86888732793E+03  0.50400001928E-02 0.  1.
    10030    2    1    2    0    0  0.00000000000E+00  0.00000000000E+00  0.18136296618E+04  0.35514043176E+04  0.30533948446E+04 0.  0.
        4    1    3    3  502    0  0.55946297162E+03 -0.31733901024E+03  0.25172364622E+04  0.25981115995E+04  0.12699999809E+01 0. -1.
       -4    1    3    3    0  502 -0.55946297162E+03  0.31733901024E+03 -0.70360680038E+03  0.95329271815E+03  0.12699999809E+01 0.  1.
</event>
<event>
 5   0  0.1493485E-06  0.3110942E+04  0.7818609E-02  0.8212741E-01
        2   -1    0    0  501    0  0.00000000000E+00  0.00000000000E+00  0.24499768919E+04  0.24499768919E+04  0.25500000920E-02 0. -1.
       -2   -1    0    0    0  501  0.00000000000E+00  0.00000000000E+00 -0.98755636103E+03  0.98755636103E+03  0.25500000920E-02 0.  1.
    10030    2    1    2    0    0  0.00000000000E+00  0.00000000000E+00  0.14624205309E+04  0.34375332530E+04  0.31109421493E+04 0.  0.
        2    1    3    3  502    0 -0.18931257719E+03 -0.10497392286E+04  0.19821832236E+04  0.22509646891E+04  0.25500000920E-02 0. -1.
       -2    1    3    3    0  502  0.18931257719E+03  0.10497392286E+04 -0.51976269266E+03  0.11865685638E+04  0.25500000920E-02 0.  1.
</event>
<event>
 5   0  0.1508771E-06  0.3195211E+04  0.7818609E-02  0.8190083E-01
       -2   -1    0    0    0  501  0.00000000000E+00  0.00000000000E+00  0.18496715328E+04  0.18496715328E+04  0.25500000920E-02 0.  1.
        2   -1    0    0  501    0  0.00000000000E+00  0.00000000000E+00 -0.13798896441E+04  0.13798896441E+04  0.25500000920E-02 0. -1.
    10030    2    1    2    0    0  0.00000000000E+00  0.00000000000E+00  0.46978188879E+03  0.32295611769E+04  0.31952105365E+04 0.  0.
        4    1    3    3  502    0  0.10756560046E+04 -0.65186925372E+03 -0.76077368305E+03  0.14699481534E+04  0.12699999809E+01 0. -1.
       -4    1    3    3    0  502 -0.10756560046E+04  0.65186925372E+03  0.12305555718E+04  0.17596130235E+04  0.12699999809E+01 0.  1.
</event>
<event>
 5   0  0.1508771E-06  0.3105329E+04  0.7818609E-02  0.8214277E-01
       -2   -1    0    0    0  501  0.00000000000E+00  0.00000000000E+00  0.14960637200E+04  0.14960637200E+04  0.25500000920E-02 0.  1.
        2   -1    0    0  501    0  0.00000000000E+00  0.00000000000E+00 -0.16114064510E+04  0.16114064510E+04  0.25500000920E-02 0. -1.
    10030    2    1    2    0    0  0.00000000000E+00  0.00000000000E+00 -0.11534273095E+03  0.31074701710E+04  0.31053287938E+04 0.  0.
        4    1    3    3  502    0 -0.15019660051E+03 -0.14903478912E+04 -0.46669429398E+03  0.15689171529E+04  0.12699999809E+01 0.  1.
       -4    1    3    3    0  502  0.15019660051E+03  0.14903478912E+04  0.35135156302E+03  0.15385530181E+04  0.12699999809E+01 0. -1.
</event>
<event>
 5   0  0.5233813E-07  0.3196138E+04  0.7818609E-02  0.8189838E-01
       -1   -1    0    0    0  501  0.00000000000E+00  0.00000000000E+00  0.11656017469E+04  0.11656017469E+04  0.50400001928E-02 0. -1.
        1   -1    0    0  501    0  0.00000000000E+00  0.00000000000E+00 -0.21909925488E+04  0.21909925488E+04  0.50400001928E-02 0.  1.
    10030    2    1    2    0    0  0.00000000000E+00  0.00000000000E+00 -0.10253908019E+04  0.33565942957E+04  0.31961381336E+04 0.  0.
        4    1    3    3  502    0 -0.98087544666E+03  0.87696553742E+03 -0.14652232398E+04  0.19692805669E+04  0.12699999809E+01 0. -1.
       -4    1    3    3    0  502  0.98087544666E+03 -0.87696553742E+03  0.43983243793E+03  0.13873137288E+04  0.12699999809E+01 0.  1.
</event>
<event>
 5   0  0.1493485E-06  0.3213454E+04  0.7818609E-02  0.8185273E-01
       -2   -1    0    0    0  501  0.00000000000E+00  0.00000000000E+00  0.11892708044E+04  0.11892708044E+04  0.25500000920E-02 0. -1.
        2   -1    0    0  501    0  0.00000000000E+00  0.00000000000E+00 -0.21707185591E+04  0.21707185591E+04  0.25500000920E-02 0.  1.
    10030    2    1    2    0    0  0.00000000000E+00  0.00000000000E+00 -0.98144775470E+03  0.33599893635E+04  0.32134543451E+04 0.  0.
        2    1    3    3  502    0 -0.24905095842E+02 -0.15181554538E+04 -0.10401926046E+04  0.18404936567E+04  0.25500000920E-02 0.  1.
       -2    1    3    3    0  502  0.24905095842E+02  0.15181554538E+04  0.58744849874E+02  0.15194957068E+04  0.25500000920E-02 0. -1.
</event>
<event>
 5   0  0.1508771E-06  0.3192181E+04  0.7818609E-02  0.8190885E-01
       -2   -1    0    0    0  501  0.00000000000E+00  0.00000000000E+00  0.12602328340E+04  0.12602328340E+04  0.25500000920E-02 0.  1.
        2   -1    0    0  501    0  0.00000000000E+00  0.00000000000E+00 -0.20214555463E+04  0.20214555463E+04  0.25500000920E-02 0. -1.
    10030    2    1    2    0    0  0.00000000000E+00  0.00000000000E+00 -0.76122271230E+03  0.32816883804E+04  0.31921808546E+04 0.  0.
        4    1    3    3  502    0 -0.30797342964E+03 -0.44511998239E+03  0.11629974388E+04  0.12827876238E+04  0.12699999809E+01 0.  1.
       -4    1    3    3    0  502  0.30797342964E+03  0.44511998239E+03 -0.19242201511E+04  0.19989007566E+04  0.12699999809E+01 0. -1.
</event>
<event>
 5   0  0.1572769E-06  0.3197846E+04  0.7818609E-02  0.8189386E-01
       -2   -1    0    0    0  501  0.00000000000E+00  0.00000000000E+00  0.86828274086E+03  0.86828274087E+03  0.25500000920E-02 0.  1.
        2   -1    0    0  501    0  0.00000000000E+00  0.00000000000E+00 -0.29443798965E+04  0.29443798965E+04  0.25500000920E-02 0. -1.
    10030    2    1    2    0    0  0.00000000000E+00  0.00000000000E+00 -0.20760971557E+04  0.38126626374E+04  0.31978456790E+04 0.  0.
        5    1    3    3  502    0  0.12124510958E+04 -0.75820579195E+03 -0.18525487320E+03  0.14419622536E+04  0.46999998093E+01 0.  1.
       -5    1    3    3    0  502 -0.12124510958E+04  0.75820579195E+03 -0.18908422825E+04  0.23707003838E+04  0.46999998093E+01 0. -1.
</event>
<event>
 5   0  0.5317728E-07  0.3196922E+04  0.7818609E-02  0.8189631E-01
       -1   -1    0    0    0  501  0.00000000000E+00  0.00000000000E+00  0.13637029232E+04  0.13637029232E+04  0.50400001928E-02 0. -1.
        1   -1    0    0  501    0  0.00000000000E+00  0.00000000000E+00 -0.18736319256E+04  0.18736319256E+04  0.50400001928E-02 0.  1.
    10030    2    1    2    0    0  0.00000000000E+00  0.00000000000E+00 -0.50992900238E+03  0.32373348487E+04  0.31969218532E+04 0.  0.
        2    1    3    3  502    0  0.67002478932E+03  0.46938943387E+03  0.11356458343E+04  0.13996253499E+04  0.25500000920E-02 0. -1.
       -2    1    3    3    0  502 -0.67002478932E+03 -0.46938943387E+03 -0.16455748367E+04  0.18377094989E+04  0.25500000920E-02 0.  1.
</event>
<event>
 5   0  0.1556396E-06  0.3200077E+04  0.7818609E-02  0.8188797E-01
       -2   -1    0    0    0  501  0.00000000000E+00  0.00000000000E+00  0.12518986928E+04  0.12518986928E+04  0.25500000920E-02 0.  1.
        2   -1    0    0  501    0  0.00000000000E+00  0.00000000000E+00 -0.20449920523E+04  0.20449920523E+04  0.25500000920E-02 0. -1.
    10030    2    1    2    0    0  0.00000000000E+00  0.00000000000E+00 -0.79309335957E+03  0.32968907451E+04  0.32000767972E+04 0.  0.
        3    1    3    3  502    0  0.12081704328E+04  0.10022996946E+04 -0.77596404246E+02  0.15717193403E+04  0.10100000352E+00 0.  1.
       -3    1    3    3    0  502 -0.12081704328E+04 -0.10022996946E+04 -0.71549695532E+03  0.17251714048E+04  0.10100000352E+00 0. -1.
</event>
<event>
 5   0  0.5281187E-07  0.3188998E+04  0.7818609E-02  0.8191729E-01
        1   -1    0    0  501    0  0.00000000000E+00  0.00000000000E+00  0.14126456889E+04  0.14126456889E+04  0.50400001928E-02 0.  1.
       -1   -1    0    0    0  501  0.00000000000E+00  0.00000000000E+00 -0.17997622588E+04  0.17997622588E+04  0.50400001928E-02 0. -1.
    10030    2    1    2    0    0  0.00000000000E+00  0.00000000000E+00 -0.38711656990E+03  0.32124079477E+04  0.31889975829E+04 0.  0.
        5    1    3    3  502    0 -0.37636907236E+02  0.15937406541E+04 -0.22506884746E+03  0.16100012067E+04  0.46999998093E+01 0. -1.
       -5    1    3    3    0  502  0.37636907236E+02 -0.15937406541E+04 -0.16204772244E+03  0.16024067410E+04  0.46999998093E+01 0.  1.
</event>
<event>
 5   0  0.5317728E-07  0.3198574E+04  0.7818609E-02  0.8189194E-01
       -1   -1    0    0    0  501  0.00000000000E+00  0.00000000000E+00  0.14859525045E+04  0.14859525045E+04  0.50400001928E-02 0. -1.
        1   -1    0    0  501    0  0.00000000000E+00  0.00000000000E+00 -0.17212651005E+04  0.17212651005E+04  0.50400001928E-02 0.  1.
    10030    2    1    2    0    0  0.00000000000E+00  0.00000000000E+00 -0.23531259594E+03  0.32072176050E+04  0.31985735489E+04 0.  0.
        2    1    3    3  502    0 -0.11698301999E+03 -0.43412209446E+03  0.14212784316E+04  0.14906976219E+04  0.25500000920E-02 0. -1.
       -2    1    3    3    0  502  0.11698301999E+03  0.43412209446E+03 -0.16565910275E+04  0.17165199831E+04  0.25500000920E-02 0.  1.
</event>
<event>
 5   0  0.1538349E-06  0.3226917E+04  0.7818609E-02  0.8181744E-01
        2   -1    0    0  501    0  0.00000000000E+00  0.00000000000E+00  0.24458380154E+04  0.24458380154E+04  0.25500000920E-02 0.  1.
       -2   -1    0    0    0  501  0.00000000000E+00  0.00000000000E+00 -0.10643586331E+04  0.10643586331E+04  0.25500000920E-02 0. -1.
    10030    2    1    2    0    0  0.00000000000E+00  0.00000000000E+00  0.13814793822E+04  0.35101966485E+04  0.32269172948E+04 0.  0.
        1    1    3    3  502    0 -0.11503055347E+04  0.75087311086E+03  0.16113409210E+04  0.21174118199E+04  0.50400001928E-02 0.  1.
       -1    1    3    3    0  502  0.11503055347E+04 -0.75087311086E+03 -0.22986153873E+03  0.13927848286E+04  0.50400001928E-02 0. -1.
</event>
<event>
 5   0  0.5233813E-07  0.3216357E+04  0.7818609E-02  0.8184511E-01
       -1   -1    0    0    0  501  0.00000000000E+00  0.00000000000E+00  0.15033811327E+04  0.15033811327E+04  0.50400001928E-02 0. -1.
        1   -1    0    0  501    0  0.00000000000E+00  0.00000000000E+00 -0.17202805341E+04  0.17202805341E+04  0.50400001928E-02 0.  1.
    10030    2    1    2    0    0  0.00000000000E+00  0.00000000000E+00 -0.21689940144E+03  0.32236616668E+04  0.32163565088E+04 0.  0.
        4    1    3    3  502    0 -0.92877287640E+03  0.13102056745E+03 -0.14177283578E+04  0.16999237496E+04  0.12699999809E+01 0.  1.
       -4    1    3    3    0  502  0.92877287640E+03 -0.13102056745E+03  0.12008289564E+04  0.15237379172E+04  0.12699999809E+01 0. -1.
</event>
<event>
 5   0  0.1556396E-06  0.3223708E+04  0.7818609E-02  0.8182584E-01
       -2   -1    0    0    0  501  0.00000000000E+00  0.00000000000E+00  0.14833269089E+04  0.14833269089E+04  0.25500000920E-02 0. -1.
        2   -1    0    0  501    0  0.00000000000E+00  0.00000000000E+00 -0.17515172561E+04  0.17515172561E+04  0.25500000920E-02 0.  1.
    10030    2    1    2    0    0  0.00000000000E+00  0.00000000000E+00 -0.26819034720E+03  0.32348441650E+04  0.32237076030E+04 0.  0.
        3    1    3    3  502    0  0.12507891786E+04  0.76943006591E+03 -0.80090299132E+03  0.16727049373E+04  0.10100000352E+00 0. -1.
       -3    1    3    3    0  502 -0.12507891786E+04 -0.76943006591E+03  0.53271264411E+03  0.15621392278E+04  0.10100000352E+00 0.  1.
</event>
<event>
 5   0  0.5281187E-07  0.3198070E+04  0.7818609E-02  0.8189327E-01
        1   -1    0    0  501    0  0.00000000000E+00  0.00000000000E+00  0.15219862914E+04  0.15219862914E+04  0.50400001928E-02 0.  1.
       -1   -1    0    0    0  501  0.00000000000E+00  0.00000000000E+00 -0.16799842484E+04  0.16799842484E+04  0.50400001928E-02 0. -1.
    10030    2    1    2    0    0  0.00000000000E+00  0.00000000000E+00 -0.15799795694E+03  0.32019705398E+04  0.31980700404E+04 0.  0.
        5    1    3    3  502    0  0.20276021940E+03 -0.91850045250E+03 -0.13736871336E+04  0.16648703309E+04  0.46999998093E+01 0. -1.
       -5    1    3    3    0  502 -0.20276021940E+03  0.91850045250E+03  0.12156891767E+04  0.15371002089E+04  0.46999998093E+01 0.  1.
</event>
<event>
 5   0  0.5177039E-07  0.3200205E+04  0.7818609E-02  0.8188763E-01
        1   -1    0    0  501    0  0.00000000000E+00  0.00000000000E+00  0.14814040075E+04  0.14814040075E+04  0.50400001928E-02 0.  1.
       -1   -1    0    0    0  501  0.00000000000E+00  0.00000000000E+00 -0.17283122044E+04  0.17283122044E+04  0.50400001928E-02 0. -1.
    10030    2    1    2    0    0  0.00000000000E+00  0.00000000000E+00 -0.24690819691E+03  0.32097162118E+04  0.32002053845E+04 0.  0.
        3    1    3    3  502    0  0.61875824109E+02  0.11618793633E+04 -0.12251430354E+04  0.16896057942E+04  0.10100000352E+00 0. -1.
       -3    1    3    3    0  502 -0.61875824109E+02 -0.11618793633E+04  0.97823483844E+03  0.15201104176E+04  0.10100000352E+00 0.  1.
</event>
<event>
 5   0  0.4995625E-07  0.3224488E+04  0.7818609E-02  0.8182380E-01
        3   -1    0    0  501    0  0.00000000000E+00  0.00000000000E+00  0.24668849266E+04  0.24668849287E+04  0.10100000352E+00 0.  1.
       -3   -1    0    0    0  501  0.00000000000E+00  0.00000000000E+00 -0.10536894333E+04  0.10536894381E+04  0.10100000352E+00 0. -1.
    10030    2    1    2    0    0  0.00000000000E+00  0.00000000000E+00  0.14131954933E+04  0.35205743668E+04  0.32244879237E+04 0.  0.
        4    1    3    3  502    0 -0.13460031151E+04 -0.28757270258E+03  0.16232793930E+04  0.21282528153E+04  0.12699999809E+01 0.  1.
       -4    1    3    3    0  502  0.13460031151E+04  0.28757270258E+03 -0.21008389962E+03  0.13923215515E+04  0.12699999809E+01 0. -1.
</event>
<event>
 5   0  0.1493485E-06  0.3197567E+04  0.7818609E-02  0.8189460E-01
        2   -1    0    0  501    0  0.00000000000E+00  0.00000000000E+00  0.20421105279E+04  0.20421105279E+04  0.25500000920E-02 0.  1.
       -2   -1    0    0    0  501  0.00000000000E+00  0.00000000000E+00 -0.12516991861E+04  0.12516991861E+04  0.25500000920E-02 0. -1.
    10030    2    1    2    0    0  0.00000000000E+00  0.00000000000E+00  0.79041134188E+03  0.32938097140E+04  0.31975666284E+04 0.  0.
        2    1    3    3  502    0  0.13842981852E+04 -0.78358679401E+03  0.22968844508E+03  0.16071858981E+04  0.25500000920E-02 0. -1.
       -2    1    3    3    0  502 -0.13842981852E+04  0.78358679401E+03  0.56072289680E+03  0.16866238159E+04  0.25500000920E-02 0.  1.
</event>
<event>
 5   0  0.1572769E-06  0.3192953E+04  0.7818609E-02  0.8190681E-01
       -2   -1    0    0    0  501  0.00000000000E+00  0.00000000000E+00  0.24290636883E+04  0.24290636883E+04  0.25500000920E-02 0. -1.
        2   -1    0    0  501    0  0.00000000000E+00  0.00000000000E+00 -0.10492675472E+04  0.10492675472E+04  0.25500000920E-02 0.  1.
    10030    2    1    2    0    0  0.00000000000E+00  0.00000000000E+00  0.13797961411E+04  0.34783312355E+04  0.31929533027E+04 0.  0.
        5    1    3    3  502    0  0.15903821200E+04 -0.12716410902E+03  0.62798912371E+03  0.17146073684E+04  0.46999998093E+01 0.  1.
       -5    1    3    3    0  502 -0.15903821200E+04  0.12716410902E+03  0.75180701741E+03  0.17637238672E+04  0.46999998093E+01 0. -1.
</event>
<event>
 5   0  0.5233813E-07  0.3214325E+04  0.7818609E-02  0.8185044E-01
       -1   -1    0    0    0  501  0.00000000000E+00  0.00000000000E+00  0.21807114145E+04  0.21807114145E+04  0.50400001928E-02 0. -1.
        1   -1    0    0  501    0  0.00000000000E+00  0.00000000000E+00 -0.11844624041E+04  0.11844624041E+04  0.50400001928E-02 0.  1.
    10030    2    1    2    0    0  0.00000000000E+00  0.00000000000E+00  0.99624901045E+03  0.33651738186E+04  0.32143246163E+04 0.  0.
        4    1    3    3  502    0  0.11961590239E+04  0.19461883191E+03 -0.60701750014E+03  0.13554131321E+04  0.12699999809E+01 0.  1.
       -4    1    3    3    0  502 -0.11961590239E+04 -0.19461883191E+03  0.16032665106E+04  0.20097606865E+04  0.12699999809E+01 0. -1.
</event>
<event>
 5   0  0.1508771E-06  0.3234660E+04  0.7818609E-02  0.8179723E-01
        2   -1    0    0  501    0  0.00000000000E+00  0.00000000000E+00  0.20290823890E+04  0.20290823890E+04  0.25500000920E-02 0. -1.
       -2   -1    0    0    0  501  0.00000000000E+00  0.00000000000E+00 -0.12891326913E+04  0.12891326913E+04  0.25500000920E-02 0.  1.
    10030    2    1    2    0    0  0.00000000000E+00  0.00000000000E+00  0.73994969773E+03  0.33182150802E+04  0.32346600692E+04 0.  0.
        4    1    3    3  502    0  0.11437573051E+04 -0.90291724077E+03  0.10897505877E+04  0.18196148694E+04  0.12699999809E+01 0. -1.
       -4    1    3    3    0  502 -0.11437573051E+04  0.90291724077E+03 -0.34980088995E+03  0.14986002109E+04  0.12699999809E+01 0.  1.
</event>
<event>
 5   0  0.5281187E-07  0.3190354E+04  0.7818609E-02  0.8191369E-01
        1   -1    0    0  501    0  0.00000000000E+00  0.00000000000E+00  0.17819058727E+04  0.17819058727E+04  0.50400001928E-02 0. -1.
       -1   -1    0    0    0  501  0.00000000000E+00  0.00000000000E+00 -0.14280156335E+04  0.14280156335E+04  0.50400001928E-02 0.  1.
    10030    2    1    2    0    0  0.00000000000E+00  0.00000000000E+00  0.35389023914E+03  0.32099215062E+04  0.31903538636E+04 0.  0.
        5    1    3    3  502    0 -0.99844146773E+03  0.92827954450E+03  0.10102635571E+04  0.16968331745E+04  0.46999998093E+01 0. -1.
       -5    1    3    3    0  502  0.99844146773E+03 -0.92827954450E+03 -0.65637331794E+03  0.15130883318E+04  0.46999998093E+01 0.  1.
</event>
<event>
 5   0  0.1493485E-06  0.3063933E+04  0.7818609E-02  0.8225706E-01
        2   -1    0    0  501    0  0.00000000000E+00  0.00000000000E+00  0.15126116642E+04  0.15126116643E+04  0.25500000920E-02 0. -1.
       -2   -1    0    0    0  501  0.00000000000E+00  0.00000000000E+00 -0.15515689811E+04  0.15515689811E+04  0.25500000920E-02 0.  1.
    10030    2    1    2    0    0  0.00000000000E+00  0.00000000000E+00 -0.38957316806E+02  0.30641806453E+04  0.30639329879E+04 0.  0.
        2    1    3    3  502    0 -0.50033798130E+03 -0.14424760716E+04  0.10641251546E+03  0.15304897700E+04  0.25500000920E-02 0. -1.
       -2    1    3    3    0  502  0.50033798130E+03  0.14424760716E+04 -0.14536983227E+03  0.15336908753E+04  0.25500000920E-02 0.  1.
</event>
<event>
 5   0  0.1556396E-06  0.3241657E+04  0.7818609E-02  0.8177902E-01
       -2   -1    0    0    0  501  0.00000000000E+00  0.00000000000E+00  0.19295069298E+04  0.19295069298E+04  0.25500000920E-02 0. -1.
        2   -1    0    0  501    0  0.00000000000E+00  0.00000000000E+00 -0.13615315582E+04  0.13615315582E+04  0.25500000920E-02 0.  1.
    10030    2    1    2    0    0  0.00000000000E+00  0.00000000000E+00  0.56797537157E+03  0.32910384880E+04  0.32416567225E+04 0.  0.
        3    1    3    3  502    0 -0.61150872747E+03 -0.98920591595E+03 -0.86219847634E+03  0.14477076676E+04  0.10100000352E+00 0.  1.
       -3    1    3    3    0  502  0.61150872747E+03  0.98920591595E+03  0.14301738479E+04  0.18433308204E+04  0.10100000352E+00 0. -1.
</event>
<event>
 5   0  0.5317728E-07  0.3191361E+04  0.7818609E-02  0.8191102E-01
        1   -1    0    0  501    0  0.00000000000E+00  0.00000000000E+00  0.16156640324E+04  0.16156640324E+04  0.50400001928E-02 0.  1.
       -1   -1    0    0    0  501  0.00000000000E+00  0.00000000000E+00 -0.15759439832E+04  0.15759439832E+04  0.50400001928E-02 0. -1.
    10030    2    1    2    0    0  0.00000000000E+00  0.00000000000E+00  0.39720049219E+02  0.31916080156E+04  0.31913608450E+04 0.  0.
        2    1    3    3  502    0  0.42854385342E+03 -0.13849406463E+04  0.68660917996E+03  0.16041018029E+04  0.25500000920E-02 0.  1.
       -2    1    3    3    0  502 -0.42854385342E+03  0.13849406463E+04 -0.64688913074E+03  0.15875062127E+04  0.25500000920E-02 0. -1.
</event>
<event>
 5   0  0.5281187E-07  0.3319589E+04  0.7818609E-02  0.8157929E-01
       -1   -1    0    0    0  501  0.00000000000E+00  0.00000000000E+00  0.15156259558E+04  0.15156259558E+04  0.50400001928E-02 0.  1.
        1   -1    0    0  501    0  0.00000000000E+00  0.00000000000E+00 -0.18176764049E+04  0.18176764049E+04  0.50400001928E-02 0. -1.
    10030    2    1    2    0    0  0.00000000000E+00  0.00000000000E+00 -0.30205044905E+03  0.33333023607E+04  0.33195888532E+04 0.  0.
        5    1    3    3  502    0  0.26283862073E+03 -0.11363829435E+04  0.10347192914E+04  0.15592037829E+04  0.46999998093E+01 0.  1.
       -5    1    3    3    0  502 -0.26283862073E+03  0.11363829435E+04 -0.13367697404E+04  0.17740985778E+04  0.46999998093E+01 0. -1.
</event>
<event>
 5   0  0.1556396E-06  0.3196240E+04  0.7818609E-02  0.8189811E-01
        2   -1    0    0  501    0  0.00000000000E+00  0.00000000000E+00  0.15989499186E+04  0.15989499186E+04  0.25500000920E-02 0.  1.
       -2   -1    0    0    0  501  0.00000000000E+00  0.00000000000E+00 -0.15972908347E+04  0.15972908347E+04  0.25500000920E-02 0. -1.
    10030    2    1    2    0    0  0.00000000000E+00  0.00000000000E+00  0.16590839100E+01  0.31962407533E+04  0.31962403227E+04 0.  0.
        3    1    3    3  502    0  0.14095013563E+04 -0.72425825893E+03  0.20757564800E+03  0.15982276931E+04  0.10100000352E+00 0. -1.
       -3    1    3    3    0  502 -0.14095013563E+04  0.72425825893E+03 -0.20591656409E+03  0.15980130602E+04  0.10100000352E+00 0.  1.
</event>
<event>
 5   0  0.1556396E-06  0.3262320E+04  0.7818609E-02  0.8172550E-01
       -2   -1    0    0    0  501  0.00000000000E+00  0.00000000000E+00  0.17307254802E+04  0.17307254802E+04  0.25500000920E-02 0. -1.
        2   -1    0    0  501    0  0.00000000000E+00  0.00000000000E+00 -0.15373225842E+04  0.15373225842E+04  0.25500000920E-02 0.  1.
    10030    2    1    2    0    0  0.00000000000E+00  0.00000000000E+00  0.19340289597E+03  0.32680480645E+04  0.32623202589E+04 0.  0.
        3    1    3    3  502    0  0.12083810450E+04 -0.84867904998E+03 -0.59751056993E+03  0.15929406051E+04  0.10100000352E+00 0.  1.
       -3    1    3    3    0  502 -0.12083810450E+04  0.84867904998E+03  0.79091346590E+03  0.16751074594E+04  0.10100000352E+00 0. -1.
</event>
<event>
 5   0  0.1493485E-06  0.3209759E+04  0.7818609E-02  0.8186245E-01
       -2   -1    0    0    0  501  0.00000000000E+00  0.00000000000E+00  0.13331040454E+04  0.13331040454E+04  0.25500000920E-02 0.  1.
        2   -1    0    0  501    0  0.00000000000E+00  0.00000000000E+00 -0.19320607487E+04  0.19320607487E+04  0.25500000920E-02 0. -1.
    10030    2    1    2    0    0  0.00000000000E+00  0.00000000000E+00 -0.59895670335E+03  0.32651647941E+04  0.32097588695E+04 0.  0.
        2    1    3    3  502    0 -0.92248467379E+03 -0.12082493652E+04  0.22398508977E+03  0.15365590852E+04  0.25500000920E-02 0. -1.
       -2    1    3    3    0  502  0.92248467379E+03  0.12082493652E+04 -0.82294179312E+03  0.17286057089E+04  0.25500000920E-02 0.  1.
</event>
<event>
 5   0  0.5370912E-07  0.3218205E+04  0.7818609E-02  0.8184026E-01
        1   -1    0    0  501    0  0.00000000000E+00  0.00000000000E+00  0.23055900171E+04  0.23055900171E+04  0.50400001928E-02 0. -1.
       -1   -1    0    0    0  501  0.00000000000E+00  0.00000000000E+00 -0.11230143366E+04  0.11230143366E+04  0.50400001928E-02 0.  1.
    10030    2    1    2    0    0  0.00000000000E+00  0.00000000000E+00  0.11825756805E+04  0.34286043537E+04  0.32182048682E+04 0.  0.
        1    1    3    3  502    0 -0.40497703959E+03 -0.14353209681E+04 -0.52413770281E+02  0.14922800968E+04  0.50400001928E-02 0.  1.
       -1    1    3    3    0  502  0.40497703959E+03  0.14353209681E+04  0.12349894507E+04  0.19363242568E+04  0.50400001928E-02 0. -1.
</event>
<event>
 5   0  0.1508771E-06  0.3223629E+04  0.7818609E-02  0.8182604E-01
       -2   -1    0    0    0  501  0.00000000000E+00  0.00000000000E+00  0.11139624641E+04  0.11139624641E+04  0.25500000920E-02 0.  1.
        2   -1    0    0  501    0  0.00000000000E+00  0.00000000000E+00 -0.23321672009E+04  0.23321672009E+04  0.25500000920E-02 0. -1.
    10030    2    1    2    0    0  0.00000000000E+00  0.00000000000E+00 -0.12182047368E+04  0.34461296650E+04  0.32236294588E+04 0.  0.
        4    1    3    3  502    0  0.21186194469E+03  0.15108757628E+04 -0.53299463858E+02  0.15265888444E+04  0.12699999809E+01 0.  1.
       -4    1    3    3    0  502 -0.21186194469E+03 -0.15108757628E+04 -0.11649052730E+04  0.19195408206E+04  0.12699999809E+01 0. -1.
</event>
<event>
 5   0  0.1556396E-06  0.3195467E+04  0.7818609E-02  0.8190015E-01
        2   -1    0    0  501    0  0.00000000000E+00  0.00000000000E+00  0.12738462158E+04  0.12738462158E+04  0.25500000920E-02 0. -1.
       -2   -1    0    0    0  501  0.00000000000E+00  0.00000000000E+00 -0.20039718224E+04  0.20039718224E+04  0.25500000920E-02 0.  1.
    10030    2    1    2    0    0  0.00000000000E+00  0.00000000000E+00 -0.73012560656E+03  0.32778180382E+04  0.31954667406E+04 0.  0.
        3    1    3    3  502    0 -0.66625016033E+03 -0.29920968737E+02  0.11242381978E+04  0.13071710202E+04  0.10100000352E+00 0. -1.
       -3    1    3    3    0  502  0.66625016033E+03  0.29920968737E+02 -0.18543638043E+04  0.19706470180E+04  0.10100000352E+00 0.  1.
</event>
<event>
 5   0  0.5317728E-07  0.3192960E+04  0.7818609E-02  0.8190679E-01
       -1   -1    0    0    0  501  0.00000000000E+00  0.00000000000E+00  0.10604401075E+04  0.10604401075E+04  0.50400001928E-02 0.  1.
        1   -1    0    0  501    0  0.00000000000E+00  0.00000000000E+00 -0.24034811565E+04  0.24034811565E+04  0.50400001928E-02 0. -1.
    10030    2    1    2    0    0  0.00000000000E+00  0.00000000000E+00 -0.13430410490E+04  0.34639212639E+04  0.31929596401E+04 0.  0.
        2    1    3    3  502    0 -0.13038589677E+03 -0.11858147182E+03  0.10498538969E+04  0.10645446221E+04  0.25500000920E-02 0.  1.
       -2    1    3    3    0  502  0.13038589677E+03  0.11858147182E+03 -0.23928949459E+04  0.23993766419E+04  0.25500000920E-02 0. -1.
</event>
<event>
 5   0  0.5370912E-07  0.3210221E+04  0.7818609E-02  0.8186123E-01
        1   -1    0    0  501    0  0.00000000000E+00  0.00000000000E+00  0.19607581042E+04  0.19607581042E+04  0.50400001928E-02 0.  1.
       -1   -1    0    0    0  501  0.00000000000E+00  0.00000000000E+00 -0.13139715105E+04  0.13139715105E+04  0.50400001928E-02 0. -1.
    10030    2    1    2    0    0  0.00000000000E+00  0.00000000000E+00  0.64678659375E+03  0.32747296147E+04  0.32102213555E+04 0.  0.
        1    1    3    3  502    0  0.12751788373E+04 -0.93986485351E+03  0.58734616788E+03  0.16894977155E+04  0.50400001928E-02 0.  1.
       -1    1    3    3    0  502 -0.12751788373E+04  0.93986485351E+03  0.59440425870E+02  0.15852318992E+04  0.50400001928E-02 0. -1.
</event>
<event>
 5   0  0.1538349E-06  0.3175371E+04  0.7818609E-02  0.8195352E-01
        2   -1    0    0  501    0  0.00000000000E+00  0.00000000000E+00  0.17954344461E+04  0.17954344461E+04  0.25500000920E-02 0. -1.
       -2   -1    0    0    0  501  0.00000000000E+00  0.00000000000E+00 -0.14039748586E+04  0.14039748586E+04  0.25500000920E-02 0.  1.
    10030    2    1    2    0    0  0.00000000000E+00  0.00000000000E+00  0.39145958748E+03  0.31994093047E+04  0.31753707327E+04 0.  0.
        1    1    3    3  502    0 -0.15743265762E+04  0.14989072759E+03  0.54047264534E+02  0.15823692697E+04  0.50400001928E-02 0. -1.
       -1    1    3    3    0  502  0.15743265762E+04 -0.14989072759E+03  0.33741232295E+03  0.16170400349E+04  0.50400001928E-02 0.  1.
</event>
<event>
 5   0  0.5281187E-07  0.3252031E+04  0.7818609E-02  0.8175210E-01
       -1   -1    0    0    0  501  0.00000000000E+00  0.00000000000E+00  0.17770274296E+04  0.17770274296E+04  0.50400001928E-02 0.  1.
        1   -1    0    0  501    0  0.00000000000E+00  0.00000000000E+00 -0.14878361975E+04  0.14878361975E+04  0.50400001928E-02 0. -1.
    10030    2    1    2    0    0  0.00000000000E+00  0.00000000000E+00  0.28919123203E+03  0.32648636271E+04  0.32520305864E+04 0.  0.
        5    1    3    3  502    0  0.13745683366E+04  0.44157180671E+03  0.89553115285E+03  0.16989472941E+04  0.46999998093E+01 0.  1.
       -5    1    3    3    0  502 -0.13745683366E+04 -0.44157180671E+03 -0.60633992082E+03  0.15659163330E+04  0.46999998093E+01 0. -1.
</event>
<event>
 5   0  0.5370912E-07  0.3228024E+04  0.7818609E-02  0.8181455E-01
       -1   -1    0    0    0  501  0.00000000000E+00  0.00000000000E+00  0.10492992773E+04  0.10492992773E+04  0.50400001928E-02 0.  1.
        1   -1    0    0  501    0  0.00000000000E+00  0.00000000000E+00 -0.24826425929E+04  0.24826425929E+04  0.50400001928E-02 0. -1.
    10030    2    1    2    0    0  0.00000000000E+00  0.00000000000E+00 -0.14333433156E+04  0.35319418702E+04  0.32280242121E+04 0.  0.
        1    1    3    3  502    0 -0.45405927222E+03  0.37223737930E+02 -0.24108308962E+04  0.24534997533E+04  0.50400001928E-02 0. -1.
       -1    1    3    3    0  502  0.45405927222E+03 -0.37223737930E+02  0.97748758056E+03  0.10784421169E+04  0.50400001928E-02 0.  1.
</event>
<event>
 5   0  0.1556396E-06  0.3141500E+04  0.7818609E-02  0.8204440E-01
        2   -1    0    0  501    0  0.00000000000E+00  0.00000000000E+00  0.24632236631E+04  0.24632236631E+04  0.25500000920E-02 0. -1.
       -2   -1    0    0    0  501  0.00000000000E+00  0.00000000000E+00 -0.10016370476E+04  0.10016370476E+04  0.25500000920E-02 0.  1.
    10030    2    1    2    0    0  0.00000000000E+00  0.00000000000E+00  0.14615866155E+04  0.34648607107E+04  0.31415003278E+04 0.  0.
        3    1    3    3  502    0  0.79624024187E+03  0.13049841096E+04  0.33270669284E+03  0.15645049705E+04  0.10100000352E+00 0.  1.
       -3    1    3    3    0  502 -0.79624024187E+03 -0.13049841096E+04  0.11288799227E+04  0.19003557401E+04  0.10100000352E+00 0. -1.
</event>
<event>
 5   0  0.5370912E-07  0.3201039E+04  0.7818609E-02  0.8188543E-01
        1   -1    0    0  501    0  0.00000000000E+00  0.00000000000E+00  0.16774644805E+04  0.16774644805E+04  0.50400001928E-02 0.  1.
       -1   -1    0    0    0  501  0.00000000000E+00  0.00000000000E+00 -0.15271042700E+04  0.15271042700E+04  0.50400001928E-02 0. -1.
    10030    2    1    2    0    0  0.00000000000E+00  0.00000000000E+00  0.15036021058E+03  0.32045687505E+04  0.32010393131E+04 0.  0.
        1    1    3    3  502    0  0.26414158971E+03 -0.13120078725E+04  0.95394504807E+03  0.16435165323E+04  0.50400001928E-02 0.  1.
       -1    1    3    3    0  502 -0.26414158971E+03  0.13120078725E+04 -0.80358483749E+03  0.15610522182E+04  0.50400001928E-02 0. -1.
</event>
<event>
 5   0  0.5370912E-07  0.3236916E+04  0.7818609E-02  0.8179135E-01
        1   -1    0    0  501    0  0.00000000000E+00  0.00000000000E+00  0.31876274078E+04  0.31876274078E+04  0.50400001928E-02 0. -1.
       -1   -1    0    0    0  501  0.00000000000E+00  0.00000000000E+00 -0.82174146060E+03  0.82174146061E+03  0.50400001928E-02 0.  1.
    10030    2    1    2    0    0  0.00000000000E+00  0.00000000000E+00  0.23658859472E+04  0.40093688684E+04  0.32369155701E+04 0.  0.
        1    1    3    3  502    0  0.90113317477E+02  0.13605571209E+04  0.10300237983E+03  0.13674229703E+04  0.50400001928E-02 0.  1.
       -1    1    3    3    0  502 -0.90113317477E+02 -0.13605571209E+04  0.22628835674E+04  0.26419458982E+04  0.50400001928E-02 0. -1.
</event>
<event>
 5   0  0.5317728E-07  0.3183545E+04  0.7818609E-02  0.8193177E-01
        1   -1    0    0  501    0  0.00000000000E+00  0.00000000000E+00  0.22131144653E+04  0.22131144653E+04  0.50400001928E-02 0. -1.
       -1   -1    0    0    0  501  0.00000000000E+00  0.00000000000E+00 -0.11448748717E+04  0.11448748717E+04  0.50400001928E-02 0.  1.
    10030    2    1    2    0    0  0.00000000000E+00  0.00000000000E+00  0.10682395936E+04  0.33579893370E+04  0.31835446531E+04 0.  0.
        2    1    3    3  502    0 -0.20035248581E+03 -0.14686848989E+04  0.11460492419E+04  0.18736609393E+04  0.25500000920E-02 0. -1.
       -2    1    3    3    0  502  0.20035248581E+03  0.14686848989E+04 -0.77809648282E+02  0.14843283977E+04  0.25500000920E-02 0.  1.
</event>
<event>
 5   0  0.1538349E-06  0.3234841E+04  0.7818609E-02  0.8179676E-01
       -2   -1    0    0    0  501  0.00000000000E+00  0.00000000000E+00  0.96601264960E+03  0.96601264960E+03  0.25500000920E-02 0. -1.
        2   -1    0    0  501    0  0.00000000000E+00  0.00000000000E+00 -0.27080898082E+04  0.27080898082E+04  0.25500000920E-02 0.  1.
    10030    2    1    2    0    0  0.00000000000E+00  0.00000000000E+00 -0.17420771585E+04  0.36741024578E+04  0.32348409611E+04 0.  0.
        1    1    3    3  502    0  0.13365829624E+04  0.73598648369E+03 -0.26159513469E+03  0.15480833744E+04  0.50400001928E-02 0. -1.
       -1    1    3    3    0  502 -0.13365829624E+04 -0.73598648369E+03 -0.14804820239E+04  0.21260190833E+04  0.50400001928E-02 0.  1.
</event>
<event>
 5   0  0.4995625E-07  0.3080290E+04  0.7818609E-02  0.8221168E-01
       -3   -1    0    0    0  501  0.00000000000E+00  0.00000000000E+00  0.29210499506E+04  0.29210499523E+04  0.10100000352E+00 0. -1.
        3   -1    0    0  501    0  0.00000000000E+00  0.00000000000E+00 -0.81205255392E+03  0.81205256020E+03  0.10100000352E+00 0.  1.
    10030    2    1    2    0    0  0.00000000000E+00  0.00000000000E+00  0.21089973966E+04  0.37331025125E+04  0.30802896536E+04 0.  0.
        4    1    3    3  502    0  0.77555269548E+03  0.54887862947E+03 -0.41453859491E+03  0.10366260622E+04  0.12699999809E+01 0.  1.
       -4    1    3    3    0  502 -0.77555269548E+03 -0.54887862947E+03  0.25235359915E+04  0.26964764503E+04  0.12699999809E+01 0. -1.
</event>
<event>
 5   0  0.1556396E-06  0.3242853E+04  0.7818609E-02  0.8177590E-01
       -2   -1    0    0    0  501  0.00000000000E+00  0.00000000000E+00  0.15244467407E+04  0.15244467407E+04  0.25500000920E-02 0. -1.
        2   -1    0    0  501    0  0.00000000000E+00  0.00000000000E+00 -0.17245762667E+04  0.17245762667E+04  0.25500000920E-02 0.  1.
    10030    2    1    2    0    0  0.00000000000E+00  0.00000000000E+00 -0.20012952602E+03  0.32490230075E+04  0.32428534774E+04 0.  0.
        3    1    3    3  502    0 -0.67841437229E+03  0.58855476264E+03  0.12524597840E+04  0.15412002757E+04  0.10100000352E+00 0. -1.
       -3    1    3    3    0  502  0.67841437229E+03 -0.58855476264E+03 -0.14525893100E+04  0.17078227317E+04  0.10100000352E+00 0.  1.
</event>
<event>
 5   0  0.1493485E-06  0.3202102E+04  0.7818609E-02  0.8188262E-01
        2   -1    0    0  501    0  0.00000000000E+00  0.00000000000E+00  0.20531401279E+04  0.20531401279E+04  0.25500000920E-02 0.  1.
       -2   -1    0    0    0  501  0.00000000000E+00  0.00000000000E+00 -0.12485094775E+04  0.12485094775E+04  0.25500000920E-02 0. -1.
    10030    2    1    2    0    0  0.00000000000E+00  0.00000000000E+00  0.80463065047E+03  0.33016496054E+04  0.32021023771E+04 0.  0.
        2    1    3    3  502    0 -0.15070084971E+03 -0.15309171031E+04 -0.55268260419E+02  0.15393090993E+04  0.25500000920E-02 0. -1.
       -2    1    3    3    0  502  0.15070084971E+03  0.15309171031E+04  0.85989891089E+03  0.17623405061E+04  0.25500000920E-02 0.  1.
</event>
<event>
 5   0  0.1508771E-06  0.3199852E+04  0.7818609E-02  0.8188856E-01
        2   -1    0    0  501    0  0.00000000000E+00  0.00000000000E+00  0.16116118259E+04  0.16116118259E+04  0.25500000920E-02 0. -1.
       -2   -1    0    0    0  501  0.00000000000E+00  0.00000000000E+00 -0.15883253328E+04  0.15883253328E+04  0.25500000920E-02 0.  1.
    10030    2    1    2    0    0  0.00000000000E+00  0.00000000000E+00  0.23286493014E+02  0.31999371587E+04  0.31998524277E+04 0.  0.
        4    1    3    3  502    0 -0.69129610136E+03 -0.12164268860E+04  0.78766483095E+03  0.16056158219E+04  0.12699999809E+01 0. -1.
       -4    1    3    3    0  502  0.69129610136E+03  0.12164268860E+04 -0.76437833793E+03  0.15943213368E+04  0.12699999809E+01 0.  1.
</event>
<event>
 5   0  0.1556396E-06  0.3218427E+04  0.7818609E-02  0.8183968E-01
        2   -1    0    0  501    0  0.00000000000E+00  0.00000000000E+00  0.23991776903E+04  0.23991776903E+04  0.25500000920E-02 0. -1.
       -2   -1    0    0    0  501  0.00000000000E+00  0.00000000000E+00 -0.10793564175E+04  0.10793564175E+04  0.25500000920E-02 0.  1.
    10030    2    1    2    0    0  0.00000000000E+00  0.00000000000E+00  0.13198212727E+04  0.34785341078E+04  0.32184268435E+04 0.  0.
        3    1    3    3  502    0  0.83954487101E+03 -0.12647604991E+04  0.82797151014E+02  0.15202993419E+04  0.10100000352E+00 0.  1.
       -3    1    3    3    0  502 -0.83954487101E+03  0.12647604991E+04  0.12370241217E+04  0.19582347659E+04  0.10100000352E+00 0. -1.
</event>
<event>
 5   0  0.5370912E-07  0.3176575E+04  0.7818609E-02  0.8195031E-01
        1   -1    0    0  501    0  0.00000000000E+00  0.00000000000E+00  0.20457602587E+04  0.20457602587E+04  0.50400001928E-02 0. -1.
       -1   -1    0    0    0  501  0.00000000000E+00  0.00000000000E+00 -0.12331146067E+04  0.12331146067E+04  0.50400001928E-02 0.  1.
    10030    2    1    2    0    0  0.00000000000E+00  0.00000000000E+00  0.81264565205E+03  0.32788748654E+04  0.31765747948E+04 0.  0.
        1    1    3    3  502    0  0.14363683038E+04  0.86236966558E+02  0.11003344522E+04  0.18114432437E+04  0.50400001928E-02 0. -1.
       -1    1    3    3    0  502 -0.14363683038E+04 -0.86236966558E+02 -0.28768880010E+03  0.14674316217E+04  0.50400001928E-02 0.  1.
</event>
<event>
 5   0  0.4995625E-07  0.3199072E+04  0.7818609E-02  0.8189062E-01
       -3   -1    0    0    0  501  0.00000000000E+00  0.00000000000E+00  0.22600161249E+04  0.22600161272E+04  0.10100000352E+00 0. -1.
        3   -1    0    0  501    0  0.00000000000E+00  0.00000000000E+00 -0.11320780410E+04  0.11320780455E+04  0.10100000352E+00 0.  1.
    10030    2    1    2    0    0  0.00000000000E+00  0.00000000000E+00  0.11279380840E+04  0.33920941727E+04  0.31990715145E+04 0.  0.
        4    1    3    3  502    0  0.86904908527E+03 -0.13160634694E+04  0.84698899604E+03  0.17901567922E+04  0.12699999809E+01 0. -1.
       -4    1    3    3    0  502 -0.86904908527E+03  0.13160634694E+04  0.28094908793E+03  0.16019373805E+04  0.12699999809E+01 0.  1.
</event>
<event>
 5   0  0.1508771E-06  0.3202933E+04  0.7818609E-02  0.8188043E-01
       -2   -1    0    0    0  501  0.00000000000E+00  0.00000000000E+00  0.16935031885E+04  0.16935031885E+04  0.25500000920E-02 0. -1.
        2   -1    0    0  501    0  0.00000000000E+00  0.00000000000E+00 -0.15144315261E+04  0.15144315261E+04  0.25500000920E-02 0.  1.
    10030    2    1    2    0    0  0.00000000000E+00  0.00000000000E+00  0.17907166236E+03  0.32079347146E+04  0.32029327925E+04 0.  0.
        4    1    3    3  502    0  0.55571786869E+03 -0.12036969533E+04  0.98926176384E+03  0.16541913901E+04  0.12699999809E+01 0. -1.
       -4    1    3    3    0  502 -0.55571786869E+03  0.12036969533E+04 -0.81019010148E+03  0.15537433245E+04  0.12699999809E+01 0.  1.
</event>
<event>
 5   0  0.1493485E-06  0.3190135E+04  0.7818609E-02  0.8191427E-01
        2   -1    0    0  501    0  0.00000000000E+00  0.00000000000E+00  0.18850121683E+04  0.18850121683E+04  0.25500000920E-02 0.  1.
       -2   -1    0    0    0  501  0.00000000000E+00  0.00000000000E+00 -0.13497210303E+04  0.13497210303E+04  0.25500000920E-02 0. -1.
    10030    2    1    2    0    0  0.00000000000E+00  0.00000000000E+00  0.53529113801E+03  0.32347331986E+04  0.31901351482E+04 0.  0.
        2    1    3    3  502    0  0.26179987535E+03 -0.15547947501E+04  0.22785302637E+02  0.15768465556E+04  0.25500000920E-02 0. -1.
       -2    1    3    3    0  502 -0.26179987535E+03  0.15547947501E+04  0.51250583538E+03  0.16578866430E+04  0.25500000920E-02 0.  1.
</event>
<event>
 5   0  0.5317728E-07  0.3207124E+04  0.7818609E-02  0.8186938E-01
       -1   -1    0    0    0  501  0.00000000000E+00  0.00000000000E+00  0.17907948749E+04  0.17907948750E+04  0.50400001928E-02 0.  1.
        1   -1    0    0  501    0  0.00000000000E+00  0.00000000000E+00 -0.14359052575E+04  0.14359052575E+04  0.50400001928E-02 0. -1.
    10030    2    1    2    0    0  0.00000000000E+00  0.00000000000E+00  0.35488961744E+03  0.32267001325E+04  0.32071244292E+04 0.  0.
        2    1    3    3  502    0 -0.14249637512E+03  0.81035849499E+03  0.15622273573E+04  0.17656558055E+04  0.25500000920E-02 0.  1.
       -2    1    3    3    0  502  0.14249637512E+03 -0.81035849499E+03 -0.12073377399E+04  0.14610443270E+04  0.25500000920E-02 0. -1.
</event>
<event>
 5   0  0.5317728E-07  0.3203905E+04  0.7818609E-02  0.8187787E-01
       -1   -1    0    0    0  501  0.00000000000E+00  0.00000000000E+00  0.90333170950E+03  0.90333170951E+03  0.50400001928E-02 0.  1.
        1   -1    0    0  501    0  0.00000000000E+00  0.00000000000E+00 -0.28408746943E+04  0.28408746943E+04  0.50400001928E-02 0. -1.
    10030    2    1    2    0    0  0.00000000000E+00  0.00000000000E+00 -0.19375429848E+04  0.37442064039E+04  0.32039052384E+04 0.  0.
        2    1    3    3  502    0  0.90020372309E+02 -0.98835026256E+03 -0.24383369719E+04  0.26325704354E+04  0.25500000920E-02 0. -1.
       -2    1    3    3    0  502 -0.90020372309E+02  0.98835026256E+03  0.50079398702E+03  0.11116359685E+04  0.25500000920E-02 0.  1.
</event>
<event>
 5   0  0.1538349E-06  0.3214774E+04  0.7818609E-02  0.8184926E-01
       -2   -1    0    0    0  501  0.00000000000E+00  0.00000000000E+00  0.14910400502E+04  0.14910400502E+04  0.25500000920E-02 0. -1.
        2   -1    0    0  501    0  0.00000000000E+00  0.00000000000E+00 -0.17328122315E+04  0.17328122315E+04  0.25500000920E-02 0.  1.
    10030    2    1    2    0    0  0.00000000000E+00  0.00000000000E+00 -0.24177218134E+03  0.32238522817E+04  0.32147736696E+04 0.  0.
        1    1    3    3  502    0  0.12616847511E+04  0.92174806974E+03  0.25730559082E+03  0.15835637285E+04  0.50400001928E-02 0. -1.
       -1    1    3    3    0  502 -0.12616847511E+04 -0.92174806974E+03 -0.49907777217E+03  0.16402885532E+04  0.50400001928E-02 0.  1.
</event>
<event>
 5   0  0.5370912E-07  0.3559939E+04  0.7818609E-02  0.8099730E-01
       -1   -1    0    0    0  501  0.00000000000E+00  0.00000000000E+00  0.21187918474E+04  0.21187918474E+04  0.50400001928E-02 0.  1.
        1   -1    0    0  501    0  0.00000000000E+00  0.00000000000E+00 -0.14953293224E+04  0.14953293224E+04  0.50400001928E-02 0. -1.
    10030    2    1    2    0    0  0.00000000000E+00  0.00000000000E+00  0.62346252503E+03  0.36141211699E+04  0.35599390880E+04 0.  0.
        1    1    3    3  502    0  0.48154720185E+02  0.11712963528E+02  0.21180912918E+04  0.21186709964E+04  0.50400001928E-02 0.  1.
       -1    1    3    3    0  502 -0.48154720185E+02 -0.11712963528E+02 -0.14946287668E+04  0.14954501734E+04  0.50400001928E-02 0. -1.
</event>
<event>
 5   0  0.5281187E-07  0.3201167E+04  0.7818609E-02  0.8188509E-01
       -1   -1    0    0    0  501  0.00000000000E+00  0.00000000000E+00  0.11196928134E+04  0.11196928134E+04  0.50400001928E-02 0. -1.
        1   -1    0    0  501    0  0.00000000000E+00  0.00000000000E+00 -0.22880087381E+04  0.22880087381E+04  0.50400001928E-02 0.  1.
    10030    2    1    2    0    0  0.00000000000E+00  0.00000000000E+00 -0.11683159247E+04  0.34077015514E+04  0.32011666254E+04 0.  0.
        5    1    3    3  502    0 -0.11060378492E+04  0.83450341238E+03 -0.14371882964E+04  0.19963085830E+04  0.46999998093E+01 0.  1.
       -5    1    3    3    0  502  0.11060378492E+04 -0.83450341238E+03  0.26887237173E+03  0.14113929684E+04  0.46999998093E+01 0. -1.
</event>
<event>
 5   0  0.5370912E-07  0.3203511E+04  0.7818609E-02  0.8187891E-01
       -1   -1    0    0    0  501  0.00000000000E+00  0.00000000000E+00  0.20954947631E+04  0.20954947631E+04  0.50400001928E-02 0. -1.
        1   -1    0    0  501    0  0.00000000000E+00  0.00000000000E+00 -0.12243505643E+04  0.12243505643E+04  0.50400001928E-02 0.  1.
    10030    2    1    2    0    0  0.00000000000E+00  0.00000000000E+00  0.87114419887E+03  0.33198453274E+04  0.32035106965E+04 0.  0.
        1    1    3    3  502    0 -0.40576581967E+03  0.12739799855E+04  0.13496165509E+04  0.18997725491E+04  0.50400001928E-02 0. -1.
       -1    1    3    3    0  502  0.40576581967E+03 -0.12739799855E+04 -0.47847235203E+03  0.14200727783E+04  0.50400001928E-02 0.  1.
</event>
<event>
 5   0  0.5177039E-07  0.3211848E+04  0.7818609E-02  0.8185695E-01
       -1   -1    0    0    0  501  0.00000000000E+00  0.00000000000E+00  0.16639843589E+04  0.16639843589E+04  0.50400001928E-02 0.  1.
        1   -1    0    0  501    0  0.00000000000E+00  0.00000000000E+00 -0.15498899328E+04  0.15498899329E+04  0.50400001928E-02 0. -1.
    10030    2    1    2    0    0  0.00000000000E+00  0.00000000000E+00  0.11409442608E+03  0.32138742918E+04  0.32118484437E+04 0.  0.
        3    1    3    3  502    0 -0.45126172236E+03  0.15052539738E+04 -0.27416901191E+03  0.15951787753E+04  0.10100000352E+00 0. -1.
       -3    1    3    3    0  502  0.45126172236E+03 -0.15052539738E+04  0.38826343798E+03  0.16186955165E+04  0.10100000352E+00 0.  1.
</event>
<event>
 5   0  0.1538349E-06  0.3221061E+04  0.7818609E-02  0.8183277E-01
        2   -1    0    0  501    0  0.00000000000E+00  0.00000000000E+00  0.19645645757E+04  0.19645645757E+04  0.25500000920E-02 0.  1.
       -2   -1    0    0    0  501  0.00000000000E+00  0.00000000000E+00 -0.13202967091E+04  0.13202967091E+04  0.25500000920E-02 0. -1.
    10030    2    1    2    0    0  0.00000000000E+00  0.00000000000E+00  0.64426786652E+03  0.32848612848E+04  0.32210607844E+04 0.  0.
        1    1    3    3  502    0 -0.13417027443E+04 -0.35779893876E+03 -0.50988246499E+03  0.14792452341E+04  0.50400001928E-02 0. -1.
       -1    1    3    3    0  502  0.13417027443E+04  0.35779893876E+03  0.11541503315E+04  0.18056160507E+04  0.50400001928E-02 0.  1.
</event>
<event>
 5   0  0.1538349E-06  0.3192155E+04  0.7818609E-02  0.8190892E-01
       -2   -1    0    0    0  501  0.00000000000E+00  0.00000000000E+00  0.11688661949E+04  0.11688661949E+04  0.25500000920E-02 0. -1.
        2   -1    0    0  501    0  0.00000000000E+00  0.00000000000E+00 -0.21794315657E+04  0.21794315657E+04  0.25500000920E-02 0.  1.
    10030    2    1    2    0    0  0.00000000000E+00  0.00000000000E+00 -0.10105653708E+04  0.33482977605E+04  0.31921553102E+04 0.  0.
        1    1    3    3  502    0  0.23232789897E+03 -0.11952606797E+04 -0.15876686271E+04  0.20008288319E+04  0.50400001928E-02 0.  1.
       -1    1    3    3    0  502 -0.23232789897E+03  0.11952606797E+04  0.57710325634E+03  0.13474689286E+04  0.50400001928E-02 0. -1.
</event>
<event>
 5   0  0.4995625E-07  0.3203039E+04  0.7818609E-02  0.8188015E-01
        3   -1    0    0  501    0  0.00000000000E+00  0.00000000000E+00  0.11848920612E+04  0.11848920655E+04  0.10100000352E+00 0. -1.
       -3   -1    0    0    0  501  0.00000000000E+00  0.00000000000E+00 -0.21646401850E+04  0.21646401874E+04  0.10100000352E+00 0.  1.
    10030    2    1    2    0    0  0.00000000000E+00  0.00000000000E+00 -0.97974812382E+03  0.33495322528E+04  0.32030391703E+04 0.  0.
        1    1    3    3  502    0 -0.10014309320E+03  0.80824126818E+03  0.95217318007E+03  0.12529630288E+04  0.50400001928E-02 0. -1.
       -1    1    3    3    0  502  0.10014309320E+03 -0.80824126818E+03 -0.19319213039E+04  0.20965692240E+04  0.50400001928E-02 0.  1.
</event>
<event>
 5   0  0.1508771E-06  0.3195935E+04  0.7818609E-02  0.8189892E-01
        2   -1    0    0  501    0  0.00000000000E+00  0.00000000000E+00  0.20788517375E+04  0.20788517375E+04  0.25500000920E-02 0. -1.
       -2   -1    0    0    0  501  0.00000000000E+00  0.00000000000E+00 -0.12283221042E+04  0.12283221042E+04  0.25500000920E-02 0.  1.
    10030    2    1    2    0    0  0.00000000000E+00  0.00000000000E+00  0.85052963328E+03  0.33071738417E+04  0.31959346305E+04 0.  0.
        4    1    3    3  502    0  0.14118611428E+04  0.51685536295E+02 -0.34736541427E+03  0.14548840590E+04  0.12699999809E+01 0. -1.
       -4    1    3    3    0  502 -0.14118611428E+04 -0.51685536295E+02  0.11978950475E+04  0.18522897827E+04  0.12699999809E+01 0.  1.
</event>
<event>
 5   0  0.5317728E-07  0.3070523E+04  0.7818609E-02  0.8223874E-01
       -1   -1    0    0    0  501  0.00000000000E+00  0.00000000000E+00  0.12760234436E+04  0.12760234436E+04  0.50400001928E-02 0.  1.
        1   -1    0    0  501    0  0.00000000000E+00  0.00000000000E+00 -0.18471667065E+04  0.18471667065E+04  0.50400001928E-02 0. -1.
    10030    2    1    2    0    0  0.00000000000E+00  0.00000000000E+00 -0.57114326292E+03  0.31231901501E+04  0.30705230966E+04 0.  0.
        2    1    3    3  502    0 -0.13783563829E+04  0.43098003147E+03  0.24434227106E+03  0.14646887899E+04  0.25500000920E-02 0. -1.
       -2    1    3    3    0  502  0.13783563829E+04 -0.43098003147E+03 -0.81548553398E+03  0.16585013602E+04  0.25500000920E-02 0.  1.
</event>
<event>
 5   0  0.1572769E-06  0.3207051E+04  0.7818609E-02  0.8186958E-01
        2   -1    0    0  501    0  0.00000000000E+00  0.00000000000E+00  0.22138733423E+04  0.22138733423E+04  0.25500000920E-02 0.  1.
       -2   -1    0    0    0  501  0.00000000000E+00  0.00000000000E+00 -0.11614455616E+04  0.11614455616E+04  0.25500000920E-02 0. -1.
    10030    2    1    2    0    0  0.00000000000E+00  0.00000000000E+00  0.10524277807E+04  0.33753189039E+04  0.32070505873E+04 0.  0.
        5    1    3    3  502    0 -0.83190593628E+03  0.13704772385E+04  0.49299973089E+03  0.16773032441E+04  0.46999998093E+01 0. -1.
       -5    1    3    3    0  502  0.83190593628E+03 -0.13704772385E+04  0.55942804979E+03  0.16980156598E+04  0.46999998093E+01 0.  1.
</event>
<event>
 5   0  0.1572769E-06  0.3217162E+04  0.7818609E-02  0.8184299E-01
        2   -1    0    0  501    0  0.00000000000E+00  0.00000000000E+00  0.22077556971E+04  0.22077556971E+04  0.25500000920E-02 0.  1.
       -2   -1    0    0    0  501  0.00000000000E+00  0.00000000000E+00 -0.11720193727E+04  0.11720193727E+04  0.25500000920E-02 0. -1.
    10030    2    1    2    0    0  0.00000000000E+00  0.00000000000E+00  0.10357363244E+04  0.33797750697E+04  0.32171617597E+04 0.  0.
        5    1    3    3  502    0  0.15390901025E+04  0.46604835691E+03  0.47703256830E+03  0.16773734157E+04  0.46999998093E+01 0. -1.
       -5    1    3    3    0  502 -0.15390901025E+04 -0.46604835691E+03  0.55870375614E+03  0.17024016540E+04  0.46999998093E+01 0.  1.
</event>
<event>
 5   0  0.1556396E-06  0.3249972E+04  0.7818609E-02  0.8175743E-01
        2   -1    0    0  501    0  0.00000000000E+00  0.00000000000E+00  0.13572812706E+04  0.13572812706E+04  0.25500000920E-02 0. -1.
       -2   -1    0    0    0  501  0.00000000000E+00  0.00000000000E+00 -0.19454917788E+04  0.19454917788E+04  0.25500000920E-02 0.  1.
    10030    2    1    2    0    0  0.00000000000E+00  0.00000000000E+00 -0.58821050814E+03  0.33027730494E+04  0.32499720328E+04 0.  0.
        3    1    3    3  502    0 -0.44447184787E+03 -0.15194916503E+04 -0.66634772234E+03  0.17176814012E+04  0.10100000352E+00 0.  1.
       -3    1    3    3    0  502  0.44447184787E+03  0.15194916503E+04  0.78137214196E+02  0.15850916482E+04  0.10100000352E+00 0. -1.
</event>
<event>
 5   0  0.1572769E-06  0.3185125E+04  0.7818609E-02  0.8192757E-01
        2   -1    0    0  501    0  0.00000000000E+00  0.00000000000E+00  0.26769471272E+04  0.26769471272E+04  0.25500000920E-02 0.  1.
       -2   -1    0    0    0  501  0.00000000000E+00  0.00000000000E+00 -0.94744343055E+03  0.94744343056E+03  0.25500000920E-02 0. -1.
    10030    2    1    2    0    0  0.00000000000E+00  0.00000000000E+00  0.17295036966E+04  0.36243905577E+04  0.31851254101E+04 0.  0.
        5    1    3    3  502    0 -0.81848419840E+03  0.91176450454E+03 -0.29290342568E+03  0.12597799020E+04  0.46999998093E+01 0. -1.
       -5    1    3    3    0  502  0.81848419840E+03 -0.91176450454E+03  0.20224071223E+04  0.23646106557E+04  0.46999998093E+01 0.  1.
</event>
<event>
 5   0  0.1493485E-06  0.3240594E+04  0.7818609E-02  0.8178178E-01
       -2   -1    0    0    0  501  0.00000000000E+00  0.00000000000E+00  0.22715237410E+04  0.22715237410E+04  0.25500000920E-02 0. -1.
        2   -1    0    0  501    0  0.00000000000E+00  0.00000000000E+00 -0.11557718107E+04  0.11557718107E+04  0.25500000920E-02 0.  1.
    10030    2    1    2    0    0  0.00000000000E+00  0.00000000000E+00  0.11157519303E+04  0.34272955518E+04  0.32405944562E+04 0.  0.
        2    1    3    3  502    0 -0.44143868379E+03 -0.15584710544E+04  0.51474701592E+03  0.16996071985E+04  0.25500000920E-02 0. -1.
       -2    1    3    3    0  502  0.44143868379E+03  0.15584710544E+04  0.60100491434E+03  0.17276883532E+04  0.25500000920E-02 0.  1.
</event>
<event>
 5   0  0.1572769E-06  0.3224606E+04  0.7818609E-02  0.8182349E-01
       -2   -1    0    0    0  501  0.00000000000E+00  0.00000000000E+00  0.15307289319E+04  0.15307289319E+04  0.25500000920E-02 0.  1.
        2   -1    0    0  501    0  0.00000000000E+00  0.00000000000E+00 -0.16982240979E+04  0.16982240979E+04  0.25500000920E-02 0. -1.
    10030    2    1    2    0    0  0.00000000000E+00  0.00000000000E+00 -0.16749516605E+03  0.32289530298E+04  0.32246058732E+04 0.  0.
        5    1    3    3  502    0  0.71165966995E+03  0.10423456727E+04  0.92087693641E+03  0.15623637250E+04  0.46999998093E+01 0.  1.
       -5    1    3    3    0  502 -0.71165966995E+03 -0.10423456727E+04 -0.10883721025E+04  0.16665893047E+04  0.46999998093E+01 0. -1.
</event>
<event>
 5   0  0.1493485E-06  0.3188207E+04  0.7818609E-02  0.8191939E-01
        2   -1    0    0  501    0  0.00000000000E+00  0.00000000000E+00  0.17656221317E+04  0.17656221317E+04  0.25500000920E-02 0.  1.
       -2   -1    0    0    0  501  0.00000000000E+00  0.00000000000E+00 -0.14392469449E+04  0.14392469449E+04  0.25500000920E-02 0. -1.
    10030    2    1    2    0    0  0.00000000000E+00  0.00000000000E+00  0.32637518679E+03  0.32048690765E+04  0.31882071820E+04 0.  0.
        2    1    3    3  502    0 -0.14346455201E+04 -0.68057504371E+03  0.21825136746E+02  0.15880385685E+04  0.25500000920E-02 0. -1.
       -2    1    3    3    0  502  0.14346455201E+04  0.68057504371E+03  0.30455005005E+03  0.16168305080E+04  0.25500000920E-02 0.  1.
</event>
<event>
 5   0  0.1508771E-06  0.3192191E+04  0.7818609E-02  0.8190882E-01
        2   -1    0    0  501    0  0.00000000000E+00  0.00000000000E+00  0.15778769311E+04  0.15778769311E+04  0.25500000920E-02 0.  1.
       -2   -1    0    0    0  501  0.00000000000E+00  0.00000000000E+00 -0.16145247080E+04  0.16145247080E+04  0.25500000920E-02 0. -1.
    10030    2    1    2    0    0  0.00000000000E+00  0.00000000000E+00 -0.36647776937E+02  0.31924016391E+04  0.31921912796E+04 0.  0.
        4    1    3    3  502    0  0.96434283817E+03  0.12699583501E+04  0.50733961297E+02  0.15954080569E+04  0.12699999809E+01 0. -1.
       -4    1    3    3    0  502 -0.96434283817E+03 -0.12699583501E+04 -0.87381738234E+02  0.15969935822E+04  0.12699999809E+01 0.  1.
</event>
<event>
 5   0  0.1538349E-06  0.3199147E+04  0.7818609E-02  0.8189042E-01
        2   -1    0    0  501    0  0.00000000000E+00  0.00000000000E+00  0.21724368862E+04  0.21724368862E+04  0.25500000920E-02 0. -1.
       -2   -1    0    0    0  501  0.00000000000E+00  0.00000000000E+00 -0.11777723249E+04  0.11777723249E+04  0.25500000920E-02 0.  1.
    10030    2    1    2    0    0  0.00000000000E+00  0.00000000000E+00  0.99466456130E+03  0.33502092110E+04  0.31991474127E+04 0.  0.
        1    1    3    3  502    0 -0.48027110533E+03 -0.74096042884E+03 -0.89942182268E+03  0.12604135460E+04  0.50400001928E-02 0.  1.
       -1    1    3    3    0  502  0.48027110533E+03  0.74096042884E+03  0.18940863840E+04  0.20897956651E+04  0.50400001928E-02 0. -1.
</event>
<event>
 5   0  0.5370912E-07  0.3212312E+04  0.7818609E-02  0.8185573E-01
       -1   -1    0    0    0  501  0.00000000000E+00  0.00000000000E+00  0.14389565566E+04  0.14389565566E+04  0.50400001928E-02 0.  1.
        1   -1    0    0  501    0  0.00000000000E+00  0.00000000000E+00 -0.17927833496E+04  0.17927833496E+04  0.50400001928E-02 0. -1.
    10030    2    1    2    0    0  0.00000000000E+00  0.00000000000E+00 -0.35382679301E+03  0.32317399062E+04  0.32123121614E+04 0.  0.
        1    1    3    3  502    0  0.30843229819E+03 -0.80232687799E+03 -0.15419088865E+04  0.17653163785E+04  0.50400001928E-02 0. -1.
       -1    1    3    3    0  502 -0.30843229819E+03  0.80232687799E+03  0.11880820935E+04  0.14664235277E+04  0.50400001928E-02 0.  1.
</event>
<event>
 5   0  0.5281187E-07  0.3223374E+04  0.7818609E-02  0.8182671E-01
       -1   -1    0    0    0  501  0.00000000000E+00  0.00000000000E+00  0.13204296681E+04  0.13204296681E+04  0.50400001928E-02 0.  1.
        1   -1    0    0  501    0  0.00000000000E+00  0.00000000000E+00 -0.19671888526E+04  0.19671888527E+04  0.50400001928E-02 0. -1.
    10030    2    1    2    0    0  0.00000000000E+00  0.00000000000E+00 -0.64675918458E+03  0.32876185207E+04  0.32233737132E+04 0.  0.
        5    1    3    3  502    0 -0.14625663552E+04  0.90372403090E+02 -0.10077562190E+04  0.17784437583E+04  0.46999998093E+01 0. -1.
       -5    1    3    3    0  502  0.14625663552E+04 -0.90372403090E+02  0.36099703437E+03  0.15091747624E+04  0.46999998093E+01 0.  1.
</event>
<event>
 5   0  0.5317728E-07  0.3177246E+04  0.7818609E-02  0.8194852E-01
        1   -1    0    0  501    0  0.00000000000E+00  0.00000000000E+00  0.23852959299E+04  0.23852959299E+04  0.50400001928E-02 0.  1.
       -1   -1    0    0    0  501  0.00000000000E+00  0.00000000000E+00 -0.10580336440E+04  0.10580336440E+04  0.50400001928E-02 0. -1.
    10030    2    1    2    0    0  0.00000000000E+00  0.00000000000E+00  0.13272622859E+04  0.34433295739E+04  0.31772461943E+04 0.  0.
        2    1    3    3  502    0 -0.59798511450E+03 -0.41899976906E+03  0.21926651460E+04  0.23110446655E+04  0.25500000920E-02 0.  1.
       -2    1    3    3    0  502  0.59798511450E+03  0.41899976906E+03 -0.86540286007E+03  0.11322849084E+04  0.25500000920E-02 0. -1.
</event>
<event>
 5   0  0.5281187E-07  0.3204469E+04  0.7818609E-02  0.8187638E-01
        1   -1    0    0  501    0  0.00000000000E+00  0.00000000000E+00  0.99054611356E+03  0.99054611357E+03  0.50400001928E-02 0. -1.
       -1   -1    0    0    0  501  0.00000000000E+00  0.00000000000E+00 -0.25916561821E+04  0.25916561822E+04  0.50400001928E-02 0.  1.
    10030    2    1    2    0    0  0.00000000000E+00  0.00000000000E+00 -0.16011100686E+04  0.35822022957E+04  0.32044687291E+04 0.  0.
        5    1    3    3  502    0 -0.54865530565E+03  0.13365043037E+04 -0.15749352929E+04  0.21372200788E+04  0.46999998093E+01 0.  1.
       -5    1    3    3    0  502  0.54865530565E+03 -0.13365043037E+04 -0.26174775670E+02  0.14449822169E+04  0.46999998093E+01 0. -1.
</event>
<event>
 5   0  0.1538349E-06  0.3202650E+04  0.7818609E-02  0.8188118E-01
       -2   -1    0    0    0  501  0.00000000000E+00  0.00000000000E+00  0.13128501327E+04  0.13128501327E+04  0.25500000920E-02 0. -1.
        2   -1    0    0  501    0  0.00000000000E+00  0.00000000000E+00 -0.19531866832E+04  0.19531866832E+04  0.25500000920E-02 0.  1.
    10030    2    1    2    0    0  0.00000000000E+00  0.00000000000E+00 -0.64033655049E+03  0.32660368158E+04  0.32026497755E+04 0.  0.
        1    1    3    3  502    0 -0.96196080880E+03  0.24601131151E+03  0.96102146954E+03  0.13818293773E+04  0.50400001928E-02 0. -1.
       -1    1    3    3    0  502  0.96196080880E+03 -0.24601131151E+03 -0.16013580200E+04  0.18842074385E+04  0.50400001928E-02 0.  1.
</event>
<event>
 5   0  0.1508771E-06  0.3205978E+04  0.7818609E-02  0.8187240E-01
        2   -1    0    0  501    0  0.00000000000E+00  0.00000000000E+00  0.19583927635E+04  0.19583927635E+04  0.25500000920E-02 0. -1.
       -2   -1    0    0    0  501  0.00000000000E+00  0.00000000000E+00 -0.13120829905E+04  0.13120829905E+04  0.25500000920E-02 0.  1.
    10030    2    1    2    0    0  0.00000000000E+00  0.00000000000E+00  0.64630977304E+03  0.32704757540E+04  0.32059780621E+04 0.  0.
        4    1    3    3  502    0  0.12655233280E+04  0.77233344467E+03 -0.29863522537E+03  0.15123600279E+04  0.12699999809E+01 0.  1.
       -4    1    3    3    0  502 -0.12655233280E+04 -0.77233344467E+03  0.94494499841E+03  0.17581157261E+04  0.12699999809E+01 0. -1.
</event>
<event>
 5   0  0.5233813E-07  0.3187611E+04  0.7818609E-02  0.8192097E-01
       -1   -1    0    0    0  501  0.00000000000E+00  0.00000000000E+00  0.20832817143E+04  0.20832817143E+04  0.50400001928E-02 0.  1.
        1   -1    0    0  501    0  0.00000000000E+00  0.00000000000E+00 -0.12193336267E+04  0.12193336267E+04  0.50400001928E-02 0. -1.
    10030    2    1    2    0    0  0.00000000000E+00  0.00000000000E+00  0.86394808753E+03  0.33026153410E+04  0.31876106715E+04 0.  0.
        4    1    3    3  502    0  0.41892526033E+03  0.48860510607E+03  0.19426536327E+04  0.20464940931E+04  0.12699999809E+01 0.  1.
       -4    1    3    3    0  502 -0.41892526033E+03 -0.48860510607E+03 -0.10787055452E+04  0.12561212479E+04  0.12699999809E+01 0. -1.
</event>
<event>
 5   0  0.5317728E-07  0.3218054E+04  0.7818609E-02  0.8184065E-01
       -1   -1    0    0    0  501  0.00000000000E+00  0.00000000000E+00  0.15321887516E+04  0.15321887516E+04  0.50400001928E-02 0. -1.
        1   -1    0    0  501    0  0.00000000000E+00  0.00000000000E+00 -0.16897186758E+04  0.16897186758E+04  0.50400001928E-02 0.  1.
    10030    2    1    2    0    0  0.00000000000E+00  0.00000000000E+00 -0.15752992421E+03  0.32219074273E+04  0.32180540383E+04 0.  0.
        2    1    3    3  502    0  0.11160968711E+04  0.91011065057E+01 -0.12391233639E+04  0.16676875508E+04  0.25500000920E-02 0.  1.
       -2    1    3    3    0  502 -0.11160968711E+04 -0.91011065057E+01  0.10815934397E+04  0.15542198766E+04  0.25500000920E-02 0. -1.
</event>
<event>
 5   0  0.5317728E-07  0.3188355E+04  0.7818609E-02  0.8191899E-01
        1   -1    0    0  501    0  0.00000000000E+00  0.00000000000E+00  0.25584627459E+04  0.25584627460E+04  0.50400001928E-02 0. -1.
       -1   -1    0    0    0  501  0.00000000000E+00  0.00000000000E+00 -0.99333129397E+03  0.99333129399E+03  0.50400001928E-02 0.  1.
    10030    2    1    2    0    0  0.00000000000E+00  0.00000000000E+00  0.15651314520E+04  0.35517940399E+04  0.31883545035E+04 0.  0.
        2    1    3    3  502    0  0.94173544127E+03  0.12859140601E+04  0.74804105182E+03  0.17606833976E+04  0.25500000920E-02 0. -1.
       -2    1    3    3    0  502 -0.94173544127E+03 -0.12859140601E+04  0.81709040015E+03  0.17911106424E+04  0.25500000920E-02 0.  1.
</event>
<event>
 5   0  0.1493485E-06  0.3200076E+04  0.7818609E-02  0.8188797E-01
       -2   -1    0    0    0  501  0.00000000000E+00  0.00000000000E+00  0.13293050239E+04  0.13293050239E+04  0.25500000920E-02 0. -1.
        2   -1    0    0  501    0  0.00000000000E+00  0.00000000000E+00 -0.19259103349E+04  0.19259103349E+04  0.25500000920E-02 0.  1.
    10030    2    1    2    0    0  0.00000000000E+00  0.00000000000E+00 -0.59660531101E+03  0.32552153587E+04  0.32000764264E+04 0.  0.
        2    1    3    3  502    0  0.90463874128E+03  0.52815450613E+03  0.93200130652E+03  0.14021215603E+04  0.25500000920E-02 0. -1.
       -2    1    3    3    0  502 -0.90463874128E+03 -0.52815450613E+03 -0.15286066175E+04  0.18530937984E+04  0.25500000920E-02 0.  1.
</event>
<event>
 5   0  0.5370912E-07  0.3225957E+04  0.7818609E-02  0.8181995E-01
       -1   -1    0    0    0  501  0.00000000000E+00  0.00000000000E+00  0.14836277200E+04  0.14836277200E+04  0.50400001928E-02 0.  1.
        1   -1    0    0  501    0  0.00000000000E+00  0.00000000000E+00 -0.17536068490E+04  0.17536068490E+04  0.50400001928E-02 0. -1.
    10030    2    1    2    0    0  0.00000000000E+00  0.00000000000E+00 -0.26997912900E+03  0.32372345691E+04  0.32259570557E+04 0.  0.
        1    1    3    3  502    0 -0.16014163149E+04 -0.46282124953E+02 -0.32278941859E+03  0.16342794307E+04  0.50400001928E-02 0.  1.
       -1    1    3    3    0  502  0.16014163149E+04  0.46282124953E+02  0.52810289599E+02  0.16029551383E+04  0.50400001928E-02 0. -1.
</event>
<event>
 5   0  0.5233813E-07  0.3178295E+04  0.7818609E-02  0.8194573E-01
        1   -1    0    0  501    0  0.00000000000E+00  0.00000000000E+00  0.14604571732E+04  0.14604571732E+04  0.50400001928E-02 0.  1.
       -1   -1    0    0    0  501  0.00000000000E+00  0.00000000000E+00 -0.17291775943E+04  0.17291775943E+04  0.50400001928E-02 0. -1.
    10030    2    1    2    0    0  0.00000000000E+00  0.00000000000E+00 -0.26872042108E+03  0.31896347676E+04  0.31782950281E+04 0.  0.
        4    1    3    3  502    0  0.10883033997E+04 -0.82461372654E+03  0.68155720544E+03  0.15260779551E+04  0.12699999809E+01 0.  1.
       -4    1    3    3    0  502 -0.10883033997E+04  0.82461372654E+03 -0.95027762652E+03  0.16635568124E+04  0.12699999809E+01 0. -1.
</event>
<event>
 5   0  0.5177039E-07  0.3199919E+04  0.7818609E-02  0.8188839E-01
       -1   -1    0    0    0  501  0.00000000000E+00  0.00000000000E+00  0.99474007236E+03  0.99474007237E+03  0.50400001928E-02 0. -1.
        1   -1    0    0  501    0  0.00000000000E+00  0.00000000000E+00 -0.25734066198E+04  0.25734066199E+04  0.50400001928E-02 0.  1.
    10030    2    1    2    0    0  0.00000000000E+00  0.00000000000E+00 -0.15786665475E+04  0.35681466922E+04  0.31999191785E+04 0.  0.
        3    1    3    3  502    0 -0.12097393902E+02  0.15891069775E+04 -0.99633901915E+03  0.18756595598E+04  0.10100000352E+00 0. -1.
       -3    1    3    3    0  502  0.12097393902E+02 -0.15891069775E+04 -0.58232752834E+03  0.16924871324E+04  0.10100000352E+00 0.  1.
</event>
<event>
 5   0  0.5233813E-07  0.3165840E+04  0.7818609E-02  0.8197897E-01
       -1   -1    0    0    0  501  0.00000000000E+00  0.00000000000E+00  0.11836036452E+04  0.11836036452E+04  0.50400001928E-02 0. -1.
        1   -1    0    0  501    0  0.00000000000E+00  0.00000000000E+00 -0.21169553637E+04  0.21169553637E+04  0.50400001928E-02 0.  1.
    10030    2    1    2    0    0  0.00000000000E+00  0.00000000000E+00 -0.93335171850E+03  0.33005590090E+04  0.31658402267E+04 0.  0.
        4    1    3    3  502    0 -0.27952457291E+02 -0.10973402059E+04  0.72233734841E+03  0.13140432737E+04  0.12699999809E+01 0. -1.
       -4    1    3    3    0  502  0.27952457291E+02  0.10973402059E+04 -0.16556890669E+04  0.19865157353E+04  0.12699999809E+01 0.  1.
</event>
<event>
 5   0  0.1508771E-06  0.3210971E+04  0.7818609E-02  0.8185926E-01
        2   -1    0    0  501    0  0.00000000000E+00  0.00000000000E+00  0.14560376306E+04  0.14560376306E+04  0.25500000920E-02 0.  1.
       -2   -1    0    0    0  501  0.00000000000E+00  0.00000000000E+00 -0.17702725346E+04  0.17702725346E+04  0.25500000920E-02 0. -1.
    10030    2    1    2    0    0  0.00000000000E+00  0.00000000000E+00 -0.31423490397E+03  0.32263101651E+04  0.32109708356E+04 0.  0.
        4    1    3    3  502    0 -0.10926704065E+04  0.49872704888E+03 -0.12275350647E+04  0.17174112013E+04  0.12699999809E+01 0. -1.
       -4    1    3    3    0  502  0.10926704065E+04 -0.49872704888E+03  0.91330016073E+03  0.15088989638E+04  0.12699999809E+01 0.  1.
</event>
<event>
 5   0  0.1493485E-06  0.3143233E+04  0.7818609E-02  0.8203972E-01
       -2   -1    0    0    0  501  0.00000000000E+00  0.00000000000E+00  0.10901777842E+04  0.10901777842E+04  0.25500000920E-02 0. -1.
        2   -1    0    0  501    0  0.00000000000E+00  0.00000000000E+00 -0.22656656949E+04  0.22656656949E+04  0.25500000920E-02 0.  1.
    10030    2    1    2    0    0  0.00000000000E+00  0.00000000000E+00 -0.11754879107E+04  0.33558434791E+04  0.31432329898E+04 0.  0.
        2    1    3    3  502    0  0.10778654419E+04 -0.70330602052E+03 -0.15507210330E+04  0.20152342275E+04  0.25500000920E-02 0.  1.
       -2    1    3    3    0  502 -0.10778654419E+04  0.70330602052E+03  0.37523312233E+03  0.13406092516E+04  0.25500000920E-02 0. -1.
</event>
<event>
 5   0  0.1572769E-06  0.3185755E+04  0.7818609E-02  0.8192589E-01
       -2   -1    0    0    0  501  0.00000000000E+00  0.00000000000E+00  0.12781363767E+04  0.12781363767E+04  0.25500000920E-02 0.  1.
        2   -1    0    0  501    0  0.00000000000E+00  0.00000000000E+00 -0.19851239698E+04  0.19851239698E+04  0.25500000920E-02 0. -1.
    10030    2    1    2    0    0  0.00000000000E+00  0.00000000000E+00 -0.70698759314E+03  0.32632603465E+04  0.31857552688E+04 0.  0.
        5    1    3    3  502    0  0.41771179609E+03  0.13437344509E+04  0.41107792055E+03  0.14659851861E+04  0.46999998093E+01 0.  1.
       -5    1    3    3    0  502 -0.41771179609E+03 -0.13437344509E+04 -0.11180655137E+04  0.17972751604E+04  0.46999998093E+01 0. -1.
</event>
<event>
 5   0  0.1556396E-06  0.3402791E+04  0.7818609E-02  0.8137222E-01
       -2   -1    0    0    0  501  0.00000000000E+00  0.00000000000E+00  0.99098748583E+03  0.99098748583E+03  0.25500000920E-02 0.  1.
        2   -1    0    0  501    0  0.00000000000E+00  0.00000000000E+00 -0.29210727551E+04  0.29210727551E+04  0.25500000920E-02 0. -1.
    10030    2    1    2    0    0  0.00000000000E+00  0.00000000000E+00 -0.19300852692E+04  0.39120602409E+04  0.34027909401E+04 0.  0.
        3    1    3    3  502    0 -0.74327426208E+03  0.13894814254E+04 -0.22743662221E+03  0.15921189301E+04  0.10100000352E+00 0.  1.
       -3    1    3    3    0  502  0.74327426208E+03 -0.13894814254E+04 -0.17026486470E+04  0.23199413108E+04  0.10100000352E+00 0. -1.
</event>
<event>
 5   0  0.1538349E-06  0.3196625E+04  0.7818609E-02  0.8189709E-01
       -2   -1    0    0    0  501  0.00000000000E+00  0.00000000000E+00  0.18213624804E+04  0.18213624804E+04  0.25500000920E-02 0. -1.
        2   -1    0    0  501    0  0.00000000000E+00  0.00000000000E+00 -0.14025776941E+04  0.14025776941E+04  0.25500000920E-02 0.  1.
    10030    2    1    2    0    0  0.00000000000E+00  0.00000000000E+00  0.41878478630E+03  0.32239401746E+04  0.31966247124E+04 0.  0.
        1    1    3    3  502    0  0.13648185190E+04 -0.77722477327E+03  0.50822559823E+03  0.16507880532E+04  0.50400001928E-02 0. -1.
       -1    1    3    3    0  502 -0.13648185190E+04  0.77722477327E+03 -0.89440811928E+02  0.15731521213E+04  0.50400001928E-02 0.  1.
</event>
<event>
 5   0  0.5177039E-07  0.3251713E+04  0.7818609E-02  0.8175292E-01
        1   -1    0    0  501    0  0.00000000000E+00  0.00000000000E+00  0.16161874212E+04  0.16161874212E+04  0.50400001928E-02 0.  1.
       -1   -1    0    0    0  501  0.00000000000E+00  0.00000000000E+00 -0.16355829240E+04  0.16355829240E+04  0.50400001928E-02 0. -1.
    10030    2    1    2    0    0  0.00000000000E+00  0.00000000000E+00 -0.19395502839E+02  0.32517703452E+04  0.32517125015E+04 0.  0.
        3    1    3    3  502    0 -0.15470248999E+04  0.49739188958E+03 -0.61888766796E+02  0.16261964710E+04  0.10100000352E+00 0. -1.
       -3    1    3    3    0  502  0.15470248999E+04 -0.49739188958E+03  0.42493263956E+02  0.16255738742E+04  0.10100000352E+00 0.  1.
</event>
<event>
 5   0  0.5177039E-07  0.3106474E+04  0.7818609E-02  0.8213963E-01
       -1   -1    0    0    0  501  0.00000000000E+00  0.00000000000E+00  0.23846231934E+04  0.23846231934E+04  0.50400001928E-02 0.  1.
        1   -1    0    0  501    0  0.00000000000E+00  0.00000000000E+00 -0.10117094928E+04  0.10117094928E+04  0.50400001928E-02 0. -1.
    10030    2    1    2    0    0  0.00000000000E+00  0.00000000000E+00  0.13729137006E+04  0.33963326862E+04  0.31064744786E+04 0.  0.
        3    1    3    3  502    0  0.10005780335E+04  0.55295167797E+03 -0.46314675761E+03  0.12334572909E+04  0.10100000352E+00 0. -1.
       -3    1    3    3    0  502 -0.10005780335E+04 -0.55295167797E+03  0.18360604582E+04  0.21628753953E+04  0.10100000352E+00 0.  1.
</event>
<event>
 5   0  0.1556396E-06  0.3193697E+04  0.7818609E-02  0.8190484E-01
       -2   -1    0    0    0  501  0.00000000000E+00  0.00000000000E+00  0.11608541314E+04  0.11608541314E+04  0.25500000920E-02 0. -1.
        2   -1    0    0  501    0  0.00000000000E+00  0.00000000000E+00 -0.21965941055E+04  0.21965941055E+04  0.25500000920E-02 0.  1.
    10030    2    1    2    0    0  0.00000000000E+00  0.00000000000E+00 -0.10357399741E+04  0.33574482369E+04  0.31936971318E+04 0.  0.
        3    1    3    3  502    0  0.11514428929E+04  0.11041628403E+04 -0.59167669488E+03  0.17014927666E+04  0.10100000352E+00 0. -1.
       -3    1    3    3    0  502 -0.11514428929E+04 -0.11041628403E+04 -0.44406327920E+03  0.16559554703E+04  0.10100000352E+00 0.  1.
</event>
<event>
 5   0  0.5233813E-07  0.3207601E+04  0.7818609E-02  0.8186813E-01
       -1   -1    0    0    0  501  0.00000000000E+00  0.00000000000E+00  0.23447623367E+04  0.23447623367E+04  0.50400001928E-02 0. -1.
        1   -1    0    0  501    0  0.00000000000E+00  0.00000000000E+00 -0.10969881035E+04  0.10969881035E+04  0.50400001928E-02 0.  1.
    10030    2    1    2    0    0  0.00000000000E+00  0.00000000000E+00  0.12477742331E+04  0.34417504402E+04  0.32076012152E+04 0.  0.
        4    1    3    3  502    0 -0.42900696453E+03 -0.97765975498E+03  0.19080419733E+04  0.21864334787E+04  0.12699999809E+01 0. -1.
       -4    1    3    3    0  502  0.42900696453E+03  0.97765975498E+03 -0.66026774018E+03  0.12553169615E+04  0.12699999809E+01 0.  1.
</event>
<event>
 5   0  0.1538349E-06  0.3211920E+04  0.7818609E-02  0.8185676E-01
        2   -1    0    0  501    0  0.00000000000E+00  0.00000000000E+00  0.16841315932E+04  0.16841315932E+04  0.25500000920E-02 0.  1.
       -2   -1    0    0    0  501  0.00000000000E+00  0.00000000000E+00 -0.15314166700E+04  0.15314166700E+04  0.25500000920E-02 0. -1.
    10030    2    1    2    0    0  0.00000000000E+00  0.00000000000E+00  0.15271492321E+03  0.32155482633E+04  0.32119197975E+04 0.  0.
        1    1    3    3  502    0 -0.32911788555E+03 -0.74751968029E+03 -0.13079565610E+04  0.15420293838E+04  0.50400001928E-02 0. -1.
       -1    1    3    3    0  502  0.32911788555E+03  0.74751968029E+03  0.14606714842E+04  0.16735188794E+04  0.50400001928E-02 0.  1.
</event>
<event>
 5   0  0.1556396E-06  0.2859371E+04  0.7818609E-02  0.8285069E-01
       -2   -1    0    0    0  501  0.00000000000E+00  0.00000000000E+00  0.95882057843E+03  0.95882057843E+03  0.25500000920E-02 0.  1.
        2   -1    0    0  501    0  0.00000000000E+00  0.00000000000E+00 -0.21317867669E+04  0.21317867669E+04  0.25500000920E-02 0. -1.
    10030    2    1    2    0    0  0.00000000000E+00  0.00000000000E+00 -0.11729661884E+04  0.30906073453E+04  0.28593712742E+04 0.  0.
        3    1    3    3  502    0 -0.89252168150E+02 -0.54007618229E+03  0.84106399636E+03  0.10035122761E+04  0.10100000352E+00 0.  1.
       -3    1    3    3    0  502  0.89252168150E+02  0.54007618229E+03 -0.20140301848E+04  0.20870950691E+04  0.10100000352E+00 0. -1.
</event>
<event>
 5   0  0.5177039E-07  0.2930364E+04  0.7818609E-02  0.8263900E-01
        1   -1    0    0  501    0  0.00000000000E+00  0.00000000000E+00  0.18825199736E+04  0.18825199736E+04  0.50400001928E-02 0. -1.
       -1   -1    0    0    0  501  0.00000000000E+00  0.00000000000E+00 -0.11403642621E+04  0.11403642621E+04  0.50400001928E-02 0.  1.
    10030    2    1    2    0    0  0.00000000000E+00  0.00000000000E+00  0.74215571150E+03  0.30228842358E+04  0.29303641417E+04 0.  0.
        3    1    3    3  502    0 -0.77080487184E+03  0.10305315201E+04 -0.35148217124E+03  0.13340446362E+04  0.10100000352E+00 0.  1.
       -3    1    3    3    0  502  0.77080487184E+03 -0.10305315201E+04  0.10936378827E+04  0.16888395996E+04  0.10100000352E+00 0. -1.
</event>
<event>
 5   0  0.1556396E-06  0.3210361E+04  0.7818609E-02  0.8186086E-01
        2   -1    0    0  501    0  0.00000000000E+00  0.00000000000E+00  0.17783439068E+04  0.17783439068E+04  0.25500000920E-02 0.  1.
       -2   -1    0    0    0  501  0.00000000000E+00  0.00000000000E+00 -0.14488789577E+04  0.14488789577E+04  0.25500000920E-02 0. -1.
    10030    2    1    2    0    0  0.00000000000E+00  0.00000000000E+00  0.32946494916E+03  0.32272228645E+04  0.32103613915E+04 0.  0.
        3    1    3    3  502    0 -0.12475423844E+04 -0.49207550262E+03 -0.72200297025E+03  0.15230852243E+04  0.10100000352E+00 0. -1.
       -3    1    3    3    0  502  0.12475423844E+04  0.49207550262E+03  0.10514679194E+04  0.17041376402E+04  0.10100000352E+00 0.  1.
</event>
<event>
 5   0  0.1538349E-06  0.3134586E+04  0.7818609E-02  0.8206310E-01
        2   -1    0    0  501    0  0.00000000000E+00  0.00000000000E+00  0.22398684800E+04  0.22398684800E+04  0.25500000920E-02 0. -1.
       -2   -1    0    0    0  501  0.00000000000E+00  0.00000000000E+00 -0.10966746561E+04  0.10966746561E+04  0.25500000920E-02 0.  1.
    10030    2    1    2    0    0  0.00000000000E+00  0.00000000000E+00  0.11431938239E+04  0.33365431361E+04  0.31345857749E+04 0.  0.
        1    1    3    3  502    0  0.53005388675E+03  0.12107794981E+04 -0.32496735136E+03  0.13610833536E+04  0.50400001928E-02 0.  1.
       -1    1    3    3    0  502 -0.53005388675E+03 -0.12107794981E+04  0.14681611753E+04  0.19754597825E+04  0.50400001928E-02 0. -1.
</event>
<event>
 5   0  0.5317728E-07  0.3214753E+04  0.7818609E-02  0.8184932E-01
        1   -1    0    0  501    0  0.00000000000E+00  0.00000000000E+00  0.12791689358E+04  0.12791689358E+04  0.50400001928E-02 0. -1.
       -1   -1    0    0    0  501  0.00000000000E+00  0.00000000000E+00 -0.20197952409E+04  0.20197952409E+04  0.50400001928E-02 0.  1.
    10030    2    1    2    0    0  0.00000000000E+00  0.00000000000E+00 -0.74062630515E+03  0.32989641767E+04  0.32147530722E+04 0.  0.
        2    1    3    3  502    0  0.12347932142E+04  0.54559587747E+03 -0.12656766609E+04  0.18504935972E+04  0.25500000920E-02 0.  1.
       -2    1    3    3    0  502 -0.12347932142E+04 -0.54559587747E+03  0.52505035576E+03  0.14484705794E+04  0.25500000920E-02 0. -1.
</event>
<event>
 5   0  0.1508771E-06  0.3212144E+04  0.7818609E-02  0.8185617E-01
       -2   -1    0    0    0  501  0.00000000000E+00  0.00000000000E+00  0.27306816863E+04  0.27306816863E+04  0.25500000920E-02 0. -1.
        2   -1    0    0  501    0  0.00000000000E+00  0.00000000000E+00 -0.94462394404E+03  0.94462394405E+03  0.25500000920E-02 0.  1.
    10030    2    1    2    0    0  0.00000000000E+00  0.00000000000E+00  0.17860577423E+04  0.36753056304E+04  0.32121440220E+04 0.  0.
        4    1    3    3  502    0 -0.99798475014E+02 -0.15026890221E+04  0.25450104209E+03  0.15273527511E+04  0.12699999809E+01 0.  1.
       -4    1    3    3    0  502  0.99798475014E+02  0.15026890221E+04  0.15315567002E+04  0.21479528793E+04  0.12699999809E+01 0. -1.
</event>
<event>
 5   0  0.1493485E-06  0.3193974E+04  0.7818609E-02  0.8190411E-01
        2   -1    0    0  501    0  0.00000000000E+00  0.00000000000E+00  0.23736224149E+04  0.23736224149E+04  0.25500000920E-02 0. -1.
       -2   -1    0    0    0  501  0.00000000000E+00  0.00000000000E+00 -0.10744618330E+04  0.10744618330E+04  0.25500000920E-02 0.  1.
    10030    2    1    2    0    0  0.00000000000E+00  0.00000000000E+00  0.12991605819E+04  0.34480842479E+04  0.31939735070E+04 0.  0.
        2    1    3    3  502    0  0.46888062156E+02  0.87311640547E+03 -0.79309083190E+03  0.11804760970E+04  0.25500000920E-02 0.  1.
       -2    1    3    3    0  502 -0.46888062156E+02 -0.87311640547E+03  0.20922514138E+04  0.22676081510E+04  0.25500000920E-02 0. -1.
</event>
<event>
 5   0  0.5177039E-07  0.3069160E+04  0.7818609E-02  0.8224253E-01
        1   -1    0    0  501    0  0.00000000000E+00  0.00000000000E+00  0.12354725117E+04  0.12354725118E+04  0.50400001928E-02 0. -1.
       -1   -1    0    0    0  501  0.00000000000E+00  0.00000000000E+00 -0.19061014043E+04  0.19061014043E+04  0.50400001928E-02 0.  1.
    10030    2    1    2    0    0  0.00000000000E+00  0.00000000000E+00 -0.67062889253E+03  0.31415739160E+04  0.30691600738E+04 0.  0.
        3    1    3    3  502    0  0.11110541707E+04  0.64971515105E+03 -0.11907137490E+04  0.17533882599E+04  0.10100000352E+00 0.  1.
       -3    1    3    3    0  502 -0.11110541707E+04 -0.64971515105E+03  0.52008485642E+03  0.13881856561E+04  0.10100000352E+00 0. -1.
</event>
<event>
 5   0  0.5233813E-07  0.3196405E+04  0.7818609E-02  0.8189767E-01
        1   -1    0    0  501    0  0.00000000000E+00  0.00000000000E+00  0.18207788338E+04  0.18207788338E+04  0.50400001928E-02 0. -1.
       -1   -1    0    0    0  501  0.00000000000E+00  0.00000000000E+00 -0.14028345374E+04  0.14028345375E+04  0.50400001928E-02 0.  1.
    10030    2    1    2    0    0  0.00000000000E+00  0.00000000000E+00  0.41794429638E+03  0.32236133713E+04  0.31964051265E+04 0.  0.
        4    1    3    3  502    0  0.13871952261E+04 -0.77262315566E+03  0.39215716827E+03  0.16355567839E+04  0.12699999809E+01 0.  1.
       -4    1    3    3    0  502 -0.13871952261E+04  0.77262315566E+03  0.25787128111E+02  0.15880565874E+04  0.12699999809E+01 0. -1.
</event>
<event>
 5   0  0.5281187E-07  0.3189832E+04  0.7818609E-02  0.8191508E-01
       -1   -1    0    0    0  501  0.00000000000E+00  0.00000000000E+00  0.11297802161E+04  0.11297802161E+04  0.50400001928E-02 0. -1.
        1   -1    0    0  501    0  0.00000000000E+00  0.00000000000E+00 -0.22515498964E+04  0.22515498964E+04  0.50400001928E-02 0.  1.
    10030    2    1    2    0    0  0.00000000000E+00  0.00000000000E+00 -0.11217696803E+04  0.33813301125E+04  0.31898316749E+04 0.  0.
        5    1    3    3  502    0 -0.12662336351E+04 -0.64613810970E+03 -0.13274091898E+04  0.19449625505E+04  0.46999998093E+01 0.  1.
       -5    1    3    3    0  502  0.12662336351E+04  0.64613810970E+03  0.20563950954E+03  0.14363675621E+04  0.46999998093E+01 0. -1.
</event>
<event>
 5   0  0.5233813E-07  0.3260319E+04  0.7818609E-02  0.8173066E-01
       -1   -1    0    0    0  501  0.00000000000E+00  0.00000000000E+00  0.14136184074E+04  0.14136184074E+04  0.50400001928E-02 0. -1.
        1   -1    0    0  501    0  0.00000000000E+00  0.00000000000E+00 -0.18798710441E+04  0.18798710441E+04  0.50400001928E-02 0.  1.
    10030    2    1    2    0    0  0.00000000000E+00  0.00000000000E+00 -0.46625263673E+03  0.32934894516E+04  0.32603191939E+04 0.  0.
        4    1    3    3  502    0  0.39714960322E+03  0.82160567611E+03 -0.15976671551E+04  0.18399200107E+04  0.12699999809E+01 0.  1.
       -4    1    3    3    0  502 -0.39714960322E+03 -0.82160567611E+03  0.11314145183E+04  0.14535694409E+04  0.12699999809E+01 0. -1.
</event>
<event>
 5   0  0.5370912E-07  0.3203189E+04  0.7818609E-02  0.8187975E-01
       -1   -1    0    0    0  501  0.00000000000E+00  0.00000000000E+00  0.21702624364E+04  0.21702624364E+04  0.50400001928E-02 0. -1.
        1   -1    0    0  501    0  0.00000000000E+00  0.00000000000E+00 -0.11819331393E+04  0.11819331393E+04  0.50400001928E-02 0.  1.
    10030    2    1    2    0    0  0.00000000000E+00  0.00000000000E+00  0.98832929708E+03  0.33521955757E+04  0.32031890949E+04 0.  0.
        1    1    3    3  502    0 -0.65201969958E+03  0.78932846068E+03  0.17830978136E+04  0.20561145202E+04  0.50400001928E-02 0. -1.
       -1    1    3    3    0  502  0.65201969958E+03 -0.78932846068E+03 -0.79476851648E+03  0.12960810554E+04  0.50400001928E-02 0.  1.
</event>
<event>
 5   0  0.1572769E-06  0.3210850E+04  0.7818609E-02  0.8185958E-01
        2   -1    0    0  501    0  0.00000000000E+00  0.00000000000E+00  0.17266323092E+04  0.17266323092E+04  0.25500000920E-02 0.  1.
       -2   -1    0    0    0  501  0.00000000000E+00  0.00000000000E+00 -0.14927259375E+04  0.14927259375E+04  0.25500000920E-02 0. -1.
    10030    2    1    2    0    0  0.00000000000E+00  0.00000000000E+00  0.23390637167E+03  0.32193582467E+04  0.32108496274E+04 0.  0.
        5    1    3    3  502    0  0.10708157040E+04 -0.10985911602E+04  0.59130086584E+03  0.16441434284E+04  0.46999998093E+01 0. -1.
       -5    1    3    3    0  502 -0.10708157040E+04  0.10985911602E+04 -0.35739449417E+03  0.15752148183E+04  0.46999998093E+01 0.  1.
</event>
<event>
 5   0  0.5233813E-07  0.3188527E+04  0.7818609E-02  0.8191854E-01
       -1   -1    0    0    0  501  0.00000000000E+00  0.00000000000E+00  0.12006691124E+04  0.12006691124E+04  0.50400001928E-02 0. -1.
        1   -1    0    0  501    0  0.00000000000E+00  0.00000000000E+00 -0.21168829602E+04  0.21168829602E+04  0.50400001928E-02 0.  1.
    10030    2    1    2    0    0  0.00000000000E+00  0.00000000000E+00 -0.91621384772E+03  0.33175520726E+04  0.31885269232E+04 0.  0.
        4    1    3    3  502    0 -0.49533705456E+03  0.52126756957E+03 -0.19385673896E+04  0.20676372538E+04  0.12699999809E+01 0.  1.
       -4    1    3    3    0  502  0.49533705456E+03 -0.52126756957E+03  0.10223535418E+04  0.12499148188E+04  0.12699999809E+01 0. -1.
</event>
<event>
 5   0  0.1572769E-06  0.2995510E+04  0.7818609E-02  0.8245014E-01
       -2   -1    0    0    0  501  0.00000000000E+00  0.00000000000E+00  0.11008933598E+04  0.11008933598E+04  0.25500000920E-02 0.  1.
        2   -1    0    0  501    0  0.00000000000E+00  0.00000000000E+00 -0.20376809096E+04  0.20376809096E+04  0.25500000920E-02 0. -1.
    10030    2    1    2    0    0  0.00000000000E+00  0.00000000000E+00 -0.93678754977E+03  0.31385742695E+04  0.29955095612E+04 0.  0.
        5    1    3    3  502    0 -0.15879427171E+03 -0.12759832396E+03  0.10863031369E+04  0.11052481840E+04  0.46999998093E+01 0.  1.
       -5    1    3    3    0  502  0.15879427171E+03  0.12759832396E+03 -0.20230906867E+04  0.20333260854E+04  0.46999998093E+01 0. -1.
</event>
<event>
 5   0  0.1556396E-06  0.3193596E+04  0.7818609E-02  0.8190510E-01
        2   -1    0    0  501    0  0.00000000000E+00  0.00000000000E+00  0.25396969535E+04  0.25396969535E+04  0.25500000920E-02 0.  1.
       -2   -1    0    0    0  501  0.00000000000E+00  0.00000000000E+00 -0.10039640132E+04  0.10039640132E+04  0.25500000920E-02 0. -1.
    10030    2    1    2    0    0  0.00000000000E+00  0.00000000000E+00  0.15357329403E+04  0.35436609667E+04  0.31935963088E+04 0.  0.
        3    1    3    3  502    0  0.10969909998E+04  0.78467976819E+03 -0.18061239253E+03  0.13607837590E+04  0.10100000352E+00 0. -1.
       -3    1    3    3    0  502 -0.10969909998E+04 -0.78467976819E+03  0.17163453328E+04  0.21828772077E+04  0.10100000352E+00 0.  1.
</event>
<event>
 5   0  0.1556396E-06  0.3202089E+04  0.7818609E-02  0.8188266E-01
       -2   -1    0    0    0  501  0.00000000000E+00  0.00000000000E+00  0.15989572378E+04  0.15989572378E+04  0.25500000920E-02 0.  1.
        2   -1    0    0  501    0  0.00000000000E+00  0.00000000000E+00 -0.16031342117E+04  0.16031342117E+04  0.25500000920E-02 0. -1.
    10030    2    1    2    0    0  0.00000000000E+00  0.00000000000E+00 -0.41769738682E+01  0.32020914495E+04  0.32020887251E+04 0.  0.
        3    1    3    3  502    0  0.17802837472E+02 -0.16214036212E+02  0.15987761437E+04  0.15989574740E+04  0.10100000352E+00 0.  1.
       -3    1    3    3    0  502 -0.17802837472E+02  0.16214036212E+02 -0.16029531175E+04  0.16031339754E+04  0.10100000352E+00 0. -1.
</event>
<event>
 5   0  0.5281187E-07  0.3201329E+04  0.7818609E-02  0.8188466E-01
       -1   -1    0    0    0  501  0.00000000000E+00  0.00000000000E+00  0.26373830953E+04  0.26373830953E+04  0.50400001928E-02 0. -1.
        1   -1    0    0  501    0  0.00000000000E+00  0.00000000000E+00 -0.97146571038E+03  0.97146571039E+03  0.50400001928E-02 0.  1.
    10030    2    1    2    0    0  0.00000000000E+00  0.00000000000E+00  0.16659173849E+04  0.36088488057E+04  0.32013292503E+04 0.  0.
        5    1    3    3  502    0 -0.96570986918E+03 -0.38606688942E+03  0.22045886781E+04  0.24375964646E+04  0.46999998093E+01 0. -1.
       -5    1    3    3    0  502  0.96570986918E+03  0.38606688942E+03 -0.53867129316E+03  0.11712523411E+04  0.46999998093E+01 0.  1.
</event>
<event>
 5   0  0.1572769E-06  0.3168228E+04  0.7818609E-02  0.8197259E-01
        2   -1    0    0  501    0  0.00000000000E+00  0.00000000000E+00  0.17863363954E+04  0.17863363954E+04  0.25500000920E-02 0.  1.
       -2   -1    0    0    0  501  0.00000000000E+00  0.00000000000E+00 -0.14047840027E+04  0.14047840027E+04  0.25500000920E-02 0. -1.
    10030    2    1    2    0    0  0.00000000000E+00  0.00000000000E+00  0.38155239268E+03  0.31911203981E+04  0.31682277643E+04 0.  0.
        5    1    3    3  502    0  0.11331482043E+04 -0.35921276481E+03 -0.86385020612E+03  0.14694617831E+04  0.46999998093E+01 0. -1.
       -5    1    3    3    0  502 -0.11331482043E+04  0.35921276481E+03  0.12454025988E+04  0.17216586150E+04  0.46999998093E+01 0.  1.
</event>
<event>
 5   0  0.1556396E-06  0.3181930E+04  0.7818609E-02  0.8193606E-01
       -2   -1    0    0    0  501  0.00000000000E+00  0.00000000000E+00  0.13848975100E+04  0.13848975100E+04  0.25500000920E-02 0.  1.
        2   -1    0    0  501    0  0.00000000000E+00  0.00000000000E+00 -0.18276946194E+04  0.18276946194E+04  0.25500000920E-02 0. -1.
    10030    2    1    2    0    0  0.00000000000E+00  0.00000000000E+00 -0.44279710943E+03  0.32125921295E+04  0.31819300605E+04 0.  0.
        3    1    3    3  502    0 -0.67178280522E+03 -0.15661817162E+03  0.12260651367E+04  0.14067896497E+04  0.10100000352E+00 0.  1.
       -3    1    3    3    0  502  0.67178280522E+03  0.15661817162E+03 -0.16688622461E+04  0.18058024797E+04  0.10100000352E+00 0. -1.
</event>
<event>
 5   0  0.5177039E-07  0.3207999E+04  0.7818609E-02  0.8186708E-01
       -1   -1    0    0    0  501  0.00000000000E+00  0.00000000000E+00  0.18451308587E+04  0.18451308587E+04  0.50400001928E-02 0.  1.
        1   -1    0    0  501    0  0.00000000000E+00  0.00000000000E+00 -0.13943803762E+04  0.13943803762E+04  0.50400001928E-02 0. -1.
    10030    2    1    2    0    0  0.00000000000E+00  0.00000000000E+00  0.45075048244E+03  0.32395112349E+04  0.32079989158E+04 0.  0.
        3    1    3    3  502    0  0.73706305682E+03 -0.96543857302E+03 -0.83252256383E+03  0.14725581202E+04  0.10100000352E+00 0. -1.
       -3    1    3    3    0  502 -0.73706305682E+03  0.96543857302E+03  0.12832730463E+04  0.17669531147E+04  0.10100000352E+00 0.  1.
</event>
<event>
 5   0  0.5177039E-07  0.3056020E+04  0.7818609E-02  0.8227912E-01
        1   -1    0    0  501    0  0.00000000000E+00  0.00000000000E+00  0.14356675222E+04  0.14356675222E+04  0.50400001928E-02 0.  1.
       -1   -1    0    0    0  501  0.00000000000E+00  0.00000000000E+00 -0.16262922815E+04  0.16262922815E+04  0.50400001928E-02 0. -1.
    10030    2    1    2    0    0  0.00000000000E+00  0.00000000000E+00 -0.19062475923E+03  0.30619598037E+04  0.30560202945E+04 0.  0.
        3    1    3    3  502    0 -0.22541883867E+03 -0.10847464790E+04 -0.11496533495E+04  0.15966187431E+04  0.10100000352E+00 0. -1.
       -3    1    3    3    0  502  0.22541883867E+03  0.10847464790E+04  0.95902859030E+03  0.14653410606E+04  0.10100000352E+00 0.  1.
</event>
<event>
 5   0  0.5233813E-07  0.3189980E+04  0.7818609E-02  0.8191468E-01
        1   -1    0    0  501    0  0.00000000000E+00  0.00000000000E+00  0.19865130849E+04  0.19865130849E+04  0.50400001928E-02 0. -1.
       -1   -1    0    0    0  501  0.00000000000E+00  0.00000000000E+00 -0.12806323491E+04  0.12806323491E+04  0.50400001928E-02 0.  1.
    10030    2    1    2    0    0  0.00000000000E+00  0.00000000000E+00  0.70588073571E+03  0.32671454340E+04  0.31899798861E+04 0.  0.
        4    1    3    3  502    0 -0.13498939282E+04  0.48994578774E+03  0.10637981718E+04  0.17871565839E+04  0.12699999809E+01 0. -1.
       -4    1    3    3    0  502  0.13498939282E+04 -0.48994578774E+03 -0.35791743607E+03  0.14799888501E+04  0.12699999809E+01 0.  1.
</event>
<event>
 5   0  0.1538349E-06  0.3185836E+04  0.7818609E-02  0.8192568E-01
       -2   -1    0    0    0  501  0.00000000000E+00  0.00000000000E+00  0.18880430957E+04  0.18880430957E+04  0.25500000920E-02 0. -1.
        2   -1    0    0  501    0  0.00000000000E+00  0.00000000000E+00 -0.13439246107E+04  0.13439246107E+04  0.25500000920E-02 0.  1.
    10030    2    1    2    0    0  0.00000000000E+00  0.00000000000E+00  0.54411848503E+03  0.32319677064E+04  0.31858358918E+04 0.  0.
        1    1    3    3  502    0 -0.10226385554E+04 -0.26024376007E+03 -0.93848023679E+03  0.14121832687E+04  0.50400001928E-02 0.  1.
       -1    1    3    3    0  502  0.10226385554E+04  0.26024376007E+03  0.14825987218E+04  0.18197844377E+04  0.50400001928E-02 0. -1.
</event>
<event>
 5   0  0.1572769E-06  0.3144334E+04  0.7818609E-02  0.8203675E-01
        2   -1    0    0  501    0  0.00000000000E+00  0.00000000000E+00  0.12336023030E+04  0.12336023030E+04  0.25500000920E-02 0.  1.
       -2   -1    0    0    0  501  0.00000000000E+00  0.00000000000E+00 -0.20036512372E+04  0.20036512373E+04  0.25500000920E-02 0. -1.
    10030    2    1    2    0    0  0.00000000000E+00  0.00000000000E+00 -0.77004893427E+03  0.32372535402E+04  0.31443338122E+04 0.  0.
        5    1    3    3  502    0 -0.18655225570E+03 -0.15539182896E+04 -0.53850326615E+03  0.16551349349E+04  0.46999998093E+01 0. -1.
       -5    1    3    3    0  502  0.18655225570E+03  0.15539182896E+04 -0.23154566812E+03  0.15821186054E+04  0.46999998093E+01 0.  1.
</event>
<event>
 5   0  0.1493485E-06  0.3206535E+04  0.7818609E-02  0.8187093E-01
       -2   -1    0    0    0  501  0.00000000000E+00  0.00000000000E+00  0.15575408038E+04  0.15575408038E+04  0.25500000920E-02 0.  1.
        2   -1    0    0  501    0  0.00000000000E+00  0.00000000000E+00 -0.16503371033E+04  0.16503371033E+04  0.25500000920E-02 0. -1.
    10030    2    1    2    0    0  0.00000000000E+00  0.00000000000E+00 -0.92796299461E+02  0.32078779071E+04  0.32065354378E+04 0.  0.
        2    1    3    3  502    0  0.22152231740E+03  0.14562659932E+04 -0.67965968751E+03  0.16222577079E+04  0.25500000920E-02 0. -1.
       -2    1    3    3    0  502 -0.22152231740E+03 -0.14562659932E+04  0.58686338805E+03  0.15856201992E+04  0.25500000920E-02 0.  1.
</event>
<event>
 5   0  0.1556396E-06  0.3202267E+04  0.7818609E-02  0.8188219E-01
        2   -1    0    0  501    0  0.00000000000E+00  0.00000000000E+00  0.22092382230E+04  0.22092382230E+04  0.25500000920E-02 0.  1.
       -2   -1    0    0    0  501  0.00000000000E+00  0.00000000000E+00 -0.11604129676E+04  0.11604129676E+04  0.25500000920E-02 0. -1.
    10030    2    1    2    0    0  0.00000000000E+00  0.00000000000E+00  0.10488252554E+04  0.33696511906E+04  0.32022671234E+04 0.  0.
        3    1    3    3  502    0  0.11310148709E+04 -0.90148513914E+03  0.12471612847E+04  0.19097856882E+04  0.10100000352E+00 0. -1.
       -3    1    3    3    0  502 -0.11310148709E+04  0.90148513914E+03 -0.19833602938E+03  0.14598655024E+04  0.10100000352E+00 0.  1.
</event>
<event>
 5   0  0.5317728E-07  0.3201232E+04  0.7818609E-02  0.8188492E-01
        1   -1    0    0  501    0  0.00000000000E+00  0.00000000000E+00  0.17284954150E+04  0.17284954150E+04  0.50400001928E-02 0. -1.
       -1   -1    0    0    0  501  0.00000000000E+00  0.00000000000E+00 -0.14821970729E+04  0.14821970729E+04  0.50400001928E-02 0.  1.
    10030    2    1    2    0    0  0.00000000000E+00  0.00000000000E+00  0.24629834211E+03  0.32106924879E+04  0.32012315409E+04 0.  0.
        2    1    3    3  502    0 -0.20826522299E+03 -0.45802135111E+03  0.16471176813E+04  0.17222527739E+04  0.25500000920E-02 0. -1.
       -2    1    3    3    0  502  0.20826522299E+03  0.45802135111E+03 -0.14008193392E+04  0.14884397140E+04  0.25500000920E-02 0.  1.
</event>
<event>
 5   0  0.5370912E-07  0.3201488E+04  0.7818609E-02  0.8188424E-01
       -1   -1    0    0    0  501  0.00000000000E+00  0.00000000000E+00  0.93637473111E+03  0.93637473112E+03  0.50400001928E-02 0.  1.
        1   -1    0    0  501    0  0.00000000000E+00  0.00000000000E+00 -0.27364914078E+04  0.27364914078E+04  0.50400001928E-02 0. -1.
    10030    2    1    2    0    0  0.00000000000E+00  0.00000000000E+00 -0.18001166767E+04  0.36728661389E+04  0.32014880329E+04 0.  0.
        1    1    3    3  502    0 -0.12413455317E+04 -0.10080330323E+04 -0.98367361718E+03  0.18774139417E+04  0.50400001928E-02 0. -1.
       -1    1    3    3    0  502  0.12413455317E+04  0.10080330323E+04 -0.81644305948E+03  0.17954521972E+04  0.50400001928E-02 0.  1.
</event>
<event>
 5   0  0.1556396E-06  0.3211734E+04  0.7818609E-02  0.8185725E-01
       -2   -1    0    0    0  501  0.00000000000E+00  0.00000000000E+00  0.15309984313E+04  0.15309984313E+04  0.25500000920E-02 0.  1.
        2   -1    0    0  501    0  0.00000000000E+00  0.00000000000E+00 -0.16843969740E+04  0.16843969740E+04  0.25500000920E-02 0. -1.
    10030    2    1    2    0    0  0.00000000000E+00  0.00000000000E+00 -0.15339854267E+03  0.32153954053E+04  0.32117341888E+04 0.  0.
        3    1    3    3  502    0  0.24147037759E+03 -0.13561315567E+04 -0.90311490589E+03  0.16471239436E+04  0.10100000352E+00 0. -1.
       -3    1    3    3    0  502 -0.24147037759E+03  0.13561315567E+04  0.74971636322E+03  0.15682714617E+04  0.10100000352E+00 0.  1.
</event>
<event>
 5   0  0.1572769E-06  0.3202202E+04  0.7818609E-02  0.8188236E-01
       -2   -1    0    0    0  501  0.00000000000E+00  0.00000000000E+00  0.10467008267E+04  0.10467008267E+04  0.25500000920E-02 0.  1.
        2   -1    0    0  501    0  0.00000000000E+00  0.00000000000E+00 -0.24491474810E+04  0.24491474810E+04  0.25500000920E-02 0. -1.
    10030    2    1    2    0    0  0.00000000000E+00  0.00000000000E+00 -0.14024466543E+04  0.34958483077E+04  0.32022021755E+04 0.  0.
        5    1    3    3  502    0 -0.27779152154E+03  0.14821697064E+04 -0.11382366532E+03  0.15122741434E+04  0.46999998093E+01 0.  1.
       -5    1    3    3    0  502  0.27779152154E+03 -0.14821697064E+04 -0.12886229890E+04  0.19835741644E+04  0.46999998093E+01 0. -1.
</event>
<event>
 5   0  0.5177039E-07  0.3210682E+04  0.7818609E-02  0.8186002E-01
       -1   -1    0    0    0  501  0.00000000000E+00  0.00000000000E+00  0.18767228763E+04  0.18767228763E+04  0.50400001928E-02 0.  1.
        1   -1    0    0  501    0  0.00000000000E+00  0.00000000000E+00 -0.13732018318E+04  0.13732018318E+04  0.50400001928E-02 0. -1.
    10030    2    1    2    0    0  0.00000000000E+00  0.00000000000E+00  0.50352104451E+03  0.32499247081E+04  0.32106817292E+04 0.  0.
        3    1    3    3  502    0  0.99288531825E+03 -0.52130393683E+03 -0.91099218950E+03  0.14448134237E+04  0.10100000352E+00 0. -1.
       -3    1    3    3    0  502 -0.99288531825E+03  0.52130393683E+03  0.14145132340E+04  0.18051112844E+04  0.10100000352E+00 0.  1.
</event>
<event>
 5   0  0.5233813E-07  0.3198428E+04  0.7818609E-02  0.8189232E-01
        1   -1    0    0  501    0  0.00000000000E+00  0.00000000000E+00  0.15251815648E+04  0.15251815648E+04  0.50400001928E-02 0.  1.
       -1   -1    0    0    0  501  0.00000000000E+00  0.00000000000E+00 -0.16768401404E+04  0.16768401404E+04  0.50400001928E-02 0. -1.
    10030    2    1    2    0    0  0.00000000000E+00  0.00000000000E+00 -0.15165857554E+03  0.32020217052E+04  0.31984281572E+04 0.  0.
        4    1    3    3  502    0 -0.46683382009E+03 -0.13733849601E+04  0.59825031111E+03  0.15690841634E+04  0.12699999809E+01 0.  1.
       -4    1    3    3    0  502  0.46683382009E+03  0.13733849601E+04 -0.74990888665E+03  0.16329375418E+04  0.12699999809E+01 0. -1.
</event>
<event>
 5   0  0.5317728E-07  0.3052966E+04  0.7818609E-02  0.8228766E-01
        1   -1    0    0  501    0  0.00000000000E+00  0.00000000000E+00  0.13093633755E+04  0.13093633755E+04  0.50400001928E-02 0. -1.
       -1   -1    0    0    0  501  0.00000000000E+00  0.00000000000E+00 -0.17796051806E+04  0.17796051806E+04  0.50400001928E-02 0.  1.
    10030    2    1    2    0    0  0.00000000000E+00  0.00000000000E+00 -0.47024180508E+03  0.30889685560E+04  0.30529656704E+04 0.  0.
        2    1    3    3  502    0 -0.82070129991E+03  0.11331396546E+04  0.38248202637E+03  0.14504649603E+04  0.25500000920E-02 0. -1.
       -2    1    3    3    0  502  0.82070129991E+03 -0.11331396546E+04 -0.85272383145E+03  0.16385035957E+04  0.25500000920E-02 0.  1.
</event>
<event>
 5   0  0.1508771E-06  0.3212872E+04  0.7818609E-02  0.8185426E-01
       -2   -1    0    0    0  501  0.00000000000E+00  0.00000000000E+00  0.15416694973E+04  0.15416694974E+04  0.25500000920E-02 0.  1.
        2   -1    0    0  501    0  0.00000000000E+00  0.00000000000E+00 -0.16739230412E+04  0.16739230412E+04  0.25500000920E-02 0. -1.
    10030    2    1    2    0    0  0.00000000000E+00  0.00000000000E+00 -0.13225354387E+03  0.32155925386E+04  0.32128716710E+04 0.  0.
        4    1    3    3  502    0 -0.80421904707E+03 -0.76129779406E+03  0.10985992254E+04  0.15598924572E+04  0.12699999809E+01 0.  1.
       -4    1    3    3    0  502  0.80421904707E+03  0.76129779406E+03 -0.12308527693E+04  0.16557000814E+04  0.12699999809E+01 0. -1.
</event>
<event>
 5   0  0.5281187E-07  0.3188771E+04  0.7818609E-02  0.8191789E-01
       -1   -1    0    0    0  501  0.00000000000E+00  0.00000000000E+00  0.23180739322E+04  0.23180739322E+04  0.50400001928E-02 0. -1.
        1   -1    0    0  501    0  0.00000000000E+00  0.00000000000E+00 -0.10966284914E+04  0.10966284915E+04  0.50400001928E-02 0.  1.
    10030    2    1    2    0    0  0.00000000000E+00  0.00000000000E+00  0.12214454408E+04  0.34147024237E+04  0.31887714997E+04 0.  0.
        5    1    3    3  502    0  0.22900659977E+03  0.14723526762E+04  0.32773386153E+01  0.14900668632E+04  0.46999998093E+01 0.  1.
       -5    1    3    3    0  502 -0.22900659977E+03 -0.14723526762E+04  0.12181681021E+04  0.19246355605E+04  0.46999998093E+01 0. -1.
</event>
<event>
 5   0  0.1572769E-06  0.3080377E+04  0.7818609E-02  0.8221144E-01
       -2   -1    0    0    0  501  0.00000000000E+00  0.00000000000E+00  0.14135585292E+04  0.14135585292E+04  0.25500000920E-02 0. -1.
        2   -1    0    0  501    0  0.00000000000E+00  0.00000000000E+00 -0.16781619817E+04  0.16781619817E+04  0.25500000920E-02 0.  1.
    10030    2    1    2    0    0  0.00000000000E+00  0.00000000000E+00 -0.26460345252E+03  0.30917205109E+04  0.30803767189E+04 0.  0.
        5    1    3    3  502    0  0.32213686072E+03 -0.89577043168E+03 -0.13475376673E+04  0.16498656545E+04  0.46999998093E+01 0.  1.
       -5    1    3    3    0  502 -0.32213686072E+03  0.89577043168E+03  0.10829342148E+04  0.14418548564E+04  0.46999998093E+01 0. -1.
</event>
<event>
 5   0  0.5317728E-07  0.3215118E+04  0.7818609E-02  0.8184836E-01
        1   -1    0    0  501    0  0.00000000000E+00  0.00000000000E+00  0.28736999126E+04  0.28736999127E+04  0.50400001928E-02 0.  1.
       -1   -1    0    0    0  501  0.00000000000E+00  0.00000000000E+00 -0.89927488456E+03  0.89927488458E+03  0.50400001928E-02 0. -1.
    10030    2    1    2    0    0  0.00000000000E+00  0.00000000000E+00  0.19744250281E+04  0.37729747972E+04  0.32151181361E+04 0.  0.
        2    1    3    3  502    0  0.90864404767E+03  0.11103552350E+04  0.18380872416E+04  0.23317563040E+04  0.25500000920E-02 0.  1.
       -2    1    3    3    0  502 -0.90864404767E+03 -0.11103552350E+04  0.13633778644E+03  0.14412184932E+04  0.25500000920E-02 0. -1.
</event>
<event>
 5   0  0.1538349E-06  0.3202007E+04  0.7818609E-02  0.8188287E-01
       -2   -1    0    0    0  501  0.00000000000E+00  0.00000000000E+00  0.18585598383E+04  0.18585598383E+04  0.25500000920E-02 0.  1.
        2   -1    0    0  501    0  0.00000000000E+00  0.00000000000E+00 -0.13791385623E+04  0.13791385623E+04  0.25500000920E-02 0. -1.
    10030    2    1    2    0    0  0.00000000000E+00  0.00000000000E+00  0.47942127602E+03  0.32376984006E+04  0.32020065855E+04 0.  0.
        1    1    3    3  502    0  0.79018480886E+02 -0.30961875349E+03  0.18259880493E+04  0.18537367799E+04  0.50400001928E-02 0.  1.
       -1    1    3    3    0  502 -0.79018480886E+02  0.30961875349E+03 -0.13465667733E+04  0.13839616208E+04  0.50400001928E-02 0. -1.
</event>
<event>
 5   0  0.5281187E-07  0.3209763E+04  0.7818609E-02  0.8186244E-01
       -1   -1    0    0    0  501  0.00000000000E+00  0.00000000000E+00  0.24567269426E+04  0.24567269426E+04  0.50400001928E-02 0. -1.
        1   -1    0    0  501    0  0.00000000000E+00  0.00000000000E+00 -0.10484046103E+04  0.10484046103E+04  0.50400001928E-02 0.  1.
    10030    2    1    2    0    0  0.00000000000E+00  0.00000000000E+00  0.14083223324E+04  0.35051315529E+04  0.32097625164E+04 0.  0.
        5    1    3    3  502    0 -0.53377255900E+03 -0.12912925129E+04 -0.15796399839E+03  0.14061736071E+04  0.46999998093E+01 0.  1.
       -5    1    3    3    0  502  0.53377255900E+03  0.12912925129E+04  0.15662863308E+04  0.20989579458E+04  0.46999998093E+01 0. -1.
</event>
<event>
 5   0  0.5317728E-07  0.3101152E+04  0.7818609E-02  0.8215422E-01
       -1   -1    0    0    0  501  0.00000000000E+00  0.00000000000E+00  0.11744807797E+04  0.11744807797E+04  0.50400001928E-02 0.  1.
        1   -1    0    0  501    0  0.00000000000E+00  0.00000000000E+00 -0.20471053737E+04  0.20471053737E+04  0.50400001928E-02 0. -1.
    10030    2    1    2    0    0  0.00000000000E+00  0.00000000000E+00 -0.87262459406E+03  0.32215861534E+04  0.31011519895E+04 0.  0.
        2    1    3    3  502    0  0.10175345183E+04 -0.11616299407E+04 -0.29115276425E+03  0.15714740046E+04  0.25500000920E-02 0.  1.
       -2    1    3    3    0  502 -0.10175345183E+04  0.11616299407E+04 -0.58147182981E+03  0.16501121488E+04  0.25500000920E-02 0. -1.
</event>
<event>
 5   0  0.1493485E-06  0.3196871E+04  0.7818609E-02  0.8189644E-01
        2   -1    0    0  501    0  0.00000000000E+00  0.00000000000E+00  0.19934458191E+04  0.19934458191E+04  0.25500000920E-02 0.  1.
       -2   -1    0    0    0  501  0.00000000000E+00  0.00000000000E+00 -0.12816981861E+04  0.12816981861E+04  0.25500000920E-02 0. -1.
    10030    2    1    2    0    0  0.00000000000E+00  0.00000000000E+00  0.71174763304E+03  0.32751440053E+04  0.31968709017E+04 0.  0.
        2    1    3    3  502    0 -0.15487218712E+04  0.31662108003E+03  0.11298773893E+03  0.15847884943E+04  0.25500000920E-02 0. -1.
       -2    1    3    3    0  502  0.15487218712E+04 -0.31662108003E+03  0.59875989410E+03  0.16903555109E+04  0.25500000920E-02 0.  1.
</event>
<event>
 5   0  0.1493485E-06  0.3167571E+04  0.7818609E-02  0.8197435E-01
       -2   -1    0    0    0  501  0.00000000000E+00  0.00000000000E+00  0.11017323779E+04  0.11017323779E+04  0.25500000920E-02 0.  1.
        2   -1    0    0  501    0  0.00000000000E+00  0.00000000000E+00 -0.22767559308E+04  0.22767559308E+04  0.25500000920E-02 0. -1.
    10030    2    1    2    0    0  0.00000000000E+00  0.00000000000E+00 -0.11750235529E+04  0.33784883088E+04  0.31675705048E+04 0.  0.
        2    1    3    3  502    0  0.42533783655E+03 -0.11849479235E+04 -0.16124132041E+04  0.20457004173E+04  0.25500000920E-02 0. -1.
       -2    1    3    3    0  502 -0.42533783655E+03  0.11849479235E+04  0.43738965122E+03  0.13327878914E+04  0.25500000920E-02 0.  1.
</event>
<event>
 5   0  0.1508771E-06  0.3186461E+04  0.7818609E-02  0.8192402E-01
       -2   -1    0    0    0  501  0.00000000000E+00  0.00000000000E+00  0.17202918705E+04  0.17202918705E+04  0.25500000920E-02 0.  1.
        2   -1    0    0  501    0  0.00000000000E+00  0.00000000000E+00 -0.14755542942E+04  0.14755542942E+04  0.25500000920E-02 0. -1.
    10030    2    1    2    0    0  0.00000000000E+00  0.00000000000E+00  0.24473757633E+03  0.31958461647E+04  0.31864613958E+04 0.  0.
        4    1    3    3  502    0 -0.46225724817E+03 -0.13900299581E+04  0.75072607980E+03  0.16460426202E+04  0.12699999809E+01 0.  1.
       -4    1    3    3    0  502  0.46225724817E+03  0.13900299581E+04 -0.50598850347E+03  0.15498035445E+04  0.12699999809E+01 0. -1.
</event>
<event>
 5   0  0.1493485E-06  0.3147789E+04  0.7818609E-02  0.8202744E-01
        2   -1    0    0  501    0  0.00000000000E+00  0.00000000000E+00  0.19683120127E+04  0.19683120127E+04  0.25500000920E-02 0.  1.
       -2   -1    0    0    0  501  0.00000000000E+00  0.00000000000E+00 -0.12585119378E+04  0.12585119378E+04  0.25500000920E-02 0. -1.
    10030    2    1    2    0    0  0.00000000000E+00  0.00000000000E+00  0.70980007492E+03  0.32268239505E+04  0.31477891704E+04 0.  0.
        2    1    3    3  502    0  0.11474035237E+04 -0.84811004691E+03 -0.32609788014E+03  0.14636137897E+04  0.25500000920E-02 0. -1.
       -2    1    3    3    0  502 -0.11474035237E+04  0.84811004691E+03  0.10358979551E+04  0.17632101608E+04  0.25500000920E-02 0.  1.
</event>
<event>
 5   0  0.1493485E-06  0.3191611E+04  0.7818609E-02  0.8191036E-01
        2   -1    0    0  501    0  0.00000000000E+00  0.00000000000E+00  0.22339163248E+04  0.22339163248E+04  0.25500000920E-02 0. -1.
       -2   -1    0    0    0  501  0.00000000000E+00  0.00000000000E+00 -0.11399691883E+04  0.11399691883E+04  0.25500000920E-02 0.  1.
    10030    2    1    2    0    0  0.00000000000E+00  0.00000000000E+00  0.10939471365E+04  0.33738855132E+04  0.31916113671E+04 0.  0.
        2    1    3    3  502    0  0.79449311426E+03 -0.13819717995E+04  0.46835968444E+03  0.16614530259E+04  0.25500000920E-02 0.  1.
       -2    1    3    3    0  502 -0.79449311426E+03  0.13819717995E+04  0.62558745207E+03  0.17124324873E+04  0.25500000920E-02 0. -1.
</event>
<event>
 5   0  0.1556396E-06  0.3194181E+04  0.7818609E-02  0.8190356E-01
        2   -1    0    0  501    0  0.00000000000E+00  0.00000000000E+00  0.24640441262E+04  0.24640441262E+04  0.25500000920E-02 0. -1.
       -2   -1    0    0    0  501  0.00000000000E+00  0.00000000000E+00 -0.10351670765E+04  0.10351670765E+04  0.25500000920E-02 0.  1.
    10030    2    1    2    0    0  0.00000000000E+00  0.00000000000E+00  0.14288770497E+04  0.34992112028E+04  0.31941805551E+04 0.  0.
        3    1    3    3  502    0 -0.17819154301E+03 -0.50386617805E+03  0.23631738107E+04  0.24228544779E+04  0.10100000352E+00 0. -1.
       -3    1    3    3    0  502  0.17819154301E+03  0.50386617805E+03 -0.93429676098E+03  0.10763567249E+04  0.10100000352E+00 0.  1.
</event>
<event>
 5   0  0.5233813E-07  0.3205908E+04  0.7818609E-02  0.8187259E-01
       -1   -1    0    0    0  501  0.00000000000E+00  0.00000000000E+00  0.18333761352E+04  0.18333761352E+04  0.50400001928E-02 0. -1.
        1   -1    0    0  501    0  0.00000000000E+00  0.00000000000E+00 -0.14014914258E+04  0.14014914258E+04  0.50400001928E-02 0.  1.
    10030    2    1    2    0    0  0.00000000000E+00  0.00000000000E+00  0.43188470940E+03  0.32348675610E+04  0.32059076304E+04 0.  0.
        4    1    3    3  502    0 -0.36579825154E+03  0.39809631895E+03 -0.13067187471E+04  0.14141444541E+04  0.12699999809E+01 0.  1.
       -4    1    3    3    0  502  0.36579825154E+03 -0.39809631895E+03  0.17386034565E+04  0.18207231069E+04  0.12699999809E+01 0. -1.
</event>
<event>
 5   0  0.5370912E-07  0.3201726E+04  0.7818609E-02  0.8188361E-01
        1   -1    0    0  501    0  0.00000000000E+00  0.00000000000E+00  0.16189422511E+04  0.16189422511E+04  0.50400001928E-02 0. -1.
       -1   -1    0    0    0  501  0.00000000000E+00  0.00000000000E+00 -0.15829859812E+04  0.15829859812E+04  0.50400001928E-02 0.  1.
    10030    2    1    2    0    0  0.00000000000E+00  0.00000000000E+00  0.35956269843E+02  0.32019282323E+04  0.32017263392E+04 0.  0.
        1    1    3    3  502    0 -0.38356331625E+03  0.30616977436E+03  0.15418531218E+04  0.16180765735E+04  0.50400001928E-02 0. -1.
       -1    1    3    3    0  502  0.38356331625E+03 -0.30616977436E+03 -0.15058968520E+04  0.15838516588E+04  0.50400001928E-02 0.  1.
</event>
<event>
 5   0  0.5177039E-07  0.3208880E+04  0.7818609E-02  0.8186476E-01
       -1   -1    0    0    0  501  0.00000000000E+00  0.00000000000E+00  0.15762789391E+04  0.15762789391E+04  0.50400001928E-02 0.  1.
        1   -1    0    0  501    0  0.00000000000E+00  0.00000000000E+00 -0.16331042742E+04  0.16331042742E+04  0.50400001928E-02 0. -1.
    10030    2    1    2    0    0  0.00000000000E+00  0.00000000000E+00 -0.56825335098E+02  0.32093832132E+04  0.32088800992E+04 0.  0.
        3    1    3    3  502    0 -0.47191608165E+03 -0.13639455336E+04 -0.72936180171E+03  0.16171026111E+04  0.10100000352E+00 0. -1.
       -3    1    3    3    0  502  0.47191608165E+03  0.13639455336E+04  0.67253646662E+03  0.15922806021E+04  0.10100000352E+00 0.  1.
</event>
<event>
 5   0  0.5317728E-07  0.3201674E+04  0.7818609E-02  0.8188375E-01
       -1   -1    0    0    0  501  0.00000000000E+00  0.00000000000E+00  0.87377511654E+03  0.87377511656E+03  0.50400001928E-02 0. -1.
        1   -1    0    0  501    0  0.00000000000E+00  0.00000000000E+00 -0.29328818762E+04  0.29328818762E+04  0.50400001928E-02 0.  1.
    10030    2    1    2    0    0  0.00000000000E+00  0.00000000000E+00 -0.20591067597E+04  0.38066569928E+04  0.32016740641E+04 0.  0.
        2    1    3    3  502    0 -0.89538434503E+03  0.13246589092E+04 -0.11235100695E+04  0.19541517923E+04  0.25500000920E-02 0. -1.
       -2    1    3    3    0  502  0.89538434503E+03 -0.13246589092E+04 -0.93559669019E+03  0.18525052005E+04  0.25500000920E-02 0.  1.
</event>
<event>
 5   0  0.5177039E-07  0.3210132E+04  0.7818609E-02  0.8186147E-01
       -1   -1    0    0    0  501  0.00000000000E+00  0.00000000000E+00  0.11503629843E+04  0.11503629843E+04  0.50400001928E-02 0.  1.
        1   -1    0    0  501    0  0.00000000000E+00  0.00000000000E+00 -0.22394984470E+04  0.22394984470E+04  0.50400001928E-02 0. -1.
    10030    2    1    2    0    0  0.00000000000E+00  0.00000000000E+00 -0.10891354626E+04  0.33898614313E+04  0.32101315343E+04 0.  0.
        3    1    3    3  502    0 -0.81877495898E+03 -0.10771899290E+04 -0.14563361652E+04  0.19878746472E+04  0.10100000352E+00 0.  1.
       -3    1    3    3    0  502  0.81877495898E+03  0.10771899290E+04  0.36720070256E+03  0.14019867841E+04  0.10100000352E+00 0. -1.
</event>
<event>
 5   0  0.1508771E-06  0.3204936E+04  0.7818609E-02  0.8187515E-01
        2   -1    0    0  501    0  0.00000000000E+00  0.00000000000E+00  0.11465486077E+04  0.11465486077E+04  0.25500000920E-02 0. -1.
       -2   -1    0    0    0  501  0.00000000000E+00  0.00000000000E+00 -0.22396815630E+04  0.22396815630E+04  0.25500000920E-02 0.  1.
    10030    2    1    2    0    0  0.00000000000E+00  0.00000000000E+00 -0.10931329552E+04  0.33862301707E+04  0.32049360541E+04 0.  0.
        4    1    3    3  502    0 -0.31678838263E+03  0.14791564344E+04 -0.11052932638E+04  0.18734816382E+04  0.12699999809E+01 0.  1.
       -4    1    3    3    0  502  0.31678838263E+03 -0.14791564344E+04  0.12160308534E+02  0.15127485325E+04  0.12699999809E+01 0. -1.
</event>
<event>
 5   0  0.1508771E-06  0.3175223E+04  0.7818609E-02  0.8195392E-01
       -2   -1    0    0    0  501  0.00000000000E+00  0.00000000000E+00  0.11936117015E+04  0.11936117015E+04  0.25500000920E-02 0. -1.
        2   -1    0    0  501    0  0.00000000000E+00  0.00000000000E+00 -0.21116665387E+04  0.21116665387E+04  0.25500000920E-02 0.  1.
    10030    2    1    2    0    0  0.00000000000E+00  0.00000000000E+00 -0.91805483722E+03  0.33052782402E+04  0.31752227577E+04 0.  0.
        4    1    3    3  502    0 -0.90716486883E+03 -0.11186654094E+04 -0.11543290410E+04  0.18457620500E+04  0.12699999809E+01 0.  1.
       -4    1    3    3    0  502  0.90716486883E+03  0.11186654094E+04  0.23627420380E+03  0.14595161902E+04  0.12699999809E+01 0. -1.
</event>
<event>
 5   0  0.1493485E-06  0.3198430E+04  0.7818609E-02  0.8189232E-01
        2   -1    0    0  501    0  0.00000000000E+00  0.00000000000E+00  0.31533729197E+04  0.31533729197E+04  0.25500000920E-02 0.  1.
       -2   -1    0    0    0  501  0.00000000000E+00  0.00000000000E+00 -0.81103270213E+03  0.81103270214E+03  0.25500000920E-02 0. -1.
    10030    2    1    2    0    0  0.00000000000E+00  0.00000000000E+00  0.23423402176E+04  0.39644056219E+04  0.31984299648E+04 0.  0.
        2    1    3    3  502    0 -0.81430398678E+03  0.77386007514E+02  0.28744627363E+04  0.29885808671E+04  0.25500000920E-02 0.  1.
       -2    1    3    3    0  502  0.81430398678E+03 -0.77386007514E+02 -0.53212251869E+03  0.97582475474E+03  0.25500000920E-02 0. -1.
</event>
<event>
 5   0  0.4995625E-07  0.2993832E+04  0.7818609E-02  0.8245495E-01
       -3   -1    0    0    0  501  0.00000000000E+00  0.00000000000E+00  0.15424296770E+04  0.15424296803E+04  0.10100000352E+00 0.  1.
        3   -1    0    0  501    0  0.00000000000E+00  0.00000000000E+00 -0.14527449218E+04  0.14527449253E+04  0.10100000352E+00 0. -1.
    10030    2    1    2    0    0  0.00000000000E+00  0.00000000000E+00  0.89684755151E+02  0.29951746056E+04  0.29938315856E+04 0.  0.
        2    1    3    3  502    0 -0.78754817822E+02  0.28445206181E+03  0.15130297825E+04  0.15415493569E+04  0.25500000920E-02 0.  1.
       -2    1    3    3    0  502  0.78754817822E+02 -0.28445206181E+03 -0.14233450274E+04  0.14536252487E+04  0.25500000920E-02 0. -1.
</event>
<event>
 5   0  0.5233813E-07  0.3211558E+04  0.7818609E-02  0.8185771E-01
        1   -1    0    0  501    0  0.00000000000E+00  0.00000000000E+00  0.11367637057E+04  0.11367637057E+04  0.50400001928E-02 0.  1.
       -1   -1    0    0    0  501  0.00000000000E+00  0.00000000000E+00 -0.22683039775E+04  0.22683039776E+04  0.50400001928E-02 0. -1.
    10030    2    1    2    0    0  0.00000000000E+00  0.00000000000E+00 -0.11315402719E+04  0.34050676832E+04  0.32115576502E+04 0.  0.
        4    1    3    3  502    0 -0.48297886256E+03 -0.13191767518E+04 -0.13904735890E+04  0.19765915862E+04  0.12699999809E+01 0. -1.
       -4    1    3    3    0  502  0.48297886256E+03  0.13191767518E+04  0.25893331710E+03  0.14284760970E+04  0.12699999809E+01 0.  1.
</event>
<event>
 5   0  0.5177039E-07  0.3208553E+04  0.7818609E-02  0.8186562E-01
        1   -1    0    0  501    0  0.00000000000E+00  0.00000000000E+00  0.17883792758E+04  0.17883792758E+04  0.50400001928E-02 0.  1.
       -1   -1    0    0    0  501  0.00000000000E+00  0.00000000000E+00 -0.14391258924E+04  0.14391258924E+04  0.50400001928E-02 0. -1.
    10030    2    1    2    0    0  0.00000000000E+00  0.00000000000E+00  0.34925338347E+03  0.32275051682E+04  0.32085528958E+04 0.  0.
        3    1    3    3  502    0  0.48045375269E+03  0.85209063387E+03 -0.11044219344E+04  0.14753447313E+04  0.10100000352E+00 0. -1.
       -3    1    3    3    0  502 -0.48045375269E+03 -0.85209063387E+03  0.14536753178E+04  0.17521604369E+04  0.10100000352E+00 0.  1.
</event>
<event>
 5   0  0.5233813E-07  0.3199333E+04  0.7818609E-02  0.8188993E-01
        1   -1    0    0  501    0  0.00000000000E+00  0.00000000000E+00  0.25270680079E+04  0.25270680079E+04  0.50400001928E-02 0. -1.
       -1   -1    0    0    0  501  0.00000000000E+00  0.00000000000E+00 -0.10126096100E+04  0.10126096100E+04  0.50400001928E-02 0.  1.
    10030    2    1    2    0    0  0.00000000000E+00  0.00000000000E+00  0.15144583978E+04  0.35396776179E+04  0.31993332743E+04 0.  0.
        4    1    3    3  502    0 -0.50242784484E+02  0.14855447251E+04  0.10309366061E+03  0.14899655645E+04  0.12699999809E+01 0.  1.
       -4    1    3    3    0  502  0.50242784484E+02 -0.14855447251E+04  0.14113647372E+04  0.20497120534E+04  0.12699999809E+01 0. -1.
</event>
<event>
 5   0  0.5233813E-07  0.3193270E+04  0.7818609E-02  0.8190597E-01
        1   -1    0    0  501    0  0.00000000000E+00  0.00000000000E+00  0.97546885033E+03  0.97546885034E+03  0.50400001928E-02 0. -1.
       -1   -1    0    0    0  501  0.00000000000E+00  0.00000000000E+00 -0.26133520127E+04  0.26133520127E+04  0.50400001928E-02 0.  1.
    10030    2    1    2    0    0  0.00000000000E+00  0.00000000000E+00 -0.16378831624E+04  0.35888208631E+04  0.31932701003E+04 0.  0.
        4    1    3    3  502    0  0.12509675230E+04 -0.17325723456E+03 -0.19168333057E+04  0.22954714871E+04  0.12699999809E+01 0.  1.
       -4    1    3    3    0  502 -0.12509675230E+04  0.17325723456E+03  0.27895014335E+03  0.12933493760E+04  0.12699999809E+01 0. -1.
</event>
<event>
 5   0  0.1538349E-06  0.3084981E+04  0.7818609E-02  0.8219872E-01
        2   -1    0    0  501    0  0.00000000000E+00  0.00000000000E+00  0.22283565071E+04  0.22283565071E+04  0.25500000920E-02 0. -1.
       -2   -1    0    0    0  501  0.00000000000E+00  0.00000000000E+00 -0.10677273735E+04  0.10677273735E+04  0.25500000920E-02 0.  1.
    10030    2    1    2    0    0  0.00000000000E+00  0.00000000000E+00  0.11606291336E+04  0.32960838806E+04  0.30849811931E+04 0.  0.
        1    1    3    3  502    0 -0.14734007671E+03 -0.15173689330E+04  0.83124685017E+03  0.17364011354E+04  0.50400001928E-02 0. -1.
       -1    1    3    3    0  502  0.14734007671E+03  0.15173689330E+04  0.32938228341E+03  0.15596827452E+04  0.50400001928E-02 0.  1.
</event>
<event>
 5   0  0.1493485E-06  0.2823380E+04  0.7818609E-02  0.8296046E-01
        2   -1    0    0  501    0  0.00000000000E+00  0.00000000000E+00  0.18038187958E+04  0.18038187958E+04  0.25500000920E-02 0.  1.
       -2   -1    0    0    0  501  0.00000000000E+00  0.00000000000E+00 -0.11048056644E+04  0.11048056644E+04  0.25500000920E-02 0. -1.
    10030    2    1    2    0    0  0.00000000000E+00  0.00000000000E+00  0.69901313143E+03  0.29086244602E+04  0.28233804017E+04 0.  0.
        2    1    3    3  502    0  0.11722745420E+03 -0.12427493929E+04  0.10287313471E+04  0.16175464488E+04  0.25500000920E-02 0.  1.
       -2    1    3    3    0  502 -0.11722745420E+03  0.12427493929E+04 -0.32971821564E+03  0.12910780114E+04  0.25500000920E-02 0. -1.
</event>
<event>
 5   0  0.1556396E-06  0.3188774E+04  0.7818609E-02  0.8191788E-01
       -2   -1    0    0    0  501  0.00000000000E+00  0.00000000000E+00  0.15528929337E+04  0.15528929338E+04  0.25500000920E-02 0. -1.
        2   -1    0    0  501    0  0.00000000000E+00  0.00000000000E+00 -0.16369898792E+04  0.16369898792E+04  0.25500000920E-02 0.  1.
    10030    2    1    2    0    0  0.00000000000E+00  0.00000000000E+00 -0.84096945418E+02  0.31898828129E+04  0.31887740691E+04 0.  0.
        3    1    3    3  502    0 -0.14603551444E+04  0.61014300144E+03  0.15078363122E+03  0.15898576489E+04  0.10100000352E+00 0.  1.
       -3    1    3    3    0  502  0.14603551444E+04 -0.61014300144E+03 -0.23488057664E+03  0.16000251640E+04  0.10100000352E+00 0. -1.
</event>
<event>
 5   0  0.1572769E-06  0.3104565E+04  0.7818609E-02  0.8214486E-01
       -2   -1    0    0    0  501  0.00000000000E+00  0.00000000000E+00  0.17606377738E+04  0.17606377738E+04  0.25500000920E-02 0. -1.
        2   -1    0    0  501    0  0.00000000000E+00  0.00000000000E+00 -0.13685838426E+04  0.13685838426E+04  0.25500000920E-02 0.  1.
    10030    2    1    2    0    0  0.00000000000E+00  0.00000000000E+00  0.39205393120E+03  0.31292216164E+04  0.31045646458E+04 0.  0.
        5    1    3    3  502    0  0.11424312957E+04 -0.52940310620E+03 -0.71900545361E+03  0.14499682226E+04  0.46999998093E+01 0.  1.
       -5    1    3    3    0  502 -0.11424312957E+04  0.52940310620E+03  0.11110593848E+04  0.16792533939E+04  0.46999998093E+01 0. -1.
</event>
<event>
 5   0  0.5281187E-07  0.3235877E+04  0.7818609E-02  0.8179406E-01
       -1   -1    0    0    0  501  0.00000000000E+00  0.00000000000E+00  0.21430079974E+04  0.21430079974E+04  0.50400001928E-02 0. -1.
        1   -1    0    0  501    0  0.00000000000E+00  0.00000000000E+00 -0.12215190867E+04  0.12215190867E+04  0.50400001928E-02 0.  1.
    10030    2    1    2    0    0  0.00000000000E+00  0.00000000000E+00  0.92148891069E+03  0.33645270841E+04  0.32358771125E+04 0.  0.
        5    1    3    3  502    0  0.79778321437E+03 -0.69631767182E+03 -0.81115836918E+03  0.13339101721E+04  0.46999998093E+01 0.  1.
       -5    1    3    3    0  502 -0.79778321437E+03  0.69631767182E+03  0.17326472799E+04  0.20306169121E+04  0.46999998093E+01 0. -1.
</event>
<event>
 5   0  0.5317728E-07  0.3197292E+04  0.7818609E-02  0.8189533E-01
       -1   -1    0    0    0  501  0.00000000000E+00  0.00000000000E+00  0.11939864909E+04  0.11939864909E+04  0.50400001928E-02 0.  1.
        1   -1    0    0  501    0  0.00000000000E+00  0.00000000000E+00 -0.21404504005E+04  0.21404504005E+04  0.50400001928E-02 0. -1.
    10030    2    1    2    0    0  0.00000000000E+00  0.00000000000E+00 -0.94646390961E+03  0.33344368915E+04  0.31972918933E+04 0.  0.
        2    1    3    3  502    0  0.50064364456E+03  0.12771085465E+03 -0.20509741816E+04  0.21150530052E+04  0.25500000920E-02 0. -1.
       -2    1    3    3    0  502 -0.50064364456E+03 -0.12771085465E+03  0.11045102720E+04  0.12193838863E+04  0.25500000920E-02 0.  1.
</event>
<event>
 5   0  0.5281187E-07  0.3214620E+04  0.7818609E-02  0.8184967E-01
        1   -1    0    0  501    0  0.00000000000E+00  0.00000000000E+00  0.18972904789E+04  0.18972904789E+04  0.50400001928E-02 0.  1.
       -1   -1    0    0    0  501  0.00000000000E+00  0.00000000000E+00 -0.13616501392E+04  0.13616501392E+04  0.50400001928E-02 0. -1.
    10030    2    1    2    0    0  0.00000000000E+00  0.00000000000E+00  0.53564033970E+03  0.32589406181E+04  0.32146202543E+04 0.  0.
        5    1    3    3  502    0 -0.16061417728E+04  0.56060549157E+00  0.20588743369E+03  0.16192910282E+04  0.46999998093E+01 0.  1.
       -5    1    3    3    0  502  0.16061417728E+04 -0.56060549157E+00  0.32975290601E+03  0.16396495899E+04  0.46999998093E+01 0. -1.
</event>
<event>
 5   0  0.1493485E-06  0.3234578E+04  0.7818609E-02  0.8179744E-01
       -2   -1    0    0    0  501  0.00000000000E+00  0.00000000000E+00  0.19983161534E+04  0.19983161534E+04  0.25500000920E-02 0.  1.
        2   -1    0    0  501    0  0.00000000000E+00  0.00000000000E+00 -0.13089140367E+04  0.13089140367E+04  0.25500000920E-02 0. -1.
    10030    2    1    2    0    0  0.00000000000E+00  0.00000000000E+00  0.68940211670E+03  0.33072301901E+04  0.32345782185E+04 0.  0.
        2    1    3    3  502    0  0.30067022325E+03 -0.11956634767E+04  0.14149254019E+04  0.18767065901E+04  0.25500000920E-02 0.  1.
       -2    1    3    3    0  502 -0.30067022325E+03  0.11956634767E+04 -0.72552328517E+03  0.14305235999E+04  0.25500000920E-02 0. -1.
</event>
<event>
 5   0  0.1538349E-06  0.3201934E+04  0.7818609E-02  0.8188307E-01
       -2   -1    0    0    0  501  0.00000000000E+00  0.00000000000E+00  0.13852882444E+04  0.13852882444E+04  0.25500000920E-02 0. -1.
        2   -1    0    0  501    0  0.00000000000E+00  0.00000000000E+00 -0.18502252676E+04  0.18502252676E+04  0.25500000920E-02 0.  1.
    10030    2    1    2    0    0  0.00000000000E+00  0.00000000000E+00 -0.46493702318E+03  0.32355135120E+04  0.32019339860E+04 0.  0.
        1    1    3    3  502    0 -0.11722595123E+04 -0.85334505688E+03 -0.91833942149E+03  0.17163150770E+04  0.50400001928E-02 0.  1.
       -1    1    3    3    0  502  0.11722595123E+04  0.85334505688E+03  0.45340239831E+03  0.15191984351E+04  0.50400001928E-02 0. -1.
</event>
<event>
 5   0  0.1538349E-06  0.3191601E+04  0.7818609E-02  0.8191039E-01
        2   -1    0    0  501    0  0.00000000000E+00  0.00000000000E+00  0.17672288229E+04  0.17672288229E+04  0.25500000920E-02 0. -1.
       -2   -1    0    0    0  501  0.00000000000E+00  0.00000000000E+00 -0.14410015292E+04  0.14410015292E+04  0.25500000920E-02 0.  1.
    10030    2    1    2    0    0  0.00000000000E+00  0.00000000000E+00  0.32622729374E+03  0.32082303521E+04  0.31916011256E+04 0.  0.
        1    1    3    3  502    0 -0.75558147824E+02  0.13072496096E+03  0.17600323236E+04  0.17664970505E+04  0.50400001928E-02 0. -1.
       -1    1    3    3    0  502  0.75558147824E+02 -0.13072496096E+03 -0.14338050299E+04  0.14417333016E+04  0.50400001928E-02 0.  1.
</event>
<event>
 5   0  0.1556396E-06  0.3205658E+04  0.7818609E-02  0.8187324E-01
        2   -1    0    0  501    0  0.00000000000E+00  0.00000000000E+00  0.14660669228E+04  0.14660669228E+04  0.25500000920E-02 0.  1.
       -2   -1    0    0    0  501  0.00000000000E+00  0.00000000000E+00 -0.17523489800E+04  0.17523489800E+04  0.25500000920E-02 0. -1.
    10030    2    1    2    0    0  0.00000000000E+00  0.00000000000E+00 -0.28628205712E+03  0.32184159028E+04  0.32056580459E+04 0.  0.
        3    1    3    3  502    0 -0.15769133287E+04  0.59241768291E+02 -0.42514255268E+03  0.16342923342E+04  0.10100000352E+00 0.  1.
       -3    1    3    3    0  502  0.15769133287E+04 -0.59241768291E+02  0.13886049556E+03  0.15841235686E+04  0.10100000352E+00 0. -1.
</event>
<event>
 5   0  0.5233813E-07  0.3250067E+04  0.7818609E-02  0.8175718E-01
       -1   -1    0    0    0  501  0.00000000000E+00  0.00000000000E+00  0.92754910050E+03  0.92754910052E+03  0.50400001928E-02 0. -1.
        1   -1    0    0  501    0  0.00000000000E+00  0.00000000000E+00 -0.28470023230E+04  0.28470023230E+04  0.50400001928E-02 0.  1.
    10030    2    1    2    0    0  0.00000000000E+00  0.00000000000E+00 -0.19194532225E+04  0.37745514235E+04  0.32500673494E+04 0.  0.
        4    1    3    3  502    0 -0.13459248793E+04  0.62843784576E+03 -0.19437612490E+03  0.14980759652E+04  0.12699999809E+01 0.  1.
       -4    1    3    3    0  502  0.13459248793E+04 -0.62843784576E+03 -0.17250770976E+04  0.22764754583E+04  0.12699999809E+01 0. -1.
</event>
<event>
 5   0  0.1538349E-06  0.3197336E+04  0.7818609E-02  0.8189521E-01
        2   -1    0    0  501    0  0.00000000000E+00  0.00000000000E+00  0.15625855545E+04  0.15625855545E+04  0.25500000920E-02 0. -1.
       -2   -1    0    0    0  501  0.00000000000E+00  0.00000000000E+00 -0.16355837923E+04  0.16355837923E+04  0.25500000920E-02 0.  1.
    10030    2    1    2    0    0  0.00000000000E+00  0.00000000000E+00 -0.72998237758E+02  0.31981693468E+04  0.31973361456E+04 0.  0.
        1    1    3    3  502    0  0.11590086482E+04 -0.80271768306E+03  0.71741002436E+03  0.15818766919E+04  0.50400001928E-02 0. -1.
       -1    1    3    3    0  502 -0.11590086482E+04  0.80271768306E+03 -0.79040826211E+03  0.16162926549E+04  0.50400001928E-02 0.  1.
</event>
<event>
 5   0  0.5317728E-07  0.3185467E+04  0.7818609E-02  0.8192666E-01
       -1   -1    0    0    0  501  0.00000000000E+00  0.00000000000E+00  0.11557507381E+04  0.11557507382E+04  0.50400001928E-02 0. -1.
        1   -1    0    0  501    0  0.00000000000E+00  0.00000000000E+00 -0.21949366392E+04  0.21949366392E+04  0.50400001928E-02 0.  1.
    10030    2    1    2    0    0  0.00000000000E+00  0.00000000000E+00 -0.10391859010E+04  0.33506873773E+04  0.31854667733E+04 0.  0.
        2    1    3    3  502    0 -0.12694658998E+04 -0.77811351328E+03  0.75242562975E+02  0.14908607425E+04  0.25500000920E-02 0. -1.
       -2    1    3    3    0  502  0.12694658998E+04  0.77811351328E+03 -0.11144284640E+04  0.18598266348E+04  0.25500000920E-02 0.  1.
</event>
<event>
 5   0  0.1572769E-06  0.3181286E+04  0.7818609E-02  0.8193777E-01
        2   -1    0    0  501    0  0.00000000000E+00  0.00000000000E+00  0.21105566839E+04  0.21105566839E+04  0.25500000920E-02 0. -1.
       -2   -1    0    0    0  501  0.00000000000E+00  0.00000000000E+00 -0.11988044433E+04  0.11988044433E+04  0.25500000920E-02 0.  1.
    10030    2    1    2    0    0  0.00000000000E+00  0.00000000000E+00  0.91175224065E+03  0.33093611272E+04  0.31812857340E+04 0.  0.
        5    1    3    3  502    0 -0.72649634463E+03  0.25483743910E+03 -0.99205962838E+03  0.12557640923E+04  0.46999998093E+01 0.  1.
       -5    1    3    3    0  502  0.72649634463E+03 -0.25483743910E+03  0.19038118690E+04  0.20535970349E+04  0.46999998093E+01 0. -1.
</event>
<event>
 5   0  0.1556396E-06  0.3150945E+04  0.7818609E-02  0.8201894E-01
        2   -1    0    0  501    0  0.00000000000E+00  0.00000000000E+00  0.24344690591E+04  0.24344690591E+04  0.25500000920E-02 0.  1.
       -2   -1    0    0    0  501  0.00000000000E+00  0.00000000000E+00 -0.10195710240E+04  0.10195710240E+04  0.25500000920E-02 0. -1.
    10030    2    1    2    0    0  0.00000000000E+00  0.00000000000E+00  0.14148980352E+04  0.34540400831E+04  0.31509453257E+04 0.  0.
        3    1    3    3  502    0 -0.11852123607E+04  0.96371001211E+03  0.11300856832E+04  0.19001470966E+04  0.10100000352E+00 0.  1.
       -3    1    3    3    0  502  0.11852123607E+04 -0.96371001211E+03  0.28481235199E+03  0.15538929865E+04  0.10100000352E+00 0. -1.
</event>
<event>
 5   0  0.5317728E-07  0.3189880E+04  0.7818609E-02  0.8191495E-01
        1   -1    0    0  501    0  0.00000000000E+00  0.00000000000E+00  0.30195123558E+04  0.30195123558E+04  0.50400001928E-02 0. -1.
       -1   -1    0    0    0  501  0.00000000000E+00  0.00000000000E+00 -0.84246512528E+03  0.84246512529E+03  0.50400001928E-02 0.  1.
    10030    2    1    2    0    0  0.00000000000E+00  0.00000000000E+00  0.21770472305E+04  0.38619774811E+04  0.31898801577E+04 0.  0.
        2    1    3    3  502    0  0.11162122614E+04  0.11277363325E+04  0.12841731326E+04  0.20412789330E+04  0.25500000920E-02 0. -1.
       -2    1    3    3    0  502 -0.11162122614E+04 -0.11277363325E+04  0.89287409794E+03  0.18206985480E+04  0.25500000920E-02 0.  1.
</event>
<event>
 5   0  0.5317728E-07  0.3194802E+04  0.7818609E-02  0.8190191E-01
        1   -1    0    0  501    0  0.00000000000E+00  0.00000000000E+00  0.23731835711E+04  0.23731835711E+04  0.50400001928E-02 0.  1.
       -1   -1    0    0    0  501  0.00000000000E+00  0.00000000000E+00 -0.10752179552E+04  0.10752179552E+04  0.50400001928E-02 0. -1.
    10030    2    1    2    0    0  0.00000000000E+00  0.00000000000E+00  0.12979656159E+04  0.34484015263E+04  0.31948017695E+04 0.  0.
        2    1    3    3  502    0  0.10658939106E+04  0.22370803967E+03 -0.61232785084E+03  0.12494480832E+04  0.25500000920E-02 0. -1.
       -2    1    3    3    0  502 -0.10658939106E+04 -0.22370803967E+03  0.19102934667E+04  0.21989534431E+04  0.25500000920E-02 0.  1.
</event>
<event>
 5   0  0.5281187E-07  0.3116701E+04  0.7818609E-02  0.8211169E-01
       -1   -1    0    0    0  501  0.00000000000E+00  0.00000000000E+00  0.14115538826E+04  0.14115538827E+04  0.50400001928E-02 0. -1.
        1   -1    0    0  501    0  0.00000000000E+00  0.00000000000E+00 -0.17204130749E+04  0.17204130749E+04  0.50400001928E-02 0.  1.
    10030    2    1    2    0    0  0.00000000000E+00  0.00000000000E+00 -0.30885919229E+03  0.31319669576E+04  0.31167006630E+04 0.  0.
        5    1    3    3  502    0 -0.15006751586E+04 -0.39956590476E+03 -0.28450404226E+03  0.15788107815E+04  0.46999998093E+01 0.  1.
       -5    1    3    3    0  502  0.15006751586E+04  0.39956590476E+03 -0.24355150032E+02  0.15531561760E+04  0.46999998093E+01 0. -1.
</event>
<event>
 5   0  0.1493485E-06  0.3214717E+04  0.7818609E-02  0.8184941E-01
        2   -1    0    0  501    0  0.00000000000E+00  0.00000000000E+00  0.24150002749E+04  0.24150002749E+04  0.25500000920E-02 0. -1.
       -2   -1    0    0    0  501  0.00000000000E+00  0.00000000000E+00 -0.10698140149E+04  0.10698140149E+04  0.25500000920E-02 0.  1.
    10030    2    1    2    0    0  0.00000000000E+00  0.00000000000E+00  0.13451862600E+04  0.34848142898E+04  0.32147168709E+04 0.  0.
        2    1    3    3  502    0 -0.92438202116E+03  0.48191355902E+03 -0.65367142075E+03  0.12304507815E+04  0.25500000920E-02 0.  1.
       -2    1    3    3    0  502  0.92438202116E+03 -0.48191355902E+03  0.19988576808E+04  0.22543635083E+04  0.25500000920E-02 0. -1.
</event>
<event>
 5   0  0.1493485E-06  0.3188992E+04  0.7818609E-02  0.8191731E-01
        2   -1    0    0  501    0  0.00000000000E+00  0.00000000000E+00  0.13395309294E+04  0.13395309294E+04  0.25500000920E-02 0. -1.
       -2   -1    0    0    0  501  0.00000000000E+00  0.00000000000E+00 -0.18979903948E+04  0.18979903948E+04  0.25500000920E-02 0.  1.
    10030    2    1    2    0    0  0.00000000000E+00  0.00000000000E+00 -0.55845946533E+03  0.32375213242E+04  0.31889915883E+04 0.  0.
        2    1    3    3  502    0 -0.10940394620E+04 -0.82247431335E+02 -0.14538723081E+04  0.18213818031E+04  0.25500000920E-02 0.  1.
       -2    1    3    3    0  502  0.10940394620E+04  0.82247431335E+02  0.89541284274E+03  0.14161395211E+04  0.25500000920E-02 0. -1.
</event>
<event>
 5   0  0.5177039E-07  0.2968599E+04  0.7818609E-02  0.8252755E-01
        1   -1    0    0  501    0  0.00000000000E+00  0.00000000000E+00  0.16039780712E+04  0.16039780712E+04  0.50400001928E-02 0. -1.
       -1   -1    0    0    0  501  0.00000000000E+00  0.00000000000E+00 -0.13735509776E+04  0.13735509776E+04  0.50400001928E-02 0.  1.
    10030    2    1    2    0    0  0.00000000000E+00  0.00000000000E+00  0.23042709359E+03  0.29775290488E+04  0.29685994325E+04 0.  0.
        3    1    3    3  502    0  0.12999195497E+04  0.49234410652E+03  0.63730989292E+03  0.15291688804E+04  0.10100000352E+00 0. -1.
       -3    1    3    3    0  502 -0.12999195497E+04 -0.49234410652E+03 -0.40688279933E+03  0.14483601684E+04  0.10100000352E+00 0.  1.
</event>
<event>
 5   0  0.1508771E-06  0.3133359E+04  0.7818609E-02  0.8206642E-01
        2   -1    0    0  501    0  0.00000000000E+00  0.00000000000E+00  0.17927205139E+04  0.17927205139E+04  0.25500000920E-02 0.  1.
       -2   -1    0    0    0  501  0.00000000000E+00  0.00000000000E+00 -0.13691394374E+04  0.13691394374E+04  0.25500000920E-02 0. -1.
    10030    2    1    2    0    0  0.00000000000E+00  0.00000000000E+00  0.42358107652E+03  0.31618599513E+04  0.31333588086E+04 0.  0.
        4    1    3    3  502    0  0.65594199568E+02  0.34690706887E+03  0.17520544539E+04  0.17872726529E+04  0.12699999809E+01 0.  1.
       -4    1    3    3    0  502 -0.65594199568E+02 -0.34690706887E+03 -0.13284733774E+04  0.13745872984E+04  0.12699999809E+01 0. -1.
</event>
<event>
 5   0  0.5370912E-07  0.3191399E+04  0.7818609E-02  0.8191092E-01
        1   -1    0    0  501    0  0.00000000000E+00  0.00000000000E+00  0.16469293320E+04  0.16469293321E+04  0.50400001928E-02 0.  1.
       -1   -1    0    0    0  501  0.00000000000E+00  0.00000000000E+00 -0.15460636112E+04  0.15460636112E+04  0.50400001928E-02 0. -1.
    10030    2    1    2    0    0  0.00000000000E+00  0.00000000000E+00  0.10086572086E+03  0.31929929433E+04  0.31913993862E+04 0.  0.
        1    1    3    3  502    0  0.44592385964E+03 -0.14910693833E+04  0.40291761463E+03  0.16076313628E+04  0.50400001928E-02 0. -1.
       -1    1    3    3    0  502 -0.44592385964E+03  0.14910693833E+04 -0.30205189377E+03  0.15853615805E+04  0.50400001928E-02 0.  1.
</event>
<event>
 5   0  0.1493485E-06  0.3176748E+04  0.7818609E-02  0.8194985E-01
       -2   -1    0    0    0  501  0.00000000000E+00  0.00000000000E+00  0.12325991786E+04  0.12325991787E+04  0.25500000920E-02 0. -1.
        2   -1    0    0  501    0  0.00000000000E+00  0.00000000000E+00 -0.20468388134E+04  0.20468388134E+04  0.25500000920E-02 0.  1.
    10030    2    1    2    0    0  0.00000000000E+00  0.00000000000E+00 -0.81423963478E+03  0.32794379921E+04  0.31767479222E+04 0.  0.
        2    1    3    3  502    0  0.98965822764E+03  0.26578291629E+03  0.84572870142E+03  0.13286538310E+04  0.25500000920E-02 0. -1.
       -2    1    3    3    0  502 -0.98965822764E+03 -0.26578291629E+03 -0.16599683362E+04  0.19507841611E+04  0.25500000920E-02 0.  1.
</event>
<event>
 5   0  0.5177039E-07  0.3199595E+04  0.7818609E-02  0.8188924E-01
        1   -1    0    0  501    0  0.00000000000E+00  0.00000000000E+00  0.14577518071E+04  0.14577518071E+04  0.50400001928E-02 0. -1.
       -1   -1    0    0    0  501  0.00000000000E+00  0.00000000000E+00 -0.17556845275E+04  0.17556845275E+04  0.50400001928E-02 0.  1.
    10030    2    1    2    0    0  0.00000000000E+00  0.00000000000E+00 -0.29793272045E+03  0.32134363346E+04  0.31995951573E+04 0.  0.
        3    1    3    3  502    0 -0.60724800513E+03  0.11018927522E+04  0.84345528588E+03  0.15147061123E+04  0.10100000352E+00 0. -1.
       -3    1    3    3    0  502  0.60724800513E+03 -0.11018927522E+04 -0.11413880063E+04  0.16987302224E+04  0.10100000352E+00 0.  1.
</event>
<event>
 5   0  0.1538349E-06  0.3181634E+04  0.7818609E-02  0.8193685E-01
       -2   -1    0    0    0  501  0.00000000000E+00  0.00000000000E+00  0.12679105038E+04  0.12679105038E+04  0.25500000920E-02 0. -1.
        2   -1    0    0  501    0  0.00000000000E+00  0.00000000000E+00 -0.19959596905E+04  0.19959596905E+04  0.25500000920E-02 0.  1.
    10030    2    1    2    0    0  0.00000000000E+00  0.00000000000E+00 -0.72804918667E+03  0.32638701943E+04  0.31816337041E+04 0.  0.
        1    1    3    3  502    0  0.12746492675E+03  0.14060252517E+04  0.38809981886E+03  0.14641638520E+04  0.50400001928E-02 0. -1.
       -1    1    3    3    0  502 -0.12746492675E+03 -0.14060252517E+04 -0.11161490055E+04  0.17997063423E+04  0.50400001928E-02 0.  1.
</event>
<event>
 5   0  0.1572769E-06  0.3179860E+04  0.7818609E-02  0.8194156E-01
        2   -1    0    0  501    0  0.00000000000E+00  0.00000000000E+00  0.14574748699E+04  0.14574748699E+04  0.25500000920E-02 0. -1.
       -2   -1    0    0    0  501  0.00000000000E+00  0.00000000000E+00 -0.17344224949E+04  0.17344224949E+04  0.25500000920E-02 0.  1.
    10030    2    1    2    0    0  0.00000000000E+00  0.00000000000E+00 -0.27694762508E+03  0.31918973648E+04  0.31798598712E+04 0.  0.
        5    1    3    3  502    0 -0.12191839580E+04  0.17319120297E+03  0.87104224213E+03  0.15083571837E+04  0.46999998093E+01 0. -1.
       -5    1    3    3    0  502  0.12191839580E+04 -0.17319120297E+03 -0.11479898672E+04  0.16835401811E+04  0.46999998093E+01 0.  1.
</event>
<event>
 5   0  0.5370912E-07  0.3212795E+04  0.7818609E-02  0.8185446E-01
       -1   -1    0    0    0  501  0.00000000000E+00  0.00000000000E+00  0.17417891606E+04  0.17417891606E+04  0.50400001928E-02 0. -1.
        1   -1    0    0  501    0  0.00000000000E+00  0.00000000000E+00 -0.14815296212E+04  0.14815296213E+04  0.50400001928E-02 0.  1.
    10030    2    1    2    0    0  0.00000000000E+00  0.00000000000E+00  0.26025953939E+03  0.32233187819E+04  0.32127945689E+04 0.  0.
        1    1    3    3  502    0  0.83299204679E+03 -0.17866934502E+03 -0.12362101204E+04  0.15013373860E+04  0.50400001928E-02 0.  1.
       -1    1    3    3    0  502 -0.83299204679E+03  0.17866934502E+03  0.14964696598E+04  0.17219813958E+04  0.50400001928E-02 0. -1.
</event>
<event>
 5   0  0.5233813E-07  0.3191381E+04  0.7818609E-02  0.8191097E-01
       -1   -1    0    0    0  501  0.00000000000E+00  0.00000000000E+00  0.15030058608E+04  0.15030058608E+04  0.50400001928E-02 0.  1.
        1   -1    0    0  501    0  0.00000000000E+00  0.00000000000E+00 -0.16940901737E+04  0.16940901737E+04  0.50400001928E-02 0. -1.
    10030    2    1    2    0    0  0.00000000000E+00  0.00000000000E+00 -0.19108431285E+03  0.31970960345E+04  0.31913805538E+04 0.  0.
        4    1    3    3  502    0 -0.81973957528E+03 -0.10839289696E+04  0.74222753675E+03  0.15484761256E+04  0.12699999809E+01 0.  1.
       -4    1    3    3    0  502  0.81973957528E+03  0.10839289696E+04 -0.93331184960E+03  0.16486199089E+04  0.12699999809E+01 0. -1.
</event>
<event>
 5   0  0.5233813E-07  0.3145654E+04  0.7818609E-02  0.8203319E-01
       -1   -1    0    0    0  501  0.00000000000E+00  0.00000000000E+00  0.17292678264E+04  0.17292678264E+04  0.50400001928E-02 0.  1.
        1   -1    0    0  501    0  0.00000000000E+00  0.00000000000E+00 -0.14305390618E+04  0.14305390618E+04  0.50400001928E-02 0. -1.
    10030    2    1    2    0    0  0.00000000000E+00  0.00000000000E+00  0.29872876467E+03  0.31598068882E+04  0.31456542556E+04 0.  0.
        4    1    3    3  502    0  0.78000846272E+02  0.73481412802E+03  0.15440446074E+04  0.17117567869E+04  0.12699999809E+01 0.  1.
       -4    1    3    3    0  502 -0.78000846272E+02 -0.73481412802E+03 -0.12453158428E+04  0.14480501013E+04  0.12699999809E+01 0. -1.
</event>
<event>
 5   0  0.1493485E-06  0.3193951E+04  0.7818609E-02  0.8190417E-01
        2   -1    0    0  501    0  0.00000000000E+00  0.00000000000E+00  0.15211521268E+04  0.15211521268E+04  0.25500000920E-02 0.  1.
       -2   -1    0    0    0  501  0.00000000000E+00  0.00000000000E+00 -0.16765780450E+04  0.16765780450E+04  0.25500000920E-02 0. -1.
    10030    2    1    2    0    0  0.00000000000E+00  0.00000000000E+00 -0.15542591827E+03  0.31977301718E+04  0.31939506940E+04 0.  0.
        2    1    3    3  502    0 -0.43780461272E+03 -0.31327831517E+02 -0.16150024688E+04  0.16735851595E+04  0.25500000920E-02 0. -1.
       -2    1    3    3    0  502  0.43780461272E+03  0.31327831517E+02  0.14595765505E+04  0.15241450123E+04  0.25500000920E-02 0.  1.
</event>
<event>
 5   0  0.1493485E-06  0.3146370E+04  0.7818609E-02  0.8203126E-01
        2   -1    0    0  501    0  0.00000000000E+00  0.00000000000E+00  0.16785823568E+04  0.16785823568E+04  0.25500000920E-02 0.  1.
       -2   -1    0    0    0  501  0.00000000000E+00  0.00000000000E+00 -0.14744059083E+04  0.14744059083E+04  0.25500000920E-02 0. -1.
    10030    2    1    2    0    0  0.00000000000E+00  0.00000000000E+00  0.20417644844E+03  0.31529882651E+04  0.31463704451E+04 0.  0.
        2    1    3    3  502    0  0.53208322479E+03  0.75736653752E+03  0.13768468027E+04  0.16590430218E+04  0.25500000920E-02 0.  1.
       -2    1    3    3    0  502 -0.53208322479E+03 -0.75736653752E+03 -0.11726703542E+04  0.14939452433E+04  0.25500000920E-02 0. -1.
</event>
<event>
 5   0  0.1508771E-06  0.3190780E+04  0.7818609E-02  0.8191256E-01
       -2   -1    0    0    0  501  0.00000000000E+00  0.00000000000E+00  0.13946598969E+04  0.13946598969E+04  0.25500000920E-02 0.  1.
        2   -1    0    0  501    0  0.00000000000E+00  0.00000000000E+00 -0.18250107222E+04  0.18250107222E+04  0.25500000920E-02 0. -1.
    10030    2    1    2    0    0  0.00000000000E+00  0.00000000000E+00 -0.43035082532E+03  0.32196706191E+04  0.31907800085E+04 0.  0.
        4    1    3    3  502    0 -0.15656874617E+03 -0.30750979379E+03  0.13565516466E+04  0.13997535598E+04  0.12699999809E+01 0.  1.
       -4    1    3    3    0  502  0.15656874617E+03  0.30750979379E+03 -0.17869024719E+04  0.18199170593E+04  0.12699999809E+01 0. -1.
</event>
<event>
 5   0  0.1572769E-06  0.3188110E+04  0.7818609E-02  0.8191964E-01
       -2   -1    0    0    0  501  0.00000000000E+00  0.00000000000E+00  0.98541541953E+03  0.98541541953E+03  0.25500000920E-02 0.  1.
        2   -1    0    0  501    0  0.00000000000E+00  0.00000000000E+00 -0.25786186369E+04  0.25786186369E+04  0.25500000920E-02 0. -1.
    10030    2    1    2    0    0  0.00000000000E+00  0.00000000000E+00 -0.15932032174E+04  0.35640340565E+04  0.31881095125E+04 0.  0.
        5    1    3    3  502    0 -0.13417393196E+04 -0.79163954068E+03 -0.11741041787E+04  0.19507691500E+04  0.46999998093E+01 0. -1.
       -5    1    3    3    0  502  0.13417393196E+04  0.79163954068E+03 -0.41909903869E+03  0.16132649065E+04  0.46999998093E+01 0.  1.
</event>
<event>
 5   0  0.1493485E-06  0.3017147E+04  0.7818609E-02  0.8238851E-01
        2   -1    0    0  501    0  0.00000000000E+00  0.00000000000E+00  0.13013543850E+04  0.13013543850E+04  0.25500000920E-02 0.  1.
       -2   -1    0    0    0  501  0.00000000000E+00  0.00000000000E+00 -0.17487882612E+04  0.17487882612E+04  0.25500000920E-02 0. -1.
    10030    2    1    2    0    0  0.00000000000E+00  0.00000000000E+00 -0.44743387619E+03  0.30501426462E+04  0.30171465143E+04 0.  0.
        2    1    3    3  502    0  0.35608683937E+03  0.99231319754E+03  0.86711552800E+03  0.13650540861E+04  0.25500000920E-02 0.  1.
       -2    1    3    3    0  502 -0.35608683937E+03 -0.99231319754E+03 -0.13145494042E+04  0.16850885601E+04  0.25500000920E-02 0. -1.
</event>
<event>
 5   0  0.1538349E-06  0.3210995E+04  0.7818609E-02  0.8185919E-01
        2   -1    0    0  501    0  0.00000000000E+00  0.00000000000E+00  0.19489232100E+04  0.19489232100E+04  0.25500000920E-02 0. -1.
       -2   -1    0    0    0  501  0.00000000000E+00  0.00000000000E+00 -0.13225880263E+04  0.13225880263E+04  0.25500000920E-02 0.  1.
    10030    2    1    2    0    0  0.00000000000E+00  0.00000000000E+00  0.62633518374E+03  0.32715112363E+04  0.32109951739E+04 0.  0.
        1    1    3    3  502    0  0.81086827724E+03 -0.11253115298E+04  0.11369786195E+04  0.17934753367E+04  0.50400001928E-02 0. -1.
       -1    1    3    3    0  502 -0.81086827724E+03  0.11253115298E+04 -0.51064343577E+03  0.14780358996E+04  0.50400001928E-02 0.  1.
</event>
<event>
 5   0  0.1508771E-06  0.3199270E+04  0.7818609E-02  0.8189010E-01
       -2   -1    0    0    0  501  0.00000000000E+00  0.00000000000E+00  0.12105546899E+04  0.12105546899E+04  0.25500000920E-02 0. -1.
        2   -1    0    0  501    0  0.00000000000E+00  0.00000000000E+00 -0.21137686937E+04  0.21137686937E+04  0.25500000920E-02 0.  1.
    10030    2    1    2    0    0  0.00000000000E+00  0.00000000000E+00 -0.90321400382E+03  0.33243233836E+04  0.31992702952E+04 0.  0.
        4    1    3    3  502    0 -0.17157684217E+03 -0.14814438770E+04  0.14955405481E+03  0.14988270753E+04  0.12699999809E+01 0.  1.
       -4    1    3    3    0  502  0.17157684217E+03  0.14814438770E+04 -0.10527680586E+04  0.18254963083E+04  0.12699999809E+01 0. -1.
</event>
<event>
 5   0  0.1508771E-06  0.2852992E+04  0.7818609E-02  0.8287003E-01
       -2   -1    0    0    0  501  0.00000000000E+00  0.00000000000E+00  0.14779024620E+04  0.14779024620E+04  0.25500000920E-02 0.  1.
        2   -1    0    0  501    0  0.00000000000E+00  0.00000000000E+00 -0.13768776027E+04  0.13768776028E+04  0.25500000920E-02 0. -1.
    10030    2    1    2    0    0  0.00000000000E+00  0.00000000000E+00  0.10102485921E+03  0.28547800647E+04  0.28529919726E+04 0.  0.
        4    1    3    3  502    0 -0.70514419626E+02 -0.79393293362E+03 -0.11332706214E+04  0.13854983583E+04  0.12699999809E+01 0. -1.
       -4    1    3    3    0  502  0.70514419626E+02  0.79393293362E+03  0.12342954806E+04  0.14692817064E+04  0.12699999809E+01 0.  1.
</event>
<event>
 5   0  0.1572769E-06  0.3214194E+04  0.7818609E-02  0.8185079E-01
       -2   -1    0    0    0  501  0.00000000000E+00  0.00000000000E+00  0.12645049947E+04  0.12645049947E+04  0.25500000920E-02 0. -1.
        2   -1    0    0  501    0  0.00000000000E+00  0.00000000000E+00 -0.20425069371E+04  0.20425069371E+04  0.25500000920E-02 0.  1.
    10030    2    1    2    0    0  0.00000000000E+00  0.00000000000E+00 -0.77800194240E+03  0.33070119319E+04  0.32141936617E+04 0.  0.
        5    1    3    3  502    0  0.21309477889E+03 -0.93733071414E+03  0.93611187679E+03  0.13417621951E+04  0.46999998093E+01 0. -1.
       -5    1    3    3    0  502 -0.21309477889E+03  0.93733071414E+03 -0.17141138192E+04  0.19652497367E+04  0.46999998093E+01 0.  1.
</event>
<event>
 5   0  0.5233813E-07  0.3203581E+04  0.7818609E-02  0.8187872E-01
        1   -1    0    0  501    0  0.00000000000E+00  0.00000000000E+00  0.20381522930E+04  0.20381522930E+04  0.50400001928E-02 0.  1.
       -1   -1    0    0    0  501  0.00000000000E+00  0.00000000000E+00 -0.12588521714E+04  0.12588521714E+04  0.50400001928E-02 0. -1.
    10030    2    1    2    0    0  0.00000000000E+00  0.00000000000E+00  0.77930012161E+03  0.32970044645E+04  0.32035807715E+04 0.  0.
        4    1    3    3  502    0 -0.10412512587E+04  0.50747837559E+03 -0.74895525527E+03  0.13793745223E+04  0.12699999809E+01 0. -1.
       -4    1    3    3    0  502  0.10412512587E+04 -0.50747837559E+03  0.15282553769E+04  0.19176299422E+04  0.12699999809E+01 0.  1.
</event>
<event>
 5   0  0.1572769E-06  0.3076024E+04  0.7818609E-02  0.8222349E-01
        2   -1    0    0  501    0  0.00000000000E+00  0.00000000000E+00  0.13852635072E+04  0.13852635072E+04  0.25500000920E-02 0. -1.
       -2   -1    0    0    0  501  0.00000000000E+00  0.00000000000E+00 -0.17076033654E+04  0.17076033654E+04  0.25500000920E-02 0.  1.
    10030    2    1    2    0    0  0.00000000000E+00  0.00000000000E+00 -0.32233985823E+03  0.30928668726E+04  0.30760238145E+04 0.  0.
        5    1    3    3  502    0 -0.16527827432E+03 -0.12576115745E+04 -0.10357341712E+04  0.16375808815E+04  0.46999998093E+01 0.  1.
       -5    1    3    3    0  502  0.16527827432E+03  0.12576115745E+04  0.71339431294E+03  0.14552859911E+04  0.46999998093E+01 0. -1.
</event>
<event>
 5   0  0.1556396E-06  0.3160281E+04  0.7818609E-02  0.8199386E-01
       -2   -1    0    0    0  501  0.00000000000E+00  0.00000000000E+00  0.21267721807E+04  0.21267721807E+04  0.25500000920E-02 0. -1.
        2   -1    0    0  501    0  0.00000000000E+00  0.00000000000E+00 -0.11740065990E+04  0.11740065990E+04  0.25500000920E-02 0.  1.
    10030    2    1    2    0    0  0.00000000000E+00  0.00000000000E+00  0.95276558171E+03  0.33007787797E+04  0.31602813639E+04 0.  0.
        3    1    3    3  502    0 -0.34095039000E+03 -0.15404097828E+04  0.38452340229E+03  0.16238742946E+04  0.10100000352E+00 0.  1.
       -3    1    3    3    0  502  0.34095039000E+03  0.15404097828E+04  0.56824217942E+03  0.16769044851E+04  0.10100000352E+00 0. -1.
</event>
<event>
 5   0  0.4995625E-07  0.3143959E+04  0.7818609E-02  0.8203776E-01
       -4   -1    0    0    0  501  0.00000000000E+00  0.00000000000E+00  0.20464757098E+04  0.20464761039E+04  0.12699999809E+01 0.  1.
        4   -1    0    0  501    0  0.00000000000E+00  0.00000000000E+00 -0.12074994000E+04  0.12075000679E+04  0.12699999809E+01 0. -1.
    10030    2    1    2    0    0  0.00000000000E+00  0.00000000000E+00  0.83897630977E+03  0.32539761718E+04  0.31439592361E+04 0.  0.
        4    1    3    3  502    0  0.10884070192E+03  0.11538381843E+04 -0.67971617514E+03  0.13435790061E+04  0.12699999809E+01 0. -1.
       -4    1    3    3    0  502 -0.10884070192E+03 -0.11538381843E+04  0.15186924849E+04  0.19103971657E+04  0.12699999809E+01 0.  1.
</event>
<event>
 5   0  0.5370912E-07  0.3144242E+04  0.7818609E-02  0.8203700E-01
       -1   -1    0    0    0  501  0.00000000000E+00  0.00000000000E+00  0.10292052912E+04  0.10292052912E+04  0.50400001928E-02 0.  1.
        1   -1    0    0  501    0  0.00000000000E+00  0.00000000000E+00 -0.24014293617E+04  0.24014293617E+04  0.50400001928E-02 0. -1.
    10030    2    1    2    0    0  0.00000000000E+00  0.00000000000E+00 -0.13722240705E+04  0.34306346530E+04  0.31442415974E+04 0.  0.
        1    1    3    3  502    0  0.14750689153E+04 -0.39073489398E+03 -0.10987985880E+04  0.18803883639E+04  0.50400001928E-02 0.  1.
       -1    1    3    3    0  502 -0.14750689153E+04  0.39073489398E+03 -0.27342548252E+03  0.15502462891E+04  0.50400001928E-02 0. -1.
</event>
<event>
 5   0  0.5281187E-07  0.3214460E+04  0.7818609E-02  0.8185009E-01
       -1   -1    0    0    0  501  0.00000000000E+00  0.00000000000E+00  0.18367878851E+04  0.18367878851E+04  0.50400001928E-02 0. -1.
        1   -1    0    0  501    0  0.00000000000E+00  0.00000000000E+00 -0.14063615603E+04  0.14063615603E+04  0.50400001928E-02 0.  1.
    10030    2    1    2    0    0  0.00000000000E+00  0.00000000000E+00  0.43042632481E+03  0.32431494454E+04  0.32144597531E+04 0.  0.
        5    1    3    3  502    0 -0.95351199119E+03  0.10245242556E+04  0.10124113835E+04  0.17273777719E+04  0.46999998093E+01 0. -1.
       -5    1    3    3    0  502  0.95351199119E+03 -0.10245242556E+04 -0.58198505867E+03  0.15157716735E+04  0.46999998093E+01 0.  1.
</event>
<event>
 5   0  0.5281187E-07  0.3199369E+04  0.7818609E-02  0.8188984E-01
       -1   -1    0    0    0  501  0.00000000000E+00  0.00000000000E+00  0.12709420630E+04  0.12709420630E+04  0.50400001928E-02 0. -1.
        1   -1    0    0  501    0  0.00000000000E+00  0.00000000000E+00 -0.20134593368E+04  0.20134593368E+04  0.50400001928E-02 0.  1.
    10030    2    1    2    0    0  0.00000000000E+00  0.00000000000E+00 -0.74251727375E+03  0.32844013998E+04  0.31993687899E+04 0.  0.
        5    1    3    3  502    0  0.85634919366E+03  0.11624739638E+04  0.33573122021E+03  0.14823687801E+04  0.46999998093E+01 0. -1.
       -5    1    3    3    0  502 -0.85634919366E+03 -0.11624739638E+04 -0.10782484940E+04  0.18020326198E+04  0.46999998093E+01 0.  1.
</event>
<event>
 5   0  0.1538349E-06  0.3131456E+04  0.7818609E-02  0.8207158E-01
        2   -1    0    0  501    0  0.00000000000E+00  0.00000000000E+00  0.73429409120E+03  0.73429409121E+03  0.25500000920E-02 0. -1.
       -2   -1    0    0    0  501  0.00000000000E+00  0.00000000000E+00 -0.33385859678E+04  0.33385859678E+04  0.25500000920E-02 0.  1.
    10030    2    1    2    0    0  0.00000000000E+00  0.00000000000E+00 -0.26042918766E+04  0.40728800590E+04  0.31314558590E+04 0.  0.
        1    1    3    3  502    0 -0.45631349597E+03  0.87425905108E+03  0.27958467761E+03  0.10250456024E+04  0.50400001928E-02 0. -1.
       -1    1    3    3    0  502  0.45631349597E+03 -0.87425905108E+03 -0.28838765542E+04  0.30478344566E+04  0.50400001928E-02 0.  1.
</event>
<event>
 5   0  0.1538349E-06  0.3147804E+04  0.7818609E-02  0.8202740E-01
        2   -1    0    0  501    0  0.00000000000E+00  0.00000000000E+00  0.25178341527E+04  0.25178341527E+04  0.25500000920E-02 0. -1.
       -2   -1    0    0    0  501  0.00000000000E+00  0.00000000000E+00 -0.98384831091E+03  0.98384831091E+03  0.25500000920E-02 0.  1.
    10030    2    1    2    0    0  0.00000000000E+00  0.00000000000E+00  0.15339858418E+04  0.35016824636E+04  0.31478036014E+04 0.  0.
        1    1    3    3  502    0 -0.14032019173E+04  0.28948391712E+03  0.42303589695E+02  0.14333757890E+04  0.50400001928E-02 0.  1.
       -1    1    3    3    0  502  0.14032019173E+04 -0.28948391712E+03  0.14916822521E+04  0.20683066746E+04  0.50400001928E-02 0. -1.
</event>
<event>
 5   0  0.5233813E-07  0.3177000E+04  0.7818609E-02  0.8194918E-01
       -1   -1    0    0    0  501  0.00000000000E+00  0.00000000000E+00  0.96447962826E+03  0.96447962828E+03  0.50400001928E-02 0. -1.
        1   -1    0    0  501    0  0.00000000000E+00  0.00000000000E+00 -0.26162636371E+04  0.26162636371E+04  0.50400001928E-02 0.  1.
    10030    2    1    2    0    0  0.00000000000E+00  0.00000000000E+00 -0.16517840089E+04  0.35807432654E+04  0.31770004597E+04 0.  0.
        4    1    3    3  502    0  0.61115583523E+03  0.10295384049E+04 -0.20025313642E+04  0.23331511437E+04  0.12699999809E+01 0.  1.
       -4    1    3    3    0  502 -0.61115583523E+03 -0.10295384049E+04  0.35074735528E+03  0.12475921217E+04  0.12699999809E+01 0. -1.
</event>
<event>
 5   0  0.1493485E-06  0.3166668E+04  0.7818609E-02  0.8197676E-01
       -2   -1    0    0    0  501  0.00000000000E+00  0.00000000000E+00  0.22902143926E+04  0.22902143926E+04  0.25500000920E-02 0. -1.
        2   -1    0    0  501    0  0.00000000000E+00  0.00000000000E+00 -0.10946338236E+04  0.10946338236E+04  0.25500000920E-02 0.  1.
    10030    2    1    2    0    0  0.00000000000E+00  0.00000000000E+00  0.11955805690E+04  0.33848482163E+04  0.31666677360E+04 0.  0.
        2    1    3    3  502    0 -0.62850471607E+02  0.50287919334E+03 -0.10055969774E+04  0.11260830102E+04  0.25500000920E-02 0.  1.
       -2    1    3    3    0  502  0.62850471607E+02 -0.50287919334E+03  0.22011775465E+04  0.22587652060E+04  0.25500000920E-02 0. -1.
</event>
<event>
 5   0  0.4995625E-07  0.3171719E+04  0.7818609E-02  0.8196326E-01
       -3   -1    0    0    0  501  0.00000000000E+00  0.00000000000E+00  0.23461238944E+04  0.23461238965E+04  0.10100000352E+00 0.  1.
        3   -1    0    0  501    0  0.00000000000E+00  0.00000000000E+00 -0.10719597350E+04  0.10719597397E+04  0.10100000352E+00 0. -1.
    10030    2    1    2    0    0  0.00000000000E+00  0.00000000000E+00  0.12741641594E+04  0.34180836363E+04  0.31717190038E+04 0.  0.
        3    1    3    3  502    0  0.15225165783E+03 -0.28519178268E+03  0.23102353703E+04  0.23327456776E+04  0.10100000352E+00 0.  1.
       -3    1    3    3    0  502 -0.15225165783E+03  0.28519178268E+03 -0.10360712109E+04  0.10853379586E+04  0.10100000352E+00 0. -1.
</event>
<event>
 5   0  0.1572769E-06  0.3183831E+04  0.7818609E-02  0.8193100E-01
       -2   -1    0    0    0  501  0.00000000000E+00  0.00000000000E+00  0.15214084419E+04  0.15214084419E+04  0.25500000920E-02 0.  1.
        2   -1    0    0  501    0  0.00000000000E+00  0.00000000000E+00 -0.16656902863E+04  0.16656902863E+04  0.25500000920E-02 0. -1.
    10030    2    1    2    0    0  0.00000000000E+00  0.00000000000E+00 -0.14428184435E+03  0.31870987282E+04  0.31838311909E+04 0.  0.
        5    1    3    3  502    0  0.13266855205E+04 -0.84314387522E+03  0.17948751784E+03  0.15821579958E+04  0.46999998093E+01 0.  1.
       -5    1    3    3    0  502 -0.13266855205E+04  0.84314387522E+03 -0.32376936219E+03  0.16049407324E+04  0.46999998093E+01 0. -1.
</event>
<event>
 5   0  0.1572769E-06  0.3171954E+04  0.7818609E-02  0.8196263E-01
       -2   -1    0    0    0  501  0.00000000000E+00  0.00000000000E+00  0.14755336420E+04  0.14755336420E+04  0.25500000920E-02 0.  1.
        2   -1    0    0  501    0  0.00000000000E+00  0.00000000000E+00 -0.17046875455E+04  0.17046875455E+04  0.25500000920E-02 0. -1.
    10030    2    1    2    0    0  0.00000000000E+00  0.00000000000E+00 -0.22915390348E+03  0.31802211876E+04  0.31719544906E+04 0.  0.
        5    1    3    3  502    0 -0.34942903936E+03 -0.15269817057E+04 -0.36327169154E+03  0.16080305330E+04  0.46999998093E+01 0.  1.
       -5    1    3    3    0  502  0.34942903936E+03  0.15269817057E+04  0.13411778806E+03  0.15721906546E+04  0.46999998093E+01 0. -1.
</event>
<event>
 5   0  0.5370912E-07  0.3218745E+04  0.7818609E-02  0.8183884E-01
        1   -1    0    0  501    0  0.00000000000E+00  0.00000000000E+00  0.25409871377E+04  0.25409871377E+04  0.50400001928E-02 0. -1.
       -1   -1    0    0    0  501  0.00000000000E+00  0.00000000000E+00 -0.10193200228E+04  0.10193200228E+04  0.50400001928E-02 0.  1.
    10030    2    1    2    0    0  0.00000000000E+00  0.00000000000E+00  0.15216671149E+04  0.35603071605E+04  0.32187445174E+04 0.  0.
        1    1    3    3  502    0 -0.10342528588E+04  0.45116273971E+03  0.20301487846E+04  0.23226559972E+04  0.50400001928E-02 0. -1.
       -1    1    3    3    0  502  0.10342528588E+04 -0.45116273971E+03 -0.50848166969E+03  0.12376511633E+04  0.50400001928E-02 0.  1.
</event>
<event>
 5   0  0.5233813E-07  0.3202838E+04  0.7818609E-02  0.8188068E-01
        1   -1    0    0  501    0  0.00000000000E+00  0.00000000000E+00  0.16973232239E+04  0.16973232239E+04  0.50400001928E-02 0. -1.
       -1   -1    0    0    0  501  0.00000000000E+00  0.00000000000E+00 -0.15109336443E+04  0.15109336443E+04  0.50400001928E-02 0.  1.
    10030    2    1    2    0    0  0.00000000000E+00  0.00000000000E+00  0.18638957962E+03  0.32082568681E+04  0.32028379691E+04 0.  0.
        4    1    3    3  502    0  0.35427425244E+03  0.31036886813E+02  0.16572678558E+04  0.16949961337E+04  0.12699999809E+01 0. -1.
       -4    1    3    3    0  502 -0.35427425244E+03 -0.31036886813E+02 -0.14708782762E+04  0.15132607345E+04  0.12699999809E+01 0.  1.
</event>
<event>
 5   0  0.1556396E-06  0.3206309E+04  0.7818609E-02  0.8187153E-01
       -2   -1    0    0    0  501  0.00000000000E+00  0.00000000000E+00  0.10695719872E+04  0.10695719872E+04  0.25500000920E-02 0.  1.
        2   -1    0    0  501    0  0.00000000000E+00  0.00000000000E+00 -0.24029276263E+04  0.24029276263E+04  0.25500000920E-02 0. -1.
    10030    2    1    2    0    0  0.00000000000E+00  0.00000000000E+00 -0.13333556391E+04  0.34724996135E+04  0.32063088288E+04 0.  0.
        3    1    3    3  502    0  0.93238643290E+03 -0.12236817765E+04 -0.17828158346E+03  0.15487174963E+04  0.10100000352E+00 0.  1.
       -3    1    3    3    0  502 -0.93238643290E+03  0.12236817765E+04 -0.11550740556E+04  0.19237821172E+04  0.10100000352E+00 0. -1.
</event>
<event>
 5   0  0.1538349E-06  0.3148441E+04  0.7818609E-02  0.8202568E-01
        2   -1    0    0  501    0  0.00000000000E+00  0.00000000000E+00  0.20531352764E+04  0.20531352764E+04  0.25500000920E-02 0. -1.
       -2   -1    0    0    0  501  0.00000000000E+00  0.00000000000E+00 -0.12070172351E+04  0.12070172351E+04  0.25500000920E-02 0.  1.
    10030    2    1    2    0    0  0.00000000000E+00  0.00000000000E+00  0.84611804134E+03  0.32601525115E+04  0.31484406710E+04 0.  0.
        1    1    3    3  502    0 -0.23871380692E+03 -0.50794688702E+03  0.19460182080E+04  0.20253348334E+04  0.50400001928E-02 0. -1.
       -1    1    3    3    0  502  0.23871380692E+03  0.50794688702E+03 -0.10999001666E+04  0.12348176781E+04  0.50400001928E-02 0.  1.
</event>
<event>
 5   0  0.1572769E-06  0.3169419E+04  0.7818609E-02  0.8196940E-01
       -2   -1    0    0    0  501  0.00000000000E+00  0.00000000000E+00  0.11164069350E+04  0.11164069350E+04  0.25500000920E-02 0.  1.
        2   -1    0    0  501    0  0.00000000000E+00  0.00000000000E+00 -0.22494527525E+04  0.22494527525E+04  0.25500000920E-02 0. -1.
    10030    2    1    2    0    0  0.00000000000E+00  0.00000000000E+00 -0.11330458176E+04  0.33658596875E+04  0.31694192861E+04 0.  0.
        5    1    3    3  502    0 -0.78737362157E+03 -0.59415422680E+03  0.75063453943E+03  0.12395365130E+04  0.46999998093E+01 0.  1.
       -5    1    3    3    0  502  0.78737362157E+03  0.59415422680E+03 -0.18836803570E+04  0.21263231745E+04  0.46999998093E+01 0. -1.
</event>
<event>
 5   0  0.4995625E-07  0.3244867E+04  0.7818609E-02  0.8177067E-01
       -4   -1    0    0    0  501  0.00000000000E+00  0.00000000000E+00  0.23907167428E+04  0.23907170802E+04  0.12699999809E+01 0. -1.
        4   -1    0    0  501    0  0.00000000000E+00  0.00000000000E+00 -0.11010455367E+04  0.11010462692E+04  0.12699999809E+01 0.  1.
    10030    2    1    2    0    0  0.00000000000E+00  0.00000000000E+00  0.12896712061E+04  0.34917633493E+04  0.32448666333E+04 0.  0.
        5    1    3    3  502    0  0.11972425094E+04  0.39486628142E+02 -0.53264260928E+03  0.13109840042E+04  0.46999998093E+01 0.  1.
       -5    1    3    3    0  502 -0.11972425094E+04 -0.39486628142E+02  0.18223138154E+04  0.21807793451E+04  0.46999998093E+01 0. -1.
</event>
<event>
 5   0  0.1556396E-06  0.3119148E+04  0.7818609E-02  0.8210502E-01
        2   -1    0    0  501    0  0.00000000000E+00  0.00000000000E+00  0.17974781538E+04  0.17974781538E+04  0.25500000920E-02 0.  1.
       -2   -1    0    0    0  501  0.00000000000E+00  0.00000000000E+00 -0.13531576601E+04  0.13531576601E+04  0.25500000920E-02 0. -1.
    10030    2    1    2    0    0  0.00000000000E+00  0.00000000000E+00  0.44432049370E+03  0.31506358138E+04  0.31191481738E+04 0.  0.
        3    1    3    3  502    0  0.33976879655E+03 -0.44758188589E+02 -0.13146537214E+04  0.13585877034E+04  0.10100000352E+00 0. -1.
       -3    1    3    3    0  502 -0.33976879655E+03  0.44758188589E+02  0.17589742151E+04  0.17920481104E+04  0.10100000352E+00 0.  1.
</event>
<event>
 5   0  0.1508771E-06  0.3200841E+04  0.7818609E-02  0.8188595E-01
        2   -1    0    0  501    0  0.00000000000E+00  0.00000000000E+00  0.17813096806E+04  0.17813096806E+04  0.25500000920E-02 0. -1.
       -2   -1    0    0    0  501  0.00000000000E+00  0.00000000000E+00 -0.14379002530E+04  0.14379002530E+04  0.25500000920E-02 0.  1.
    10030    2    1    2    0    0  0.00000000000E+00  0.00000000000E+00  0.34340942762E+03  0.32192099337E+04  0.32008409148E+04 0.  0.
        4    1    3    3  502    0  0.13235784789E+04 -0.71098394740E+03 -0.38280850526E+03  0.15504522334E+04  0.12699999809E+01 0.  1.
       -4    1    3    3    0  502 -0.13235784789E+04  0.71098394740E+03  0.72621793289E+03  0.16687577003E+04  0.12699999809E+01 0. -1.
</event>
<event>
 5   0  0.4995625E-07  0.3392494E+04  0.7818609E-02  0.8139751E-01
        3   -1    0    0  501    0  0.00000000000E+00  0.00000000000E+00  0.14200281137E+04  0.14200281173E+04  0.10100000352E+00 0. -1.
       -3   -1    0    0    0  501  0.00000000000E+00  0.00000000000E+00 -0.20261944828E+04  0.20261944854E+04  0.10100000352E+00 0.  1.
    10030    2    1    2    0    0  0.00000000000E+00  0.00000000000E+00 -0.60616636911E+03  0.34462226027E+04  0.33924935608E+04 0.  0.
        2    1    3    3  502    0 -0.25758280660E+02 -0.88360079287E+03 -0.17737127180E+04  0.19817847149E+04  0.25500000920E-02 0.  1.
       -2    1    3    3    0  502  0.25758280660E+02  0.88360079287E+03  0.11675463489E+04  0.14644378878E+04  0.25500000920E-02 0. -1.
</event>
<event>
 5   0  0.1556396E-06  0.3162334E+04  0.7818609E-02  0.8198836E-01
        2   -1    0    0  501    0  0.00000000000E+00  0.00000000000E+00  0.15909274157E+04  0.15909274157E+04  0.25500000920E-02 0. -1.
       -2   -1    0    0    0  501  0.00000000000E+00  0.00000000000E+00 -0.15714659750E+04  0.15714659750E+04  0.25500000920E-02 0.  1.
    10030    2    1    2    0    0  0.00000000000E+00  0.00000000000E+00  0.19461440665E+02  0.31623933907E+04  0.31623335071E+04 0.  0.
        3    1    3    3  502    0 -0.62650636730E+03  0.12534016333E+04 -0.72278735540E+03  0.15766887625E+04  0.10100000352E+00 0.  1.
       -3    1    3    3    0  502  0.62650636730E+03 -0.12534016333E+04  0.74224879606E+03  0.15857046282E+04  0.10100000352E+00 0. -1.
</event>
<event>
 5   0  0.1508771E-06  0.3215468E+04  0.7818609E-02  0.8184744E-01
       -2   -1    0    0    0  501  0.00000000000E+00  0.00000000000E+00  0.11910047275E+04  0.11910047275E+04  0.25500000920E-02 0.  1.
        2   -1    0    0  501    0  0.00000000000E+00  0.00000000000E+00 -0.21702750480E+04  0.21702750480E+04  0.25500000920E-02 0. -1.
    10030    2    1    2    0    0  0.00000000000E+00  0.00000000000E+00 -0.97927032043E+03  0.33612797755E+04  0.32154675194E+04 0.  0.
        4    1    3    3  502    0 -0.13969144338E+04 -0.77829849076E+03 -0.31569318666E+03  0.16299638883E+04  0.12699999809E+01 0.  1.
       -4    1    3    3    0  502  0.13969144338E+04  0.77829849076E+03 -0.66357713377E+03  0.17313158872E+04  0.12699999809E+01 0. -1.
</event>
<event>
 5   0  0.1538349E-06  0.3206264E+04  0.7818609E-02  0.8187165E-01
       -2   -1    0    0    0  501  0.00000000000E+00  0.00000000000E+00  0.15564944932E+04  0.15564944932E+04  0.25500000920E-02 0.  1.
        2   -1    0    0  501    0  0.00000000000E+00  0.00000000000E+00 -0.16511666577E+04  0.16511666577E+04  0.25500000920E-02 0. -1.
    10030    2    1    2    0    0  0.00000000000E+00  0.00000000000E+00 -0.94672164443E+02  0.32076611509E+04  0.32062637509E+04 0.  0.
        1    1    3    3  502    0  0.77266430042E+03  0.12537693224E+04  0.58625200466E+03  0.15851306091E+04  0.50400001928E-02 0.  1.
       -1    1    3    3    0  502 -0.77266430042E+03 -0.12537693224E+04 -0.68092416910E+03  0.16225305418E+04  0.50400001928E-02 0. -1.
</event>
<event>
 5   0  0.5233813E-07  0.3239629E+04  0.7818609E-02  0.8178429E-01
        1   -1    0    0  501    0  0.00000000000E+00  0.00000000000E+00  0.20087141688E+04  0.20087141688E+04  0.50400001928E-02 0. -1.
       -1   -1    0    0    0  501  0.00000000000E+00  0.00000000000E+00 -0.13062083484E+04  0.13062083484E+04  0.50400001928E-02 0.  1.
    10030    2    1    2    0    0  0.00000000000E+00  0.00000000000E+00  0.70250582041E+03  0.33149225171E+04  0.32396291249E+04 0.  0.
        4    1    3    3  502    0  0.10240555612E+04 -0.12472887366E+04  0.49369538140E+03  0.16876479868E+04  0.12699999809E+01 0. -1.
       -4    1    3    3    0  502 -0.10240555612E+04  0.12472887366E+04  0.20881043901E+03  0.16272745303E+04  0.12699999809E+01 0.  1.
</event>
<event>
 5   0  0.1556396E-06  0.3201914E+04  0.7818609E-02  0.8188312E-01
       -2   -1    0    0    0  501  0.00000000000E+00  0.00000000000E+00  0.26057654868E+04  0.26057654868E+04  0.25500000920E-02 0. -1.
        2   -1    0    0  501    0  0.00000000000E+00  0.00000000000E+00 -0.98361241686E+03  0.98361241687E+03  0.25500000920E-02 0.  1.
    10030    2    1    2    0    0  0.00000000000E+00  0.00000000000E+00  0.16221530700E+04  0.35893779037E+04  0.32019139828E+04 0.  0.
        3    1    3    3  502    0  0.85329399115E+03  0.91760578116E+03 -0.30597629054E+03  0.12898575524E+04  0.10100000352E+00 0.  1.
       -3    1    3    3    0  502 -0.85329399115E+03 -0.91760578116E+03  0.19281293605E+04  0.22995203513E+04  0.10100000352E+00 0. -1.
</event>
<event>
 5   0  0.1572769E-06  0.3205085E+04  0.7818609E-02  0.8187476E-01
       -2   -1    0    0    0  501  0.00000000000E+00  0.00000000000E+00  0.97963629588E+03  0.97963629589E+03  0.25500000920E-02 0. -1.
        2   -1    0    0  501    0  0.00000000000E+00  0.00000000000E+00 -0.26215265347E+04  0.26215265347E+04  0.25500000920E-02 0.  1.
    10030    2    1    2    0    0  0.00000000000E+00  0.00000000000E+00 -0.16418902388E+04  0.36011628306E+04  0.32050850498E+04 0.  0.
        5    1    3    3  502    0 -0.89743469264E+03  0.85427150620E+03  0.32099463179E+03  0.12799329973E+04  0.46999998093E+01 0. -1.
       -5    1    3    3    0  502  0.89743469264E+03 -0.85427150620E+03 -0.19628848706E+04  0.23212298334E+04  0.46999998093E+01 0.  1.
</event>
<event>
 5   0  0.5177039E-07  0.3191471E+04  0.7818609E-02  0.8191073E-01
        1   -1    0    0  501    0  0.00000000000E+00  0.00000000000E+00  0.16536014957E+04  0.16536014957E+04  0.50400001928E-02 0.  1.
       -1   -1    0    0    0  501  0.00000000000E+00  0.00000000000E+00 -0.15398940259E+04  0.15398940259E+04  0.50400001928E-02 0. -1.
    10030    2    1    2    0    0  0.00000000000E+00  0.00000000000E+00  0.11370746981E+03  0.31934955216E+04  0.31914705478E+04 0.  0.
        3    1    3    3  502    0  0.10775880251E+03 -0.15649118820E+04 -0.23626539216E+03  0.15863109732E+04  0.10100000352E+00 0.  1.
       -3    1    3    3    0  502 -0.10775880251E+03  0.15649118820E+04  0.34997286197E+03  0.16071845483E+04  0.10100000352E+00 0. -1.
</event>
<event>
 5   0  0.5233813E-07  0.2890002E+04  0.7818609E-02  0.8275858E-01
       -1   -1    0    0    0  501  0.00000000000E+00  0.00000000000E+00  0.17468648762E+04  0.17468648763E+04  0.50400001928E-02 0.  1.
        1   -1    0    0  501    0  0.00000000000E+00  0.00000000000E+00 -0.11953001271E+04  0.11953001271E+04  0.50400001928E-02 0. -1.
    10030    2    1    2    0    0  0.00000000000E+00  0.00000000000E+00  0.55156474918E+03  0.29421650033E+04  0.28900019436E+04 0.  0.
        4    1    3    3  502    0  0.42466293543E+03  0.91568905718E+03 -0.77690301790E+03  0.12737366173E+04  0.12699999809E+01 0. -1.
       -4    1    3    3    0  502 -0.42466293543E+03 -0.91568905718E+03  0.13284677671E+04  0.16684283860E+04  0.12699999809E+01 0.  1.
</event>
<event>
 5   0  0.1508771E-06  0.3121552E+04  0.7818609E-02  0.8209848E-01
        2   -1    0    0  501    0  0.00000000000E+00  0.00000000000E+00  0.18700707684E+04  0.18700707684E+04  0.25500000920E-02 0. -1.
       -2   -1    0    0    0  501  0.00000000000E+00  0.00000000000E+00 -0.13026358845E+04  0.13026358845E+04  0.25500000920E-02 0.  1.
    10030    2    1    2    0    0  0.00000000000E+00  0.00000000000E+00  0.56743488394E+03  0.31727066529E+04  0.31215517228E+04 0.  0.
        4    1    3    3  502    0  0.72437475348E+03 -0.12110503709E+04 -0.39403702161E+03  0.14651377313E+04  0.12699999809E+01 0. -1.
       -4    1    3    3    0  502 -0.72437475348E+03  0.12110503709E+04  0.96147190555E+03  0.17075689217E+04  0.12699999809E+01 0.  1.
</event>
<event>
 5   0  0.5177039E-07  0.3191987E+04  0.7818609E-02  0.8190937E-01
       -1   -1    0    0    0  501  0.00000000000E+00  0.00000000000E+00  0.21963319222E+04  0.21963319222E+04  0.50400001928E-02 0.  1.
        1   -1    0    0  501    0  0.00000000000E+00  0.00000000000E+00 -0.11597495010E+04  0.11597495010E+04  0.50400001928E-02 0. -1.
    10030    2    1    2    0    0  0.00000000000E+00  0.00000000000E+00  0.10365824212E+04  0.33560814232E+04  0.31919867486E+04 0.  0.
        3    1    3    3  502    0 -0.33611067779E+03  0.15519441006E+04  0.68682498420E+03  0.17300952136E+04  0.10100000352E+00 0. -1.
       -3    1    3    3    0  502  0.33611067779E+03 -0.15519441006E+04  0.34975743704E+03  0.16259862096E+04  0.10100000352E+00 0.  1.
</event>
<event>
 5   0  0.1572769E-06  0.3217163E+04  0.7818609E-02  0.8184299E-01
       -2   -1    0    0    0  501  0.00000000000E+00  0.00000000000E+00  0.15225752395E+04  0.15225752395E+04  0.25500000920E-02 0.  1.
        2   -1    0    0  501    0  0.00000000000E+00  0.00000000000E+00 -0.16994458122E+04  0.16994458122E+04  0.25500000920E-02 0. -1.
    10030    2    1    2    0    0  0.00000000000E+00  0.00000000000E+00 -0.17687057267E+03  0.32220210517E+04  0.32171627963E+04 0.  0.
        5    1    3    3  502    0 -0.52532804678E+02  0.95090488666E+03  0.12098757780E+04  0.15397406559E+04  0.46999998093E+01 0.  1.
       -5    1    3    3    0  502  0.52532804678E+02 -0.95090488666E+03 -0.13867463507E+04  0.16822803958E+04  0.46999998093E+01 0. -1.
</event>
<event>
 5   0  0.1493485E-06  0.3195847E+04  0.7818609E-02  0.8189915E-01
        2   -1    0    0  501    0  0.00000000000E+00  0.00000000000E+00  0.28259038384E+04  0.28259038384E+04  0.25500000920E-02 0.  1.
       -2   -1    0    0    0  501  0.00000000000E+00  0.00000000000E+00 -0.90355512405E+03  0.90355512405E+03  0.25500000920E-02 0. -1.
    10030    2    1    2    0    0  0.00000000000E+00  0.00000000000E+00  0.19223487143E+04  0.37294589624E+04  0.31958472387E+04 0.  0.
        2    1    3    3  502    0  0.10901983095E+04 -0.71897945129E+03 -0.11338679688E+03  0.13108471959E+04  0.25500000920E-02 0. -1.
       -2    1    3    3    0  502 -0.10901983095E+04  0.71897945129E+03  0.20357355112E+04  0.24186117665E+04  0.25500000920E-02 0.  1.
</event>
<event>
 5   0  0.1572769E-06  0.3205597E+04  0.7818609E-02  0.8187341E-01
        2   -1    0    0  501    0  0.00000000000E+00  0.00000000000E+00  0.16469411598E+04  0.16469411598E+04  0.25500000920E-02 0.  1.
       -2   -1    0    0    0  501  0.00000000000E+00  0.00000000000E+00 -0.15598388708E+04  0.15598388708E+04  0.25500000920E-02 0. -1.
    10030    2    1    2    0    0  0.00000000000E+00  0.00000000000E+00  0.87102288944E+02  0.32067800306E+04  0.32055968799E+04 0.  0.
        5    1    3    3  502    0 -0.54719077026E+03  0.48049545963E+03 -0.13847878509E+04  0.15645935919E+04  0.46999998093E+01 0. -1.
       -5    1    3    3    0  502  0.54719077026E+03 -0.48049545963E+03  0.14718901399E+04  0.16421864387E+04  0.46999998093E+01 0.  1.
</event>
<event>
 5   0  0.5281187E-07  0.3208752E+04  0.7818609E-02  0.8186510E-01
        1   -1    0    0  501    0  0.00000000000E+00  0.00000000000E+00  0.24507267195E+04  0.24507267195E+04  0.50400001928E-02 0.  1.
       -1   -1    0    0    0  501  0.00000000000E+00  0.00000000000E+00 -0.10503097138E+04  0.10503097138E+04  0.50400001928E-02 0. -1.
    10030    2    1    2    0    0  0.00000000000E+00  0.00000000000E+00  0.14004170057E+04  0.35010364333E+04  0.32087518317E+04 0.  0.
        5    1    3    3  502    0  0.91281278756E+03  0.12923729961E+04  0.99000500320E+03  0.18664370181E+04  0.46999998093E+01 0. -1.
       -5    1    3    3    0  502 -0.91281278756E+03 -0.12923729961E+04  0.41041200251E+03  0.16345994152E+04  0.46999998093E+01 0.  1.
</event>
<event>
 5   0  0.5233813E-07  0.3222663E+04  0.7818609E-02  0.8182857E-01
       -1   -1    0    0    0  501  0.00000000000E+00  0.00000000000E+00  0.19919799286E+04  0.19919799286E+04  0.50400001928E-02 0.  1.
        1   -1    0    0  501    0  0.00000000000E+00  0.00000000000E+00 -0.13034217675E+04  0.13034217675E+04  0.50400001928E-02 0. -1.
    10030    2    1    2    0    0  0.00000000000E+00  0.00000000000E+00  0.68855816102E+03  0.32954016961E+04  0.32226634943E+04 0.  0.
        4    1    3    3  502    0  0.80771435529E+03  0.10968001201E+03 -0.10770414838E+04  0.13507228271E+04  0.12699999809E+01 0. -1.
       -4    1    3    3    0  502 -0.80771435529E+03 -0.10968001201E+03  0.17655996449E+04  0.19446788690E+04  0.12699999809E+01 0.  1.
</event>
<event>
 5   0  0.1556396E-06  0.3227390E+04  0.7818609E-02  0.8181621E-01
       -2   -1    0    0    0  501  0.00000000000E+00  0.00000000000E+00  0.12869929839E+04  0.12869929839E+04  0.25500000920E-02 0. -1.
        2   -1    0    0  501    0  0.00000000000E+00  0.00000000000E+00 -0.20233295741E+04  0.20233295741E+04  0.25500000920E-02 0.  1.
    10030    2    1    2    0    0  0.00000000000E+00  0.00000000000E+00 -0.73633659014E+03  0.33103225580E+04  0.32273896362E+04 0.  0.
        3    1    3    3  502    0 -0.10527350253E+04 -0.50167907514E+03  0.77587569345E+03  0.14006841292E+04  0.10100000352E+00 0. -1.
       -3    1    3    3    0  502  0.10527350253E+04  0.50167907514E+03 -0.15122122836E+04  0.19096384288E+04  0.10100000352E+00 0.  1.
</event>
<event>
 5   0  0.5317728E-07  0.3191848E+04  0.7818609E-02  0.8190973E-01
       -1   -1    0    0    0  501  0.00000000000E+00  0.00000000000E+00  0.97199695130E+03  0.97199695132E+03  0.50400001928E-02 0.  1.
        1   -1    0    0  501    0  0.00000000000E+00  0.00000000000E+00 -0.26203513746E+04  0.26203513746E+04  0.50400001928E-02 0. -1.
    10030    2    1    2    0    0  0.00000000000E+00  0.00000000000E+00 -0.16483544233E+04  0.35923483259E+04  0.31918480838E+04 0.  0.
        2    1    3    3  502    0 -0.47807190560E+03  0.30997888600E+03  0.85362546320E+03  0.10263118864E+04  0.25500000920E-02 0.  1.
       -2    1    3    3    0  502  0.47807190560E+03 -0.30997888600E+03 -0.25019798865E+04  0.25660364395E+04  0.25500000920E-02 0. -1.
</event>
<event>
 5   0  0.1508771E-06  0.2898043E+04  0.7818609E-02  0.8273460E-01
       -2   -1    0    0    0  501  0.00000000000E+00  0.00000000000E+00  0.83486516338E+03  0.83486516338E+03  0.25500000920E-02 0. -1.
        2   -1    0    0  501    0  0.00000000000E+00  0.00000000000E+00 -0.25149734561E+04  0.25149734561E+04  0.25500000920E-02 0.  1.
    10030    2    1    2    0    0  0.00000000000E+00  0.00000000000E+00 -0.16801082927E+04  0.33498386195E+04  0.28980432884E+04 0.  0.
        4    1    3    3  502    0  0.80891117684E+02 -0.49165185161E+03  0.73272889502E+03  0.88609150917E+03  0.12699999809E+01 0. -1.
       -4    1    3    3    0  502 -0.80891117684E+02  0.49165185161E+03 -0.24128371878E+04  0.24637471103E+04  0.12699999809E+01 0.  1.
</event>
<event>
 5   0  0.5233813E-07  0.3195993E+04  0.7818609E-02  0.8189876E-01
       -1   -1    0    0    0  501  0.00000000000E+00  0.00000000000E+00  0.15974704768E+04  0.15974704768E+04  0.50400001928E-02 0.  1.
        1   -1    0    0  501    0  0.00000000000E+00  0.00000000000E+00 -0.15985222400E+04  0.15985222400E+04  0.50400001928E-02 0. -1.
    10030    2    1    2    0    0  0.00000000000E+00  0.00000000000E+00 -0.10517632457E+01  0.31959927168E+04  0.31959925437E+04 0.  0.
        4    1    3    3  502    0  0.94859364736E+03 -0.11676039856E+04  0.53841894720E+03  0.15978189981E+04  0.12699999809E+01 0.  1.
       -4    1    3    3    0  502 -0.94859364736E+03  0.11676039856E+04 -0.53947071045E+03  0.15981737187E+04  0.12699999809E+01 0. -1.
</event>
<event>
 5   0  0.5370912E-07  0.3203415E+04  0.7818609E-02  0.8187916E-01
       -1   -1    0    0    0  501  0.00000000000E+00  0.00000000000E+00  0.11731967385E+04  0.11731967385E+04  0.50400001928E-02 0. -1.
        1   -1    0    0  501    0  0.00000000000E+00  0.00000000000E+00 -0.21867321529E+04  0.21867321529E+04  0.50400001928E-02 0.  1.
    10030    2    1    2    0    0  0.00000000000E+00  0.00000000000E+00 -0.10135354144E+04  0.33599288915E+04  0.32034150713E+04 0.  0.
        1    1    3    3  502    0  0.90276960479E+02 -0.13003336177E+04 -0.14830794664E+04  0.19744726259E+04  0.50400001928E-02 0.  1.
       -1    1    3    3    0  502 -0.90276960479E+02  0.13003336177E+04  0.46954405197E+03  0.13854562655E+04  0.50400001928E-02 0. -1.
</event>
<event>
 5   0  0.5281187E-07  0.3124792E+04  0.7818609E-02  0.8208967E-01
       -1   -1    0    0    0  501  0.00000000000E+00  0.00000000000E+00  0.11079990519E+04  0.11079990519E+04  0.50400001928E-02 0.  1.
        1   -1    0    0  501    0  0.00000000000E+00  0.00000000000E+00 -0.22031437584E+04  0.22031437584E+04  0.50400001928E-02 0. -1.
    10030    2    1    2    0    0  0.00000000000E+00  0.00000000000E+00 -0.10951447065E+04  0.33111428103E+04  0.31247919582E+04 0.  0.
        5    1    3    3  502    0  0.72971736952E+03 -0.10040295960E+03 -0.20075999522E+04  0.21384685763E+04  0.46999998093E+01 0. -1.
       -5    1    3    3    0  502 -0.72971736952E+03  0.10040295960E+03  0.91245524574E+03  0.11726742340E+04  0.46999998093E+01 0.  1.
</event>
<event>
 5   0  0.5177039E-07  0.3165890E+04  0.7818609E-02  0.8197884E-01
        1   -1    0    0  501    0  0.00000000000E+00  0.00000000000E+00  0.14116463109E+04  0.14116463109E+04  0.50400001928E-02 0.  1.
       -1   -1    0    0    0  501  0.00000000000E+00  0.00000000000E+00 -0.17750297077E+04  0.17750297077E+04  0.50400001928E-02 0. -1.
    10030    2    1    2    0    0  0.00000000000E+00  0.00000000000E+00 -0.36338339679E+03  0.31866760186E+04  0.31658895360E+04 0.  0.
        3    1    3    3  502    0 -0.15388914697E+04 -0.13282839942E+03  0.16682403238E+03  0.15535960244E+04  0.10100000352E+00 0. -1.
       -3    1    3    3    0  502  0.15388914697E+04  0.13282839942E+03 -0.53020742916E+03  0.16330799942E+04  0.10100000352E+00 0.  1.
</event>
<event>
 5   0  0.1493485E-06  0.3085222E+04  0.7818609E-02  0.8219805E-01
       -2   -1    0    0    0  501  0.00000000000E+00  0.00000000000E+00  0.23143995448E+04  0.23143995448E+04  0.25500000920E-02 0.  1.
        2   -1    0    0  501    0  0.00000000000E+00  0.00000000000E+00 -0.10281926990E+04  0.10281926991E+04  0.25500000920E-02 0. -1.
    10030    2    1    2    0    0  0.00000000000E+00  0.00000000000E+00  0.12862068457E+04  0.33425922438E+04  0.30852220112E+04 0.  0.
        2    1    3    3  502    0 -0.15358996492E+04  0.99813651810E+02  0.75516395642E+03  0.17144162559E+04  0.25500000920E-02 0. -1.
       -2    1    3    3    0  502  0.15358996492E+04 -0.99813651810E+02  0.53104288932E+03  0.16281759879E+04  0.25500000920E-02 0.  1.
</event>
<event>
 5   0  0.5233813E-07  0.3188087E+04  0.7818609E-02  0.8191971E-01
        1   -1    0    0  501    0  0.00000000000E+00  0.00000000000E+00  0.16126690192E+04  0.16126690192E+04  0.50400001928E-02 0.  1.
       -1   -1    0    0    0  501  0.00000000000E+00  0.00000000000E+00 -0.15756329531E+04  0.15756329531E+04  0.50400001928E-02 0. -1.
    10030    2    1    2    0    0  0.00000000000E+00  0.00000000000E+00  0.37036066100E+02  0.31883019723E+04  0.31880868552E+04 0.  0.
        4    1    3    3  502    0 -0.17819384360E+03  0.56879556148E+03  0.14970261899E+04  0.16113256849E+04  0.12699999809E+01 0.  1.
       -4    1    3    3    0  502  0.17819384360E+03 -0.56879556148E+03 -0.14599901238E+04  0.15769762874E+04  0.12699999809E+01 0. -1.
</event>
<event>
 5   0  0.1556396E-06  0.3173926E+04  0.7818609E-02  0.8195737E-01
       -2   -1    0    0    0  501  0.00000000000E+00  0.00000000000E+00  0.23012846589E+04  0.23012846589E+04  0.25500000920E-02 0. -1.
        2   -1    0    0  501    0  0.00000000000E+00  0.00000000000E+00 -0.10943675961E+04  0.10943675961E+04  0.25500000920E-02 0.  1.
    10030    2    1    2    0    0  0.00000000000E+00  0.00000000000E+00  0.12069170628E+04  0.33956522550E+04  0.31739258719E+04 0.  0.
        3    1    3    3  502    0 -0.90120737844E+03 -0.74611445083E+03 -0.54363250654E+03  0.12901154309E+04  0.10100000352E+00 0.  1.
       -3    1    3    3    0  502  0.90120737844E+03  0.74611445083E+03  0.17505495694E+04  0.21055368241E+04  0.10100000352E+00 0. -1.
</event>
<event>
 5   0  0.1508771E-06  0.3199937E+04  0.7818609E-02  0.8188834E-01
        2   -1    0    0  501    0  0.00000000000E+00  0.00000000000E+00  0.18368895512E+04  0.18368895512E+04  0.25500000920E-02 0.  1.
       -2   -1    0    0    0  501  0.00000000000E+00  0.00000000000E+00 -0.13936052474E+04  0.13936052474E+04  0.25500000920E-02 0. -1.
    10030    2    1    2    0    0  0.00000000000E+00  0.00000000000E+00  0.44328430381E+03  0.32304947986E+04  0.31999368228E+04 0.  0.
        4    1    3    3  502    0 -0.14585379617E+04  0.44921150490E+02 -0.44078424136E+03  0.15243501093E+04  0.12699999809E+01 0. -1.
       -4    1    3    3    0  502  0.14585379617E+04 -0.44921150490E+02  0.88406854517E+03  0.17061446893E+04  0.12699999809E+01 0.  1.
</event>
<event>
 5   0  0.5370912E-07  0.3063824E+04  0.7818609E-02  0.8225737E-01
        1   -1    0    0  501    0  0.00000000000E+00  0.00000000000E+00  0.11254767247E+04  0.11254767247E+04  0.50400001928E-02 0.  1.
       -1   -1    0    0    0  501  0.00000000000E+00  0.00000000000E+00 -0.20851203073E+04  0.20851203073E+04  0.50400001928E-02 0. -1.
    10030    2    1    2    0    0  0.00000000000E+00  0.00000000000E+00 -0.95964358258E+03  0.32105970320E+04  0.30638239989E+04 0.  0.
        1    1    3    3  502    0 -0.36260551766E+03 -0.41103194392E+03 -0.19788479883E+04  0.20533556393E+04  0.50400001928E-02 0. -1.
       -1    1    3    3    0  502  0.36260551766E+03  0.41103194392E+03  0.10192044058E+04  0.11572413928E+04  0.50400001928E-02 0.  1.
</event>
<event>
 5   0  0.1572769E-06  0.3213218E+04  0.7818609E-02  0.8185335E-01
       -2   -1    0    0    0  501  0.00000000000E+00  0.00000000000E+00  0.14692540197E+04  0.14692540197E+04  0.25500000920E-02 0.  1.
        2   -1    0    0  501    0  0.00000000000E+00  0.00000000000E+00 -0.17568045876E+04  0.17568045876E+04  0.25500000920E-02 0. -1.
    10030    2    1    2    0    0  0.00000000000E+00  0.00000000000E+00 -0.28755056790E+03  0.32260586073E+04  0.32132178277E+04 0.  0.
        5    1    3    3  502    0 -0.31326780115E+03 -0.26768298463E+03  0.14152919407E+04  0.14740638599E+04  0.46999998093E+01 0.  1.
       -5    1    3    3    0  502  0.31326780115E+03  0.26768298463E+03 -0.17028425087E+04  0.17519947474E+04  0.46999998093E+01 0. -1.
</event>
<event>
 5   0  0.1538349E-06  0.3204230E+04  0.7818609E-02  0.8187701E-01
        2   -1    0    0  501    0  0.00000000000E+00  0.00000000000E+00  0.82970291487E+03  0.82970291487E+03  0.25500000920E-02 0.  1.
       -2   -1    0    0    0  501  0.00000000000E+00  0.00000000000E+00 -0.30936050614E+04  0.30936050614E+04  0.25500000920E-02 0. -1.
    10030    2    1    2    0    0  0.00000000000E+00  0.00000000000E+00 -0.22639021466E+04  0.39233079763E+04  0.32042304143E+04 0.  0.
        1    1    3    3  502    0 -0.73158339988E+02  0.10358096988E+04  0.36189514604E+03  0.10996462939E+04  0.50400001928E-02 0.  1.
       -1    1    3    3    0  502  0.73158339988E+02 -0.10358096988E+04 -0.26257972926E+04  0.28236616824E+04  0.50400001928E-02 0. -1.
</event>
<event>
 5   0  0.1556396E-06  0.3217148E+04  0.7818609E-02  0.8184303E-01
       -2   -1    0    0    0  501  0.00000000000E+00  0.00000000000E+00  0.12833935475E+04  0.12833935475E+04  0.25500000920E-02 0. -1.
        2   -1    0    0  501    0  0.00000000000E+00  0.00000000000E+00 -0.20161474296E+04  0.20161474296E+04  0.25500000920E-02 0.  1.
    10030    2    1    2    0    0  0.00000000000E+00  0.00000000000E+00 -0.73275388215E+03  0.32995409771E+04  0.32171481793E+04 0.  0.
        3    1    3    3  502    0 -0.58275780963E+03  0.72163195649E+03 -0.17142458226E+04  0.19491018690E+04  0.10100000352E+00 0.  1.
       -3    1    3    3    0  502  0.58275780963E+03 -0.72163195649E+03  0.98149194043E+03  0.13504391081E+04  0.10100000352E+00 0. -1.
</event>
<event>
 5   0  0.5370912E-07  0.3187933E+04  0.7818609E-02  0.8192011E-01
       -1   -1    0    0    0  501  0.00000000000E+00  0.00000000000E+00  0.11995930106E+04  0.11995930106E+04  0.50400001928E-02 0. -1.
        1   -1    0    0  501    0  0.00000000000E+00  0.00000000000E+00 -0.21179927265E+04  0.21179927265E+04  0.50400001928E-02 0.  1.
    10030    2    1    2    0    0  0.00000000000E+00  0.00000000000E+00 -0.91839971588E+03  0.33175857371E+04  0.31879330427E+04 0.  0.
        1    1    3    3  502    0 -0.40807614925E+03 -0.97520491816E+03 -0.17006882134E+04  0.20024712670E+04  0.50400001928E-02 0.  1.
       -1    1    3    3    0  502  0.40807614925E+03  0.97520491816E+03  0.78228849754E+03  0.13151144701E+04  0.50400001928E-02 0. -1.
</event>
<event>
 5   0  0.5317728E-07  0.3208967E+04  0.7818609E-02  0.8186453E-01
        1   -1    0    0  501    0  0.00000000000E+00  0.00000000000E+00  0.19318946080E+04  0.19318946080E+04  0.50400001928E-02 0. -1.
       -1   -1    0    0    0  501  0.00000000000E+00  0.00000000000E+00 -0.13325610396E+04  0.13325610396E+04  0.50400001928E-02 0.  1.
    10030    2    1    2    0    0  0.00000000000E+00  0.00000000000E+00  0.59933356838E+03  0.32644556476E+04  0.32089671156E+04 0.  0.
        2    1    3    3  502    0  0.10929035321E+04  0.32957406404E+03  0.14466875683E+04  0.18428136408E+04  0.25500000920E-02 0. -1.
       -2    1    3    3    0  502 -0.10929035321E+04 -0.32957406404E+03 -0.84735399997E+03  0.14216420068E+04  0.25500000920E-02 0.  1.
</event>
<event>
 5   0  0.1538349E-06  0.3196991E+04  0.7818609E-02  0.8189612E-01
       -2   -1    0    0    0  501  0.00000000000E+00  0.00000000000E+00  0.12307799138E+04  0.12307799138E+04  0.25500000920E-02 0.  1.
        2   -1    0    0  501    0  0.00000000000E+00  0.00000000000E+00 -0.20760717245E+04  0.20760717245E+04  0.25500000920E-02 0. -1.
    10030    2    1    2    0    0  0.00000000000E+00  0.00000000000E+00 -0.84529181073E+03  0.33068516383E+04  0.31969906964E+04 0.  0.
        1    1    3    3  502    0 -0.15844448710E+04  0.20504358844E+03 -0.47618316162E+03  0.16671109219E+04  0.50400001928E-02 0.  1.
       -1    1    3    3    0  502  0.15844448710E+04 -0.20504358844E+03 -0.36910864911E+03  0.16397407165E+04  0.50400001928E-02 0. -1.
</event>
<event>
 5   0  0.1556396E-06  0.3191753E+04  0.7818609E-02  0.8190998E-01
        2   -1    0    0  501    0  0.00000000000E+00  0.00000000000E+00  0.19324562581E+04  0.19324562581E+04  0.25500000920E-02 0.  1.
       -2   -1    0    0    0  501  0.00000000000E+00  0.00000000000E+00 -0.13179198071E+04  0.13179198071E+04  0.25500000920E-02 0. -1.
    10030    2    1    2    0    0  0.00000000000E+00  0.00000000000E+00  0.61453645096E+03  0.32503760653E+04  0.31917533608E+04 0.  0.
        3    1    3    3  502    0  0.73535482153E+03 -0.58850462109E+03  0.16192386690E+04  0.18732373795E+04  0.10100000352E+00 0.  1.
       -3    1    3    3    0  502 -0.73535482153E+03  0.58850462109E+03 -0.10047022181E+04  0.13771386857E+04  0.10100000352E+00 0. -1.
</event>
<event>
 5   0  0.5281187E-07  0.3205968E+04  0.7818609E-02  0.8187243E-01
        1   -1    0    0  501    0  0.00000000000E+00  0.00000000000E+00  0.17692198174E+04  0.17692198174E+04  0.50400001928E-02 0.  1.
       -1   -1    0    0    0  501  0.00000000000E+00  0.00000000000E+00 -0.14523681151E+04  0.14523681151E+04  0.50400001928E-02 0. -1.
    10030    2    1    2    0    0  0.00000000000E+00  0.00000000000E+00  0.31685170231E+03  0.32215879326E+04  0.32059684662E+04 0.  0.
        5    1    3    3  502    0 -0.15790258542E+04  0.27537036250E+03  0.17813971004E+03  0.16127328765E+04  0.46999998093E+01 0. -1.
       -5    1    3    3    0  502  0.15790258542E+04 -0.27537036250E+03  0.13871199227E+03  0.16088550561E+04  0.46999998093E+01 0.  1.
</event>
<event>
 5   0  0.1556396E-06  0.3142145E+04  0.7818609E-02  0.8204266E-01
        2   -1    0    0  501    0  0.00000000000E+00  0.00000000000E+00  0.17202749119E+04  0.17202749119E+04  0.25500000920E-02 0. -1.
       -2   -1    0    0    0  501  0.00000000000E+00  0.00000000000E+00 -0.14348103750E+04  0.14348103750E+04  0.25500000920E-02 0.  1.
    10030    2    1    2    0    0  0.00000000000E+00  0.00000000000E+00  0.28546453694E+03  0.31550852869E+04  0.31421446761E+04 0.  0.
        3    1    3    3  502    0  0.73371607630E+03  0.34328405922E+03 -0.12089487498E+04  0.14552457922E+04  0.10100000352E+00 0.  1.
       -3    1    3    3    0  502 -0.73371607630E+03 -0.34328405922E+03  0.14944132867E+04  0.16998394947E+04  0.10100000352E+00 0. -1.
</event>
<event>
 5   0  0.5233813E-07  0.2945792E+04  0.7818609E-02  0.8259382E-01
       -1   -1    0    0    0  501  0.00000000000E+00  0.00000000000E+00  0.15736178211E+04  0.15736178211E+04  0.50400001928E-02 0.  1.
        1   -1    0    0  501    0  0.00000000000E+00  0.00000000000E+00 -0.13786206673E+04  0.13786206673E+04  0.50400001928E-02 0. -1.
    10030    2    1    2    0    0  0.00000000000E+00  0.00000000000E+00  0.19499715385E+03  0.29522384884E+04  0.29457916088E+04 0.  0.
        4    1    3    3  502    0  0.71994393952E+03  0.92929061931E+03 -0.79186684950E+03  0.14173761150E+04  0.12699999809E+01 0.  1.
       -4    1    3    3    0  502 -0.71994393952E+03 -0.92929061931E+03  0.98686400335E+03  0.15348623734E+04  0.12699999809E+01 0. -1.
</event>
<event>
 5   0  0.5233813E-07  0.3206234E+04  0.7818609E-02  0.8187173E-01
       -1   -1    0    0    0  501  0.00000000000E+00  0.00000000000E+00  0.12296730380E+04  0.12296730380E+04  0.50400001928E-02 0.  1.
        1   -1    0    0  501    0  0.00000000000E+00  0.00000000000E+00 -0.20899741335E+04  0.20899741335E+04  0.50400001928E-02 0. -1.
    10030    2    1    2    0    0  0.00000000000E+00  0.00000000000E+00 -0.86030109552E+03  0.33196471716E+04  0.32062344532E+04 0.  0.
        4    1    3    3  502    0  0.10981281636E+04 -0.11607161820E+04 -0.56449272288E+03  0.16946389485E+04  0.12699999809E+01 0. -1.
       -4    1    3    3    0  502 -0.10981281636E+04  0.11607161820E+04 -0.29580837264E+03  0.16250082231E+04  0.12699999809E+01 0.  1.
</event>
<event>
 5   0  0.1556396E-06  0.3187369E+04  0.7818609E-02  0.8192161E-01
       -2   -1    0    0    0  501  0.00000000000E+00  0.00000000000E+00  0.16438582575E+04  0.16438582575E+04  0.25500000920E-02 0.  1.
        2   -1    0    0  501    0  0.00000000000E+00  0.00000000000E+00 -0.15450422205E+04  0.15450422205E+04  0.25500000920E-02 0. -1.
    10030    2    1    2    0    0  0.00000000000E+00  0.00000000000E+00  0.98816037039E+02  0.31889004780E+04  0.31873690796E+04 0.  0.
        3    1    3    3  502    0 -0.14444418994E+04  0.21617863974E+03 -0.58861680966E+03  0.15746794480E+04  0.10100000352E+00 0. -1.
       -3    1    3    3    0  502  0.14444418994E+04 -0.21617863974E+03  0.68743284669E+03  0.16142210301E+04  0.10100000352E+00 0.  1.
</event>
<event>
 5   0  0.5177039E-07  0.3202917E+04  0.7818609E-02  0.8188047E-01
       -1   -1    0    0    0  501  0.00000000000E+00  0.00000000000E+00  0.15997409813E+04  0.15997409813E+04  0.50400001928E-02 0.  1.
        1   -1    0    0  501    0  0.00000000000E+00  0.00000000000E+00 -0.16031781226E+04  0.16031781226E+04  0.50400001928E-02 0. -1.
    10030    2    1    2    0    0  0.00000000000E+00  0.00000000000E+00 -0.34371413371E+01  0.32029191039E+04  0.32029172597E+04 0.  0.
        3    1    3    3  502    0  0.15632096394E+04  0.50297918032E+02 -0.34597953573E+03  0.16018289879E+04  0.10100000352E+00 0. -1.
       -3    1    3    3    0  502 -0.15632096394E+04 -0.50297918032E+02  0.34254239439E+03  0.16010901160E+04  0.10100000352E+00 0.  1.
</event>
<event>
 5   0  0.5370912E-07  0.3192418E+04  0.7818609E-02  0.8190822E-01
       -1   -1    0    0    0  501  0.00000000000E+00  0.00000000000E+00  0.13670552034E+04  0.13670552034E+04  0.50400001928E-02 0.  1.
        1   -1    0    0  501    0  0.00000000000E+00  0.00000000000E+00 -0.18637749600E+04  0.18637749600E+04  0.50400001928E-02 0. -1.
    10030    2    1    2    0    0  0.00000000000E+00  0.00000000000E+00 -0.49671975655E+03  0.32308301634E+04  0.31924180535E+04 0.  0.
        1    1    3    3  502    0  0.95873321588E+03 -0.80680367244E+03  0.75236644984E+03  0.14615597217E+04  0.50400001928E-02 0.  1.
       -1    1    3    3    0  502 -0.95873321588E+03  0.80680367244E+03 -0.12490862064E+04  0.17692704418E+04  0.50400001928E-02 0. -1.
</event>
<event>
 5   0  0.5233813E-07  0.3151869E+04  0.7818609E-02  0.8201645E-01
        1   -1    0    0  501    0  0.00000000000E+00  0.00000000000E+00  0.22036274494E+04  0.22036274494E+04  0.50400001928E-02 0.  1.
       -1   -1    0    0    0  501  0.00000000000E+00  0.00000000000E+00 -0.11270370310E+04  0.11270370310E+04  0.50400001928E-02 0. -1.
    10030    2    1    2    0    0  0.00000000000E+00  0.00000000000E+00  0.10765904184E+04  0.33306644805E+04  0.31518691204E+04 0.  0.
        4    1    3    3  502    0 -0.12166903293E+04  0.99991284845E+03  0.47661401006E+03  0.16453946607E+04  0.12699999809E+01 0.  1.
       -4    1    3    3    0  502  0.12166903293E+04 -0.99991284845E+03  0.59997640837E+03  0.16852698198E+04  0.12699999809E+01 0. -1.
</event>
<event>
 5   0  0.1493485E-06  0.3119412E+04  0.7818609E-02  0.8210430E-01
       -2   -1    0    0    0  501  0.00000000000E+00  0.00000000000E+00  0.12947671487E+04  0.12947671487E+04  0.25500000920E-02 0. -1.
        2   -1    0    0  501    0  0.00000000000E+00  0.00000000000E+00 -0.18788578778E+04  0.18788578778E+04  0.25500000920E-02 0.  1.
    10030    2    1    2    0    0  0.00000000000E+00  0.00000000000E+00 -0.58409072903E+03  0.31736250265E+04  0.31194124173E+04 0.  0.
        2    1    3    3  502    0 -0.59573795099E+03 -0.52622530773E+03 -0.16573312379E+04  0.18380869437E+04  0.25500000920E-02 0.  1.
       -2    1    3    3    0  502  0.59573795099E+03  0.52622530773E+03  0.10732405088E+04  0.13355380828E+04  0.25500000920E-02 0. -1.
</event>
<event>
 5   0  0.1493485E-06  0.3177880E+04  0.7818609E-02  0.8194683E-01
       -2   -1    0    0    0  501  0.00000000000E+00  0.00000000000E+00  0.12715008307E+04  0.12715008307E+04  0.25500000920E-02 0. -1.
        2   -1    0    0  501    0  0.00000000000E+00  0.00000000000E+00 -0.19856305881E+04  0.19856305881E+04  0.25500000920E-02 0.  1.
    10030    2    1    2    0    0  0.00000000000E+00  0.00000000000E+00 -0.71412975736E+03  0.32571314188E+04  0.31778803893E+04 0.  0.
        2    1    3    3  502    0 -0.76454296270E+03  0.56472092186E+03  0.94799005899E+03  0.13424309343E+04  0.25500000920E-02 0. -1.
       -2    1    3    3    0  502  0.76454296270E+03 -0.56472092186E+03 -0.16621198163E+04  0.19147004845E+04  0.25500000920E-02 0.  1.
</event>
<event>
 5   0  0.1493485E-06  0.3228353E+04  0.7818609E-02  0.8181369E-01
        2   -1    0    0  501    0  0.00000000000E+00  0.00000000000E+00  0.10216504212E+04  0.10216504212E+04  0.25500000920E-02 0.  1.
       -2   -1    0    0    0  501  0.00000000000E+00  0.00000000000E+00 -0.25503501047E+04  0.25503501047E+04  0.25500000920E-02 0. -1.
    10030    2    1    2    0    0  0.00000000000E+00  0.00000000000E+00 -0.15286996835E+04  0.35720005259E+04  0.32283533007E+04 0.  0.
        2    1    3    3  502    0  0.10838357204E+04  0.57809187872E+03 -0.19230462506E+04  0.22818845218E+04  0.25500000920E-02 0. -1.
       -2    1    3    3    0  502 -0.10838357204E+04 -0.57809187872E+03  0.39434656706E+03  0.12901160041E+04  0.25500000920E-02 0.  1.
</event>
<event>
 5   0  0.5317728E-07  0.3201657E+04  0.7818609E-02  0.8188380E-01
        1   -1    0    0  501    0  0.00000000000E+00  0.00000000000E+00  0.21274987018E+04  0.21274987018E+04  0.50400001928E-02 0.  1.
       -1   -1    0    0    0  501  0.00000000000E+00  0.00000000000E+00 -0.12045378225E+04  0.12045378225E+04  0.50400001928E-02 0. -1.
    10030    2    1    2    0    0  0.00000000000E+00  0.00000000000E+00  0.92296087927E+03  0.33320365243E+04  0.32016574793E+04 0.  0.
        2    1    3    3  502    0 -0.14767022234E+04  0.48366010519E+03  0.61003633710E+02  0.15550877780E+04  0.25500000920E-02 0.  1.
       -2    1    3    3    0  502  0.14767022234E+04 -0.48366010519E+03  0.86195724556E+03  0.17769487463E+04  0.25500000920E-02 0. -1.
</event>
<event>
 5   0  0.5233813E-07  0.3238064E+04  0.7818609E-02  0.8178836E-01
       -1   -1    0    0    0  501  0.00000000000E+00  0.00000000000E+00  0.25909556824E+04  0.25909556824E+04  0.50400001928E-02 0.  1.
        1   -1    0    0  501    0  0.00000000000E+00  0.00000000000E+00 -0.10116977470E+04  0.10116977470E+04  0.50400001928E-02 0. -1.
    10030    2    1    2    0    0  0.00000000000E+00  0.00000000000E+00  0.15792579354E+04  0.36026534294E+04  0.32380636353E+04 0.  0.
        4    1    3    3  502    0  0.15698905515E+04 -0.29750705801E+03  0.49908266832E+03  0.16739629375E+04  0.12699999809E+01 0. -1.
       -4    1    3    3    0  502 -0.15698905515E+04  0.29750705801E+03  0.10801752671E+04  0.19286904920E+04  0.12699999809E+01 0.  1.
</event>
<event>
 5   0  0.5177039E-07  0.3166895E+04  0.7818609E-02  0.8197615E-01
        1   -1    0    0  501    0  0.00000000000E+00  0.00000000000E+00  0.21382173100E+04  0.21382173100E+04  0.50400001928E-02 0. -1.
       -1   -1    0    0    0  501  0.00000000000E+00  0.00000000000E+00 -0.11726151357E+04  0.11726151357E+04  0.50400001928E-02 0.  1.
    10030    2    1    2    0    0  0.00000000000E+00  0.00000000000E+00  0.96560217431E+03  0.33108324458E+04  0.31668949975E+04 0.  0.
        3    1    3    3  502    0  0.90977896295E+01 -0.78325485645E+03 -0.95587539754E+03  0.12358271423E+04  0.10100000352E+00 0.  1.
       -3    1    3    3    0  502 -0.90977896295E+01  0.78325485645E+03  0.19214775718E+04  0.20750053034E+04  0.10100000352E+00 0. -1.
</event>
<event>
 5   0  0.1572769E-06  0.3204168E+04  0.7818609E-02  0.8187717E-01
       -2   -1    0    0    0  501  0.00000000000E+00  0.00000000000E+00  0.11995476469E+04  0.11995476469E+04  0.25500000920E-02 0. -1.
        2   -1    0    0  501    0  0.00000000000E+00  0.00000000000E+00 -0.21397014203E+04  0.21397014203E+04  0.25500000920E-02 0.  1.
    10030    2    1    2    0    0  0.00000000000E+00  0.00000000000E+00 -0.94015377341E+03  0.33392490672E+04  0.32041684124E+04 0.  0.
        5    1    3    3  502    0 -0.11277464345E+04 -0.16561262681E+03  0.70317810836E+03  0.13392987362E+04  0.46999998093E+01 0. -1.
       -5    1    3    3    0  502  0.11277464345E+04  0.16561262681E+03 -0.16433318818E+04  0.19999503310E+04  0.46999998093E+01 0.  1.
</event>
<event>
 5   0  0.5233813E-07  0.3194518E+04  0.7818609E-02  0.8190267E-01
        1   -1    0    0  501    0  0.00000000000E+00  0.00000000000E+00  0.18159969253E+04  0.18159969253E+04  0.50400001928E-02 0. -1.
       -1   -1    0    0    0  501  0.00000000000E+00  0.00000000000E+00 -0.14048679914E+04  0.14048679914E+04  0.50400001928E-02 0.  1.
    10030    2    1    2    0    0  0.00000000000E+00  0.00000000000E+00  0.41112893388E+03  0.32208649167E+04  0.31945177744E+04 0.  0.
        4    1    3    3  502    0  0.59402883861E+03 -0.14444854629E+04  0.54272618608E+03  0.16534696368E+04  0.12699999809E+01 0. -1.
       -4    1    3    3    0  502 -0.59402883861E+03  0.14444854629E+04 -0.13159725220E+03  0.15673952799E+04  0.12699999809E+01 0.  1.
</event>
<event>
 5   0  0.1572769E-06  0.3151298E+04  0.7818609E-02  0.8201799E-01
        2   -1    0    0  501    0  0.00000000000E+00  0.00000000000E+00  0.10404755405E+04  0.10404755405E+04  0.25500000920E-02 0.  1.
       -2   -1    0    0    0  501  0.00000000000E+00  0.00000000000E+00 -0.23860914663E+04  0.23860914663E+04  0.25500000920E-02 0. -1.
    10030    2    1    2    0    0  0.00000000000E+00  0.00000000000E+00 -0.13456159258E+04  0.34265670068E+04  0.31512980235E+04 0.  0.
        5    1    3    3  502    0  0.62051571348E+03  0.13793404768E+04 -0.19261252347E+03  0.15247103252E+04  0.46999998093E+01 0.  1.
       -5    1    3    3    0  502 -0.62051571348E+03 -0.13793404768E+04 -0.11530034023E+04  0.19018566816E+04  0.46999998093E+01 0. -1.
</event>
<event>
 5   0  0.5233813E-07  0.3241756E+04  0.7818609E-02  0.8177876E-01
        1   -1    0    0  501    0  0.00000000000E+00  0.00000000000E+00  0.23880018001E+04  0.23880018001E+04  0.50400001928E-02 0.  1.
       -1   -1    0    0    0  501  0.00000000000E+00  0.00000000000E+00 -0.11001857343E+04  0.11001857343E+04  0.50400001928E-02 0. -1.
    10030    2    1    2    0    0  0.00000000000E+00  0.00000000000E+00  0.12878160659E+04  0.34881875344E+04  0.32417560142E+04 0.  0.
        4    1    3    3  502    0  0.46381714034E+03 -0.49383821928E+03 -0.94052290594E+03  0.11591322082E+04  0.12699999809E+01 0. -1.
       -4    1    3    3    0  502 -0.46381714034E+03  0.49383821928E+03  0.22283389718E+04  0.23290553262E+04  0.12699999809E+01 0.  1.
</event>
<event>
 5   0  0.5281187E-07  0.3190784E+04  0.7818609E-02  0.8191255E-01
       -1   -1    0    0    0  501  0.00000000000E+00  0.00000000000E+00  0.13379417434E+04  0.13379417434E+04  0.50400001928E-02 0.  1.
        1   -1    0    0  501    0  0.00000000000E+00  0.00000000000E+00 -0.19023810153E+04  0.19023810153E+04  0.50400001928E-02 0. -1.
    10030    2    1    2    0    0  0.00000000000E+00  0.00000000000E+00 -0.56443927195E+03  0.32403227587E+04  0.31907835854E+04 0.  0.
        5    1    3    3  502    0  0.14759965140E+04  0.54380602795E+03 -0.55274275518E+03  0.16672844235E+04  0.46999998093E+01 0. -1.
       -5    1    3    3    0  502 -0.14759965140E+04 -0.54380602795E+03 -0.11696516770E+02  0.15730383352E+04  0.46999998093E+01 0.  1.
</event>
<event>
 5   0  0.5177039E-07  0.3188021E+04  0.7818609E-02  0.8191988E-01
        1   -1    0    0  501    0  0.00000000000E+00  0.00000000000E+00  0.19690308673E+04  0.19690308674E+04  0.50400001928E-02 0. -1.
       -1   -1    0    0    0  501  0.00000000000E+00  0.00000000000E+00 -0.12904160516E+04  0.12904160516E+04  0.50400001928E-02 0.  1.
    10030    2    1    2    0    0  0.00000000000E+00  0.00000000000E+00  0.67861481576E+03  0.32594469189E+04  0.31880207260E+04 0.  0.
        3    1    3    3  502    0 -0.28253170815E+03  0.62674231804E+03 -0.11310507338E+04  0.13235958114E+04  0.10100000352E+00 0.  1.
       -3    1    3    3    0  502  0.28253170815E+03 -0.62674231804E+03  0.18096655495E+04  0.19358511076E+04  0.10100000352E+00 0. -1.
</event>
<event>
 5   0  0.5177039E-07  0.3302386E+04  0.7818609E-02  0.8162289E-01
       -1   -1    0    0    0  501  0.00000000000E+00  0.00000000000E+00  0.14311415009E+04  0.14311415010E+04  0.50400001928E-02 0. -1.
        1   -1    0    0  501    0  0.00000000000E+00  0.00000000000E+00 -0.19050793969E+04  0.19050793969E+04  0.50400001928E-02 0.  1.
    10030    2    1    2    0    0  0.00000000000E+00  0.00000000000E+00 -0.47393789597E+03  0.33362208979E+04  0.33023859178E+04 0.  0.
        3    1    3    3  502    0 -0.14486434256E+04  0.35761467938E+03  0.47736982265E+03  0.15666326918E+04  0.10100000352E+00 0. -1.
       -3    1    3    3    0  502  0.14486434256E+04 -0.35761467938E+03 -0.95130771862E+03  0.17695882061E+04  0.10100000352E+00 0.  1.
</event>
<event>
 5   0  0.1508771E-06  0.3247753E+04  0.7818609E-02  0.8176318E-01
       -2   -1    0    0    0  501  0.00000000000E+00  0.00000000000E+00  0.16562132840E+04  0.16562132840E+04  0.25500000920E-02 0. -1.
        2   -1    0    0  501    0  0.00000000000E+00  0.00000000000E+00 -0.15921714893E+04  0.15921714893E+04  0.25500000920E-02 0.  1.
    10030    2    1    2    0    0  0.00000000000E+00  0.00000000000E+00  0.64041794690E+02  0.32483847733E+04  0.32477534210E+04 0.  0.
        4    1    3    3  502    0  0.86367722470E+03  0.37639224950E+03 -0.12908716498E+04  0.15981116053E+04  0.12699999809E+01 0.  1.
       -4    1    3    3    0  502 -0.86367722470E+03 -0.37639224950E+03  0.13549134445E+04  0.16502731680E+04  0.12699999809E+01 0. -1.
</event>
<event>
 5   0  0.1493485E-06  0.3223583E+04  0.7818609E-02  0.8182617E-01
       -2   -1    0    0    0  501  0.00000000000E+00  0.00000000000E+00  0.13777427716E+04  0.13777427716E+04  0.25500000920E-02 0. -1.
        2   -1    0    0  501    0  0.00000000000E+00  0.00000000000E+00 -0.18855998089E+04  0.18855998089E+04  0.25500000920E-02 0.  1.
    10030    2    1    2    0    0  0.00000000000E+00  0.00000000000E+00 -0.50785703730E+03  0.32633425804E+04  0.32235827936E+04 0.  0.
        2    1    3    3  502    0 -0.24405801894E+03 -0.52396944577E+03 -0.17770668143E+04  0.18687093833E+04  0.25500000920E-02 0.  1.
       -2    1    3    3    0  502  0.24405801894E+03  0.52396944577E+03  0.12692097770E+04  0.13946331972E+04  0.25500000920E-02 0. -1.
</event>
<event>
 5   0  0.5177039E-07  0.3222891E+04  0.7818609E-02  0.8182798E-01
        1   -1    0    0  501    0  0.00000000000E+00  0.00000000000E+00  0.18207896640E+04  0.18207896640E+04  0.50400001928E-02 0. -1.
       -1   -1    0    0    0  501  0.00000000000E+00  0.00000000000E+00 -0.14261706369E+04  0.14261706369E+04  0.50400001928E-02 0.  1.
    10030    2    1    2    0    0  0.00000000000E+00  0.00000000000E+00  0.39461902709E+03  0.32469603009E+04  0.32228910964E+04 0.  0.
        3    1    3    3  502    0  0.14323092079E+04  0.54722788774E+03  0.69678286136E+03  0.16841835987E+04  0.10100000352E+00 0.  1.
       -3    1    3    3    0  502 -0.14323092079E+04 -0.54722788774E+03 -0.30216383427E+03  0.15627767022E+04  0.10100000352E+00 0. -1.
</event>
<event>
 5   0  0.1556396E-06  0.3235465E+04  0.7818609E-02  0.8179513E-01
        2   -1    0    0  501    0  0.00000000000E+00  0.00000000000E+00  0.13021094371E+04  0.13021094371E+04  0.25500000920E-02 0. -1.
       -2   -1    0    0    0  501  0.00000000000E+00  0.00000000000E+00 -0.20098608471E+04  0.20098608471E+04  0.25500000920E-02 0.  1.
    10030    2    1    2    0    0  0.00000000000E+00  0.00000000000E+00 -0.70775141000E+03  0.33119702842E+04  0.32354652069E+04 0.  0.
        3    1    3    3  502    0  0.11284866584E+04  0.56906498068E+03  0.67982492746E+03  0.14350885104E+04  0.10100000352E+00 0. -1.
       -3    1    3    3    0  502 -0.11284866584E+04 -0.56906498068E+03 -0.13875763375E+04  0.18768817738E+04  0.10100000352E+00 0.  1.
</event>
<event>
 5   0  0.5370912E-07  0.3196337E+04  0.7818609E-02  0.8189785E-01
       -1   -1    0    0    0  501  0.00000000000E+00  0.00000000000E+00  0.25256356364E+04  0.25256356364E+04  0.50400001928E-02 0. -1.
        1   -1    0    0  501    0  0.00000000000E+00  0.00000000000E+00 -0.10112867870E+04  0.10112867870E+04  0.50400001928E-02 0.  1.
    10030    2    1    2    0    0  0.00000000000E+00  0.00000000000E+00  0.15143488494E+04  0.35369224234E+04  0.31963366205E+04 0.  0.
        1    1    3    3  502    0 -0.54964005270E+03  0.69745481646E+03 -0.71316808103E+03  0.11389276186E+04  0.50400001928E-02 0.  1.
       -1    1    3    3    0  502  0.54964005270E+03 -0.69745481646E+03  0.22275169305E+04  0.23979948049E+04  0.50400001928E-02 0. -1.
</event>
<event>
 5   0  0.5233813E-07  0.3206499E+04  0.7818609E-02  0.8187103E-01
        1   -1    0    0  501    0  0.00000000000E+00  0.00000000000E+00  0.11689117446E+04  0.11689117447E+04  0.50400001928E-02 0. -1.
       -1   -1    0    0    0  501  0.00000000000E+00  0.00000000000E+00 -0.21989764803E+04  0.21989764803E+04  0.50400001928E-02 0.  1.
    10030    2    1    2    0    0  0.00000000000E+00  0.00000000000E+00 -0.10300647357E+04  0.33678882250E+04  0.32064992962E+04 0.  0.
        4    1    3    3  502    0 -0.14973692529E+04  0.57270603406E+03 -0.49681160126E+03  0.16783713120E+04  0.12699999809E+01 0.  1.
       -4    1    3    3    0  502  0.14973692529E+04 -0.57270603406E+03 -0.53325313441E+03  0.16895169130E+04  0.12699999809E+01 0. -1.
</event>
<event>
 5   0  0.5281187E-07  0.3204003E+04  0.7818609E-02  0.8187761E-01
       -1   -1    0    0    0  501  0.00000000000E+00  0.00000000000E+00  0.19595458725E+04  0.19595458725E+04  0.50400001928E-02 0.  1.
        1   -1    0    0  501    0  0.00000000000E+00  0.00000000000E+00 -0.13096954156E+04  0.13096954156E+04  0.50400001928E-02 0. -1.
    10030    2    1    2    0    0  0.00000000000E+00  0.00000000000E+00  0.64985045684E+03  0.32692412881E+04  0.32040026504E+04 0.  0.
        5    1    3    3  502    0  0.10228408894E+04 -0.10510213289E+04  0.98267222458E+03  0.17653657155E+04  0.46999998093E+01 0.  1.
       -5    1    3    3    0  502 -0.10228408894E+04  0.10510213289E+04 -0.33282176774E+03  0.15038755726E+04  0.46999998093E+01 0. -1.
</event>
<event>
 5   0  0.1556396E-06  0.3220151E+04  0.7818609E-02  0.8183515E-01
       -2   -1    0    0    0  501  0.00000000000E+00  0.00000000000E+00  0.77143941732E+03  0.77143941732E+03  0.25500000920E-02 0. -1.
        2   -1    0    0  501    0  0.00000000000E+00  0.00000000000E+00 -0.33603980438E+04  0.33603980438E+04  0.25500000920E-02 0.  1.
    10030    2    1    2    0    0  0.00000000000E+00  0.00000000000E+00 -0.25889586265E+04  0.41318374611E+04  0.32201512442E+04 0.  0.
        3    1    3    3  502    0  0.14360571928E+04 -0.60624273657E+03 -0.77715316651E+03  0.17417685182E+04  0.10100000352E+00 0.  1.
       -3    1    3    3    0  502 -0.14360571928E+04  0.60624273657E+03 -0.18118054600E+04  0.23900689429E+04  0.10100000352E+00 0. -1.
</event>
<event>
 5   0  0.5370912E-07  0.3300055E+04  0.7818609E-02  0.8162881E-01
       -1   -1    0    0    0  501  0.00000000000E+00  0.00000000000E+00  0.12771872197E+04  0.12771872198E+04  0.50400001928E-02 0. -1.
        1   -1    0    0  501    0  0.00000000000E+00  0.00000000000E+00 -0.21317086108E+04  0.21317086108E+04  0.50400001928E-02 0.  1.
    10030    2    1    2    0    0  0.00000000000E+00  0.00000000000E+00 -0.85452139103E+03  0.34088958305E+04  0.33000551474E+04 0.  0.
        1    1    3    3  502    0 -0.88662392268E+01 -0.58617658271E+03  0.11659803406E+04  0.13050638877E+04  0.50400001928E-02 0. -1.
       -1    1    3    3    0  502  0.88662392268E+01  0.58617658271E+03 -0.20205017316E+04  0.21038319429E+04  0.50400001928E-02 0.  1.
</event>
<event>
 5   0  0.1538349E-06  0.3219956E+04  0.7818609E-02  0.8183567E-01
       -2   -1    0    0    0  501  0.00000000000E+00  0.00000000000E+00  0.10298666512E+04  0.10298666512E+04  0.25500000920E-02 0.  1.
        2   -1    0    0  501    0  0.00000000000E+00  0.00000000000E+00 -0.25168595439E+04  0.25168595439E+04  0.25500000920E-02 0. -1.
    10030    2    1    2    0    0  0.00000000000E+00  0.00000000000E+00 -0.14869928928E+04  0.35467261951E+04  0.32199563413E+04 0.  0.
        1    1    3    3  502    0  0.78971052308E+02  0.15318575947E+04 -0.20477614307E+03  0.15475003672E+04  0.50400001928E-02 0.  1.
       -1    1    3    3    0  502 -0.78971052308E+02 -0.15318575947E+04 -0.12822167497E+04  0.19992258279E+04  0.50400001928E-02 0. -1.
</event>
<event>
 5   0  0.5233813E-07  0.3139605E+04  0.7818609E-02  0.8204952E-01
       -1   -1    0    0    0  501  0.00000000000E+00  0.00000000000E+00  0.20849848490E+04  0.20849848490E+04  0.50400001928E-02 0.  1.
        1   -1    0    0  501    0  0.00000000000E+00  0.00000000000E+00 -0.11819175088E+04  0.11819175088E+04  0.50400001928E-02 0. -1.
    10030    2    1    2    0    0  0.00000000000E+00  0.00000000000E+00  0.90306734020E+03  0.32669023578E+04  0.31396051335E+04 0.  0.
        4    1    3    3  502    0  0.67101275114E+03  0.48719566906E+03 -0.93542454814E+03  0.12500553709E+04  0.12699999809E+01 0. -1.
       -4    1    3    3    0  502 -0.67101275114E+03 -0.48719566906E+03  0.18384918883E+04  0.20168469869E+04  0.12699999809E+01 0.  1.
</event>
<event>
 5   0  0.5281187E-07  0.3208913E+04  0.7818609E-02  0.8186467E-01
        1   -1    0    0  501    0  0.00000000000E+00  0.00000000000E+00  0.10025355941E+04  0.10025355942E+04  0.50400001928E-02 0. -1.
       -1   -1    0    0    0  501  0.00000000000E+00  0.00000000000E+00 -0.25677700994E+04  0.25677700994E+04  0.50400001928E-02 0.  1.
    10030    2    1    2    0    0  0.00000000000E+00  0.00000000000E+00 -0.15652345053E+04  0.35703056936E+04  0.32089131632E+04 0.  0.
        5    1    3    3  502    0  0.12670328129E+04  0.23833320369E+03 -0.18452051097E+04  0.22509950803E+04  0.46999998093E+01 0.  1.
       -5    1    3    3    0  502 -0.12670328129E+04 -0.23833320369E+03  0.27997060445E+03  0.13193106132E+04  0.46999998093E+01 0. -1.
</event>
<event>
 5   0  0.5317728E-07  0.3201881E+04  0.7818609E-02  0.8188321E-01
        1   -1    0    0  501    0  0.00000000000E+00  0.00000000000E+00  0.17882433333E+04  0.17882433333E+04  0.50400001928E-02 0.  1.
       -1   -1    0    0    0  501  0.00000000000E+00  0.00000000000E+00 -0.14332562698E+04  0.14332562698E+04  0.50400001928E-02 0. -1.
    10030    2    1    2    0    0  0.00000000000E+00  0.00000000000E+00  0.35498706348E+03  0.32214996031E+04  0.32018813029E+04 0.  0.
        2    1    3    3  502    0  0.67821373112E+03 -0.52565470046E+03  0.15373383476E+04  0.17605953323E+04  0.25500000920E-02 0.  1.
       -2    1    3    3    0  502 -0.67821373112E+03  0.52565470046E+03 -0.11823512841E+04  0.14609042708E+04  0.25500000920E-02 0. -1.
</event>
<event>
 5   0  0.5233813E-07  0.3218075E+04  0.7818609E-02  0.8184060E-01
       -1   -1    0    0    0  501  0.00000000000E+00  0.00000000000E+00  0.16170763423E+04  0.16170763423E+04  0.50400001928E-02 0. -1.
        1   -1    0    0  501    0  0.00000000000E+00  0.00000000000E+00 -0.16010383016E+04  0.16010383016E+04  0.50400001928E-02 0.  1.
    10030    2    1    2    0    0  0.00000000000E+00  0.00000000000E+00  0.16038040714E+02  0.32181146440E+04  0.32180746795E+04 0.  0.
        4    1    3    3  502    0 -0.15110362164E+04  0.11138308546E+01  0.56098868897E+03  0.16118131437E+04  0.12699999809E+01 0.  1.
       -4    1    3    3    0  502  0.15110362164E+04 -0.11138308546E+01 -0.54495064825E+03  0.16063015003E+04  0.12699999809E+01 0. -1.
</event>
<event>
 5   0  0.5281187E-07  0.3153531E+04  0.7818609E-02  0.8201198E-01
       -1   -1    0    0    0  501  0.00000000000E+00  0.00000000000E+00  0.22147721668E+04  0.22147721668E+04  0.50400001928E-02 0.  1.
        1   -1    0    0  501    0  0.00000000000E+00  0.00000000000E+00 -0.11225489422E+04  0.11225489422E+04  0.50400001928E-02 0. -1.
    10030    2    1    2    0    0  0.00000000000E+00  0.00000000000E+00  0.10922232246E+04  0.33373211090E+04  0.31535314509E+04 0.  0.
        5    1    3    3  502    0 -0.20260409932E+03  0.12270152169E+04  0.15719088842E+04  0.20043788050E+04  0.46999998093E+01 0.  1.
       -5    1    3    3    0  502  0.20260409932E+03 -0.12270152169E+04 -0.47968565965E+03  0.13329423040E+04  0.46999998093E+01 0. -1.
</event>
<event>
 5   0  0.1493485E-06  0.3206184E+04  0.7818609E-02  0.8187186E-01
       -2   -1    0    0    0  501  0.00000000000E+00  0.00000000000E+00  0.29212653952E+04  0.29212653952E+04  0.25500000920E-02 0. -1.
        2   -1    0    0  501    0  0.00000000000E+00  0.00000000000E+00 -0.87972281848E+03  0.87972281848E+03  0.25500000920E-02 0.  1.
    10030    2    1    2    0    0  0.00000000000E+00  0.00000000000E+00  0.20415425767E+04  0.38009882137E+04  0.32061839168E+04 0.  0.
        2    1    3    3  502    0  0.12930822328E+03  0.15952859485E+04  0.11284248779E+04  0.19583157506E+04  0.25500000920E-02 0. -1.
       -2    1    3    3    0  502 -0.12930822328E+03 -0.15952859485E+04  0.91311769883E+03  0.18426724630E+04  0.25500000920E-02 0.  1.
</event>
<event>
 5   0  0.5370912E-07  0.3189424E+04  0.7818609E-02  0.8191616E-01
       -1   -1    0    0    0  501  0.00000000000E+00  0.00000000000E+00  0.19958340369E+04  0.19958340369E+04  0.50400001928E-02 0.  1.
        1   -1    0    0  501    0  0.00000000000E+00  0.00000000000E+00 -0.12742070103E+04  0.12742070103E+04  0.50400001928E-02 0. -1.
    10030    2    1    2    0    0  0.00000000000E+00  0.00000000000E+00  0.72162702661E+03  0.32700410473E+04  0.31894235977E+04 0.  0.
        1    1    3    3  502    0 -0.62871024320E+03 -0.13221368915E+04  0.10090795460E+04  0.17780787553E+04  0.50400001928E-02 0.  1.
       -1    1    3    3    0  502  0.62871024320E+03  0.13221368915E+04 -0.28745251935E+03  0.14919622920E+04  0.50400001928E-02 0. -1.
</event>
<event>
 5   0  0.5370912E-07  0.3201567E+04  0.7818609E-02  0.8188404E-01
        1   -1    0    0  501    0  0.00000000000E+00  0.00000000000E+00  0.16823395720E+04  0.16823395720E+04  0.50400001928E-02 0. -1.
       -1   -1    0    0    0  501  0.00000000000E+00  0.00000000000E+00 -0.15231806977E+04  0.15231806977E+04  0.50400001928E-02 0.  1.
    10030    2    1    2    0    0  0.00000000000E+00  0.00000000000E+00  0.15915887427E+03  0.32055202697E+04  0.32015665935E+04 0.  0.
        1    1    3    3  502    0 -0.91801597072E+03 -0.12734859062E+04 -0.23383665998E+03  0.15871985570E+04  0.50400001928E-02 0. -1.
       -1    1    3    3    0  502  0.91801597072E+03  0.12734859062E+04  0.39299553425E+03  0.16183217127E+04  0.50400001928E-02 0.  1.
</event>
<event>
 5   0  0.5370912E-07  0.3203746E+04  0.7818609E-02  0.8187829E-01
       -1   -1    0    0    0  501  0.00000000000E+00  0.00000000000E+00  0.13736424893E+04  0.13736424893E+04  0.50400001928E-02 0. -1.
        1   -1    0    0  501    0  0.00000000000E+00  0.00000000000E+00 -0.18680241978E+04  0.18680241978E+04  0.50400001928E-02 0.  1.
    10030    2    1    2    0    0  0.00000000000E+00  0.00000000000E+00 -0.49438170849E+03  0.32416666871E+04  0.32037461879E+04 0.  0.
        1    1    3    3  502    0  0.10629326657E+04 -0.20162080154E+03  0.94811317360E+03  0.14385393249E+04  0.50400001928E-02 0. -1.
       -1    1    3    3    0  502 -0.10629326657E+04  0.20162080154E+03 -0.14424948821E+04  0.18031273622E+04  0.50400001928E-02 0.  1.
</event>
<event>
 5   0  0.1508771E-06  0.3211962E+04  0.7818609E-02  0.8185665E-01
        2   -1    0    0  501    0  0.00000000000E+00  0.00000000000E+00  0.17683003495E+04  0.17683003495E+04  0.25500000920E-02 0. -1.
       -2   -1    0    0    0  501  0.00000000000E+00  0.00000000000E+00 -0.14585617558E+04  0.14585617558E+04  0.25500000920E-02 0.  1.
    10030    2    1    2    0    0  0.00000000000E+00  0.00000000000E+00  0.30973859374E+03  0.32268621052E+04  0.32119621806E+04 0.  0.
        4    1    3    3  502    0 -0.11126683832E+04  0.11573194950E+04  0.11279057508E+03  0.16093920191E+04  0.12699999809E+01 0.  1.
       -4    1    3    3    0  502  0.11126683832E+04 -0.11573194950E+04  0.19694801867E+03  0.16174700861E+04  0.12699999809E+01 0. -1.
</event>
<event>
 5   0  0.5177039E-07  0.3202399E+04  0.7818609E-02  0.8188184E-01
       -1   -1    0    0    0  501  0.00000000000E+00  0.00000000000E+00  0.22465848324E+04  0.22465848324E+04  0.50400001928E-02 0.  1.
        1   -1    0    0  501    0  0.00000000000E+00  0.00000000000E+00 -0.11412165844E+04  0.11412165844E+04  0.50400001928E-02 0. -1.
    10030    2    1    2    0    0  0.00000000000E+00  0.00000000000E+00  0.11053682480E+04  0.33878014168E+04  0.32023990188E+04 0.  0.
        3    1    3    3  502    0 -0.55531701648E+03 -0.96927886328E+03  0.17662519926E+04  0.20898623436E+04  0.10100000352E+00 0.  1.
       -3    1    3    3    0  502  0.55531701648E+03  0.96927886328E+03 -0.66088374460E+03  0.12979390732E+04  0.10100000352E+00 0. -1.
</event>
<event>
 5   0  0.1508771E-06  0.3197974E+04  0.7818609E-02  0.8189352E-01
       -2   -1    0    0    0  501  0.00000000000E+00  0.00000000000E+00  0.13535354348E+04  0.13535354348E+04  0.25500000920E-02 0. -1.
        2   -1    0    0  501    0  0.00000000000E+00  0.00000000000E+00 -0.18889494962E+04  0.18889494963E+04  0.25500000920E-02 0.  1.
    10030    2    1    2    0    0  0.00000000000E+00  0.00000000000E+00 -0.53541406147E+03  0.32424849310E+04  0.31979744075E+04 0.  0.
        4    1    3    3  502    0  0.15114430759E+03 -0.12393258933E+04 -0.12806034399E+04  0.17884965906E+04  0.12699999809E+01 0.  1.
       -4    1    3    3    0  502 -0.15114430759E+03  0.12393258933E+04  0.74518937839E+03  0.14539883404E+04  0.12699999809E+01 0. -1.
</event>
<event>
 5   0  0.1556396E-06  0.3193817E+04  0.7818609E-02  0.8190452E-01
       -2   -1    0    0    0  501  0.00000000000E+00  0.00000000000E+00  0.18020400660E+04  0.18020400660E+04  0.25500000920E-02 0. -1.
        2   -1    0    0  501    0  0.00000000000E+00  0.00000000000E+00 -0.14151273443E+04  0.14151273443E+04  0.25500000920E-02 0.  1.
    10030    2    1    2    0    0  0.00000000000E+00  0.00000000000E+00  0.38691272169E+03  0.32171674104E+04  0.31938166341E+04 0.  0.
        3    1    3    3  502    0 -0.10227407949E+04 -0.38053428703E+03  0.13678754767E+04  0.17498252505E+04  0.10100000352E+00 0. -1.
       -3    1    3    3    0  502  0.10227407949E+04  0.38053428703E+03 -0.98096275505E+03  0.14673421599E+04  0.10100000352E+00 0.  1.
</event>
<event>
 5   0  0.1538349E-06  0.3199519E+04  0.7818609E-02  0.8188944E-01
       -2   -1    0    0    0  501  0.00000000000E+00  0.00000000000E+00  0.19750508485E+04  0.19750508485E+04  0.25500000920E-02 0.  1.
        2   -1    0    0  501    0  0.00000000000E+00  0.00000000000E+00 -0.12957796101E+04  0.12957796101E+04  0.25500000920E-02 0. -1.
    10030    2    1    2    0    0  0.00000000000E+00  0.00000000000E+00  0.67927123833E+03  0.32708304586E+04  0.31995191004E+04 0.  0.
        1    1    3    3  502    0  0.10568659424E+04 -0.29962013487E+03  0.15285232338E+04  0.18823180182E+04  0.50400001928E-02 0. -1.
       -1    1    3    3    0  502 -0.10568659424E+04  0.29962013487E+03 -0.84925199546E+03  0.13885124404E+04  0.50400001928E-02 0.  1.
</event>
<event>
 5   0  0.1508771E-06  0.3190263E+04  0.7818609E-02  0.8191394E-01
       -2   -1    0    0    0  501  0.00000000000E+00  0.00000000000E+00  0.11649464212E+04  0.11649464212E+04  0.25500000920E-02 0.  1.
        2   -1    0    0  501    0  0.00000000000E+00  0.00000000000E+00 -0.21841723895E+04  0.21841723895E+04  0.25500000920E-02 0. -1.
    10030    2    1    2    0    0  0.00000000000E+00  0.00000000000E+00 -0.10192259683E+04  0.33491188107E+04  0.31902625650E+04 0.  0.
        4    1    3    3  502    0  0.64658680691E+03 -0.12556783014E+03  0.10155179728E+04  0.12104214741E+04  0.12699999809E+01 0.  1.
       -4    1    3    3    0  502 -0.64658680691E+03  0.12556783014E+03 -0.20347439412E+04  0.21386973367E+04  0.12699999809E+01 0. -1.
</event>
<event>
 5   0  0.5177039E-07  0.3196676E+04  0.7818609E-02  0.8189696E-01
        1   -1    0    0  501    0  0.00000000000E+00  0.00000000000E+00  0.11162517495E+04  0.11162517495E+04  0.50400001928E-02 0. -1.
       -1   -1    0    0    0  501  0.00000000000E+00  0.00000000000E+00 -0.22886274931E+04  0.22886274931E+04  0.50400001928E-02 0.  1.
    10030    2    1    2    0    0  0.00000000000E+00  0.00000000000E+00 -0.11723757436E+04  0.34048792426E+04  0.31966760506E+04 0.  0.
        3    1    3    3  502    0  0.52845288404E+02  0.15715803588E+04 -0.89124519746E+03  0.18074776516E+04  0.10100000352E+00 0. -1.
       -3    1    3    3    0  502 -0.52845288404E+02 -0.15715803588E+04 -0.28113054613E+03  0.15974015910E+04  0.10100000352E+00 0.  1.
</event>
<event>
 5   0  0.1556396E-06  0.3198720E+04  0.7818609E-02  0.8189155E-01
       -2   -1    0    0    0  501  0.00000000000E+00  0.00000000000E+00  0.11890079676E+04  0.11890079676E+04  0.25500000920E-02 0.  1.
        2   -1    0    0  501    0  0.00000000000E+00  0.00000000000E+00 -0.21513335222E+04  0.21513335222E+04  0.25500000920E-02 0. -1.
    10030    2    1    2    0    0  0.00000000000E+00  0.00000000000E+00 -0.96232555456E+03  0.33403414898E+04  0.31987201809E+04 0.  0.
        3    1    3    3  502    0 -0.96525473641E+03  0.11680613902E+04  0.53224742403E+02  0.15162179925E+04  0.10100000352E+00 0. -1.
       -3    1    3    3    0  502  0.96525473641E+03 -0.11680613902E+04 -0.10155502970E+04  0.18241234973E+04  0.10100000352E+00 0.  1.
</event>
<event>
 5   0  0.5177039E-07  0.3187695E+04  0.7818609E-02  0.8192075E-01
       -1   -1    0    0    0  501  0.00000000000E+00  0.00000000000E+00  0.13222293795E+04  0.13222293795E+04  0.50400001928E-02 0. -1.
        1   -1    0    0  501    0  0.00000000000E+00  0.00000000000E+00 -0.19212622238E+04  0.19212622238E+04  0.50400001928E-02 0.  1.
    10030    2    1    2    0    0  0.00000000000E+00  0.00000000000E+00 -0.59903284430E+03  0.32434916034E+04  0.31876946894E+04 0.  0.
        3    1    3    3  502    0  0.20949315531E+03 -0.11124752801E+04 -0.14411451790E+04  0.18325905348E+04  0.10100000352E+00 0.  1.
       -3    1    3    3    0  502 -0.20949315531E+03  0.11124752801E+04  0.84211233467E+03  0.14109010686E+04  0.10100000352E+00 0. -1.
</event>
<event>
 5   0  0.1508771E-06  0.3189034E+04  0.7818609E-02  0.8191719E-01
        2   -1    0    0  501    0  0.00000000000E+00  0.00000000000E+00  0.18553955719E+04  0.18553955719E+04  0.25500000920E-02 0. -1.
       -2   -1    0    0    0  501  0.00000000000E+00  0.00000000000E+00 -0.13703189383E+04  0.13703189383E+04  0.25500000920E-02 0.  1.
    10030    2    1    2    0    0  0.00000000000E+00  0.00000000000E+00  0.48507663361E+03  0.32257145103E+04  0.31890335153E+04 0.  0.
        4    1    3    3  502    0  0.72701998320E+03 -0.13390984081E+04  0.71777159768E+03  0.16843219056E+04  0.12699999809E+01 0. -1.
       -4    1    3    3    0  502 -0.72701998320E+03  0.13390984081E+04 -0.23269496407E+03  0.15413926047E+04  0.12699999809E+01 0.  1.
</event>
<event>
 5   0  0.1493485E-06  0.3227799E+04  0.7818609E-02  0.8181514E-01
        2   -1    0    0  501    0  0.00000000000E+00  0.00000000000E+00  0.20082499823E+04  0.20082499823E+04  0.25500000920E-02 0.  1.
       -2   -1    0    0    0  501  0.00000000000E+00  0.00000000000E+00 -0.12969858879E+04  0.12969858879E+04  0.25500000920E-02 0. -1.
    10030    2    1    2    0    0  0.00000000000E+00  0.00000000000E+00  0.71126409435E+03  0.33052358702E+04  0.32277991799E+04 0.  0.
        2    1    3    3  502    0  0.62512678409E+02  0.10868027243E+04 -0.86443191704E+03  0.13900685363E+04  0.25500000920E-02 0. -1.
       -2    1    3    3    0  502 -0.62512678409E+02 -0.10868027243E+04  0.15756960114E+04  0.19151673339E+04  0.25500000920E-02 0.  1.
</event>
<event>
 5   0  0.1538349E-06  0.3183382E+04  0.7818609E-02  0.8193220E-01
       -2   -1    0    0    0  501  0.00000000000E+00  0.00000000000E+00  0.12524302318E+04  0.12524302318E+04  0.25500000920E-02 0. -1.
        2   -1    0    0  501    0  0.00000000000E+00  0.00000000000E+00 -0.20228511147E+04  0.20228511147E+04  0.25500000920E-02 0.  1.
    10030    2    1    2    0    0  0.00000000000E+00  0.00000000000E+00 -0.77042088282E+03  0.32752813465E+04  0.31833817808E+04 0.  0.
        1    1    3    3  502    0 -0.12420073713E+04 -0.33649057072E+03  0.57867612368E+03  0.14109125666E+04  0.50400001928E-02 0. -1.
       -1    1    3    3    0  502  0.12420073713E+04  0.33649057072E+03 -0.13490970065E+04  0.18643687799E+04  0.50400001928E-02 0.  1.
</event>
<event>
 5   0  0.1556396E-06  0.3214591E+04  0.7818609E-02  0.8184974E-01
        2   -1    0    0  501    0  0.00000000000E+00  0.00000000000E+00  0.11429534289E+04  0.11429534289E+04  0.25500000920E-02 0. -1.
       -2   -1    0    0    0  501  0.00000000000E+00  0.00000000000E+00 -0.22602832162E+04  0.22602832162E+04  0.25500000920E-02 0.  1.
    10030    2    1    2    0    0  0.00000000000E+00  0.00000000000E+00 -0.11173297873E+04  0.34032366451E+04  0.32145907685E+04 0.  0.
        3    1    3    3  502    0  0.66333060960E+03  0.11464403829E+04 -0.15226289695E+04  0.20181010971E+04  0.10100000352E+00 0.  1.
       -3    1    3    3    0  502 -0.66333060960E+03 -0.11464403829E+04  0.40529918221E+03  0.13851355480E+04  0.10100000352E+00 0. -1.
</event>
<event>
 5   0  0.1493485E-06  0.3200063E+04  0.7818609E-02  0.8188801E-01
        2   -1    0    0  501    0  0.00000000000E+00  0.00000000000E+00  0.26315549871E+04  0.26315549871E+04  0.25500000920E-02 0. -1.
       -2   -1    0    0    0  501  0.00000000000E+00  0.00000000000E+00 -0.97284691171E+03  0.97284691171E+03  0.25500000920E-02 0.  1.
    10030    2    1    2    0    0  0.00000000000E+00  0.00000000000E+00  0.16587080754E+04  0.36044018988E+04  0.32000625882E+04 0.  0.
        2    1    3    3  502    0  0.63717624129E+03 -0.14311888297E+04  0.11957309225E+04  0.19708037619E+04  0.25500000920E-02 0.  1.
       -2    1    3    3    0  502 -0.63717624129E+03  0.14311888297E+04  0.46297715285E+03  0.16335981369E+04  0.25500000920E-02 0. -1.
</event>
<event>
 5   0  0.5317728E-07  0.3299745E+04  0.7818609E-02  0.8162960E-01
       -1   -1    0    0    0  501  0.00000000000E+00  0.00000000000E+00  0.10857227674E+04  0.10857227675E+04  0.50400001928E-02 0.  1.
        1   -1    0    0  501    0  0.00000000000E+00  0.00000000000E+00 -0.25071588232E+04  0.25071588232E+04  0.50400001928E-02 0. -1.
    10030    2    1    2    0    0  0.00000000000E+00  0.00000000000E+00 -0.14214360558E+04  0.35928815907E+04  0.32997450908E+04 0.  0.
        2    1    3    3  502    0  0.15477953874E+04  0.46239099824E+03 -0.10760925855E+04  0.19409923362E+04  0.25500000920E-02 0. -1.
       -2    1    3    3    0  502 -0.15477953874E+04 -0.46239099824E+03 -0.34534347027E+03  0.16518892545E+04  0.25500000920E-02 0.  1.
</event>
<event>
 5   0  0.5317728E-07  0.3124895E+04  0.7818609E-02  0.8208939E-01
        1   -1    0    0  501    0  0.00000000000E+00  0.00000000000E+00  0.14061200253E+04  0.14061200253E+04  0.50400001928E-02 0. -1.
       -1   -1    0    0    0  501  0.00000000000E+00  0.00000000000E+00 -0.17361553432E+04  0.17361553432E+04  0.50400001928E-02 0.  1.
    10030    2    1    2    0    0  0.00000000000E+00  0.00000000000E+00 -0.33003531784E+03  0.31422753685E+04  0.31248953871E+04 0.  0.
        2    1    3    3  502    0 -0.12629757056E+04 -0.59671740310E+03  0.53892119735E+03  0.14972025077E+04  0.25500000920E-02 0. -1.
       -2    1    3    3    0  502  0.12629757056E+04  0.59671740310E+03 -0.86895651519E+03  0.16450728608E+04  0.25500000920E-02 0.  1.
</event>
<event>
 5   0  0.5233813E-07  0.3122145E+04  0.7818609E-02  0.8209687E-01
       -1   -1    0    0    0  501  0.00000000000E+00  0.00000000000E+00  0.11190395383E+04  0.11190395383E+04  0.50400001928E-02 0.  1.
        1   -1    0    0  501    0  0.00000000000E+00  0.00000000000E+00 -0.21777128378E+04  0.21777128378E+04  0.50400001928E-02 0. -1.
    10030    2    1    2    0    0  0.00000000000E+00  0.00000000000E+00 -0.10586732995E+04  0.32967523761E+04  0.31221446273E+04 0.  0.
        4    1    3    3  502    0 -0.10184876679E+04  0.10432889729E+04  0.59692054161E+02  0.14592236857E+04  0.12699999809E+01 0. -1.
       -4    1    3    3    0  502  0.10184876679E+04 -0.10432889729E+04 -0.11183653537E+04  0.18375286904E+04  0.12699999809E+01 0.  1.
</event>
<event>
 5   0  0.5281187E-07  0.3186940E+04  0.7818609E-02  0.8192275E-01
       -1   -1    0    0    0  501  0.00000000000E+00  0.00000000000E+00  0.10902650546E+04  0.10902650546E+04  0.50400001928E-02 0. -1.
        1   -1    0    0  501    0  0.00000000000E+00  0.00000000000E+00 -0.23289258191E+04  0.23289258191E+04  0.50400001928E-02 0.  1.
    10030    2    1    2    0    0  0.00000000000E+00  0.00000000000E+00 -0.12386607645E+04  0.34191908737E+04  0.31869398710E+04 0.  0.
        5    1    3    3  502    0  0.82554730939E+03 -0.11462257968E+04  0.17181093515E+03  0.14229908730E+04  0.46999998093E+01 0. -1.
       -5    1    3    3    0  502 -0.82554730939E+03  0.11462257968E+04 -0.14104716996E+04  0.19962000007E+04  0.46999998093E+01 0.  1.
</event>
<event>
 5   0  0.5281187E-07  0.3170189E+04  0.7818609E-02  0.8196735E-01
        1   -1    0    0  501    0  0.00000000000E+00  0.00000000000E+00  0.15501565161E+04  0.15501565161E+04  0.50400001928E-02 0. -1.
       -1   -1    0    0    0  501  0.00000000000E+00  0.00000000000E+00 -0.16208202429E+04  0.16208202429E+04  0.50400001928E-02 0.  1.
    10030    2    1    2    0    0  0.00000000000E+00  0.00000000000E+00 -0.70663726785E+02  0.31709767590E+04  0.31701893072E+04 0.  0.
        5    1    3    3  502    0 -0.58930589186E+03 -0.91049151529E+03 -0.11915717336E+04  0.16112546416E+04  0.46999998093E+01 0.  1.
       -5    1    3    3    0  502  0.58930589186E+03  0.91049151529E+03  0.11209080069E+04  0.15597221174E+04  0.46999998093E+01 0. -1.
</event>
<event>
 5   0  0.1556396E-06  0.3187991E+04  0.7818609E-02  0.8191996E-01
        2   -1    0    0  501    0  0.00000000000E+00  0.00000000000E+00  0.29671080051E+04  0.29671080051E+04  0.25500000920E-02 0. -1.
       -2   -1    0    0    0  501  0.00000000000E+00  0.00000000000E+00 -0.85632923742E+03  0.85632923742E+03  0.25500000920E-02 0.  1.
    10030    2    1    2    0    0  0.00000000000E+00  0.00000000000E+00  0.21107787677E+04  0.38234372425E+04  0.31879908001E+04 0.  0.
        3    1    3    3  502    0  0.13822731744E+04  0.75553140567E+03  0.76329896435E+03  0.17504662673E+04  0.10100000352E+00 0.  1.
       -3    1    3    3    0  502 -0.13822731744E+04 -0.75553140567E+03  0.13474798033E+04  0.20729709753E+04  0.10100000352E+00 0. -1.
</event>
<event>
 5   0  0.1556396E-06  0.3189213E+04  0.7818609E-02  0.8191672E-01
        2   -1    0    0  501    0  0.00000000000E+00  0.00000000000E+00  0.19603740746E+04  0.19603740746E+04  0.25500000920E-02 0.  1.
       -2   -1    0    0    0  501  0.00000000000E+00  0.00000000000E+00 -0.12970842330E+04  0.12970842330E+04  0.25500000920E-02 0. -1.
    10030    2    1    2    0    0  0.00000000000E+00  0.00000000000E+00  0.66328984162E+03  0.32574583075E+04  0.31892132590E+04 0.  0.
        3    1    3    3  502    0  0.13825364849E+02  0.73752473271E+03 -0.11123384886E+04  0.13347025120E+04  0.10100000352E+00 0. -1.
       -3    1    3    3    0  502 -0.13825364849E+02 -0.73752473271E+03  0.17756283302E+04  0.19227557956E+04  0.10100000352E+00 0.  1.
</event>
<event>
 5   0  0.5281187E-07  0.3213119E+04  0.7818609E-02  0.8185361E-01
        1   -1    0    0  501    0  0.00000000000E+00  0.00000000000E+00  0.23365185976E+04  0.23365185976E+04  0.50400001928E-02 0. -1.
       -1   -1    0    0    0  501  0.00000000000E+00  0.00000000000E+00 -0.11046491765E+04  0.11046491765E+04  0.50400001928E-02 0.  1.
    10030    2    1    2    0    0  0.00000000000E+00  0.00000000000E+00  0.12318694211E+04  0.34411677741E+04  0.32131189488E+04 0.  0.
        5    1    3    3  502    0 -0.92968024955E+03  0.12123082522E+04  0.83654467170E+02  0.15300381775E+04  0.46999998093E+01 0.  1.
       -5    1    3    3    0  502  0.92968024955E+03 -0.12123082522E+04  0.11482149539E+04  0.19111295966E+04  0.46999998093E+01 0. -1.
</event>
<event>
 5   0  0.1538349E-06  0.3050510E+04  0.7818609E-02  0.8229453E-01
       -2   -1    0    0    0  501  0.00000000000E+00  0.00000000000E+00  0.20957325038E+04  0.20957325038E+04  0.25500000920E-02 0. -1.
        2   -1    0    0  501    0  0.00000000000E+00  0.00000000000E+00 -0.11100669525E+04  0.11100669525E+04  0.25500000920E-02 0.  1.
    10030    2    1    2    0    0  0.00000000000E+00  0.00000000000E+00  0.98566555129E+03  0.32057994563E+04  0.30505103794E+04 0.  0.
        1    1    3    3  502    0 -0.10804866889E+04 -0.82359296769E+03 -0.23574639428E+03  0.13788884015E+04  0.50400001928E-02 0.  1.
       -1    1    3    3    0  502  0.10804866889E+04  0.82359296769E+03  0.12214119456E+04  0.18269110548E+04  0.50400001928E-02 0. -1.
</event>
<event>
 5   0  0.5317728E-07  0.3207215E+04  0.7818609E-02  0.8186914E-01
       -1   -1    0    0    0  501  0.00000000000E+00  0.00000000000E+00  0.13326970877E+04  0.13326970878E+04  0.50400001928E-02 0. -1.
        1   -1    0    0  501    0  0.00000000000E+00  0.00000000000E+00 -0.19295890116E+04  0.19295890116E+04  0.50400001928E-02 0.  1.
    10030    2    1    2    0    0  0.00000000000E+00  0.00000000000E+00 -0.59689192381E+03  0.32622860993E+04  0.32072154005E+04 0.  0.
        2    1    3    3  502    0  0.42594330287E+03 -0.89602467088E+03 -0.15799479565E+04  0.18656161056E+04  0.25500000920E-02 0.  1.
       -2    1    3    3    0  502 -0.42594330287E+03  0.89602467088E+03  0.98305603268E+03  0.13966699938E+04  0.25500000920E-02 0. -1.
</event>
<event>
 5   0  0.1556396E-06  0.3165214E+04  0.7818609E-02  0.8198065E-01
       -2   -1    0    0    0  501  0.00000000000E+00  0.00000000000E+00  0.10087276491E+04  0.10087276491E+04  0.25500000920E-02 0. -1.
        2   -1    0    0  501    0  0.00000000000E+00  0.00000000000E+00 -0.24829746168E+04  0.24829746168E+04  0.25500000920E-02 0.  1.
    10030    2    1    2    0    0  0.00000000000E+00  0.00000000000E+00 -0.14742469677E+04  0.34917022658E+04  0.31652141462E+04 0.  0.
        3    1    3    3  502    0  0.15263264620E+03  0.11203849065E+04  0.48437965301E+03  0.12301149222E+04  0.10100000352E+00 0. -1.
       -3    1    3    3    0  502 -0.15263264620E+03 -0.11203849065E+04 -0.19586266207E+04  0.22615873436E+04  0.10100000352E+00 0.  1.
</event>
<event>
 5   0  0.1508771E-06  0.3313074E+04  0.7818609E-02  0.8159577E-01
        2   -1    0    0  501    0  0.00000000000E+00  0.00000000000E+00  0.21806901189E+04  0.21806901189E+04  0.25500000920E-02 0.  1.
       -2   -1    0    0    0  501  0.00000000000E+00  0.00000000000E+00 -0.12583695697E+04  0.12583695697E+04  0.25500000920E-02 0. -1.
    10030    2    1    2    0    0  0.00000000000E+00  0.00000000000E+00  0.92232054915E+03  0.34390596886E+04  0.33130735498E+04 0.  0.
        4    1    3    3  502    0  0.42236407116E+03  0.99980547596E+03  0.17601920608E+04  0.20679168509E+04  0.12699999809E+01 0.  1.
       -4    1    3    3    0  502 -0.42236407116E+03 -0.99980547596E+03 -0.83787151168E+03  0.13711428377E+04  0.12699999809E+01 0. -1.
</event>
<event>
 5   0  0.1572769E-06  0.3168672E+04  0.7818609E-02  0.8197140E-01
        2   -1    0    0  501    0  0.00000000000E+00  0.00000000000E+00  0.10692176804E+04  0.10692176804E+04  0.25500000920E-02 0.  1.
       -2   -1    0    0    0  501  0.00000000000E+00  0.00000000000E+00 -0.23476228577E+04  0.23476228577E+04  0.25500000920E-02 0. -1.
    10030    2    1    2    0    0  0.00000000000E+00  0.00000000000E+00 -0.12784051773E+04  0.34168405381E+04  0.31686715617E+04 0.  0.
        5    1    3    3  502    0  0.60864759543E+03 -0.12536081723E+04  0.17356173354E+03  0.14043258562E+04  0.46999998093E+01 0. -1.
       -5    1    3    3    0  502 -0.60864759543E+03  0.12536081723E+04 -0.14519669108E+04  0.20125146819E+04  0.46999998093E+01 0.  1.
</event>
<event>
 5   0  0.5370912E-07  0.3191503E+04  0.7818609E-02  0.8191065E-01
       -1   -1    0    0    0  501  0.00000000000E+00  0.00000000000E+00  0.11540533962E+04  0.11540533962E+04  0.50400001928E-02 0. -1.
        1   -1    0    0  501    0  0.00000000000E+00  0.00000000000E+00 -0.22065034056E+04  0.22065034056E+04  0.50400001928E-02 0.  1.
    10030    2    1    2    0    0  0.00000000000E+00  0.00000000000E+00 -0.10524500094E+04  0.33605568018E+04  0.31915029368E+04 0.  0.
        1    1    3    3  502    0  0.12257717672E+04 -0.38995525219E+03  0.46817190010E+03  0.13688558916E+04  0.50400001928E-02 0. -1.
       -1    1    3    3    0  502 -0.12257717672E+04  0.38995525219E+03 -0.15206219095E+04  0.19917009102E+04  0.50400001928E-02 0.  1.
</event>
<event>
 5   0  0.5177039E-07  0.3203608E+04  0.7818609E-02  0.8187865E-01
        1   -1    0    0  501    0  0.00000000000E+00  0.00000000000E+00  0.25035524626E+04  0.25035524626E+04  0.50400001928E-02 0. -1.
       -1   -1    0    0    0  501  0.00000000000E+00  0.00000000000E+00 -0.10248543062E+04  0.10248543062E+04  0.50400001928E-02 0.  1.
    10030    2    1    2    0    0  0.00000000000E+00  0.00000000000E+00  0.14786981564E+04  0.35284067687E+04  0.32036082919E+04 0.  0.
        3    1    3    3  502    0  0.79965450599E+03 -0.75708260492E+03 -0.54183941299E+03  0.12272780285E+04  0.10100000352E+00 0.  1.
       -3    1    3    3    0  502 -0.79965450599E+03  0.75708260492E+03  0.20205375694E+04  0.23011287402E+04  0.10100000352E+00 0. -1.
</event>
<event>
 5   0  0.5233813E-07  0.3196404E+04  0.7818609E-02  0.8189768E-01
       -1   -1    0    0    0  501  0.00000000000E+00  0.00000000000E+00  0.18123007738E+04  0.18123007738E+04  0.50400001928E-02 0.  1.
        1   -1    0    0  501    0  0.00000000000E+00  0.00000000000E+00 -0.14093956603E+04  0.14093956603E+04  0.50400001928E-02 0. -1.
    10030    2    1    2    0    0  0.00000000000E+00  0.00000000000E+00  0.40290511348E+03  0.32216964341E+04  0.31964035075E+04 0.  0.
        4    1    3    3  502    0 -0.76194441310E+03  0.28156605012E+03 -0.11858137392E+04  0.14373567985E+04  0.12699999809E+01 0. -1.
       -4    1    3    3    0  502  0.76194441310E+03 -0.28156605012E+03  0.15887188527E+04  0.17843396356E+04  0.12699999809E+01 0.  1.
</event>
<event>
 5   0  0.5281187E-07  0.3197533E+04  0.7818609E-02  0.8189469E-01
       -1   -1    0    0    0  501  0.00000000000E+00  0.00000000000E+00  0.16767965615E+04  0.16767965615E+04  0.50400001928E-02 0. -1.
        1   -1    0    0  501    0  0.00000000000E+00  0.00000000000E+00 -0.15243680401E+04  0.15243680401E+04  0.50400001928E-02 0.  1.
    10030    2    1    2    0    0  0.00000000000E+00  0.00000000000E+00  0.15242852140E+03  0.32011646016E+04  0.31975334795E+04 0.  0.
        5    1    3    3  502    0 -0.64399411457E+03 -0.25869283820E+03  0.15181215431E+04  0.16692409993E+04  0.46999998093E+01 0. -1.
       -5    1    3    3    0  502  0.64399411457E+03  0.25869283820E+03 -0.13656930217E+04  0.15319236024E+04  0.46999998093E+01 0.  1.
</event>
<event>
 5   0  0.1556396E-06  0.3214927E+04  0.7818609E-02  0.8184886E-01
        2   -1    0    0  501    0  0.00000000000E+00  0.00000000000E+00  0.25832673689E+04  0.25832673689E+04  0.25500000920E-02 0. -1.
       -2   -1    0    0    0  501  0.00000000000E+00  0.00000000000E+00 -0.10002596658E+04  0.10002596658E+04  0.25500000920E-02 0.  1.
    10030    2    1    2    0    0  0.00000000000E+00  0.00000000000E+00  0.15830077031E+04  0.35835270347E+04  0.32149265342E+04 0.  0.
        3    1    3    3  502    0 -0.13771618869E+04 -0.10932923567E+03  0.17075629742E+04  0.21964287071E+04  0.10100000352E+00 0. -1.
       -3    1    3    3    0  502  0.13771618869E+04  0.10932923567E+03 -0.12455527106E+03  0.13870983275E+04  0.10100000352E+00 0.  1.
</event>
<event>
 5   0  0.5317728E-07  0.3191604E+04  0.7818609E-02  0.8191038E-01
       -1   -1    0    0    0  501  0.00000000000E+00  0.00000000000E+00  0.12447343578E+04  0.12447343578E+04  0.50400001928E-02 0. -1.
        1   -1    0    0  501    0  0.00000000000E+00  0.00000000000E+00 -0.20458851273E+04  0.20458851273E+04  0.50400001928E-02 0.  1.
    10030    2    1    2    0    0  0.00000000000E+00  0.00000000000E+00 -0.80115076944E+03  0.32906194851E+04  0.31916036785E+04 0.  0.
        2    1    3    3  502    0  0.97361872139E+03  0.68279310356E+03 -0.14977531881E+04  0.19124341686E+04  0.25500000920E-02 0.  1.
       -2    1    3    3    0  502 -0.97361872139E+03 -0.68279310356E+03  0.69660241864E+03  0.13781853165E+04  0.25500000920E-02 0. -1.
</event>
<event>
 5   0  0.5233813E-07  0.3204444E+04  0.7818609E-02  0.8187645E-01
        1   -1    0    0  501    0  0.00000000000E+00  0.00000000000E+00  0.10584789683E+04  0.10584789683E+04  0.50400001928E-02 0. -1.
       -1   -1    0    0    0  501  0.00000000000E+00  0.00000000000E+00 -0.24252864750E+04  0.24252864750E+04  0.50400001928E-02 0.  1.
    10030    2    1    2    0    0  0.00000000000E+00  0.00000000000E+00 -0.13668075068E+04  0.34837654433E+04  0.32044436184E+04 0.  0.
        4    1    3    3  502    0 -0.56541610845E+02 -0.59392320339E+02 -0.24230030530E+04  0.24243906058E+04  0.12699999809E+01 0.  1.
       -4    1    3    3    0  502  0.56541610845E+02  0.59392320339E+02  0.10561955463E+04  0.10593748375E+04  0.12699999809E+01 0. -1.
</event>
<event>
 5   0  0.5177039E-07  0.3201139E+04  0.7818609E-02  0.8188517E-01
       -1   -1    0    0    0  501  0.00000000000E+00  0.00000000000E+00  0.13222730251E+04  0.13222730251E+04  0.50400001928E-02 0.  1.
        1   -1    0    0  501    0  0.00000000000E+00  0.00000000000E+00 -0.19374380129E+04  0.19374380129E+04  0.50400001928E-02 0. -1.
    10030    2    1    2    0    0  0.00000000000E+00  0.00000000000E+00 -0.61516498775E+03  0.32597110380E+04  0.32011385614E+04 0.  0.
        3    1    3    3  502    0 -0.32884828005E+03 -0.44926034945E+03 -0.18356550270E+04  0.19182297676E+04  0.10100000352E+00 0. -1.
       -3    1    3    3    0  502  0.32884828005E+03  0.44926034945E+03  0.12204900392E+04  0.13414812704E+04  0.10100000352E+00 0.  1.
</event>
<event>
 5   0  0.5233813E-07  0.3170334E+04  0.7818609E-02  0.8196696E-01
        1   -1    0    0  501    0  0.00000000000E+00  0.00000000000E+00  0.15881648836E+04  0.15881648836E+04  0.50400001928E-02 0. -1.
       -1   -1    0    0    0  501  0.00000000000E+00  0.00000000000E+00 -0.15821743272E+04  0.15821743272E+04  0.50400001928E-02 0.  1.
    10030    2    1    2    0    0  0.00000000000E+00  0.00000000000E+00  0.59905563439E+01  0.31703392108E+04  0.31703335510E+04 0.  0.
        4    1    3    3  502    0  0.10099435114E+04 -0.31299783066E+03  0.11840132861E+04  0.15874012136E+04  0.12699999809E+01 0. -1.
       -4    1    3    3    0  502 -0.10099435114E+04  0.31299783066E+03 -0.11780227298E+04  0.15829379972E+04  0.12699999809E+01 0.  1.
</event>
<event>
 5   0  0.1493485E-06  0.3220136E+04  0.7818609E-02  0.8183519E-01
        2   -1    0    0  501    0  0.00000000000E+00  0.00000000000E+00  0.24015150798E+04  0.24015150798E+04  0.25500000920E-02 0. -1.
       -2   -1    0    0    0  501  0.00000000000E+00  0.00000000000E+00 -0.10794514765E+04  0.10794514765E+04  0.25500000920E-02 0.  1.
    10030    2    1    2    0    0  0.00000000000E+00  0.00000000000E+00  0.13220636033E+04  0.34809665562E+04  0.32201360211E+04 0.  0.
        2    1    3    3  502    0  0.54388137926E+02 -0.10584506205E+04 -0.64918426073E+03  0.12428660386E+04  0.25500000920E-02 0.  1.
       -2    1    3    3    0  502 -0.54388137926E+02  0.10584506205E+04  0.19712478640E+04  0.22381005176E+04  0.25500000920E-02 0. -1.
</event>
<event>
 5   0  0.1572769E-06  0.3188761E+04  0.7818609E-02  0.8191792E-01
       -2   -1    0    0    0  501  0.00000000000E+00  0.00000000000E+00  0.12558328242E+04  0.12558328242E+04  0.25500000920E-02 0. -1.
        2   -1    0    0  501    0  0.00000000000E+00  0.00000000000E+00 -0.20241944273E+04  0.20241944273E+04  0.25500000920E-02 0.  1.
    10030    2    1    2    0    0  0.00000000000E+00  0.00000000000E+00 -0.76836160314E+03  0.32800272515E+04  0.31887613924E+04 0.  0.
        5    1    3    3  502    0 -0.22422051831E+03 -0.47033997867E+03  0.11657751461E+04  0.12769292532E+04  0.46999998093E+01 0. -1.
       -5    1    3    3    0  502  0.22422051831E+03  0.47033997867E+03 -0.19341367492E+04  0.20030979984E+04  0.46999998093E+01 0.  1.
</event>
<event>
 5   0  0.1556396E-06  0.3201533E+04  0.7818609E-02  0.8188412E-01
        2   -1    0    0  501    0  0.00000000000E+00  0.00000000000E+00  0.11146279282E+04  0.11146279282E+04  0.25500000920E-02 0. -1.
       -2   -1    0    0    0  501  0.00000000000E+00  0.00000000000E+00 -0.22989314204E+04  0.22989314204E+04  0.25500000920E-02 0.  1.
    10030    2    1    2    0    0  0.00000000000E+00  0.00000000000E+00 -0.11843034923E+04  0.34135593486E+04  0.32015328617E+04 0.  0.
        3    1    3    3  502    0 -0.67025555182E+03 -0.10564690884E+04  0.47251896255E+03  0.13374018169E+04  0.10100000352E+00 0.  1.
       -3    1    3    3    0  502  0.67025555182E+03  0.10564690884E+04 -0.16568224548E+04  0.20761575317E+04  0.10100000352E+00 0. -1.
</event>
<event>
 5   0  0.1572769E-06  0.3185335E+04  0.7818609E-02  0.8192701E-01
       -2   -1    0    0    0  501  0.00000000000E+00  0.00000000000E+00  0.13135603101E+04  0.13135603101E+04  0.25500000920E-02 0. -1.
        2   -1    0    0  501    0  0.00000000000E+00  0.00000000000E+00 -0.19310801019E+04  0.19310801019E+04  0.25500000920E-02 0.  1.
    10030    2    1    2    0    0  0.00000000000E+00  0.00000000000E+00 -0.61751979187E+03  0.32446404120E+04  0.31853352587E+04 0.  0.
        5    1    3    3  502    0 -0.15191062146E+04  0.47807492095E+03 -0.29029040080E+03  0.16188050927E+04  0.46999998093E+01 0.  1.
       -5    1    3    3    0  502  0.15191062146E+04 -0.47807492095E+03 -0.32722939107E+03  0.16258353194E+04  0.46999998093E+01 0. -1.
</event>
<event>
 5   0  0.5233813E-07  0.3148220E+04  0.7818609E-02  0.8202628E-01
       -1   -1    0    0    0  501  0.00000000000E+00  0.00000000000E+00  0.15432385982E+04  0.15432385982E+04  0.50400001928E-02 0. -1.
        1   -1    0    0  501    0  0.00000000000E+00  0.00000000000E+00 -0.16055989506E+04  0.16055989506E+04  0.50400001928E-02 0.  1.
    10030    2    1    2    0    0  0.00000000000E+00  0.00000000000E+00 -0.62360352383E+02  0.31488375488E+04  0.31482199884E+04 0.  0.
        4    1    3    3  502    0 -0.11536737469E+04 -0.59331733591E+03 -0.92288861923E+03  0.15920783875E+04  0.12699999809E+01 0.  1.
       -4    1    3    3    0  502  0.11536737469E+04  0.59331733591E+03  0.86052826684E+03  0.15567591613E+04  0.12699999809E+01 0. -1.
</event>
<event>
 5   0  0.5177039E-07  0.3204996E+04  0.7818609E-02  0.8187499E-01
        1   -1    0    0  501    0  0.00000000000E+00  0.00000000000E+00  0.13484178882E+04  0.13484178882E+04  0.50400001928E-02 0. -1.
       -1   -1    0    0    0  501  0.00000000000E+00  0.00000000000E+00 -0.19044539292E+04  0.19044539292E+04  0.50400001928E-02 0.  1.
    10030    2    1    2    0    0  0.00000000000E+00  0.00000000000E+00 -0.55603604099E+03  0.32528718175E+04  0.32049959410E+04 0.  0.
        3    1    3    3  502    0  0.69975132690E+03 -0.36580385585E+03 -0.16933143745E+04  0.18683623742E+04  0.10100000352E+00 0.  1.
       -3    1    3    3    0  502 -0.69975132690E+03  0.36580385585E+03  0.11372783335E+04  0.13845094432E+04  0.10100000352E+00 0. -1.
</event>
<event>
 5   0  0.5177039E-07  0.3207085E+04  0.7818609E-02  0.8186949E-01
        1   -1    0    0  501    0  0.00000000000E+00  0.00000000000E+00  0.30806601729E+04  0.30806601729E+04  0.50400001928E-02 0. -1.
       -1   -1    0    0    0  501  0.00000000000E+00  0.00000000000E+00 -0.83467440649E+03  0.83467440651E+03  0.50400001928E-02 0.  1.
    10030    2    1    2    0    0  0.00000000000E+00  0.00000000000E+00  0.22459857664E+04  0.39153345794E+04  0.32070847831E+04 0.  0.
        3    1    3    3  502    0  0.26781304163E+02 -0.29914977161E+03  0.30460142340E+04  0.30607859363E+04  0.10100000352E+00 0. -1.
       -3    1    3    3    0  502 -0.26781304163E+02  0.29914977161E+03 -0.80002846763E+03  0.85454864304E+03  0.10100000352E+00 0.  1.
</event>
<event>
 5   0  0.5281187E-07  0.3013015E+04  0.7818609E-02  0.8240024E-01
       -1   -1    0    0    0  501  0.00000000000E+00  0.00000000000E+00  0.26575880331E+04  0.26575880331E+04  0.50400001928E-02 0. -1.
        1   -1    0    0  501    0  0.00000000000E+00  0.00000000000E+00 -0.85399397034E+03  0.85399397035E+03  0.50400001928E-02 0.  1.
    10030    2    1    2    0    0  0.00000000000E+00  0.00000000000E+00  0.18035940627E+04  0.35115820034E+04  0.30130145409E+04 0.  0.
        5    1    3    3  502    0  0.10479917601E+04  0.28921860009E+03 -0.31365485333E+03  0.11315191491E+04  0.46999998093E+01 0.  1.
       -5    1    3    3    0  502 -0.10479917601E+04 -0.28921860009E+03  0.21172489161E+04  0.23800628543E+04  0.46999998093E+01 0. -1.
</event>
<event>
 5   0  0.1493485E-06  0.3212781E+04  0.7818609E-02  0.8185450E-01
        2   -1    0    0  501    0  0.00000000000E+00  0.00000000000E+00  0.15194895776E+04  0.15194895776E+04  0.25500000920E-02 0.  1.
       -2   -1    0    0    0  501  0.00000000000E+00  0.00000000000E+00 -0.16982615885E+04  0.16982615885E+04  0.25500000920E-02 0. -1.
    10030    2    1    2    0    0  0.00000000000E+00  0.00000000000E+00 -0.17877201085E+03  0.32177511661E+04  0.32127812149E+04 0.  0.
        2    1    3    3  502    0 -0.57821991173E+02 -0.14981122021E+04 -0.66717289268E+03  0.16409763013E+04  0.25500000920E-02 0. -1.
       -2    1    3    3    0  502  0.57821991173E+02  0.14981122021E+04  0.48840088183E+03  0.15767748648E+04  0.25500000920E-02 0.  1.
</event>
<event>
 5   0  0.1556396E-06  0.3201322E+04  0.7818609E-02  0.8188468E-01
        2   -1    0    0  501    0  0.00000000000E+00  0.00000000000E+00  0.14288988013E+04  0.14288988013E+04  0.25500000920E-02 0.  1.
       -2   -1    0    0    0  501  0.00000000000E+00  0.00000000000E+00 -0.17930697470E+04  0.17930697470E+04  0.25500000920E-02 0. -1.
    10030    2    1    2    0    0  0.00000000000E+00  0.00000000000E+00 -0.36417094574E+03  0.32219685483E+04  0.32013217346E+04 0.  0.
        3    1    3    3  502    0  0.12622002112E+04 -0.98395430937E+03 -0.15362330359E+03  0.16077672672E+04  0.10100000352E+00 0.  1.
       -3    1    3    3    0  502 -0.12622002112E+04  0.98395430937E+03 -0.21054764215E+03  0.16142012811E+04  0.10100000352E+00 0. -1.
</event>
<event>
 5   0  0.1556396E-06  0.3088697E+04  0.7818609E-02  0.8218847E-01
       -2   -1    0    0    0  501  0.00000000000E+00  0.00000000000E+00  0.11680280844E+04  0.11680280844E+04  0.25500000920E-02 0.  1.
        2   -1    0    0  501    0  0.00000000000E+00  0.00000000000E+00 -0.20419141196E+04  0.20419141196E+04  0.25500000920E-02 0. -1.
    10030    2    1    2    0    0  0.00000000000E+00  0.00000000000E+00 -0.87388603522E+03  0.32099422040E+04  0.30886974845E+04 0.  0.
        3    1    3    3  502    0  0.29488029794E+03 -0.21878310848E+03 -0.19958912125E+04  0.20293846804E+04  0.10100000352E+00 0. -1.
       -3    1    3    3    0  502 -0.29488029794E+03  0.21878310848E+03  0.11220051772E+04  0.11805575237E+04  0.10100000352E+00 0.  1.
</event>
<event>
 5   0  0.5317728E-07  0.3187875E+04  0.7818609E-02  0.8192027E-01
        1   -1    0    0  501    0  0.00000000000E+00  0.00000000000E+00  0.28978308142E+04  0.28978308142E+04  0.50400001928E-02 0.  1.
       -1   -1    0    0    0  501  0.00000000000E+00  0.00000000000E+00 -0.87673755275E+03  0.87673755277E+03  0.50400001928E-02 0. -1.
    10030    2    1    2    0    0  0.00000000000E+00  0.00000000000E+00  0.20210932615E+04  0.37745683670E+04  0.31878752149E+04 0.  0.
        2    1    3    3  502    0 -0.85108768098E+03 -0.12472303265E+04  0.16151064843E+04  0.22109958579E+04  0.25500000920E-02 0.  1.
       -2    1    3    3    0  502  0.85108768098E+03  0.12472303265E+04  0.40598677716E+03  0.15635725091E+04  0.25500000920E-02 0. -1.
</event>
<event>
 5   0  0.1508771E-06  0.3195650E+04  0.7818609E-02  0.8189967E-01
       -2   -1    0    0    0  501  0.00000000000E+00  0.00000000000E+00  0.14867808294E+04  0.14867808294E+04  0.25500000920E-02 0.  1.
        2   -1    0    0  501    0  0.00000000000E+00  0.00000000000E+00 -0.17171630978E+04  0.17171630978E+04  0.25500000920E-02 0. -1.
    10030    2    1    2    0    0  0.00000000000E+00  0.00000000000E+00 -0.23038226844E+03  0.32039439272E+04  0.31956502780E+04 0.  0.
        4    1    3    3  502    0 -0.15247605548E+04 -0.46596393547E+03 -0.22047043489E+03  0.16095421598E+04  0.12699999809E+01 0. -1.
       -4    1    3    3    0  502  0.15247605548E+04  0.46596393547E+03 -0.99118335467E+01  0.15944017674E+04  0.12699999809E+01 0.  1.
</event>
<event>
 5   0  0.1556396E-06  0.3199336E+04  0.7818609E-02  0.8188993E-01
        2   -1    0    0  501    0  0.00000000000E+00  0.00000000000E+00  0.14415916364E+04  0.14415916364E+04  0.25500000920E-02 0. -1.
       -2   -1    0    0    0  501  0.00000000000E+00  0.00000000000E+00 -0.17750776610E+04  0.17750776610E+04  0.25500000920E-02 0.  1.
    10030    2    1    2    0    0  0.00000000000E+00  0.00000000000E+00 -0.33348602461E+03  0.32166692974E+04  0.31993356248E+04 0.  0.
        3    1    3    3  502    0 -0.14664062264E+04  0.52872633874E+03  0.19442226639E+03  0.15708910815E+04  0.10100000352E+00 0.  1.
       -3    1    3    3    0  502  0.14664062264E+04 -0.52872633874E+03 -0.52790829100E+03  0.16457782159E+04  0.10100000352E+00 0. -1.
</event>
<event>
 5   0  0.1556396E-06  0.3205990E+04  0.7818609E-02  0.8187237E-01
       -2   -1    0    0    0  501  0.00000000000E+00  0.00000000000E+00  0.15415585219E+04  0.15415585219E+04  0.25500000920E-02 0. -1.
        2   -1    0    0  501    0  0.00000000000E+00  0.00000000000E+00 -0.16668794704E+04  0.16668794704E+04  0.25500000920E-02 0.  1.
    10030    2    1    2    0    0  0.00000000000E+00  0.00000000000E+00 -0.12532094849E+03  0.32084379923E+04  0.32059895525E+04 0.  0.
        3    1    3    3  502    0 -0.12158963337E+04 -0.75773847969E+03 -0.78225115786E+03  0.16323260648E+04  0.10100000352E+00 0. -1.
       -3    1    3    3    0  502  0.12158963337E+04  0.75773847969E+03  0.65693020937E+03  0.15761119275E+04  0.10100000352E+00 0.  1.
</event>
<event>
 5   0  0.1556396E-06  0.3050083E+04  0.7818609E-02  0.8229572E-01
       -2   -1    0    0    0  501  0.00000000000E+00  0.00000000000E+00  0.14763129961E+04  0.14763129961E+04  0.25500000920E-02 0. -1.
        2   -1    0    0  501    0  0.00000000000E+00  0.00000000000E+00 -0.15753781467E+04  0.15753781467E+04  0.25500000920E-02 0.  1.
    10030    2    1    2    0    0  0.00000000000E+00  0.00000000000E+00 -0.99065150637E+02  0.30516911428E+04  0.30500827738E+04 0.  0.
        3    1    3    3  502    0 -0.22744580068E+03 -0.10781891145E+04 -0.11043787409E+04  0.15600883861E+04  0.10100000352E+00 0.  1.
       -3    1    3    3    0  502  0.22744580068E+03  0.10781891145E+04  0.10053135903E+04  0.14916027567E+04  0.10100000352E+00 0. -1.
</event>
<event>
 5   0  0.1572769E-06  0.3285595E+04  0.7818609E-02  0.8166571E-01
        2   -1    0    0  501    0  0.00000000000E+00  0.00000000000E+00  0.21828304225E+04  0.21828304225E+04  0.25500000920E-02 0.  1.
       -2   -1    0    0    0  501  0.00000000000E+00  0.00000000000E+00 -0.12363686301E+04  0.12363686301E+04  0.25500000920E-02 0. -1.
    10030    2    1    2    0    0  0.00000000000E+00  0.00000000000E+00  0.94646179247E+03  0.34191990526E+04  0.32855946550E+04 0.  0.
        5    1    3    3  502    0 -0.34152480090E+03  0.11682556578E+04  0.16214091070E+04  0.20274244879E+04  0.46999998093E+01 0.  1.
       -5    1    3    3    0  502  0.34152480090E+03 -0.11682556578E+04 -0.67494731456E+03  0.13917745647E+04  0.46999998093E+01 0. -1.
</event>
<event>
 5   0  0.5177039E-07  0.3203664E+04  0.7818609E-02  0.8187850E-01
        1   -1    0    0  501    0  0.00000000000E+00  0.00000000000E+00  0.13671842202E+04  0.13671842202E+04  0.50400001928E-02 0.  1.
       -1   -1    0    0    0  501  0.00000000000E+00  0.00000000000E+00 -0.18767522517E+04  0.18767522517E+04  0.50400001928E-02 0. -1.
    10030    2    1    2    0    0  0.00000000000E+00  0.00000000000E+00 -0.50956803151E+03  0.32439364720E+04  0.32036641921E+04 0.  0.
        3    1    3    3  502    0 -0.95805327622E+03 -0.73628572367E+03  0.81004531361E+03  0.14547014014E+04  0.10100000352E+00 0.  1.
       -3    1    3    3    0  502  0.95805327622E+03  0.73628572367E+03 -0.13196133451E+04  0.17892350706E+04  0.10100000352E+00 0. -1.
</event>
<event>
 5   0  0.5317728E-07  0.3213363E+04  0.7818609E-02  0.8185297E-01
       -1   -1    0    0    0  501  0.00000000000E+00  0.00000000000E+00  0.90722183546E+03  0.90722183547E+03  0.50400001928E-02 0. -1.
        1   -1    0    0  501    0  0.00000000000E+00  0.00000000000E+00 -0.28454182953E+04  0.28454182953E+04  0.50400001928E-02 0.  1.
    10030    2    1    2    0    0  0.00000000000E+00  0.00000000000E+00 -0.19381964598E+04  0.37526401308E+04  0.32133631034E+04 0.  0.
        2    1    3    3  502    0  0.82424741071E+03 -0.44995123337E+03  0.55337144285E+03  0.10899815871E+04  0.25500000920E-02 0. -1.
       -2    1    3    3    0  502 -0.82424741071E+03  0.44995123337E+03 -0.24915679027E+04  0.26626585437E+04  0.25500000920E-02 0.  1.
</event>
<event>
 5   0  0.5233813E-07  0.3173311E+04  0.7818609E-02  0.8195902E-01
        1   -1    0    0  501    0  0.00000000000E+00  0.00000000000E+00  0.25124769805E+04  0.25124769805E+04  0.50400001928E-02 0. -1.
       -1   -1    0    0    0  501  0.00000000000E+00  0.00000000000E+00 -0.10019893439E+04  0.10019893439E+04  0.50400001928E-02 0.  1.
    10030    2    1    2    0    0  0.00000000000E+00  0.00000000000E+00  0.15104876366E+04  0.35144663244E+04  0.31733106758E+04 0.  0.
        4    1    3    3  502    0 -0.12941734114E+04 -0.33682943890E+01  0.17718475334E+04  0.21941607641E+04  0.12699999809E+01 0. -1.
       -4    1    3    3    0  502  0.12941734114E+04  0.33682943890E+01 -0.26135989682E+03  0.13203055604E+04  0.12699999809E+01 0.  1.
</event>
<event>
 5   0  0.1556396E-06  0.3238251E+04  0.7818609E-02  0.8178788E-01
       -2   -1    0    0    0  501  0.00000000000E+00  0.00000000000E+00  0.12987934940E+04  0.12987934940E+04  0.25500000920E-02 0. -1.
        2   -1    0    0  501    0  0.00000000000E+00  0.00000000000E+00 -0.20184635694E+04  0.20184635694E+04  0.25500000920E-02 0.  1.
    10030    2    1    2    0    0  0.00000000000E+00  0.00000000000E+00 -0.71967007543E+03  0.33172570634E+04  0.32382509797E+04 0.  0.
        3    1    3    3  502    0  0.16128631718E+04  0.10662660866E+03 -0.45631621537E+03  0.16795598660E+04  0.10100000352E+00 0. -1.
       -3    1    3    3    0  502 -0.16128631718E+04 -0.10662660866E+03 -0.26335386006E+03  0.16376971975E+04  0.10100000352E+00 0.  1.
</event>
<event>
 5   0  0.1556396E-06  0.3249000E+04  0.7818609E-02  0.8175995E-01
       -2   -1    0    0    0  501  0.00000000000E+00  0.00000000000E+00  0.90069988449E+03  0.90069988449E+03  0.25500000920E-02 0.  1.
        2   -1    0    0  501    0  0.00000000000E+00  0.00000000000E+00 -0.29299442435E+04  0.29299442435E+04  0.25500000920E-02 0. -1.
    10030    2    1    2    0    0  0.00000000000E+00  0.00000000000E+00 -0.20292443590E+04  0.38306441280E+04  0.32490001180E+04 0.  0.
        3    1    3    3  502    0  0.25166751025E+03 -0.70001176388E+03  0.68809503631E+03  0.10133251179E+04  0.10100000352E+00 0.  1.
       -3    1    3    3    0  502 -0.25166751025E+03  0.70001176388E+03 -0.27173393953E+04  0.28173190101E+04  0.10100000352E+00 0. -1.
</event>
<event>
 5   0  0.1538349E-06  0.3211248E+04  0.7818609E-02  0.8185853E-01
        2   -1    0    0  501    0  0.00000000000E+00  0.00000000000E+00  0.21982396500E+04  0.21982396500E+04  0.25500000920E-02 0.  1.
       -2   -1    0    0    0  501  0.00000000000E+00  0.00000000000E+00 -0.11727696230E+04  0.11727696230E+04  0.25500000920E-02 0. -1.
    10030    2    1    2    0    0  0.00000000000E+00  0.00000000000E+00  0.10254700270E+04  0.33710092731E+04  0.32112481596E+04 0.  0.
        1    1    3    3  502    0 -0.30510717784E+03 -0.15105617574E+04  0.39599685552E+02  0.15415756057E+04  0.50400001928E-02 0.  1.
       -1    1    3    3    0  502  0.30510717784E+03  0.15105617574E+04  0.98587034146E+03  0.18294336673E+04  0.50400001928E-02 0. -1.
</event>
<event>
 5   0  0.5370912E-07  0.3213376E+04  0.7818609E-02  0.8185294E-01
       -1   -1    0    0    0  501  0.00000000000E+00  0.00000000000E+00  0.16525917697E+04  0.16525917697E+04  0.50400001928E-02 0.  1.
        1   -1    0    0  501    0  0.00000000000E+00  0.00000000000E+00 -0.15620590593E+04  0.15620590593E+04  0.50400001928E-02 0. -1.
    10030    2    1    2    0    0  0.00000000000E+00  0.00000000000E+00  0.90532710417E+02  0.32146508290E+04  0.32133757609E+04 0.  0.
        1    1    3    3  502    0 -0.86606042218E+03  0.12803993705E+04 -0.39304302665E+03  0.15949815120E+04  0.50400001928E-02 0. -1.
       -1    1    3    3    0  502  0.86606042218E+03 -0.12803993705E+04  0.48357573707E+03  0.16196693170E+04  0.50400001928E-02 0.  1.
</event>
<event>
 5   0  0.1493485E-06  0.3195910E+04  0.7818609E-02  0.8189898E-01
       -2   -1    0    0    0  501  0.00000000000E+00  0.00000000000E+00  0.12116022697E+04  0.12116022697E+04  0.25500000920E-02 0.  1.
        2   -1    0    0  501    0  0.00000000000E+00  0.00000000000E+00 -0.21075067976E+04  0.21075067976E+04  0.25500000920E-02 0. -1.
    10030    2    1    2    0    0  0.00000000000E+00  0.00000000000E+00 -0.89590452790E+03  0.33191090673E+04  0.31959098983E+04 0.  0.
        2    1    3    3  502    0  0.78454488088E+03  0.51179804656E+03 -0.17924670199E+04  0.20224702539E+04  0.25500000920E-02 0. -1.
       -2    1    3    3    0  502 -0.78454488088E+03 -0.51179804656E+03  0.89656249195E+03  0.12966388135E+04  0.25500000920E-02 0.  1.
</event>
<event>
 5   0  0.1556396E-06  0.3168071E+04  0.7818609E-02  0.8197301E-01
        2   -1    0    0  501    0  0.00000000000E+00  0.00000000000E+00  0.10112485048E+04  0.10112485048E+04  0.25500000920E-02 0.  1.
       -2   -1    0    0    0  501  0.00000000000E+00  0.00000000000E+00 -0.24812574518E+04  0.24812574518E+04  0.25500000920E-02 0. -1.
    10030    2    1    2    0    0  0.00000000000E+00  0.00000000000E+00 -0.14700089470E+04  0.34925059567E+04  0.31680706357E+04 0.  0.
        3    1    3    3  502    0  0.12894968808E+04  0.31197547764E+03  0.21909559549E+03  0.13446686560E+04  0.10100000352E+00 0.  1.
       -3    1    3    3    0  502 -0.12894968808E+04 -0.31197547764E+03 -0.16891045425E+04  0.21478373007E+04  0.10100000352E+00 0. -1.
</event>
<event>
 5   0  0.5370912E-07  0.3205724E+04  0.7818609E-02  0.8187307E-01
       -1   -1    0    0    0  501  0.00000000000E+00  0.00000000000E+00  0.16504656377E+04  0.16504656377E+04  0.50400001928E-02 0.  1.
        1   -1    0    0  501    0  0.00000000000E+00  0.00000000000E+00 -0.15566314052E+04  0.15566314052E+04  0.50400001928E-02 0. -1.
    10030    2    1    2    0    0  0.00000000000E+00  0.00000000000E+00  0.93834232474E+02  0.32070970429E+04  0.32057240335E+04 0.  0.
        1    1    3    3  502    0  0.11872496028E+04 -0.79167907566E+03 -0.68336077758E+03  0.15821818260E+04  0.50400001928E-02 0. -1.
       -1    1    3    3    0  502 -0.11872496028E+04  0.79167907566E+03  0.77719501006E+03  0.16249152168E+04  0.50400001928E-02 0.  1.
</event>
<event>
 5   0  0.1508771E-06  0.3199437E+04  0.7818609E-02  0.8188966E-01
       -2   -1    0    0    0  501  0.00000000000E+00  0.00000000000E+00  0.15366072171E+04  0.15366072171E+04  0.25500000920E-02 0.  1.
        2   -1    0    0  501    0  0.00000000000E+00  0.00000000000E+00 -0.16654222362E+04  0.16654222362E+04  0.25500000920E-02 0. -1.
    10030    2    1    2    0    0  0.00000000000E+00  0.00000000000E+00 -0.12881501911E+03  0.32020294534E+04  0.31994373429E+04 0.  0.
        4    1    3    3  502    0  0.13225117655E+04  0.45887241778E+03 -0.83930669010E+03  0.16321882853E+04  0.12699999809E+01 0. -1.
       -4    1    3    3    0  502 -0.13225117655E+04 -0.45887241778E+03  0.71049167099E+03  0.15698411681E+04  0.12699999809E+01 0.  1.
</event>
<event>
 5   0  0.5281187E-07  0.3115159E+04  0.7818609E-02  0.8211590E-01
       -1   -1    0    0    0  501  0.00000000000E+00  0.00000000000E+00  0.15685655866E+04  0.15685655867E+04  0.50400001928E-02 0.  1.
        1   -1    0    0  501    0  0.00000000000E+00  0.00000000000E+00 -0.15466706992E+04  0.15466706992E+04  0.50400001928E-02 0. -1.
    10030    2    1    2    0    0  0.00000000000E+00  0.00000000000E+00  0.21894887461E+02  0.31152362859E+04  0.31151593427E+04 0.  0.
        5    1    3    3  502    0  0.60329378177E+03  0.18109063620E+03  0.14355089141E+04  0.15676304214E+04  0.46999998093E+01 0.  1.
       -5    1    3    3    0  502 -0.60329378177E+03 -0.18109063620E+03 -0.14136140266E+04  0.15476058645E+04  0.46999998093E+01 0. -1.
</event>
<event>
 5   0  0.1572769E-06  0.3205712E+04  0.7818609E-02  0.8187310E-01
        2   -1    0    0  501    0  0.00000000000E+00  0.00000000000E+00  0.22045530368E+04  0.22045530368E+04  0.25500000920E-02 0.  1.
       -2   -1    0    0    0  501  0.00000000000E+00  0.00000000000E+00 -0.11653822112E+04  0.11653822112E+04  0.25500000920E-02 0. -1.
    10030    2    1    2    0    0  0.00000000000E+00  0.00000000000E+00  0.10391708257E+04  0.33699352480E+04  0.32057117105E+04 0.  0.
        5    1    3    3  502    0  0.26148921264E+02 -0.10162304244E+04  0.18223101339E+04  0.20866826198E+04  0.46999998093E+01 0.  1.
       -5    1    3    3    0  502 -0.26148921264E+02  0.10162304244E+04 -0.78313930825E+03  0.12832526282E+04  0.46999998093E+01 0. -1.
</event>
<event>
 5   0  0.1508771E-06  0.3207745E+04  0.7818609E-02  0.8186775E-01
       -2   -1    0    0    0  501  0.00000000000E+00  0.00000000000E+00  0.14874891374E+04  0.14874891374E+04  0.25500000920E-02 0.  1.
        2   -1    0    0  501    0  0.00000000000E+00  0.00000000000E+00 -0.17293618980E+04  0.17293618980E+04  0.25500000920E-02 0. -1.
    10030    2    1    2    0    0  0.00000000000E+00  0.00000000000E+00 -0.24187276060E+03  0.32168510355E+04  0.32077450260E+04 0.  0.
        4    1    3    3  502    0  0.76271733671E+03 -0.65135400200E+03 -0.13760505453E+04  0.17027966666E+04  0.12699999809E+01 0. -1.
       -4    1    3    3    0  502 -0.76271733671E+03  0.65135400200E+03  0.11341777847E+04  0.15140543689E+04  0.12699999809E+01 0.  1.
</event>
<event>
 5   0  0.1556396E-06  0.3130642E+04  0.7818609E-02  0.8207378E-01
        2   -1    0    0  501    0  0.00000000000E+00  0.00000000000E+00  0.15302372455E+04  0.15302372455E+04  0.25500000920E-02 0.  1.
       -2   -1    0    0    0  501  0.00000000000E+00  0.00000000000E+00 -0.16012091038E+04  0.16012091038E+04  0.25500000920E-02 0. -1.
    10030    2    1    2    0    0  0.00000000000E+00  0.00000000000E+00 -0.70971858267E+02  0.31314463493E+04  0.31306419843E+04 0.  0.
        3    1    3    3  502    0  0.68710324570E+03 -0.63574224949E+03 -0.12903801970E+04  0.15941644022E+04  0.10100000352E+00 0. -1.
       -3    1    3    3    0  502 -0.68710324570E+03  0.63574224949E+03  0.12194083388E+04  0.15372819471E+04  0.10100000352E+00 0.  1.
</event>
<event>
 5   0  0.1556396E-06  0.3198815E+04  0.7818609E-02  0.8189130E-01
       -2   -1    0    0    0  501  0.00000000000E+00  0.00000000000E+00  0.14779943414E+04  0.14779943414E+04  0.25500000920E-02 0. -1.
        2   -1    0    0  501    0  0.00000000000E+00  0.00000000000E+00 -0.17307948188E+04  0.17307948188E+04  0.25500000920E-02 0.  1.
    10030    2    1    2    0    0  0.00000000000E+00  0.00000000000E+00 -0.25280047733E+03  0.32087891602E+04  0.31988153734E+04 0.  0.
        3    1    3    3  502    0 -0.71116775428E+03  0.81663755451E+03 -0.13071209889E+04  0.16974162011E+04  0.10100000352E+00 0.  1.
       -3    1    3    3    0  502  0.71116775428E+03 -0.81663755451E+03  0.10543205115E+04  0.15113729591E+04  0.10100000352E+00 0. -1.
</event>
<event>
 5   0  0.1493485E-06  0.3204557E+04  0.7818609E-02  0.8187615E-01
        2   -1    0    0  501    0  0.00000000000E+00  0.00000000000E+00  0.20578718550E+04  0.20578718550E+04  0.25500000920E-02 0.  1.
       -2   -1    0    0    0  501  0.00000000000E+00  0.00000000000E+00 -0.12475488711E+04  0.12475488711E+04  0.25500000920E-02 0. -1.
    10030    2    1    2    0    0  0.00000000000E+00  0.00000000000E+00  0.81032298394E+03  0.33054207261E+04  0.32045565744E+04 0.  0.
        2    1    3    3  502    0 -0.11022438780E+04  0.82402628219E+03  0.12515589348E+04  0.18602044639E+04  0.25500000920E-02 0.  1.
       -2    1    3    3    0  502  0.11022438780E+04 -0.82402628219E+03 -0.44123595085E+03  0.14452162622E+04  0.25500000920E-02 0. -1.
</event>
<event>
 5   0  0.1556396E-06  0.3195351E+04  0.7818609E-02  0.8190046E-01
       -2   -1    0    0    0  501  0.00000000000E+00  0.00000000000E+00  0.14619552928E+04  0.14619552928E+04  0.25500000920E-02 0. -1.
        2   -1    0    0  501    0  0.00000000000E+00  0.00000000000E+00 -0.17459952046E+04  0.17459952046E+04  0.25500000920E-02 0.  1.
    10030    2    1    2    0    0  0.00000000000E+00  0.00000000000E+00 -0.28403991179E+03  0.32079504975E+04  0.31953509545E+04 0.  0.
        3    1    3    3  502    0 -0.22758464446E+03  0.14817875532E+04  0.41249644270E+03  0.15548769883E+04  0.10100000352E+00 0. -1.
       -3    1    3    3    0  502  0.22758464446E+03 -0.14817875532E+04 -0.69653635449E+03  0.16530735091E+04  0.10100000352E+00 0.  1.
</event>
<event>
 5   0  0.5281187E-07  0.3194634E+04  0.7818609E-02  0.8190236E-01
        1   -1    0    0  501    0  0.00000000000E+00  0.00000000000E+00  0.16547638628E+04  0.16547638628E+04  0.50400001928E-02 0.  1.
       -1   -1    0    0    0  501  0.00000000000E+00  0.00000000000E+00 -0.15418639930E+04  0.15418639930E+04  0.50400001928E-02 0. -1.
    10030    2    1    2    0    0  0.00000000000E+00  0.00000000000E+00  0.11289986982E+03  0.31966278559E+04  0.31946335108E+04 0.  0.
        5    1    3    3  502    0  0.43555715219E+03 -0.13912678797E+04  0.70959196503E+03  0.16213818775E+04  0.46999998093E+01 0.  1.
       -5    1    3    3    0  502 -0.43555715219E+03  0.13912678797E+04 -0.59669209521E+03  0.15752459784E+04  0.46999998093E+01 0. -1.
</event>
<event>
 5   0  0.1538349E-06  0.3210884E+04  0.7818609E-02  0.8185949E-01
       -2   -1    0    0    0  501  0.00000000000E+00  0.00000000000E+00  0.19567078926E+04  0.19567078926E+04  0.25500000920E-02 0. -1.
        2   -1    0    0  501    0  0.00000000000E+00  0.00000000000E+00 -0.13172347925E+04  0.13172347925E+04  0.25500000920E-02 0.  1.
    10030    2    1    2    0    0  0.00000000000E+00  0.00000000000E+00  0.63947310013E+03  0.32739426851E+04  0.32108838129E+04 0.  0.
        1    1    3    3  502    0  0.18940327984E+03 -0.39773079634E+03 -0.12544027314E+04  0.13295072776E+04  0.50400001928E-02 0.  1.
       -1    1    3    3    0  502 -0.18940327984E+03  0.39773079634E+03  0.18938758315E+04  0.19444354075E+04  0.50400001928E-02 0. -1.
</event>
<event>
 5   0  0.5177039E-07  0.3226437E+04  0.7818609E-02  0.8181870E-01
       -1   -1    0    0    0  501  0.00000000000E+00  0.00000000000E+00  0.11972731712E+04  0.11972731712E+04  0.50400001928E-02 0. -1.
        1   -1    0    0  501    0  0.00000000000E+00  0.00000000000E+00 -0.21736673696E+04  0.21736673696E+04  0.50400001928E-02 0.  1.
    10030    2    1    2    0    0  0.00000000000E+00  0.00000000000E+00 -0.97639419846E+03  0.33709405408E+04  0.32264368115E+04 0.  0.
        3    1    3    3  502    0 -0.13304406398E+03  0.35676823500E+02  0.11911178952E+04  0.11990560492E+04  0.10100000352E+00 0. -1.
       -3    1    3    3    0  502  0.13304406398E+03 -0.35676823500E+02 -0.21675120936E+04  0.21718844916E+04  0.10100000352E+00 0.  1.
</event>
<event>
 5   0  0.1508771E-06  0.3177268E+04  0.7818609E-02  0.8194846E-01
       -2   -1    0    0    0  501  0.00000000000E+00  0.00000000000E+00  0.12796995358E+04  0.12796995358E+04  0.25500000920E-02 0. -1.
        2   -1    0    0  501    0  0.00000000000E+00  0.00000000000E+00 -0.19721492912E+04  0.19721492912E+04  0.25500000920E-02 0.  1.
    10030    2    1    2    0    0  0.00000000000E+00  0.00000000000E+00 -0.69244975532E+03  0.32518488270E+04  0.31772683441E+04 0.  0.
        4    1    3    3  502    0  0.15048592826E+04 -0.11608669238E+03 -0.85352009680E+03  0.17339480238E+04  0.12699999809E+01 0.  1.
       -4    1    3    3    0  502 -0.15048592826E+04  0.11608669238E+03  0.16107034148E+03  0.15179008032E+04  0.12699999809E+01 0. -1.
</event>
<event>
 5   0  0.1508771E-06  0.3467660E+04  0.7818609E-02  0.8121497E-01
        2   -1    0    0  501    0  0.00000000000E+00  0.00000000000E+00  0.20529479707E+04  0.20529479707E+04  0.25500000920E-02 0. -1.
       -2   -1    0    0    0  501  0.00000000000E+00  0.00000000000E+00 -0.14643165701E+04  0.14643165701E+04  0.25500000920E-02 0.  1.
    10030    2    1    2    0    0  0.00000000000E+00  0.00000000000E+00  0.58863140057E+03  0.35172645408E+04  0.34676595744E+04 0.  0.
        4    1    3    3  502    0 -0.21810689520E+03  0.10093785037E+04 -0.11183561611E+04  0.15222147344E+04  0.12699999809E+01 0.  1.
       -4    1    3    3    0  502  0.21810689520E+03 -0.10093785037E+04  0.17069875617E+04  0.19950498064E+04  0.12699999809E+01 0. -1.
</event>
<event>
 5   0  0.4995625E-07  0.3122891E+04  0.7818609E-02  0.8209484E-01
       -3   -1    0    0    0  501  0.00000000000E+00  0.00000000000E+00  0.17865623306E+04  0.17865623335E+04  0.10100000352E+00 0.  1.
        3   -1    0    0  501    0  0.00000000000E+00  0.00000000000E+00 -0.13646945110E+04  0.13646945147E+04  0.10100000352E+00 0. -1.
    10030    2    1    2    0    0  0.00000000000E+00  0.00000000000E+00  0.42186781959E+03  0.31512568482E+04  0.31228908508E+04 0.  0.
        3    1    3    3  502    0  0.15174698228E+04 -0.35385387934E+03  0.10909858361E+03  0.15619954360E+04  0.10100000352E+00 0. -1.
       -3    1    3    3    0  502 -0.15174698228E+04  0.35385387934E+03  0.31276923599E+03  0.15892614122E+04  0.10100000352E+00 0.  1.
</event>
<event>
 5   0  0.1508771E-06  0.3187638E+04  0.7818609E-02  0.8192090E-01
        2   -1    0    0  501    0  0.00000000000E+00  0.00000000000E+00  0.27139236393E+04  0.27139236393E+04  0.25500000920E-02 0. -1.
       -2   -1    0    0    0  501  0.00000000000E+00  0.00000000000E+00 -0.93600963535E+03  0.93600963536E+03  0.25500000920E-02 0.  1.
    10030    2    1    2    0    0  0.00000000000E+00  0.00000000000E+00  0.17779140040E+04  0.36499332747E+04  0.31876377937E+04 0.  0.
        4    1    3    3  502    0 -0.15401136820E+04  0.38145635405E+03  0.71606936140E+03  0.17407515753E+04  0.12699999809E+01 0. -1.
       -4    1    3    3    0  502  0.15401136820E+04 -0.38145635405E+03  0.10618446426E+04  0.19091816994E+04  0.12699999809E+01 0.  1.
</event>
<event>
 5   0  0.1538349E-06  0.3181939E+04  0.7818609E-02  0.8193603E-01
        2   -1    0    0  501    0  0.00000000000E+00  0.00000000000E+00  0.14080837321E+04  0.14080837321E+04  0.25500000920E-02 0. -1.
       -2   -1    0    0    0  501  0.00000000000E+00  0.00000000000E+00 -0.17976092398E+04  0.17976092398E+04  0.25500000920E-02 0.  1.
    10030    2    1    2    0    0  0.00000000000E+00  0.00000000000E+00 -0.38952550768E+03  0.32056929720E+04  0.31819392372E+04 0.  0.
        1    1    3    3  502    0  0.85879148924E+03 -0.94069830093E+03 -0.11551620381E+04  0.17195451287E+04  0.50400001928E-02 0.  1.
       -1    1    3    3    0  502 -0.85879148924E+03  0.94069830093E+03  0.76563653039E+03  0.14861478433E+04  0.50400001928E-02 0. -1.
</event>
<event>
 5   0  0.5233813E-07  0.3200020E+04  0.7818609E-02  0.8188812E-01
       -1   -1    0    0    0  501  0.00000000000E+00  0.00000000000E+00  0.90411486466E+03  0.90411486467E+03  0.50400001928E-02 0.  1.
        1   -1    0    0  501    0  0.00000000000E+00  0.00000000000E+00 -0.28315344756E+04  0.28315344756E+04  0.50400001928E-02 0. -1.
    10030    2    1    2    0    0  0.00000000000E+00  0.00000000000E+00 -0.19274196110E+04  0.37356493403E+04  0.32000202557E+04 0.  0.
        4    1    3    3  502    0 -0.45523044094E+03  0.83496513593E+03  0.53837662425E+03  0.10928186195E+04  0.12699999809E+01 0.  1.
       -4    1    3    3    0  502  0.45523044094E+03 -0.83496513593E+03 -0.24657962352E+04  0.26428307208E+04  0.12699999809E+01 0. -1.
</event>
<event>
 5   0  0.5281187E-07  0.3220045E+04  0.7818609E-02  0.8183543E-01
        1   -1    0    0  501    0  0.00000000000E+00  0.00000000000E+00  0.19534165021E+04  0.19534165021E+04  0.50400001928E-02 0. -1.
       -1   -1    0    0    0  501  0.00000000000E+00  0.00000000000E+00 -0.13269939087E+04  0.13269939087E+04  0.50400001928E-02 0.  1.
    10030    2    1    2    0    0  0.00000000000E+00  0.00000000000E+00  0.62642259335E+03  0.32804104108E+04  0.32200445956E+04 0.  0.
        5    1    3    3  502    0 -0.16051780137E+04  0.67226414682E+02  0.20619988714E+03  0.16197704560E+04  0.46999998093E+01 0. -1.
       -5    1    3    3    0  502  0.16051780137E+04 -0.67226414682E+02  0.42022270621E+03  0.16606399548E+04  0.46999998093E+01 0.  1.
</event>
<event>
 5   0  0.1508771E-06  0.3198019E+04  0.7818609E-02  0.8189340E-01
       -2   -1    0    0    0  501  0.00000000000E+00  0.00000000000E+00  0.10402558122E+04  0.10402558122E+04  0.25500000920E-02 0. -1.
        2   -1    0    0  501    0  0.00000000000E+00  0.00000000000E+00 -0.24578876450E+04  0.24578876450E+04  0.25500000920E-02 0.  1.
    10030    2    1    2    0    0  0.00000000000E+00  0.00000000000E+00 -0.14176318328E+04  0.34981434572E+04  0.31980193298E+04 0.  0.
        4    1    3    3  502    0 -0.10187557709E+04 -0.12146026829E+04 -0.48013311223E+03  0.16563974210E+04  0.12699999809E+01 0. -1.
       -4    1    3    3    0  502  0.10187557709E+04  0.12146026829E+04 -0.93749872055E+03  0.18417460362E+04  0.12699999809E+01 0.  1.
</event>
<event>
 5   0  0.1538349E-06  0.3205082E+04  0.7818609E-02  0.8187476E-01
       -2   -1    0    0    0  501  0.00000000000E+00  0.00000000000E+00  0.12157841924E+04  0.12157841924E+04  0.25500000920E-02 0.  1.
        2   -1    0    0  501    0  0.00000000000E+00  0.00000000000E+00 -0.21123301208E+04  0.21123301208E+04  0.25500000920E-02 0. -1.
    10030    2    1    2    0    0  0.00000000000E+00  0.00000000000E+00 -0.89654592839E+03  0.33281143131E+04  0.32050819459E+04 0.  0.
        1    1    3    3  502    0  0.24185594674E+03 -0.10360212918E+03  0.11932024914E+04  0.12218673765E+04  0.50400001928E-02 0.  1.
       -1    1    3    3    0  502 -0.24185594674E+03  0.10360212918E+03 -0.20897484198E+04  0.21062469367E+04  0.50400001928E-02 0. -1.
</event>
<event>
 5   0  0.1493485E-06  0.3289354E+04  0.7818609E-02  0.8165609E-01
        2   -1    0    0  501    0  0.00000000000E+00  0.00000000000E+00  0.15391660092E+04  0.15391660092E+04  0.25500000920E-02 0. -1.
       -2   -1    0    0    0  501  0.00000000000E+00  0.00000000000E+00 -0.17574213157E+04  0.17574213157E+04  0.25500000920E-02 0.  1.
    10030    2    1    2    0    0  0.00000000000E+00  0.00000000000E+00 -0.21825530645E+03  0.32965873249E+04  0.32893544370E+04 0.  0.
        2    1    3    3  502    0  0.14230911337E+04 -0.80229811049E+03 -0.29952571183E+03  0.16608992398E+04  0.25500000920E-02 0.  1.
       -2    1    3    3    0  502 -0.14230911337E+04  0.80229811049E+03  0.81270405385E+02  0.16356880851E+04  0.25500000920E-02 0. -1.
</event>
<event>
 5   0  0.1572769E-06  0.3196257E+04  0.7818609E-02  0.8189806E-01
       -2   -1    0    0    0  501  0.00000000000E+00  0.00000000000E+00  0.17620601260E+04  0.17620601260E+04  0.25500000920E-02 0. -1.
        2   -1    0    0  501    0  0.00000000000E+00  0.00000000000E+00 -0.14494481585E+04  0.14494481585E+04  0.25500000920E-02 0.  1.
    10030    2    1    2    0    0  0.00000000000E+00  0.00000000000E+00  0.31261196748E+03  0.32115082846E+04  0.31962570641E+04 0.  0.
        5    1    3    3  502    0 -0.93134821289E+03 -0.10131656316E+04 -0.66002293208E+03  0.15262917321E+04  0.46999998093E+01 0.  1.
       -5    1    3    3    0  502  0.93134821289E+03  0.10131656316E+04  0.97263489955E+03  0.16852165524E+04  0.46999998093E+01 0. -1.
</event>
<event>
 5   0  0.1493485E-06  0.3199349E+04  0.7818609E-02  0.8188989E-01
       -2   -1    0    0    0  501  0.00000000000E+00  0.00000000000E+00  0.84259718295E+03  0.84259718296E+03  0.25500000920E-02 0.  1.
        2   -1    0    0  501    0  0.00000000000E+00  0.00000000000E+00 -0.30369899068E+04  0.30369899068E+04  0.25500000920E-02 0. -1.
    10030    2    1    2    0    0  0.00000000000E+00  0.00000000000E+00 -0.21943927238E+04  0.38795870897E+04  0.31993493964E+04 0.  0.
        2    1    3    3  502    0 -0.81820258297E+03 -0.12654272206E+04 -0.44621428576E+03  0.15715815939E+04  0.25500000920E-02 0.  1.
       -2    1    3    3    0  502  0.81820258297E+03  0.12654272206E+04 -0.17481784381E+04  0.23080054958E+04  0.25500000920E-02 0. -1.
</event>
<event>
 5   0  0.5177039E-07  0.3200022E+04  0.7818609E-02  0.8188811E-01
        1   -1    0    0  501    0  0.00000000000E+00  0.00000000000E+00  0.25014207560E+04  0.25014207560E+04  0.50400001928E-02 0.  1.
       -1   -1    0    0    0  501  0.00000000000E+00  0.00000000000E+00 -0.10234325468E+04  0.10234325468E+04  0.50400001928E-02 0. -1.
    10030    2    1    2    0    0  0.00000000000E+00  0.00000000000E+00  0.14779882092E+04  0.35248533028E+04  0.32000221342E+04 0.  0.
        3    1    3    3  502    0  0.73575914020E+03  0.12803507784E+04  0.60518384011E+02  0.14779384673E+04  0.10100000352E+00 0. -1.
       -3    1    3    3    0  502 -0.73575914020E+03 -0.12803507784E+04  0.14174698252E+04  0.20469148354E+04  0.10100000352E+00 0.  1.
</event>
<event>
 5   0  0.1538349E-06  0.3198067E+04  0.7818609E-02  0.8189328E-01
       -2   -1    0    0    0  501  0.00000000000E+00  0.00000000000E+00  0.21785023009E+04  0.21785023009E+04  0.25500000920E-02 0.  1.
        2   -1    0    0  501    0  0.00000000000E+00  0.00000000000E+00 -0.11737000967E+04  0.11737000967E+04  0.25500000920E-02 0. -1.
    10030    2    1    2    0    0  0.00000000000E+00  0.00000000000E+00  0.10048022042E+04  0.33522023976E+04  0.31980671421E+04 0.  0.
        1    1    3    3  502    0  0.41564061781E+03  0.85148244202E+03  0.18525532689E+04  0.20808010684E+04  0.50400001928E-02 0.  1.
       -1    1    3    3    0  502 -0.41564061781E+03 -0.85148244202E+03 -0.84775106470E+03  0.12714013292E+04  0.50400001928E-02 0. -1.
</event>
<event>
 5   0  0.5317728E-07  0.3198396E+04  0.7818609E-02  0.8189241E-01
       -1   -1    0    0    0  501  0.00000000000E+00  0.00000000000E+00  0.11856181598E+04  0.11856181598E+04  0.50400001928E-02 0.  1.
        1   -1    0    0  501    0  0.00000000000E+00  0.00000000000E+00 -0.21570473630E+04  0.21570473630E+04  0.50400001928E-02 0. -1.
    10030    2    1    2    0    0  0.00000000000E+00  0.00000000000E+00 -0.97142920317E+03  0.33426655228E+04  0.31983961763E+04 0.  0.
        2    1    3    3  502    0 -0.12785057008E+04  0.73676690873E+03  0.15855979650E+03  0.14840968681E+04  0.25500000920E-02 0. -1.
       -2    1    3    3    0  502  0.12785057008E+04 -0.73676690873E+03 -0.11299889997E+04  0.18585686547E+04  0.25500000920E-02 0.  1.
</event>
<event>
 5   0  0.5233813E-07  0.3188215E+04  0.7818609E-02  0.8191937E-01
       -1   -1    0    0    0  501  0.00000000000E+00  0.00000000000E+00  0.22464806926E+04  0.22464806926E+04  0.50400001928E-02 0. -1.
        1   -1    0    0  501    0  0.00000000000E+00  0.00000000000E+00 -0.11311819908E+04  0.11311819908E+04  0.50400001928E-02 0.  1.
    10030    2    1    2    0    0  0.00000000000E+00  0.00000000000E+00  0.11152987018E+04  0.33776626834E+04  0.31882148624E+04 0.  0.
        4    1    3    3  502    0  0.15549829088E+04  0.34942385150E+03  0.59291414924E+03  0.17004757205E+04  0.12699999809E+01 0.  1.
       -4    1    3    3    0  502 -0.15549829088E+04 -0.34942385150E+03  0.52238455257E+03  0.16771869629E+04  0.12699999809E+01 0. -1.
</event>
<event>
 5   0  0.1556396E-06  0.3200136E+04  0.7818609E-02  0.8188781E-01
        2   -1    0    0  501    0  0.00000000000E+00  0.00000000000E+00  0.25061154793E+04  0.25061154793E+04  0.25500000920E-02 0. -1.
       -2   -1    0    0    0  501  0.00000000000E+00  0.00000000000E+00 -0.10215877939E+04  0.10215877940E+04  0.25500000920E-02 0.  1.
    10030    2    1    2    0    0  0.00000000000E+00  0.00000000000E+00  0.14845276853E+04  0.35277032732E+04  0.32001356120E+04 0.  0.
        3    1    3    3  502    0 -0.21141097735E+03 -0.81579970122E+03 -0.75710586928E+03  0.11328870470E+04  0.10100000352E+00 0.  1.
       -3    1    3    3    0  502  0.21141097735E+03  0.81579970122E+03  0.22416335546E+04  0.23948162262E+04  0.10100000352E+00 0. -1.
</event>
<event>
 5   0  0.1572769E-06  0.3196755E+04  0.7818609E-02  0.8189675E-01
       -2   -1    0    0    0  501  0.00000000000E+00  0.00000000000E+00  0.15169166561E+04  0.15169166561E+04  0.25500000920E-02 0. -1.
        2   -1    0    0  501    0  0.00000000000E+00  0.00000000000E+00 -0.16842125691E+04  0.16842125691E+04  0.25500000920E-02 0.  1.
    10030    2    1    2    0    0  0.00000000000E+00  0.00000000000E+00 -0.16729591300E+03  0.32011292252E+04  0.31967546659E+04 0.  0.
        5    1    3    3  502    0 -0.19284104170E+03 -0.25640620661E+03  0.14843352112E+04  0.15186194123E+04  0.46999998093E+01 0. -1.
       -5    1    3    3    0  502  0.19284104170E+03  0.25640620661E+03 -0.16516311242E+04  0.16825098129E+04  0.46999998093E+01 0.  1.
</event>
<event>
 5   0  0.4995625E-07  0.3188503E+04  0.7818609E-02  0.8191860E-01
       -3   -1    0    0    0  501  0.00000000000E+00  0.00000000000E+00  0.10363796051E+04  0.10363796101E+04  0.10100000352E+00 0. -1.
        3   -1    0    0  501    0  0.00000000000E+00  0.00000000000E+00 -0.24524190243E+04  0.24524190264E+04  0.10100000352E+00 0.  1.
    10030    2    1    2    0    0  0.00000000000E+00  0.00000000000E+00 -0.14160394192E+04  0.34887986365E+04  0.31885025152E+04 0.  0.
        5    1    3    3  502    0 -0.13439686745E+04  0.77810323778E+03 -0.11024086234E+04  0.19044745495E+04  0.46999998093E+01 0. -1.
       -5    1    3    3    0  502  0.13439686745E+04 -0.77810323778E+03 -0.31363079575E+03  0.15843240870E+04  0.46999998093E+01 0.  1.
</event>
<event>
 5   0  0.1572769E-06  0.3164588E+04  0.7818609E-02  0.8198233E-01
       -2   -1    0    0    0  501  0.00000000000E+00  0.00000000000E+00  0.13416633055E+04  0.13416633055E+04  0.25500000920E-02 0. -1.
        2   -1    0    0  501    0  0.00000000000E+00  0.00000000000E+00 -0.18660823263E+04  0.18660823263E+04  0.25500000920E-02 0.  1.
    10030    2    1    2    0    0  0.00000000000E+00  0.00000000000E+00 -0.52441902073E+03  0.32077456318E+04  0.31645879240E+04 0.  0.
        5    1    3    3  502    0  0.13856927599E+04 -0.17421744703E+03  0.49166437252E+03  0.14806255735E+04  0.46999998093E+01 0. -1.
       -5    1    3    3    0  502 -0.13856927599E+04  0.17421744703E+03 -0.10160833933E+04  0.17271200583E+04  0.46999998093E+01 0.  1.
</event>
<event>
 5   0  0.1538349E-06  0.3195547E+04  0.7818609E-02  0.8189994E-01
       -2   -1    0    0    0  501  0.00000000000E+00  0.00000000000E+00  0.12580581045E+04  0.12580581045E+04  0.25500000920E-02 0.  1.
        2   -1    0    0  501    0  0.00000000000E+00  0.00000000000E+00 -0.20292232827E+04  0.20292232827E+04  0.25500000920E-02 0. -1.
    10030    2    1    2    0    0  0.00000000000E+00  0.00000000000E+00 -0.77116517821E+03  0.32872813872E+04  0.31955474002E+04 0.  0.
        1    1    3    3  502    0  0.70318357375E+03 -0.89214674434E+03  0.77027737065E+03  0.13724868595E+04  0.50400001928E-02 0.  1.
       -1    1    3    3    0  502 -0.70318357375E+03  0.89214674434E+03 -0.15414425489E+04  0.19147945277E+04  0.50400001928E-02 0. -1.
</event>
<event>
 5   0  0.5233813E-07  0.3226419E+04  0.7818609E-02  0.8181875E-01
       -1   -1    0    0    0  501  0.00000000000E+00  0.00000000000E+00  0.18861211589E+04  0.18861211589E+04  0.50400001928E-02 0.  1.
        1   -1    0    0  501    0  0.00000000000E+00  0.00000000000E+00 -0.13797869705E+04  0.13797869705E+04  0.50400001928E-02 0. -1.
    10030    2    1    2    0    0  0.00000000000E+00  0.00000000000E+00  0.50633418838E+03  0.32659081294E+04  0.32264193155E+04 0.  0.
        4    1    3    3  502    0  0.13173293211E+03 -0.15128551962E+04 -0.29788478954E+03  0.15475210405E+04  0.12699999809E+01 0. -1.
       -4    1    3    3    0  502 -0.13173293211E+03  0.15128551962E+04  0.80421897792E+03  0.17183870889E+04  0.12699999809E+01 0.  1.
</event>
<event>
 5   0  0.5281187E-07  0.3202707E+04  0.7818609E-02  0.8188103E-01
        1   -1    0    0  501    0  0.00000000000E+00  0.00000000000E+00  0.10932112904E+04  0.10932112905E+04  0.50400001928E-02 0. -1.
       -1   -1    0    0    0  501  0.00000000000E+00  0.00000000000E+00 -0.23456889745E+04  0.23456889745E+04  0.50400001928E-02 0.  1.
    10030    2    1    2    0    0  0.00000000000E+00  0.00000000000E+00 -0.12524776841E+04  0.34389002649E+04  0.32027073989E+04 0.  0.
        5    1    3    3  502    0  0.13024405114E+04  0.85686079193E+03 -0.10189280947E+04  0.18624710077E+04  0.46999998093E+01 0. -1.
       -5    1    3    3    0  502 -0.13024405114E+04 -0.85686079193E+03 -0.23354958940E+03  0.15764292573E+04  0.46999998093E+01 0.  1.
</event>
<event>
 5   0  0.1572769E-06  0.3268352E+04  0.7818609E-02  0.8170995E-01
       -2   -1    0    0    0  501  0.00000000000E+00  0.00000000000E+00  0.15160352901E+04  0.15160352901E+04  0.25500000920E-02 0. -1.
        2   -1    0    0  501    0  0.00000000000E+00  0.00000000000E+00 -0.17615235414E+04  0.17615235414E+04  0.25500000920E-02 0.  1.
    10030    2    1    2    0    0  0.00000000000E+00  0.00000000000E+00 -0.24548825130E+03  0.32775588316E+04  0.32683524004E+04 0.  0.
        5    1    3    3  502    0  0.75185845616E+03  0.98160252190E+03 -0.11942458797E+04  0.17190346013E+04  0.46999998093E+01 0.  1.
       -5    1    3    3    0  502 -0.75185845616E+03 -0.98160252190E+03  0.94875762841E+03  0.15585242303E+04  0.46999998093E+01 0. -1.
</event>
<event>
 5   0  0.1493485E-06  0.3214730E+04  0.7818609E-02  0.8184938E-01
        2   -1    0    0  501    0  0.00000000000E+00  0.00000000000E+00  0.19106264970E+04  0.19106264970E+04  0.25500000920E-02 0.  1.
       -2   -1    0    0    0  501  0.00000000000E+00  0.00000000000E+00 -0.13522380470E+04  0.13522380470E+04  0.25500000920E-02 0. -1.
    10030    2    1    2    0    0  0.00000000000E+00  0.00000000000E+00  0.55838844999E+03  0.32628645439E+04  0.32147297508E+04 0.  0.
        2    1    3    3  502    0 -0.89362432491E+03 -0.66289034944E+03 -0.89818947165E+03  0.14299413892E+04  0.25500000920E-02 0. -1.
       -2    1    3    3    0  502  0.89362432491E+03  0.66289034944E+03  0.14565779216E+04  0.18329231548E+04  0.25500000920E-02 0.  1.
</event>
<event>
 5   0  0.1556396E-06  0.3365943E+04  0.7818609E-02  0.8146316E-01
        2   -1    0    0  501    0  0.00000000000E+00  0.00000000000E+00  0.18433291227E+04  0.18433291227E+04  0.25500000920E-02 0.  1.
       -2   -1    0    0    0  501  0.00000000000E+00  0.00000000000E+00 -0.15365643712E+04  0.15365643712E+04  0.25500000920E-02 0. -1.
    10030    2    1    2    0    0  0.00000000000E+00  0.00000000000E+00  0.30676475145E+03  0.33798934939E+04  0.33659434662E+04 0.  0.
        3    1    3    3  502    0  0.71418444434E+03  0.40944601069E+03 -0.13205869083E+04  0.15561668448E+04  0.10100000352E+00 0. -1.
       -3    1    3    3    0  502 -0.71418444434E+03 -0.40944601069E+03  0.16273516597E+04  0.18237266491E+04  0.10100000352E+00 0.  1.
</event>
<event>
 5   0  0.5370912E-07  0.3190618E+04  0.7818609E-02  0.8191299E-01
       -1   -1    0    0    0  501  0.00000000000E+00  0.00000000000E+00  0.12238686982E+04  0.12238686982E+04  0.50400001928E-02 0. -1.
        1   -1    0    0  501    0  0.00000000000E+00  0.00000000000E+00 -0.20794801400E+04  0.20794801400E+04  0.50400001928E-02 0.  1.
    10030    2    1    2    0    0  0.00000000000E+00  0.00000000000E+00 -0.85561144178E+03  0.33033488383E+04  0.31906179038E+04 0.  0.
        1    1    3    3  502    0 -0.99776997209E+03  0.78671407935E+03  0.57092572722E+03  0.13929896431E+04  0.50400001928E-02 0. -1.
       -1    1    3    3    0  502  0.99776997209E+03 -0.78671407935E+03 -0.14265371690E+04  0.19103591951E+04  0.50400001928E-02 0.  1.
</event>
<event>
 5   0  0.1556396E-06  0.3203209E+04  0.7818609E-02  0.8187970E-01
        2   -1    0    0  501    0  0.00000000000E+00  0.00000000000E+00  0.23633115688E+04  0.23633115688E+04  0.25500000920E-02 0. -1.
       -2   -1    0    0    0  501  0.00000000000E+00  0.00000000000E+00 -0.10853994136E+04  0.10853994136E+04  0.25500000920E-02 0.  1.
    10030    2    1    2    0    0  0.00000000000E+00  0.00000000000E+00  0.12779121552E+04  0.34487109823E+04  0.32032090102E+04 0.  0.
        3    1    3    3  502    0 -0.51694500591E+03  0.10352472059E+04  0.18311489552E+04  0.21661199004E+04  0.10100000352E+00 0. -1.
       -3    1    3    3    0  502  0.51694500591E+03 -0.10352472059E+04 -0.55323679999E+03  0.12825910820E+04  0.10100000352E+00 0.  1.
</event>
<event>
 5   0  0.1572769E-06  0.3115830E+04  0.7818609E-02  0.8211407E-01
       -2   -1    0    0    0  501  0.00000000000E+00  0.00000000000E+00  0.18940915051E+04  0.18940915051E+04  0.25500000920E-02 0.  1.
        2   -1    0    0  501    0  0.00000000000E+00  0.00000000000E+00 -0.12814056121E+04  0.12814056121E+04  0.25500000920E-02 0. -1.
    10030    2    1    2    0    0  0.00000000000E+00  0.00000000000E+00  0.61268589307E+03  0.31754971172E+04  0.31158302164E+04 0.  0.
        5    1    3    3  502    0  0.32091323147E+03 -0.11197381940E+04 -0.74801076829E+03  0.13843197336E+04  0.46999998093E+01 0. -1.
       -5    1    3    3    0  502 -0.32091323147E+03  0.11197381940E+04  0.13606966614E+04  0.17911773836E+04  0.46999998093E+01 0.  1.
</event>
<event>
 5   0  0.5370912E-07  0.3165496E+04  0.7818609E-02  0.8197989E-01
       -1   -1    0    0    0  501  0.00000000000E+00  0.00000000000E+00  0.27014155531E+04  0.27014155531E+04  0.50400001928E-02 0. -1.
        1   -1    0    0  501    0  0.00000000000E+00  0.00000000000E+00 -0.92732562653E+03  0.92732562654E+03  0.50400001928E-02 0.  1.
    10030    2    1    2    0    0  0.00000000000E+00  0.00000000000E+00  0.17740899265E+04  0.36287411796E+04  0.31654964036E+04 0.  0.
        1    1    3    3  502    0  0.42268049801E+03  0.62836480491E+03  0.24802502028E+04  0.25932879130E+04  0.50400001928E-02 0. -1.
       -1    1    3    3    0  502 -0.42268049801E+03 -0.62836480491E+03 -0.70616027626E+03  0.10354532666E+04  0.50400001928E-02 0.  1.
</event>
<event>
 5   0  0.5317728E-07  0.3208170E+04  0.7818609E-02  0.8186663E-01
       -1   -1    0    0    0  501  0.00000000000E+00  0.00000000000E+00  0.12831790855E+04  0.12831790855E+04  0.50400001928E-02 0. -1.
        1   -1    0    0  501    0  0.00000000000E+00  0.00000000000E+00 -0.20052455000E+04  0.20052455000E+04  0.50400001928E-02 0.  1.
    10030    2    1    2    0    0  0.00000000000E+00  0.00000000000E+00 -0.72206641447E+03  0.32884245855E+04  0.32081702492E+04 0.  0.
        2    1    3    3  502    0  0.44310004311E+03 -0.11345249898E+04  0.70892033471E+03  0.14092737994E+04  0.25500000920E-02 0. -1.
       -2    1    3    3    0  502 -0.44310004311E+03  0.11345249898E+04 -0.14309867492E+04  0.18791507861E+04  0.25500000920E-02 0.  1.
</event>
<event>
 5   0  0.1508771E-06  0.3191029E+04  0.7818609E-02  0.8191190E-01
        2   -1    0    0  501    0  0.00000000000E+00  0.00000000000E+00  0.18302123597E+04  0.18302123597E+04  0.25500000920E-02 0.  1.
       -2   -1    0    0    0  501  0.00000000000E+00  0.00000000000E+00 -0.13909131475E+04  0.13909131475E+04  0.25500000920E-02 0. -1.
    10030    2    1    2    0    0  0.00000000000E+00  0.00000000000E+00  0.43929921219E+03  0.32211255071E+04  0.31910289461E+04 0.  0.
        4    1    3    3  502    0  0.39429509212E+03  0.67701693619E+02 -0.13394608013E+04  0.13979302522E+04  0.12699999809E+01 0. -1.
       -4    1    3    3    0  502 -0.39429509212E+03 -0.67701693619E+02  0.17787600135E+04  0.18231952549E+04  0.12699999809E+01 0.  1.
</event>
<event>
 5   0  0.1508771E-06  0.3176759E+04  0.7818609E-02  0.8194982E-01
       -2   -1    0    0    0  501  0.00000000000E+00  0.00000000000E+00  0.10090852451E+04  0.10090852451E+04  0.25500000920E-02 0. -1.
        2   -1    0    0  501    0  0.00000000000E+00  0.00000000000E+00 -0.25002346748E+04  0.25002346748E+04  0.25500000920E-02 0.  1.
    10030    2    1    2    0    0  0.00000000000E+00  0.00000000000E+00 -0.14911494297E+04  0.35093199199E+04  0.31767593044E+04 0.  0.
        4    1    3    3  502    0 -0.11986494603E+04  0.36948927940E+02 -0.18961578500E+04  0.22435556505E+04  0.12699999809E+01 0.  1.
       -4    1    3    3    0  502  0.11986494603E+04 -0.36948927940E+02  0.40500842035E+03  0.12657642693E+04  0.12699999809E+01 0. -1.
</event>
<event>
 5   0  0.1493485E-06  0.3200664E+04  0.7818609E-02  0.8188642E-01
       -2   -1    0    0    0  501  0.00000000000E+00  0.00000000000E+00  0.10203144927E+04  0.10203144927E+04  0.25500000920E-02 0. -1.
        2   -1    0    0  501    0  0.00000000000E+00  0.00000000000E+00 -0.25100724096E+04  0.25100724096E+04  0.25500000920E-02 0.  1.
    10030    2    1    2    0    0  0.00000000000E+00  0.00000000000E+00 -0.14897579169E+04  0.35303869024E+04  0.32006644669E+04 0.  0.
        2    1    3    3  502    0  0.10481062105E+04  0.39366481324E+03 -0.20061654348E+04  0.22974329948E+04  0.25500000920E-02 0.  1.
       -2    1    3    3    0  502 -0.10481062105E+04 -0.39366481324E+03  0.51640751792E+03  0.12329539076E+04  0.25500000920E-02 0. -1.
</event>
<event>
 5   0  0.1538349E-06  0.3189875E+04  0.7818609E-02  0.8191496E-01
       -2   -1    0    0    0  501  0.00000000000E+00  0.00000000000E+00  0.17087774807E+04  0.17087774807E+04  0.25500000920E-02 0.  1.
        2   -1    0    0  501    0  0.00000000000E+00  0.00000000000E+00 -0.14886819822E+04  0.14886819822E+04  0.25500000920E-02 0. -1.
    10030    2    1    2    0    0  0.00000000000E+00  0.00000000000E+00  0.22009549853E+03  0.31974594628E+04  0.31898753875E+04 0.  0.
        1    1    3    3  502    0  0.28855875458E+03 -0.89888330864E+03 -0.11785314482E+04  0.15100310367E+04  0.50400001928E-02 0. -1.
       -1    1    3    3    0  502 -0.28855875458E+03  0.89888330864E+03  0.13986269467E+04  0.16874284262E+04  0.50400001928E-02 0.  1.
</event>
<event>
 5   0  0.1508771E-06  0.3202006E+04  0.7818609E-02  0.8188288E-01
        2   -1    0    0  501    0  0.00000000000E+00  0.00000000000E+00  0.89508980288E+03  0.89508980289E+03  0.25500000920E-02 0.  1.
       -2   -1    0    0    0  501  0.00000000000E+00  0.00000000000E+00 -0.28636355993E+04  0.28636355993E+04  0.25500000920E-02 0. -1.
    10030    2    1    2    0    0  0.00000000000E+00  0.00000000000E+00 -0.19685457964E+04  0.37587254022E+04  0.32020062611E+04 0.  0.
        4    1    3    3  502    0 -0.55624294018E+03  0.14914910066E+04 -0.11850615235E+04  0.19845211157E+04  0.12699999809E+01 0.  1.
       -4    1    3    3    0  502  0.55624294018E+03 -0.14914910066E+04 -0.78348427286E+03  0.17742042864E+04  0.12699999809E+01 0. -1.
</event>
<event>
 5   0  0.1556396E-06  0.3195729E+04  0.7818609E-02  0.8189946E-01
       -2   -1    0    0    0  501  0.00000000000E+00  0.00000000000E+00  0.13007669169E+04  0.13007669169E+04  0.25500000920E-02 0.  1.
        2   -1    0    0  501    0  0.00000000000E+00  0.00000000000E+00 -0.19628195914E+04  0.19628195914E+04  0.25500000920E-02 0. -1.
    10030    2    1    2    0    0  0.00000000000E+00  0.00000000000E+00 -0.66205267445E+03  0.32635865083E+04  0.31957288923E+04 0.  0.
        3    1    3    3  502    0  0.51213924699E+03 -0.10423772859E+04 -0.14517502305E+04  0.18591438235E+04  0.10100000352E+00 0. -1.
       -3    1    3    3    0  502 -0.51213924699E+03  0.10423772859E+04  0.78969755609E+03  0.14044426847E+04  0.10100000352E+00 0.  1.
</event>
<event>
 5   0  0.5177039E-07  0.3191772E+04  0.7818609E-02  0.8190993E-01
        1   -1    0    0  501    0  0.00000000000E+00  0.00000000000E+00  0.19036080464E+04  0.19036080464E+04  0.50400001928E-02 0.  1.
       -1   -1    0    0    0  501  0.00000000000E+00  0.00000000000E+00 -0.13379081609E+04  0.13379081609E+04  0.50400001928E-02 0. -1.
    10030    2    1    2    0    0  0.00000000000E+00  0.00000000000E+00  0.56569988557E+03  0.32415162073E+04  0.31917723856E+04 0.  0.
        3    1    3    3  502    0  0.15865580788E+04  0.15125894083E+03  0.19906001957E+03  0.16061353324E+04  0.10100000352E+00 0.  1.
       -3    1    3    3    0  502 -0.15865580788E+04 -0.15125894083E+03  0.36663986601E+03  0.16353808749E+04  0.10100000352E+00 0. -1.
</event>
<event>
 5   0  0.5177039E-07  0.3194466E+04  0.7818609E-02  0.8190280E-01
        1   -1    0    0  501    0  0.00000000000E+00  0.00000000000E+00  0.18248544700E+04  0.18248544700E+04  0.50400001928E-02 0.  1.
       -1   -1    0    0    0  501  0.00000000000E+00  0.00000000000E+00 -0.13980034162E+04  0.13980034163E+04  0.50400001928E-02 0. -1.
    10030    2    1    2    0    0  0.00000000000E+00  0.00000000000E+00  0.42685105378E+03  0.32228578863E+04  0.31944657038E+04 0.  0.
        3    1    3    3  502    0 -0.40657218179E+03  0.15445983041E+04  0.22173970542E+03  0.16125301136E+04  0.10100000352E+00 0. -1.
       -3    1    3    3    0  502  0.40657218179E+03 -0.15445983041E+04  0.20511134837E+03  0.16103277727E+04  0.10100000352E+00 0.  1.
</event>
<event>
 5   0  0.5233813E-07  0.3226538E+04  0.7818609E-02  0.8181843E-01
        1   -1    0    0  501    0  0.00000000000E+00  0.00000000000E+00  0.19472593318E+04  0.19472593318E+04  0.50400001928E-02 0. -1.
       -1   -1    0    0    0  501  0.00000000000E+00  0.00000000000E+00 -0.13365642212E+04  0.13365642212E+04  0.50400001928E-02 0.  1.
    10030    2    1    2    0    0  0.00000000000E+00  0.00000000000E+00  0.61069511059E+03  0.32838235530E+04  0.32265381773E+04 0.  0.
        4    1    3    3  502    0 -0.14365866845E+04  0.43389577274E+01  0.10524343666E+04  0.17808480669E+04  0.12699999809E+01 0. -1.
       -4    1    3    3    0  502  0.14365866845E+04 -0.43389577274E+01 -0.44173925603E+03  0.15029754861E+04  0.12699999809E+01 0.  1.
</event>
<event>
 5   0  0.5370912E-07  0.3201243E+04  0.7818609E-02  0.8188489E-01
       -1   -1    0    0    0  501  0.00000000000E+00  0.00000000000E+00  0.17987907421E+04  0.17987907421E+04  0.50400001928E-02 0. -1.
        1   -1    0    0  501    0  0.00000000000E+00  0.00000000000E+00 -0.14242839799E+04  0.14242839799E+04  0.50400001928E-02 0.  1.
    10030    2    1    2    0    0  0.00000000000E+00  0.00000000000E+00  0.37450676223E+03  0.32230747220E+04  0.32012427819E+04 0.  0.
        1    1    3    3  502    0  0.77125255404E+03  0.68684105071E+03  0.14184617787E+04  0.17545982300E+04  0.50400001928E-02 0. -1.
       -1    1    3    3    0  502 -0.77125255404E+03 -0.68684105071E+03 -0.10439550165E+04  0.14684764920E+04  0.50400001928E-02 0.  1.
</event>
<event>
 5   0  0.1538349E-06  0.3295674E+04  0.7818609E-02  0.8163997E-01
        2   -1    0    0  501    0  0.00000000000E+00  0.00000000000E+00  0.29038638939E+04  0.29038638939E+04  0.25500000920E-02 0. -1.
       -2   -1    0    0    0  501  0.00000000000E+00  0.00000000000E+00 -0.93508743292E+03  0.93508743292E+03  0.25500000920E-02 0.  1.
    10030    2    1    2    0    0  0.00000000000E+00  0.00000000000E+00  0.19687764610E+04  0.38389513269E+04  0.32956739123E+04 0.  0.
        1    1    3    3  502    0 -0.77687899947E+03 -0.34654844228E+03  0.26283192325E+04  0.27625529480E+04  0.50400001928E-02 0. -1.
       -1    1    3    3    0  502  0.77687899947E+03  0.34654844228E+03 -0.65954277144E+03  0.10763983789E+04  0.50400001928E-02 0.  1.
</event>
<event>
 5   0  0.1508771E-06  0.3208691E+04  0.7818609E-02  0.8186526E-01
        2   -1    0    0  501    0  0.00000000000E+00  0.00000000000E+00  0.14367555425E+04  0.14367555425E+04  0.25500000920E-02 0. -1.
       -2   -1    0    0    0  501  0.00000000000E+00  0.00000000000E+00 -0.17914838581E+04  0.17914838581E+04  0.25500000920E-02 0.  1.
    10030    2    1    2    0    0  0.00000000000E+00  0.00000000000E+00 -0.35472831553E+03  0.32282394006E+04  0.32086909246E+04 0.  0.
        4    1    3    3  502    0 -0.60763199151E+03 -0.13794191530E+04 -0.73017406152E+03  0.16748640571E+04  0.12699999809E+01 0. -1.
       -4    1    3    3    0  502  0.60763199151E+03  0.13794191530E+04  0.37544574599E+03  0.15533753435E+04  0.12699999809E+01 0.  1.
</event>
<event>
 5   0  0.1493485E-06  0.3202675E+04  0.7818609E-02  0.8188111E-01
       -2   -1    0    0    0  501  0.00000000000E+00  0.00000000000E+00  0.94887266974E+03  0.94887266975E+03  0.25500000920E-02 0. -1.
        2   -1    0    0  501    0  0.00000000000E+00  0.00000000000E+00 -0.27024508738E+04  0.27024508738E+04  0.25500000920E-02 0.  1.
    10030    2    1    2    0    0  0.00000000000E+00  0.00000000000E+00 -0.17535782041E+04  0.36513235436E+04  0.32026749916E+04 0.  0.
        2    1    3    3  502    0  0.14497071006E+04  0.64847325704E+03 -0.64282550678E+03  0.17132988282E+04  0.25500000920E-02 0. -1.
       -2    1    3    3    0  502 -0.14497071006E+04 -0.64847325704E+03 -0.11107526973E+04  0.19380247153E+04  0.25500000920E-02 0.  1.
</event>
<event>
 5   0  0.5281187E-07  0.3200588E+04  0.7818609E-02  0.8188662E-01
        1   -1    0    0  501    0  0.00000000000E+00  0.00000000000E+00  0.15895183753E+04  0.15895183753E+04  0.50400001928E-02 0. -1.
       -1   -1    0    0    0  501  0.00000000000E+00  0.00000000000E+00 -0.16111427327E+04  0.16111427327E+04  0.50400001928E-02 0.  1.
    10030    2    1    2    0    0  0.00000000000E+00  0.00000000000E+00 -0.21624357437E+02  0.32006611080E+04  0.32005880578E+04 0.  0.
        5    1    3    3  502    0  0.10166085570E+04 -0.29222885942E+03  0.11900600255E+04  0.15922172022E+04  0.46999998093E+01 0. -1.
       -5    1    3    3    0  502 -0.10166085570E+04  0.29222885942E+03 -0.12116843829E+04  0.16084439059E+04  0.46999998093E+01 0.  1.
</event>
<event>
 5   0  0.5177039E-07  0.3081324E+04  0.7818609E-02  0.8220882E-01
       -1   -1    0    0    0  501  0.00000000000E+00  0.00000000000E+00  0.92882996535E+03  0.92882996536E+03  0.50400001928E-02 0.  1.
        1   -1    0    0  501    0  0.00000000000E+00  0.00000000000E+00 -0.25555150772E+04  0.25555150772E+04  0.50400001928E-02 0. -1.
    10030    2    1    2    0    0  0.00000000000E+00  0.00000000000E+00 -0.16266851118E+04  0.34843450426E+04  0.30813237289E+04 0.  0.
        3    1    3    3  502    0  0.46061551866E+03  0.39121976437E+03  0.78920538948E+03  0.99401444509E+03  0.10100000352E+00 0.  1.
       -3    1    3    3    0  502 -0.46061551866E+03 -0.39121976437E+03 -0.24158905013E+04  0.24903305975E+04  0.10100000352E+00 0. -1.
</event>
<event>
 5   0  0.1538349E-06  0.3227969E+04  0.7818609E-02  0.8181469E-01
       -2   -1    0    0    0  501  0.00000000000E+00  0.00000000000E+00  0.13846881947E+04  0.13846881947E+04  0.25500000920E-02 0. -1.
        2   -1    0    0  501    0  0.00000000000E+00  0.00000000000E+00 -0.18812515189E+04  0.18812515189E+04  0.25500000920E-02 0.  1.
    10030    2    1    2    0    0  0.00000000000E+00  0.00000000000E+00 -0.49656332421E+03  0.32659397135E+04  0.32279694976E+04 0.  0.
        1    1    3    3  502    0  0.15471922757E+04  0.45077289385E+03 -0.33847412110E+03  0.16466829902E+04  0.50400001928E-02 0.  1.
       -1    1    3    3    0  502 -0.15471922757E+04 -0.45077289385E+03 -0.15808920311E+03  0.16192567233E+04  0.50400001928E-02 0. -1.
</event>
<event>
 5   0  0.5233813E-07  0.3207672E+04  0.7818609E-02  0.8186794E-01
        1   -1    0    0  501    0  0.00000000000E+00  0.00000000000E+00  0.23097788579E+04  0.23097788579E+04  0.50400001928E-02 0. -1.
       -1   -1    0    0    0  501  0.00000000000E+00  0.00000000000E+00 -0.11136518466E+04  0.11136518466E+04  0.50400001928E-02 0.  1.
    10030    2    1    2    0    0  0.00000000000E+00  0.00000000000E+00  0.11961270113E+04  0.34234307045E+04  0.32076717353E+04 0.  0.
        4    1    3    3  502    0  0.61198649443E+03  0.99123265382E+03 -0.57845500056E+03  0.13006465484E+04  0.12699999809E+01 0.  1.
       -4    1    3    3    0  502 -0.61198649443E+03 -0.99123265382E+03  0.17745820119E+04  0.21227841561E+04  0.12699999809E+01 0. -1.
</event>
<event>
 5   0  0.5177039E-07  0.3222587E+04  0.7818609E-02  0.8182877E-01
        1   -1    0    0  501    0  0.00000000000E+00  0.00000000000E+00  0.22993556735E+04  0.22993556735E+04  0.50400001928E-02 0.  1.
       -1   -1    0    0    0  501  0.00000000000E+00  0.00000000000E+00 -0.11291281350E+04  0.11291281350E+04  0.50400001928E-02 0. -1.
    10030    2    1    2    0    0  0.00000000000E+00  0.00000000000E+00  0.11702275385E+04  0.34284838085E+04  0.32225872732E+04 0.  0.
        3    1    3    3  502    0  0.14070527627E+03 -0.31064906454E+03  0.22605207082E+04  0.22861003256E+04  0.10100000352E+00 0.  1.
       -3    1    3    3    0  502 -0.14070527627E+03  0.31064906454E+03 -0.10902931697E+04  0.11423834829E+04  0.10100000352E+00 0. -1.
</event>
<event>
 5   0  0.5370912E-07  0.3273862E+04  0.7818609E-02  0.8169578E-01
        1   -1    0    0  501    0  0.00000000000E+00  0.00000000000E+00  0.16620905646E+04  0.16620905646E+04  0.50400001928E-02 0.  1.
       -1   -1    0    0    0  501  0.00000000000E+00  0.00000000000E+00 -0.16121521665E+04  0.16121521665E+04  0.50400001928E-02 0. -1.
    10030    2    1    2    0    0  0.00000000000E+00  0.00000000000E+00  0.49938398090E+02  0.32742427311E+04  0.32738618814E+04 0.  0.
        1    1    3    3  502    0 -0.45355483478E+03  0.11187436346E+04 -0.10807106738E+04  0.16202576550E+04  0.50400001928E-02 0. -1.
       -1    1    3    3    0  502  0.45355483478E+03 -0.11187436346E+04  0.11306490719E+04  0.16539850761E+04  0.50400001928E-02 0.  1.
</event>
<event>
 5   0  0.5281187E-07  0.3215288E+04  0.7818609E-02  0.8184791E-01
       -1   -1    0    0    0  501  0.00000000000E+00  0.00000000000E+00  0.14391069107E+04  0.14391069107E+04  0.50400001928E-02 0.  1.
        1   -1    0    0  501    0  0.00000000000E+00  0.00000000000E+00 -0.17959183455E+04  0.17959183455E+04  0.50400001928E-02 0. -1.
    10030    2    1    2    0    0  0.00000000000E+00  0.00000000000E+00 -0.35681143483E+03  0.32350252562E+04  0.32152875467E+04 0.  0.
        5    1    3    3  502    0 -0.12308053088E+04 -0.87730193852E+03 -0.72945018066E+03  0.16782908137E+04  0.46999998093E+01 0.  1.
       -5    1    3    3    0  502  0.12308053088E+04  0.87730193852E+03  0.37263874582E+03  0.15567344424E+04  0.46999998093E+01 0. -1.
</event>
<event>
 5   0  0.5177039E-07  0.3204298E+04  0.7818609E-02  0.8187683E-01
       -1   -1    0    0    0  501  0.00000000000E+00  0.00000000000E+00  0.15803528177E+04  0.15803528177E+04  0.50400001928E-02 0. -1.
        1   -1    0    0  501    0  0.00000000000E+00  0.00000000000E+00 -0.16242460948E+04  0.16242460948E+04  0.50400001928E-02 0.  1.
    10030    2    1    2    0    0  0.00000000000E+00  0.00000000000E+00 -0.43893277045E+02  0.32045989125E+04  0.32042982960E+04 0.  0.
        3    1    3    3  502    0 -0.90840029525E+03  0.63860549368E+02 -0.13402556559E+04  0.16203562878E+04  0.10100000352E+00 0.  1.
       -3    1    3    3    0  502  0.90840029525E+03 -0.63860549368E+02  0.12963623789E+04  0.15842426246E+04  0.10100000352E+00 0. -1.
</event>
<event>
 5   0  0.1508771E-06  0.3199114E+04  0.7818609E-02  0.8189051E-01
       -2   -1    0    0    0  501  0.00000000000E+00  0.00000000000E+00  0.19469940822E+04  0.19469940822E+04  0.25500000920E-02 0.  1.
        2   -1    0    0  501    0  0.00000000000E+00  0.00000000000E+00 -0.13141195390E+04  0.13141195390E+04  0.25500000920E-02 0. -1.
    10030    2    1    2    0    0  0.00000000000E+00  0.00000000000E+00  0.63287454318E+03  0.32611136212E+04  0.31991142310E+04 0.  0.
        4    1    3    3  502    0  0.14942423355E+04  0.57068656134E+03  0.32841419946E+03  0.16328811371E+04  0.12699999809E+01 0.  1.
       -4    1    3    3    0  502 -0.14942423355E+04 -0.57068656134E+03  0.30446034372E+03  0.16282324841E+04  0.12699999809E+01 0. -1.
</event>
<event>
 5   0  0.1538349E-06  0.3201422E+04  0.7818609E-02  0.8188442E-01
        2   -1    0    0  501    0  0.00000000000E+00  0.00000000000E+00  0.21728639790E+04  0.21728639790E+04  0.25500000920E-02 0.  1.
       -2   -1    0    0    0  501  0.00000000000E+00  0.00000000000E+00 -0.11792155670E+04  0.11792155670E+04  0.25500000920E-02 0. -1.
    10030    2    1    2    0    0  0.00000000000E+00  0.00000000000E+00  0.99364841199E+03  0.33520795461E+04  0.32014215774E+04 0.  0.
        1    1    3    3  502    0 -0.30366425332E+03 -0.42948178603E+03 -0.10861446280E+04  0.12068043487E+04  0.50400001928E-02 0. -1.
       -1    1    3    3    0  502  0.30366425332E+03  0.42948178603E+03  0.20797930399E+04  0.21452751973E+04  0.50400001928E-02 0.  1.
</event>
<event>
 5   0  0.5233813E-07  0.3214280E+04  0.7818609E-02  0.8185056E-01
        1   -1    0    0  501    0  0.00000000000E+00  0.00000000000E+00  0.15440851272E+04  0.15440851272E+04  0.50400001928E-02 0. -1.
       -1   -1    0    0    0  501  0.00000000000E+00  0.00000000000E+00 -0.16727697311E+04  0.16727697311E+04  0.50400001928E-02 0.  1.
    10030    2    1    2    0    0  0.00000000000E+00  0.00000000000E+00 -0.12868460385E+03  0.32168548583E+04  0.32142799275E+04 0.  0.
        4    1    3    3  502    0 -0.11703673377E+04  0.10224170933E+04 -0.47430545580E+03  0.16248272819E+04  0.12699999809E+01 0.  1.
       -4    1    3    3    0  502  0.11703673377E+04 -0.10224170933E+04  0.34562085195E+03  0.15920275764E+04  0.12699999809E+01 0. -1.
</event>
<event>
 5   0  0.1572769E-06  0.3188289E+04  0.7818609E-02  0.8191917E-01
        2   -1    0    0  501    0  0.00000000000E+00  0.00000000000E+00  0.16509091472E+04  0.16509091472E+04  0.25500000920E-02 0. -1.
       -2   -1    0    0    0  501  0.00000000000E+00  0.00000000000E+00 -0.15393313445E+04  0.15393313445E+04  0.25500000920E-02 0.  1.
    10030    2    1    2    0    0  0.00000000000E+00  0.00000000000E+00  0.11157780273E+03  0.31902404918E+04  0.31882886929E+04 0.  0.
        5    1    3    3  502    0  0.10093727411E+04  0.50540804476E+03  0.11820904694E+04  0.16345123401E+04  0.46999998093E+01 0. -1.
       -5    1    3    3    0  502 -0.10093727411E+04 -0.50540804476E+03 -0.10705126667E+04  0.15557281516E+04  0.46999998093E+01 0.  1.
</event>
<event>
 5   0  0.5233813E-07  0.3281201E+04  0.7818609E-02  0.8167695E-01
       -1   -1    0    0    0  501  0.00000000000E+00  0.00000000000E+00  0.14417780786E+04  0.14417780786E+04  0.50400001928E-02 0.  1.
        1   -1    0    0  501    0  0.00000000000E+00  0.00000000000E+00 -0.18668412497E+04  0.18668412497E+04  0.50400001928E-02 0. -1.
    10030    2    1    2    0    0  0.00000000000E+00  0.00000000000E+00 -0.42506317114E+03  0.33086193283E+04  0.32812014812E+04 0.  0.
        4    1    3    3  502    0  0.13828355674E+03  0.87889390885E+03 -0.16024516608E+04  0.18328747320E+04  0.12699999809E+01 0. -1.
       -4    1    3    3    0  502 -0.13828355674E+03 -0.87889390885E+03  0.11773884897E+04  0.14757445963E+04  0.12699999809E+01 0.  1.
</event>
<event>
 5   0  0.5370912E-07  0.3164495E+04  0.7818609E-02  0.8198257E-01
        1   -1    0    0  501    0  0.00000000000E+00  0.00000000000E+00  0.16666774033E+04  0.16666774033E+04  0.50400001928E-02 0.  1.
       -1   -1    0    0    0  501  0.00000000000E+00  0.00000000000E+00 -0.15020945865E+04  0.15020945865E+04  0.50400001928E-02 0. -1.
    10030    2    1    2    0    0  0.00000000000E+00  0.00000000000E+00  0.16458281679E+03  0.31687719897E+04  0.31644949707E+04 0.  0.
        1    1    3    3  502    0  0.20235390392E+02 -0.11683458705E+04  0.11505348159E+04  0.16398694786E+04  0.50400001928E-02 0.  1.
       -1    1    3    3    0  502 -0.20235390392E+02  0.11683458705E+04 -0.98595199914E+03  0.15289025112E+04  0.50400001928E-02 0. -1.
</event>
<event>
 5   0  0.5370912E-07  0.3207520E+04  0.7818609E-02  0.8186834E-01
        1   -1    0    0  501    0  0.00000000000E+00  0.00000000000E+00  0.21479967440E+04  0.21479967440E+04  0.50400001928E-02 0.  1.
       -1   -1    0    0    0  501  0.00000000000E+00  0.00000000000E+00 -0.11974161205E+04  0.11974161205E+04  0.50400001928E-02 0. -1.
    10030    2    1    2    0    0  0.00000000000E+00  0.00000000000E+00  0.95058062348E+03  0.33454128645E+04  0.32075198693E+04 0.  0.
        1    1    3    3  502    0 -0.55769786844E+03 -0.33619956919E+03  0.20038991987E+04  0.21070522209E+04  0.50400001928E-02 0.  1.
       -1    1    3    3    0  502  0.55769786844E+03  0.33619956919E+03 -0.10533185752E+04  0.12383606436E+04  0.50400001928E-02 0. -1.
</event>
<event>
 5   0  0.5177039E-07  0.3235779E+04  0.7818609E-02  0.8179431E-01
        1   -1    0    0  501    0  0.00000000000E+00  0.00000000000E+00  0.13550797413E+04  0.13550797413E+04  0.50400001928E-02 0. -1.
       -1   -1    0    0    0  501  0.00000000000E+00  0.00000000000E+00 -0.19316695510E+04  0.19316695510E+04  0.50400001928E-02 0.  1.
    10030    2    1    2    0    0  0.00000000000E+00  0.00000000000E+00 -0.57658980969E+03  0.32867492924E+04  0.32357789019E+04 0.  0.
        3    1    3    3  502    0 -0.69320849489E+03  0.43107753831E+03  0.11305622604E+04  0.13944665275E+04  0.10100000352E+00 0. -1.
       -3    1    3    3    0  502  0.69320849489E+03 -0.43107753831E+03 -0.17071520701E+04  0.18922827649E+04  0.10100000352E+00 0.  1.
</event>
<event>
 5   0  0.1572769E-06  0.3218872E+04  0.7818609E-02  0.8183851E-01
       -2   -1    0    0    0  501  0.00000000000E+00  0.00000000000E+00  0.21917504716E+04  0.21917504716E+04  0.25500000920E-02 0.  1.
        2   -1    0    0  501    0  0.00000000000E+00  0.00000000000E+00 -0.11818334858E+04  0.11818334858E+04  0.25500000920E-02 0. -1.
    10030    2    1    2    0    0  0.00000000000E+00  0.00000000000E+00  0.10099169858E+04  0.33735839573E+04  0.32188719140E+04 0.  0.
        5    1    3    3  502    0 -0.11911467836E+04 -0.41514499074E+03  0.15525434680E+04  0.20003972939E+04  0.46999998093E+01 0.  1.
       -5    1    3    3    0  502  0.11911467836E+04  0.41514499074E+03 -0.54262648220E+03  0.13731866634E+04  0.46999998093E+01 0. -1.
</event>
<event>
 5   0  0.1538349E-06  0.3191803E+04  0.7818609E-02  0.8190985E-01
       -2   -1    0    0    0  501  0.00000000000E+00  0.00000000000E+00  0.11989156489E+04  0.11989156489E+04  0.25500000920E-02 0.  1.
        2   -1    0    0  501    0  0.00000000000E+00  0.00000000000E+00 -0.21243381652E+04  0.21243381652E+04  0.25500000920E-02 0. -1.
    10030    2    1    2    0    0  0.00000000000E+00  0.00000000000E+00 -0.92542251626E+03  0.33232538141E+04  0.31918034212E+04 0.  0.
        1    1    3    3  502    0  0.14456960803E+04 -0.46649574236E+03  0.46561536783E+02  0.15198103207E+04  0.50400001928E-02 0.  1.
       -1    1    3    3    0  502 -0.14456960803E+04  0.46649574236E+03 -0.97198405305E+03  0.18034434934E+04  0.50400001928E-02 0. -1.
</event>
<event>
 5   0  0.5233813E-07  0.3211394E+04  0.7818609E-02  0.8185814E-01
       -1   -1    0    0    0  501  0.00000000000E+00  0.00000000000E+00  0.11529562434E+04  0.11529562434E+04  0.50400001928E-02 0. -1.
        1   -1    0    0  501    0  0.00000000000E+00  0.00000000000E+00 -0.22362198427E+04  0.22362198427E+04  0.50400001928E-02 0.  1.
    10030    2    1    2    0    0  0.00000000000E+00  0.00000000000E+00 -0.10832635993E+04  0.33891760862E+04  0.32113944817E+04 0.  0.
        4    1    3    3  502    0 -0.15334108444E+04  0.32943351922E+03 -0.90475335926E+03  0.18106505779E+04  0.12699999809E+01 0.  1.
       -4    1    3    3    0  502  0.15334108444E+04 -0.32943351922E+03 -0.17851024004E+03  0.15785255082E+04  0.12699999809E+01 0. -1.
</event>
<event>
 5   0  0.5177039E-07  0.3157933E+04  0.7818609E-02  0.8200016E-01
        1   -1    0    0  501    0  0.00000000000E+00  0.00000000000E+00  0.24343263259E+04  0.24343263259E+04  0.50400001928E-02 0.  1.
       -1   -1    0    0    0  501  0.00000000000E+00  0.00000000000E+00 -0.10241580047E+04  0.10241580047E+04  0.50400001928E-02 0. -1.
    10030    2    1    2    0    0  0.00000000000E+00  0.00000000000E+00  0.14101683212E+04  0.34584843306E+04  0.31579327369E+04 0.  0.
        3    1    3    3  502    0 -0.39179219614E+02  0.15061045836E+04  0.12225449651E+04  0.19402325195E+04  0.10100000352E+00 0. -1.
       -3    1    3    3    0  502  0.39179219614E+02 -0.15061045836E+04  0.18762335609E+03  0.15182518111E+04  0.10100000352E+00 0.  1.
</event>
<event>
 5   0  0.1572769E-06  0.3208510E+04  0.7818609E-02  0.8186573E-01
        2   -1    0    0  501    0  0.00000000000E+00  0.00000000000E+00  0.23525458766E+04  0.23525458766E+04  0.25500000920E-02 0.  1.
       -2   -1    0    0    0  501  0.00000000000E+00  0.00000000000E+00 -0.10939781872E+04  0.10939781872E+04  0.25500000920E-02 0. -1.
    10030    2    1    2    0    0  0.00000000000E+00  0.00000000000E+00  0.12585676894E+04  0.34465240638E+04  0.32085098555E+04 0.  0.
        5    1    3    3  502    0 -0.10002696700E+04  0.36249834738E+03  0.19190484788E+04  0.21942455693E+04  0.46999998093E+01 0.  1.
       -5    1    3    3    0  502  0.10002696700E+04 -0.36249834738E+03 -0.66048078936E+03  0.12522784944E+04  0.46999998093E+01 0. -1.
</event>
<event>
 5   0  0.5177039E-07  0.3317793E+04  0.7818609E-02  0.8158383E-01
       -1   -1    0    0    0  501  0.00000000000E+00  0.00000000000E+00  0.13827168525E+04  0.13827168526E+04  0.50400001928E-02 0.  1.
        1   -1    0    0  501    0  0.00000000000E+00  0.00000000000E+00 -0.19902397931E+04  0.19902397931E+04  0.50400001928E-02 0. -1.
    10030    2    1    2    0    0  0.00000000000E+00  0.00000000000E+00 -0.60752294051E+03  0.33729566456E+04  0.33177933043E+04 0.  0.
        3    1    3    3  502    0 -0.10451488428E+04  0.38530970207E+03  0.94596093696E+03  0.14613835139E+04  0.10100000352E+00 0.  1.
       -3    1    3    3    0  502  0.10451488428E+04 -0.38530970207E+03 -0.15534838775E+04  0.19115731317E+04  0.10100000352E+00 0. -1.
</event>
<event>
 5   0  0.5177039E-07  0.3214124E+04  0.7818609E-02  0.8185097E-01
        1   -1    0    0  501    0  0.00000000000E+00  0.00000000000E+00  0.20286751273E+04  0.20286751273E+04  0.50400001928E-02 0.  1.
       -1   -1    0    0    0  501  0.00000000000E+00  0.00000000000E+00 -0.12730712597E+04  0.12730712597E+04  0.50400001928E-02 0. -1.
    10030    2    1    2    0    0  0.00000000000E+00  0.00000000000E+00  0.75560386764E+03  0.33017463870E+04  0.32141238307E+04 0.  0.
        3    1    3    3  502    0  0.51039614006E+03 -0.99454129025E+03  0.15638472830E+04  0.19222993868E+04  0.10100000352E+00 0.  1.
       -3    1    3    3    0  502 -0.51039614006E+03  0.99454129025E+03 -0.80824341532E+03  0.13794470002E+04  0.10100000352E+00 0. -1.
</event>
<event>
 5   0  0.1508771E-06  0.3149422E+04  0.7818609E-02  0.8202304E-01
        2   -1    0    0  501    0  0.00000000000E+00  0.00000000000E+00  0.14789546995E+04  0.14789546995E+04  0.25500000920E-02 0.  1.
       -2   -1    0    0    0  501  0.00000000000E+00  0.00000000000E+00 -0.16766671187E+04  0.16766671187E+04  0.25500000920E-02 0. -1.
    10030    2    1    2    0    0  0.00000000000E+00  0.00000000000E+00 -0.19771241922E+03  0.31556218182E+04  0.31494219880E+04 0.  0.
        4    1    3    3  502    0 -0.24628497544E+03 -0.32891631044E+03  0.14242911931E+04  0.14823795884E+04  0.12699999809E+01 0.  1.
       -4    1    3    3    0  502  0.24628497544E+03  0.32891631044E+03 -0.16220036123E+04  0.16732422298E+04  0.12699999809E+01 0. -1.
</event>
<event>
 5   0  0.1493485E-06  0.3110836E+04  0.7818609E-02  0.8212770E-01
        2   -1    0    0  501    0  0.00000000000E+00  0.00000000000E+00  0.24518958420E+04  0.24518958420E+04  0.25500000920E-02 0. -1.
       -2   -1    0    0    0  501  0.00000000000E+00  0.00000000000E+00 -0.98671593015E+03  0.98671593015E+03  0.25500000920E-02 0.  1.
    10030    2    1    2    0    0  0.00000000000E+00  0.00000000000E+00  0.14651799118E+04  0.34386117721E+04  0.31108356989E+04 0.  0.
        2    1    3    3  502    0 -0.17415821840E+03  0.41727069049E+03  0.23776473400E+04  0.24202588266E+04  0.25500000920E-02 0. -1.
       -2    1    3    3    0  502  0.17415821840E+03 -0.41727069049E+03 -0.91246742819E+03  0.10183529455E+04  0.25500000920E-02 0.  1.
</event>
<event>
 5   0  0.5317728E-07  0.3195469E+04  0.7818609E-02  0.8190015E-01
        1   -1    0    0  501    0  0.00000000000E+00  0.00000000000E+00  0.16371096977E+04  0.16371096977E+04  0.50400001928E-02 0. -1.
       -1   -1    0    0    0  501  0.00000000000E+00  0.00000000000E+00 -0.15593060311E+04  0.15593060311E+04  0.50400001928E-02 0.  1.
    10030    2    1    2    0    0  0.00000000000E+00  0.00000000000E+00  0.77803666689E+02  0.31964157288E+04  0.31954686825E+04 0.  0.
        2    1    3    3  502    0  0.24424916184E+03 -0.14709041180E+04  0.61312636128E+03  0.16121850118E+04  0.25500000920E-02 0. -1.
       -2    1    3    3    0  502 -0.24424916184E+03  0.14709041180E+04 -0.53532269459E+03  0.15842307170E+04  0.25500000920E-02 0.  1.
</event>
<event>
 5   0  0.1493485E-06  0.3235384E+04  0.7818609E-02  0.8179534E-01
        2   -1    0    0  501    0  0.00000000000E+00  0.00000000000E+00  0.17239639223E+04  0.17239639223E+04  0.25500000920E-02 0.  1.
       -2   -1    0    0    0  501  0.00000000000E+00  0.00000000000E+00 -0.15179710377E+04  0.15179710377E+04  0.25500000920E-02 0. -1.
    10030    2    1    2    0    0  0.00000000000E+00  0.00000000000E+00  0.20599288461E+03  0.32419349600E+04  0.32353839364E+04 0.  0.
        2    1    3    3  502    0  0.38102875963E+03  0.36712480405E+03 -0.14288120126E+04  0.15236362114E+04  0.25500000920E-02 0. -1.
       -2    1    3    3    0  502 -0.38102875963E+03 -0.36712480405E+03  0.16348048972E+04  0.17182987486E+04  0.25500000920E-02 0.  1.
</event>
<event>
 5   0  0.5317728E-07  0.3217868E+04  0.7818609E-02  0.8184114E-01
       -1   -1    0    0    0  501  0.00000000000E+00  0.00000000000E+00  0.93052376855E+03  0.93052376856E+03  0.50400001928E-02 0.  1.
        1   -1    0    0  501    0  0.00000000000E+00  0.00000000000E+00 -0.27819473877E+04  0.27819473877E+04  0.50400001928E-02 0. -1.
    10030    2    1    2    0    0  0.00000000000E+00  0.00000000000E+00 -0.18514236191E+04  0.37124711562E+04  0.32178677208E+04 0.  0.
        2    1    3    3  502    0 -0.15577810706E+04 -0.15591315047E+03 -0.49763054864E+03  0.16427498097E+04  0.25500000920E-02 0. -1.
       -2    1    3    3    0  502  0.15577810706E+04  0.15591315047E+03 -0.13537930705E+04  0.20697213465E+04  0.25500000920E-02 0.  1.
</event>
<event>
 5   0  0.4995625E-07  0.3195379E+04  0.7818609E-02  0.8190039E-01
        3   -1    0    0  501    0  0.00000000000E+00  0.00000000000E+00  0.10540492252E+04  0.10540492301E+04  0.10100000352E+00 0.  1.
       -3   -1    0    0    0  501  0.00000000000E+00  0.00000000000E+00 -0.24217199438E+04  0.24217199459E+04  0.10100000352E+00 0. -1.
    10030    2    1    2    0    0  0.00000000000E+00  0.00000000000E+00 -0.13676707186E+04  0.34757691759E+04  0.31953791903E+04 0.  0.
        3    1    3    3  502    0  0.79324424031E+03 -0.54725346860E+03 -0.20699741846E+04  0.22833124882E+04  0.10100000352E+00 0. -1.
       -3    1    3    3    0  502 -0.79324424031E+03  0.54725346860E+03  0.70230346600E+03  0.11924566878E+04  0.10100000352E+00 0.  1.
</event>
<event>
 5   0  0.5370912E-07  0.3251577E+04  0.7818609E-02  0.8175327E-01
        1   -1    0    0  501    0  0.00000000000E+00  0.00000000000E+00  0.86858471648E+03  0.86858471650E+03  0.50400001928E-02 0.  1.
       -1   -1    0    0    0  501  0.00000000000E+00  0.00000000000E+00 -0.30430980273E+04  0.30430980273E+04  0.50400001928E-02 0. -1.
    10030    2    1    2    0    0  0.00000000000E+00  0.00000000000E+00 -0.21745133108E+04  0.39116827438E+04  0.32515771172E+04 0.  0.
        1    1    3    3  502    0 -0.11201350096E+04  0.10786797153E+04 -0.51669955214E+03  0.16386673839E+04  0.50400001928E-02 0.  1.
       -1    1    3    3    0  502  0.11201350096E+04 -0.10786797153E+04 -0.16578137587E+04  0.22730153599E+04  0.50400001928E-02 0. -1.
</event>
<event>
 5   0  0.1493485E-06  0.3203489E+04  0.7818609E-02  0.8187896E-01
        2   -1    0    0  501    0  0.00000000000E+00  0.00000000000E+00  0.18190510028E+04  0.18190510028E+04  0.25500000920E-02 0. -1.
       -2   -1    0    0    0  501  0.00000000000E+00  0.00000000000E+00 -0.14103976688E+04  0.14103976688E+04  0.25500000920E-02 0.  1.
    10030    2    1    2    0    0  0.00000000000E+00  0.00000000000E+00  0.40865333397E+03  0.32294486716E+04  0.32034889067E+04 0.  0.
        2    1    3    3  502    0 -0.97100887958E+03 -0.11611017342E+04  0.73256699674E+03  0.16815676870E+04  0.25500000920E-02 0. -1.
       -2    1    3    3    0  502  0.97100887958E+03  0.11611017342E+04 -0.32391366277E+03  0.15478809845E+04  0.25500000920E-02 0.  1.
</event>
<event>
 5   0  0.1508771E-06  0.3201947E+04  0.7818609E-02  0.8188303E-01
        2   -1    0    0  501    0  0.00000000000E+00  0.00000000000E+00  0.15064636096E+04  0.15064636096E+04  0.25500000920E-02 0.  1.
       -2   -1    0    0    0  501  0.00000000000E+00  0.00000000000E+00 -0.17014126658E+04  0.17014126658E+04  0.25500000920E-02 0. -1.
    10030    2    1    2    0    0  0.00000000000E+00  0.00000000000E+00 -0.19494905619E+03  0.32078762754E+04  0.32019470739E+04 0.  0.
        4    1    3    3  502    0  0.67043336226E+03 -0.12063704470E+04 -0.91033637949E+03  0.16533373779E+04  0.12699999809E+01 0. -1.
       -4    1    3    3    0  502 -0.67043336226E+03  0.12063704470E+04  0.71538732330E+03  0.15545388975E+04  0.12699999809E+01 0.  1.
</event>
<event>
 5   0  0.1538349E-06  0.3186428E+04  0.7818609E-02  0.8192411E-01
       -2   -1    0    0    0  501  0.00000000000E+00  0.00000000000E+00  0.14344925450E+04  0.14344925450E+04  0.25500000920E-02 0. -1.
        2   -1    0    0  501    0  0.00000000000E+00  0.00000000000E+00 -0.17694976615E+04  0.17694976615E+04  0.25500000920E-02 0.  1.
    10030    2    1    2    0    0  0.00000000000E+00  0.00000000000E+00 -0.33500511649E+03  0.32039902064E+04  0.31864282221E+04 0.  0.
        1    1    3    3  502    0 -0.68832851379E+03 -0.14230550558E+04  0.32210779759E+02  0.15811133321E+04  0.50400001928E-02 0.  1.
       -1    1    3    3    0  502  0.68832851379E+03  0.14230550558E+04 -0.36721589625E+03  0.16228768743E+04  0.50400001928E-02 0. -1.
</event>
<event>
 5   0  0.1538349E-06  0.3176666E+04  0.7818609E-02  0.8195007E-01
        2   -1    0    0  501    0  0.00000000000E+00  0.00000000000E+00  0.21887699619E+04  0.21887699619E+04  0.25500000920E-02 0.  1.
       -2   -1    0    0    0  501  0.00000000000E+00  0.00000000000E+00 -0.11526114339E+04  0.11526114339E+04  0.25500000920E-02 0. -1.
    10030    2    1    2    0    0  0.00000000000E+00  0.00000000000E+00  0.10361585280E+04  0.33413813959E+04  0.31766657264E+04 0.  0.
        1    1    3    3  502    0 -0.14811893666E+04 -0.14188547875E+03  0.11025415705E+04  0.18519317870E+04  0.50400001928E-02 0.  1.
       -1    1    3    3    0  502  0.14811893666E+04  0.14188547875E+03 -0.66383042554E+02  0.14894496088E+04  0.50400001928E-02 0. -1.
</event>
<event>
 5   0  0.5317728E-07  0.3198718E+04  0.7818609E-02  0.8189156E-01
       -1   -1    0    0    0  501  0.00000000000E+00  0.00000000000E+00  0.14368733985E+04  0.14368733985E+04  0.50400001928E-02 0.  1.
        1   -1    0    0  501    0  0.00000000000E+00  0.00000000000E+00 -0.17802186096E+04  0.17802186096E+04  0.50400001928E-02 0. -1.
    10030    2    1    2    0    0  0.00000000000E+00  0.00000000000E+00 -0.34334521109E+03  0.32170920081E+04  0.31987177203E+04 0.  0.
        2    1    3    3  502    0  0.15488030000E+04  0.32607621971E+03  0.59500573818E+02  0.15838739698E+04  0.25500000920E-02 0.  1.
       -2    1    3    3    0  502 -0.15488030000E+04 -0.32607621971E+03 -0.40284578491E+03  0.16332180382E+04  0.25500000920E-02 0. -1.
</event>
<event>
 5   0  0.5317728E-07  0.3192974E+04  0.7818609E-02  0.8190675E-01
       -1   -1    0    0    0  501  0.00000000000E+00  0.00000000000E+00  0.21558221329E+04  0.21558221329E+04  0.50400001928E-02 0.  1.
        1   -1    0    0  501    0  0.00000000000E+00  0.00000000000E+00 -0.11822735332E+04  0.11822735332E+04  0.50400001928E-02 0. -1.
    10030    2    1    2    0    0  0.00000000000E+00  0.00000000000E+00  0.97354859969E+03  0.33380956661E+04  0.31929744440E+04 0.  0.
        2    1    3    3  502    0  0.97693649978E+03 -0.27832226918E+01  0.18068424875E+04  0.20540429513E+04  0.25500000920E-02 0.  1.
       -2    1    3    3    0  502 -0.97693649978E+03  0.27832226918E+01 -0.83329388786E+03  0.12840527148E+04  0.25500000920E-02 0. -1.
</event>
<event>
 5   0  0.1538349E-06  0.3206162E+04  0.7818609E-02  0.8187192E-01
        2   -1    0    0  501    0  0.00000000000E+00  0.00000000000E+00  0.19586772911E+04  0.19586772911E+04  0.25500000920E-02 0. -1.
       -2   -1    0    0    0  501  0.00000000000E+00  0.00000000000E+00 -0.13120426868E+04  0.13120426868E+04  0.25500000920E-02 0.  1.
    10030    2    1    2    0    0  0.00000000000E+00  0.00000000000E+00  0.64663460430E+03  0.32707199779E+04  0.32061617024E+04 0.  0.
        1    1    3    3  502    0  0.58203738936E+03  0.96084552756E+03 -0.84333467266E+03  0.14047081621E+04  0.50400001928E-02 0.  1.
       -1    1    3    3    0  502 -0.58203738936E+03 -0.96084552756E+03  0.14899692770E+04  0.18660118158E+04  0.50400001928E-02 0. -1.
</event>
<event>
 5   0  0.1572769E-06  0.3198317E+04  0.7818609E-02  0.8189262E-01
        2   -1    0    0  501    0  0.00000000000E+00  0.00000000000E+00  0.17387163832E+04  0.17387163832E+04  0.25500000920E-02 0. -1.
       -2   -1    0    0    0  501  0.00000000000E+00  0.00000000000E+00 -0.14708024946E+04  0.14708024946E+04  0.25500000920E-02 0.  1.
    10030    2    1    2    0    0  0.00000000000E+00  0.00000000000E+00  0.26791388857E+03  0.32095188777E+04  0.31983173037E+04 0.  0.
        5    1    3    3  502    0 -0.18480511384E+03 -0.15526327668E+04  0.47048929584E+03  0.16328514035E+04  0.46999998093E+01 0. -1.
       -5    1    3    3    0  502  0.18480511384E+03  0.15526327668E+04 -0.20257540727E+03  0.15766674742E+04  0.46999998093E+01 0.  1.
</event>
<event>
 5   0  0.1508771E-06  0.3182445E+04  0.7818609E-02  0.8193469E-01
        2   -1    0    0  501    0  0.00000000000E+00  0.00000000000E+00  0.25305958170E+04  0.25305958170E+04  0.25500000920E-02 0. -1.
       -2   -1    0    0    0  501  0.00000000000E+00  0.00000000000E+00 -0.10005505979E+04  0.10005505979E+04  0.25500000920E-02 0.  1.
    10030    2    1    2    0    0  0.00000000000E+00  0.00000000000E+00  0.15300452191E+04  0.35311464149E+04  0.31824450711E+04 0.  0.
        4    1    3    3  502    0  0.49711292047E+03  0.14708024452E+04  0.11519532530E+04  0.19332301980E+04  0.12699999809E+01 0. -1.
       -4    1    3    3    0  502 -0.49711292047E+03 -0.14708024452E+04  0.37809196611E+03  0.15979162169E+04  0.12699999809E+01 0.  1.
</event>
<event>
 5   0  0.5370912E-07  0.3196998E+04  0.7818609E-02  0.8189611E-01
        1   -1    0    0  501    0  0.00000000000E+00  0.00000000000E+00  0.19246249160E+04  0.19246249160E+04  0.50400001928E-02 0. -1.
       -1   -1    0    0    0  501  0.00000000000E+00  0.00000000000E+00 -0.13276344385E+04  0.13276344385E+04  0.50400001928E-02 0.  1.
    10030    2    1    2    0    0  0.00000000000E+00  0.00000000000E+00  0.59699047748E+03  0.32522593544E+04  0.31969975412E+04 0.  0.
        1    1    3    3  502    0 -0.87491790699E+03  0.35455093435E+03 -0.10137678551E+04  0.13852483435E+04  0.50400001928E-02 0.  1.
       -1    1    3    3    0  502  0.87491790699E+03 -0.35455093435E+03  0.16107583326E+04  0.18670110110E+04  0.50400001928E-02 0. -1.
</event>
<event>
 5   0  0.1556396E-06  0.3195730E+04  0.7818609E-02  0.8189946E-01
       -2   -1    0    0    0  501  0.00000000000E+00  0.00000000000E+00  0.19680452521E+04  0.19680452521E+04  0.25500000920E-02 0. -1.
        2   -1    0    0  501    0  0.00000000000E+00  0.00000000000E+00 -0.12973142718E+04  0.12973142718E+04  0.25500000920E-02 0.  1.
    10030    2    1    2    0    0  0.00000000000E+00  0.00000000000E+00  0.67073098028E+03  0.32653595240E+04  0.31957303974E+04 0.  0.
        3    1    3    3  502    0 -0.12188374843E+04  0.99421157776E+03  0.62283449041E+03  0.16917281954E+04  0.10100000352E+00 0. -1.
       -3    1    3    3    0  502  0.12188374843E+04 -0.99421157776E+03  0.47896489873E+02  0.15736313286E+04  0.10100000352E+00 0.  1.
</event>
<event>
 5   0  0.1538349E-06  0.3208584E+04  0.7818609E-02  0.8186554E-01
       -2   -1    0    0    0  501  0.00000000000E+00  0.00000000000E+00  0.25176508105E+04  0.25176508105E+04  0.25500000920E-02 0. -1.
        2   -1    0    0  501    0  0.00000000000E+00  0.00000000000E+00 -0.10222832682E+04  0.10222832682E+04  0.25500000920E-02 0.  1.
    10030    2    1    2    0    0  0.00000000000E+00  0.00000000000E+00  0.14953675423E+04  0.35399340788E+04  0.32085836743E+04 0.  0.
        1    1    3    3  502    0  0.12383424062E+04 -0.96985959925E+03  0.10959271321E+04  0.19170748124E+04  0.50400001928E-02 0.  1.
       -1    1    3    3    0  502 -0.12383424062E+04  0.96985959925E+03  0.39944041022E+03  0.16228592664E+04  0.50400001928E-02 0. -1.
</event>
<event>
 5   0  0.5233813E-07  0.3249351E+04  0.7818609E-02  0.8175904E-01
        1   -1    0    0  501    0  0.00000000000E+00  0.00000000000E+00  0.21666757824E+04  0.21666757824E+04  0.50400001928E-02 0.  1.
       -1   -1    0    0    0  501  0.00000000000E+00  0.00000000000E+00 -0.12182579375E+04  0.12182579375E+04  0.50400001928E-02 0. -1.
    10030    2    1    2    0    0  0.00000000000E+00  0.00000000000E+00  0.94841784483E+03  0.33849337199E+04  0.32493506859E+04 0.  0.
        4    1    3    3  502    0  0.11568190538E+03 -0.33450494039E+03 -0.11776063758E+04  0.12296480177E+04  0.12699999809E+01 0. -1.
       -4    1    3    3    0  502 -0.11568190538E+03  0.33450494039E+03  0.21260242206E+04  0.21552857022E+04  0.12699999809E+01 0.  1.
</event>
<event>
 5   0  0.1556396E-06  0.3190890E+04  0.7818609E-02  0.8191227E-01
       -2   -1    0    0    0  501  0.00000000000E+00  0.00000000000E+00  0.18698332891E+04  0.18698332891E+04  0.25500000920E-02 0. -1.
        2   -1    0    0  501    0  0.00000000000E+00  0.00000000000E+00 -0.13613218413E+04  0.13613218413E+04  0.25500000920E-02 0.  1.
    10030    2    1    2    0    0  0.00000000000E+00  0.00000000000E+00  0.50851144777E+03  0.32311551304E+04  0.31908900927E+04 0.  0.
        3    1    3    3  502    0  0.49786747029E+03 -0.14973065198E+04  0.15384877477E+02  0.15779846441E+04  0.10100000352E+00 0. -1.
       -3    1    3    3    0  502 -0.49786747029E+03  0.14973065198E+04  0.49312657029E+03  0.16531704863E+04  0.10100000352E+00 0.  1.
</event>
<event>
 5   0  0.1538349E-06  0.3198801E+04  0.7818609E-02  0.8189134E-01
        2   -1    0    0  501    0  0.00000000000E+00  0.00000000000E+00  0.21264050889E+04  0.21264050889E+04  0.25500000920E-02 0.  1.
       -2   -1    0    0    0  501  0.00000000000E+00  0.00000000000E+00 -0.12030076658E+04  0.12030076658E+04  0.25500000920E-02 0. -1.
    10030    2    1    2    0    0  0.00000000000E+00  0.00000000000E+00  0.92339742312E+03  0.33294127547E+04  0.31988007894E+04 0.  0.
        1    1    3    3  502    0 -0.14677402942E+04  0.28283487734E+02  0.11224587888E+04  0.18479651673E+04  0.50400001928E-02 0.  1.
       -1    1    3    3    0  502  0.14677402942E+04 -0.28283487734E+02 -0.19906136569E+03  0.14814475874E+04  0.50400001928E-02 0. -1.
</event>
<event>
 5   0  0.5317728E-07  0.3207083E+04  0.7818609E-02  0.8186949E-01
       -1   -1    0    0    0  501  0.00000000000E+00  0.00000000000E+00  0.17089277305E+04  0.17089277305E+04  0.50400001928E-02 0.  1.
        1   -1    0    0  501    0  0.00000000000E+00  0.00000000000E+00 -0.15046546160E+04  0.15046546160E+04  0.50400001928E-02 0. -1.
    10030    2    1    2    0    0  0.00000000000E+00  0.00000000000E+00  0.20427311448E+03  0.32135823465E+04  0.32070834090E+04 0.  0.
        2    1    3    3  502    0  0.12935353175E+04 -0.94600018103E+03  0.15878462967E+03  0.16103920389E+04  0.25500000920E-02 0.  1.
       -2    1    3    3    0  502 -0.12935353175E+04  0.94600018103E+03  0.45488484815E+02  0.16031903076E+04  0.25500000920E-02 0. -1.
</event>
<event>
 5   0  0.1572769E-06  0.3096575E+04  0.7818609E-02  0.8216679E-01
        2   -1    0    0  501    0  0.00000000000E+00  0.00000000000E+00  0.23987039697E+04  0.23987039697E+04  0.25500000920E-02 0.  1.
       -2   -1    0    0    0  501  0.00000000000E+00  0.00000000000E+00 -0.99937045727E+03  0.99937045727E+03  0.25500000920E-02 0. -1.
    10030    2    1    2    0    0  0.00000000000E+00  0.00000000000E+00  0.13993335125E+04  0.33980744270E+04  0.30965748065E+04 0.  0.
        5    1    3    3  502    0  0.92645002801E+03 -0.11996724834E+04  0.35326047429E+03  0.15563864477E+04  0.46999998093E+01 0.  1.
       -5    1    3    3    0  502 -0.92645002801E+03  0.11996724834E+04  0.10460730382E+04  0.18416879793E+04  0.46999998093E+01 0. -1.
</event>
<event>
 5   0  0.5370912E-07  0.3210477E+04  0.7818609E-02  0.8186056E-01
        1   -1    0    0  501    0  0.00000000000E+00  0.00000000000E+00  0.12600589956E+04  0.12600589956E+04  0.50400001928E-02 0. -1.
       -1   -1    0    0    0  501  0.00000000000E+00  0.00000000000E+00 -0.20449755705E+04  0.20449755705E+04  0.50400001928E-02 0.  1.
    10030    2    1    2    0    0  0.00000000000E+00  0.00000000000E+00 -0.78491657490E+03  0.33050345661E+04  0.32104765150E+04 0.  0.
        1    1    3    3  502    0 -0.60267552734E+03 -0.12282831347E+04 -0.12567652038E+04  0.18577825567E+04  0.50400001928E-02 0.  1.
       -1    1    3    3    0  502  0.60267552734E+03  0.12282831347E+04  0.47184862892E+03  0.14472520095E+04  0.50400001928E-02 0. -1.
</event>
<event>
 5   0  0.1538349E-06  0.3202054E+04  0.7818609E-02  0.8188275E-01
       -2   -1    0    0    0  501  0.00000000000E+00  0.00000000000E+00  0.14422630763E+04  0.14422630763E+04  0.25500000920E-02 0.  1.
        2   -1    0    0  501    0  0.00000000000E+00  0.00000000000E+00 -0.17772676153E+04  0.17772676153E+04  0.25500000920E-02 0. -1.
    10030    2    1    2    0    0  0.00000000000E+00  0.00000000000E+00 -0.33500453906E+03  0.32195306916E+04  0.32020540022E+04 0.  0.
        1    1    3    3  502    0  0.11918920657E+01  0.15695590970E+04  0.15008604191E+03  0.15767190617E+04  0.50400001928E-02 0.  1.
       -1    1    3    3    0  502 -0.11918920657E+01 -0.15695590970E+04 -0.48509058097E+03  0.16428116299E+04  0.50400001928E-02 0. -1.
</event>
<event>
 5   0  0.1493485E-06  0.3211700E+04  0.7818609E-02  0.8185734E-01
        2   -1    0    0  501    0  0.00000000000E+00  0.00000000000E+00  0.24043760808E+04  0.24043760808E+04  0.25500000920E-02 0. -1.
       -2   -1    0    0    0  501  0.00000000000E+00  0.00000000000E+00 -0.10725251741E+04  0.10725251741E+04  0.25500000920E-02 0.  1.
    10030    2    1    2    0    0  0.00000000000E+00  0.00000000000E+00  0.13318509067E+04  0.34769012549E+04  0.32116997835E+04 0.  0.
        2    1    3    3  502    0  0.75036378601E+03 -0.51867549133E+03 -0.76482720087E+03  0.11903909962E+04  0.25500000920E-02 0.  1.
       -2    1    3    3    0  502 -0.75036378601E+03  0.51867549133E+03  0.20966781075E+04  0.22865102587E+04  0.25500000920E-02 0. -1.
</event>
<event>
 5   0  0.5281187E-07  0.3202673E+04  0.7818609E-02  0.8188112E-01
       -1   -1    0    0    0  501  0.00000000000E+00  0.00000000000E+00  0.13074083806E+04  0.13074083806E+04  0.50400001928E-02 0.  1.
        1   -1    0    0  501    0  0.00000000000E+00  0.00000000000E+00 -0.19613447025E+04  0.19613447025E+04  0.50400001928E-02 0. -1.
    10030    2    1    2    0    0  0.00000000000E+00  0.00000000000E+00 -0.65393632188E+03  0.32687530830E+04  0.32026729469E+04 0.  0.
        5    1    3    3  502    0 -0.23665565416E+03  0.10280751249E+04 -0.15565287239E+04  0.18803585082E+04  0.46999998093E+01 0. -1.
       -5    1    3    3    0  502  0.23665565416E+03 -0.10280751249E+04  0.90259240203E+03  0.13883945748E+04  0.46999998093E+01 0.  1.
</event>
<event>
 5   0  0.5177039E-07  0.3170802E+04  0.7818609E-02  0.8196571E-01
       -1   -1    0    0    0  501  0.00000000000E+00  0.00000000000E+00  0.12473568655E+04  0.12473568655E+04  0.50400001928E-02 0.  1.
        1   -1    0    0  501    0  0.00000000000E+00  0.00000000000E+00 -0.20150576869E+04  0.20150576869E+04  0.50400001928E-02 0. -1.
    10030    2    1    2    0    0  0.00000000000E+00  0.00000000000E+00 -0.76770082140E+03  0.32624145524E+04  0.31708018167E+04 0.  0.
        3    1    3    3  502    0 -0.73783189052E+03 -0.71152322079E+03 -0.16282724515E+04  0.19240406386E+04  0.10100000352E+00 0. -1.
       -3    1    3    3    0  502  0.73783189052E+03  0.71152322079E+03  0.86057163011E+03  0.13383739138E+04  0.10100000352E+00 0.  1.
</event>
<event>
 5   0  0.1538349E-06  0.3188160E+04  0.7818609E-02  0.8191951E-01
        2   -1    0    0  501    0  0.00000000000E+00  0.00000000000E+00  0.26171363474E+04  0.26171363474E+04  0.25500000920E-02 0.  1.
       -2   -1    0    0    0  501  0.00000000000E+00  0.00000000000E+00 -0.97094349776E+03  0.97094349777E+03  0.25500000920E-02 0. -1.
    10030    2    1    2    0    0  0.00000000000E+00  0.00000000000E+00  0.16461928496E+04  0.35880798451E+04  0.31881602966E+04 0.  0.
        1    1    3    3  502    0  0.22982162534E+03 -0.80016400825E+03  0.23530358545E+04  0.24959683796E+04  0.50400001928E-02 0.  1.
       -1    1    3    3    0  502 -0.22982162534E+03  0.80016400825E+03 -0.70684300487E+03  0.10921114655E+04  0.50400001928E-02 0. -1.
</event>
<event>
 5   0  0.1572769E-06  0.2841713E+04  0.7818609E-02  0.8290434E-01
       -2   -1    0    0    0  501  0.00000000000E+00  0.00000000000E+00  0.16909804264E+04  0.16909804264E+04  0.25500000920E-02 0. -1.
        2   -1    0    0  501    0  0.00000000000E+00  0.00000000000E+00 -0.11938832077E+04  0.11938832077E+04  0.25500000920E-02 0.  1.
    10030    2    1    2    0    0  0.00000000000E+00  0.00000000000E+00  0.49709721874E+03  0.28848636342E+04  0.28417129592E+04 0.  0.
        5    1    3    3  502    0  0.10888589508E+04  0.84450879823E+03 -0.10312480794E+03  0.13818341945E+04  0.46999998093E+01 0. -1.
       -5    1    3    3    0  502 -0.10888589508E+04 -0.84450879823E+03  0.60022202668E+03  0.15030294396E+04  0.46999998093E+01 0.  1.
</event>
<event>
 5   0  0.5281187E-07  0.3194693E+04  0.7818609E-02  0.8190220E-01
        1   -1    0    0  501    0  0.00000000000E+00  0.00000000000E+00  0.21677963883E+04  0.21677963883E+04  0.50400001928E-02 0. -1.
       -1   -1    0    0    0  501  0.00000000000E+00  0.00000000000E+00 -0.11770087567E+04  0.11770087567E+04  0.50400001928E-02 0.  1.
    10030    2    1    2    0    0  0.00000000000E+00  0.00000000000E+00  0.99078763155E+03  0.33448051450E+04  0.31946926812E+04 0.  0.
        5    1    3    3  502    0  0.30910332943E+03 -0.13674289626E+04  0.12969289426E+04  0.19098307800E+04  0.46999998093E+01 0. -1.
       -5    1    3    3    0  502 -0.30910332943E+03  0.13674289626E+04 -0.30614131102E+03  0.14349743651E+04  0.46999998093E+01 0.  1.
</event>
<event>
 5   0  0.1538349E-06  0.3204285E+04  0.7818609E-02  0.8187686E-01
        2   -1    0    0  501    0  0.00000000000E+00  0.00000000000E+00  0.27483399685E+04  0.27483399685E+04  0.25500000920E-02 0. -1.
       -2   -1    0    0    0  501  0.00000000000E+00  0.00000000000E+00 -0.93396775323E+03  0.93396775323E+03  0.25500000920E-02 0.  1.
    10030    2    1    2    0    0  0.00000000000E+00  0.00000000000E+00  0.18143722153E+04  0.36823077218E+04  0.32042851967E+04 0.  0.
        1    1    3    3  502    0 -0.14041599037E+04 -0.41877152037E+03  0.16258491477E+03  0.14742687937E+04  0.50400001928E-02 0. -1.
       -1    1    3    3    0  502  0.14041599037E+04  0.41877152037E+03  0.16517873005E+04  0.22080389281E+04  0.50400001928E-02 0.  1.
</event>
<event>
 5   0  0.5370912E-07  0.3203647E+04  0.7818609E-02  0.8187855E-01
        1   -1    0    0  501    0  0.00000000000E+00  0.00000000000E+00  0.12451804225E+04  0.12451804225E+04  0.50400001928E-02 0. -1.
       -1   -1    0    0    0  501  0.00000000000E+00  0.00000000000E+00 -0.20606161270E+04  0.20606161270E+04  0.50400001928E-02 0.  1.
    10030    2    1    2    0    0  0.00000000000E+00  0.00000000000E+00 -0.81543570456E+03  0.33057965495E+04  0.32036472088E+04 0.  0.
        1    1    3    3  502    0  0.35480680110E+03  0.10601966753E+04 -0.15914365067E+04  0.19448843182E+04  0.50400001928E-02 0.  1.
       -1    1    3    3    0  502 -0.35480680110E+03 -0.10601966753E+04  0.77600080215E+03  0.13609122313E+04  0.50400001928E-02 0. -1.
</event>
<event>
 5   0  0.1556396E-06  0.3207286E+04  0.7818609E-02  0.8186896E-01
       -2   -1    0    0    0  501  0.00000000000E+00  0.00000000000E+00  0.10264073253E+04  0.10264073253E+04  0.25500000920E-02 0. -1.
        2   -1    0    0  501    0  0.00000000000E+00  0.00000000000E+00 -0.25055072041E+04  0.25055072041E+04  0.25500000920E-02 0.  1.
    10030    2    1    2    0    0  0.00000000000E+00  0.00000000000E+00 -0.14790998788E+04  0.35319145294E+04  0.32072860476E+04 0.  0.
        3    1    3    3  502    0  0.27217929456E+03  0.61898852981E+03  0.86174170377E+03  0.10953662139E+04  0.10100000352E+00 0. -1.
       -3    1    3    3    0  502 -0.27217929456E+03 -0.61898852981E+03 -0.23408415826E+04  0.24365483155E+04  0.10100000352E+00 0.  1.
</event>
<event>
 5   0  0.1508771E-06  0.3169914E+04  0.7818609E-02  0.8196808E-01
        2   -1    0    0  501    0  0.00000000000E+00  0.00000000000E+00  0.17744242500E+04  0.17744242500E+04  0.25500000920E-02 0. -1.
       -2   -1    0    0    0  501  0.00000000000E+00  0.00000000000E+00 -0.14157205752E+04  0.14157205752E+04  0.25500000920E-02 0.  1.
    10030    2    1    2    0    0  0.00000000000E+00  0.00000000000E+00  0.35870367484E+03  0.31901448252E+04  0.31699141439E+04 0.  0.
        4    1    3    3  502    0  0.11674108522E+04  0.85013772614E+03  0.83659335787E+03  0.16689734301E+04  0.12699999809E+01 0. -1.
       -4    1    3    3    0  502 -0.11674108522E+04 -0.85013772614E+03 -0.47788968303E+03  0.15211713951E+04  0.12699999809E+01 0.  1.
</event>
<event>
 5   0  0.1493485E-06  0.3203362E+04  0.7818609E-02  0.8187930E-01
        2   -1    0    0  501    0  0.00000000000E+00  0.00000000000E+00  0.14980520273E+04  0.14980520273E+04  0.25500000920E-02 0.  1.
       -2   -1    0    0    0  501  0.00000000000E+00  0.00000000000E+00 -0.17124781525E+04  0.17124781525E+04  0.25500000920E-02 0. -1.
    10030    2    1    2    0    0  0.00000000000E+00  0.00000000000E+00 -0.21442612520E+03  0.32105301799E+04  0.32033615895E+04 0.  0.
        2    1    3    3  502    0  0.42811012661E+03 -0.14274041513E+04 -0.69557061469E+03  0.16445605406E+04  0.25500000920E-02 0. -1.
       -2    1    3    3    0  502 -0.42811012661E+03  0.14274041513E+04  0.48114448949E+03  0.15659696393E+04  0.25500000920E-02 0.  1.
</event>
<event>
 5   0  0.1493485E-06  0.3217073E+04  0.7818609E-02  0.8184323E-01
       -2   -1    0    0    0  501  0.00000000000E+00  0.00000000000E+00  0.13985299416E+04  0.13985299416E+04  0.25500000920E-02 0.  1.
        2   -1    0    0  501    0  0.00000000000E+00  0.00000000000E+00 -0.18500781832E+04  0.18500781832E+04  0.25500000920E-02 0. -1.
    10030    2    1    2    0    0  0.00000000000E+00  0.00000000000E+00 -0.45154824159E+03  0.32486081248E+04  0.32170730384E+04 0.  0.
        2    1    3    3  502    0  0.13126962261E+04  0.92963216512E+03 -0.22733496059E+03  0.16245210152E+04  0.25500000920E-02 0. -1.
       -2    1    3    3    0  502 -0.13126962261E+04 -0.92963216512E+03 -0.22421328100E+03  0.16240871097E+04  0.25500000920E-02 0.  1.
</event>
<event>
 5   0  0.1538349E-06  0.3190949E+04  0.7818609E-02  0.8191211E-01
       -2   -1    0    0    0  501  0.00000000000E+00  0.00000000000E+00  0.10941112304E+04  0.10941112304E+04  0.25500000920E-02 0. -1.
        2   -1    0    0  501    0  0.00000000000E+00  0.00000000000E+00 -0.23265820773E+04  0.23265820773E+04  0.25500000920E-02 0.  1.
    10030    2    1    2    0    0  0.00000000000E+00  0.00000000000E+00 -0.12324708469E+04  0.34206933077E+04  0.31909494381E+04 0.  0.
        1    1    3    3  502    0 -0.75942550471E+03 -0.87003224988E+03 -0.17963380843E+04  0.21355359342E+04  0.50400001928E-02 0.  1.
       -1    1    3    3    0  502  0.75942550471E+03  0.87003224988E+03  0.56386723747E+03  0.12851573735E+04  0.50400001928E-02 0. -1.
</event>
<event>
 5   0  0.5281187E-07  0.3066574E+04  0.7818609E-02  0.8224972E-01
       -1   -1    0    0    0  501  0.00000000000E+00  0.00000000000E+00  0.15837377480E+04  0.15837377480E+04  0.50400001928E-02 0.  1.
        1   -1    0    0  501    0  0.00000000000E+00  0.00000000000E+00 -0.14844433144E+04  0.14844433144E+04  0.50400001928E-02 0. -1.
    10030    2    1    2    0    0  0.00000000000E+00  0.00000000000E+00  0.99294433621E+02  0.30681810624E+04  0.30665739266E+04 0.  0.
        5    1    3    3  502    0 -0.54198128342E+03  0.60782422528E+03 -0.12501690496E+04  0.14920250477E+04  0.46999998093E+01 0. -1.
       -5    1    3    3    0  502  0.54198128342E+03 -0.60782422528E+03  0.13494634832E+04  0.15761560148E+04  0.46999998093E+01 0.  1.
</event>
<event>
 5   0  0.5370912E-07  0.3188875E+04  0.7818609E-02  0.8191762E-01
        1   -1    0    0  501    0  0.00000000000E+00  0.00000000000E+00  0.21312499870E+04  0.21312499871E+04  0.50400001928E-02 0. -1.
       -1   -1    0    0    0  501  0.00000000000E+00  0.00000000000E+00 -0.11928353840E+04  0.11928353840E+04  0.50400001928E-02 0.  1.
    10030    2    1    2    0    0  0.00000000000E+00  0.00000000000E+00  0.93841460304E+03  0.33240853711E+04  0.31888746584E+04 0.  0.
        1    1    3    3  502    0  0.76772285739E+03  0.58742328730E+03 -0.85253297879E+03  0.12889053434E+04  0.50400001928E-02 0. -1.
       -1    1    3    3    0  502 -0.76772285739E+03 -0.58742328730E+03  0.17909475818E+04  0.20351800277E+04  0.50400001928E-02 0.  1.
</event>
<event>
 5   0  0.1538349E-06  0.3055793E+04  0.7818609E-02  0.8227976E-01
        2   -1    0    0  501    0  0.00000000000E+00  0.00000000000E+00  0.20317699670E+04  0.20317699670E+04  0.25500000920E-02 0.  1.
       -2   -1    0    0    0  501  0.00000000000E+00  0.00000000000E+00 -0.11489822425E+04  0.11489822425E+04  0.25500000920E-02 0. -1.
    10030    2    1    2    0    0  0.00000000000E+00  0.00000000000E+00  0.88278772445E+03  0.31807522095E+04  0.30557929333E+04 0.  0.
        1    1    3    3  502    0 -0.95952832457E+03  0.58295717642E+03 -0.63729128471E+03  0.12909972335E+04  0.50400001928E-02 0. -1.
       -1    1    3    3    0  502  0.95952832457E+03 -0.58295717642E+03  0.15200790092E+04  0.18897549760E+04  0.50400001928E-02 0.  1.
</event>
<event>
 5   0  0.5317728E-07  0.3225239E+04  0.7818609E-02  0.8182183E-01
        1   -1    0    0  501    0  0.00000000000E+00  0.00000000000E+00  0.19383010295E+04  0.19383010295E+04  0.50400001928E-02 0. -1.
       -1   -1    0    0    0  501  0.00000000000E+00  0.00000000000E+00 -0.13416605817E+04  0.13416605817E+04  0.50400001928E-02 0.  1.
    10030    2    1    2    0    0  0.00000000000E+00  0.00000000000E+00  0.59664044782E+03  0.32799616112E+04  0.32252392697E+04 0.  0.
        2    1    3    3  502    0 -0.15525678262E+04 -0.29034771569E+03 -0.32426177339E+02  0.15798164792E+04  0.25500000920E-02 0. -1.
       -2    1    3    3    0  502  0.15525678262E+04  0.29034771569E+03  0.62906662516E+03  0.17001451320E+04  0.25500000920E-02 0.  1.
</event>
<event>
 5   0  0.5177039E-07  0.3137882E+04  0.7818609E-02  0.8205418E-01
       -1   -1    0    0    0  501  0.00000000000E+00  0.00000000000E+00  0.74646841117E+03  0.74646841119E+03  0.50400001928E-02 0.  1.
        1   -1    0    0  501    0  0.00000000000E+00  0.00000000000E+00 -0.32976287612E+04  0.32976287612E+04  0.50400001928E-02 0. -1.
    10030    2    1    2    0    0  0.00000000000E+00  0.00000000000E+00 -0.25511603500E+04  0.40440971723E+04  0.31378818984E+04 0.  0.
        3    1    3    3  502    0 -0.18132472355E+03  0.21919372707E+03  0.71295312657E+03  0.76761104489E+03  0.10100000352E+00 0.  1.
       -3    1    3    3    0  502  0.18132472355E+03 -0.21919372707E+03 -0.32641134766E+04  0.32764861275E+04  0.10100000352E+00 0. -1.
</event>
<event>
 5   0  0.5233813E-07  0.3185522E+04  0.7818609E-02  0.8192651E-01
        1   -1    0    0  501    0  0.00000000000E+00  0.00000000000E+00  0.17706127829E+04  0.17706127829E+04  0.50400001928E-02 0.  1.
       -1   -1    0    0    0  501  0.00000000000E+00  0.00000000000E+00 -0.14327734915E+04  0.14327734915E+04  0.50400001928E-02 0. -1.
    10030    2    1    2    0    0  0.00000000000E+00  0.00000000000E+00  0.33783929144E+03  0.32033862744E+04  0.31855216584E+04 0.  0.
        4    1    3    3  502    0 -0.52721777647E+02 -0.59392073871E+03 -0.13163073027E+04  0.14450563857E+04  0.12699999809E+01 0. -1.
       -4    1    3    3    0  502  0.52721777647E+02  0.59392073871E+03  0.16541465941E+04  0.17583298887E+04  0.12699999809E+01 0.  1.
</event>
<event>
 5   0  0.1538349E-06  0.3184451E+04  0.7818609E-02  0.8192936E-01
        2   -1    0    0  501    0  0.00000000000E+00  0.00000000000E+00  0.16344039544E+04  0.16344039544E+04  0.25500000920E-02 0. -1.
       -2   -1    0    0    0  501  0.00000000000E+00  0.00000000000E+00 -0.15511355676E+04  0.15511355676E+04  0.25500000920E-02 0.  1.
    10030    2    1    2    0    0  0.00000000000E+00  0.00000000000E+00  0.83268386815E+02  0.31855395220E+04  0.31844510393E+04 0.  0.
        1    1    3    3  502    0 -0.91122661010E+03 -0.10050347840E+04 -0.79216931110E+03  0.15709745604E+04  0.50400001928E-02 0.  1.
       -1    1    3    3    0  502  0.91122661010E+03  0.10050347840E+04  0.87543769792E+03  0.16145649615E+04  0.50400001928E-02 0. -1.
</event>
<event>
 5   0  0.5317728E-07  0.3196867E+04  0.7818609E-02  0.8189645E-01
       -1   -1    0    0    0  501  0.00000000000E+00  0.00000000000E+00  0.23223475779E+04  0.23223475779E+04  0.50400001928E-02 0.  1.
        1   -1    0    0  501    0  0.00000000000E+00  0.00000000000E+00 -0.11001753952E+04  0.11001753952E+04  0.50400001928E-02 0. -1.
    10030    2    1    2    0    0  0.00000000000E+00  0.00000000000E+00  0.12221721827E+04  0.34225229731E+04  0.31968670065E+04 0.  0.
        2    1    3    3  502    0  0.46344988196E+02  0.73665555655E+03 -0.90680048155E+03  0.11692289683E+04  0.25500000920E-02 0. -1.
       -2    1    3    3    0  502 -0.46344988196E+02 -0.73665555655E+03  0.21289726642E+04  0.22532940048E+04  0.25500000920E-02 0.  1.
</event>
<event>
 5   0  0.5281187E-07  0.3223238E+04  0.7818609E-02  0.8182707E-01
       -1   -1    0    0    0  501  0.00000000000E+00  0.00000000000E+00  0.13285758954E+04  0.13285758954E+04  0.50400001928E-02 0. -1.
        1   -1    0    0  501    0  0.00000000000E+00  0.00000000000E+00 -0.19549619385E+04  0.19549619385E+04  0.50400001928E-02 0.  1.
    10030    2    1    2    0    0  0.00000000000E+00  0.00000000000E+00 -0.62638604312E+03  0.32835378340E+04  0.32232376940E+04 0.  0.
        5    1    3    3  502    0  0.21464714478E+03  0.45928523032E+02  0.13132693236E+04  0.13314958627E+04  0.46999998093E+01 0. -1.
       -5    1    3    3    0  502 -0.21464714478E+03 -0.45928523032E+02 -0.19396553667E+04  0.19520419713E+04  0.46999998093E+01 0.  1.
</event>
<event>
 5   0  0.5281187E-07  0.3189373E+04  0.7818609E-02  0.8191629E-01
        1   -1    0    0  501    0  0.00000000000E+00  0.00000000000E+00  0.17881476305E+04  0.17881476305E+04  0.50400001928E-02 0.  1.
       -1   -1    0    0    0  501  0.00000000000E+00  0.00000000000E+00 -0.14221557561E+04  0.14221557561E+04  0.50400001928E-02 0. -1.
    10030    2    1    2    0    0  0.00000000000E+00  0.00000000000E+00  0.36599187441E+03  0.32103033866E+04  0.31893726314E+04 0.  0.
        5    1    3    3  502    0  0.15067787911E+04 -0.90554558367E+02 -0.33459645444E+03  0.15461433733E+04  0.46999998093E+01 0. -1.
       -5    1    3    3    0  502 -0.15067787911E+04  0.90554558367E+02  0.70058832885E+03  0.16641600133E+04  0.46999998093E+01 0.  1.
</event>
<event>
 5   0  0.1538349E-06  0.3224720E+04  0.7818609E-02  0.8182319E-01
       -2   -1    0    0    0  501  0.00000000000E+00  0.00000000000E+00  0.13804513230E+04  0.13804513230E+04  0.25500000920E-02 0. -1.
        2   -1    0    0  501    0  0.00000000000E+00  0.00000000000E+00 -0.18832277595E+04  0.18832277595E+04  0.25500000920E-02 0.  1.
    10030    2    1    2    0    0  0.00000000000E+00  0.00000000000E+00 -0.50277643652E+03  0.32636790826E+04  0.32247196791E+04 0.  0.
        1    1    3    3  502    0 -0.45738050518E+03 -0.13276061987E+04 -0.10534071493E+04  0.17553921977E+04  0.50400001928E-02 0.  1.
       -1    1    3    3    0  502  0.45738050518E+03  0.13276061987E+04  0.55063071282E+03  0.15082868849E+04  0.50400001928E-02 0. -1.
</event>
<event>
 5   0  0.5281187E-07  0.3248201E+04  0.7818609E-02  0.8176202E-01
        1   -1    0    0  501    0  0.00000000000E+00  0.00000000000E+00  0.18134877890E+04  0.18134877890E+04  0.50400001928E-02 0.  1.
       -1   -1    0    0    0  501  0.00000000000E+00  0.00000000000E+00 -0.14544915090E+04  0.14544915090E+04  0.50400001928E-02 0. -1.
    10030    2    1    2    0    0  0.00000000000E+00  0.00000000000E+00  0.35899627994E+03  0.32679792980E+04  0.32482010965E+04 0.  0.
        5    1    3    3  502    0  0.49420730061E+03 -0.14794709203E+04  0.63458571384E+03  0.16839822381E+04  0.46999998093E+01 0.  1.
       -5    1    3    3    0  502 -0.49420730061E+03  0.14794709203E+04 -0.27558943390E+03  0.15839970600E+04  0.46999998093E+01 0. -1.
</event>
<event>
 5   0  0.1493485E-06  0.3183276E+04  0.7818609E-02  0.8193248E-01
        2   -1    0    0  501    0  0.00000000000E+00  0.00000000000E+00  0.13966950079E+04  0.13966950079E+04  0.25500000920E-02 0.  1.
       -2   -1    0    0    0  501  0.00000000000E+00  0.00000000000E+00 -0.18137904600E+04  0.18137904600E+04  0.25500000920E-02 0. -1.
    10030    2    1    2    0    0  0.00000000000E+00  0.00000000000E+00 -0.41709545208E+03  0.32104854679E+04  0.31832763505E+04 0.  0.
        2    1    3    3  502    0 -0.91055432337E+03  0.34185547478E+03 -0.14792126354E+04  0.17703232366E+04  0.25500000920E-02 0. -1.
       -2    1    3    3    0  502  0.91055432337E+03 -0.34185547478E+03  0.10621171833E+04  0.14401622313E+04  0.25500000920E-02 0.  1.
</event>
<event>
 5   0  0.5317728E-07  0.3197631E+04  0.7818609E-02  0.8189443E-01
        1   -1    0    0  501    0  0.00000000000E+00  0.00000000000E+00  0.16944250405E+04  0.16944250405E+04  0.50400001928E-02 0.  1.
       -1   -1    0    0    0  501  0.00000000000E+00  0.00000000000E+00 -0.15086010040E+04  0.15086010040E+04  0.50400001928E-02 0. -1.
    10030    2    1    2    0    0  0.00000000000E+00  0.00000000000E+00  0.18582403646E+03  0.32030260445E+04  0.31976311965E+04 0.  0.
        2    1    3    3  502    0  0.41470714583E+03  0.51781660555E+03  0.15500467340E+04  0.16860489114E+04  0.25500000920E-02 0.  1.
       -2    1    3    3    0  502 -0.41470714583E+03 -0.51781660555E+03 -0.13642226976E+04  0.15169771331E+04  0.25500000920E-02 0. -1.
</event>
<event>
 5   0  0.1572769E-06  0.3156114E+04  0.7818609E-02  0.8200505E-01
        2   -1    0    0  501    0  0.00000000000E+00  0.00000000000E+00  0.99964984787E+03  0.99964984788E+03  0.25500000920E-02 0.  1.
       -2   -1    0    0    0  501  0.00000000000E+00  0.00000000000E+00 -0.24911353965E+04  0.24911353965E+04  0.25500000920E-02 0. -1.
    10030    2    1    2    0    0  0.00000000000E+00  0.00000000000E+00 -0.14914855486E+04  0.34907852444E+04  0.31561135088E+04 0.  0.
        5    1    3    3  502    0  0.16286279064E+03 -0.51006673117E+03 -0.23875865890E+04  0.24468927579E+04  0.46999998093E+01 0. -1.
       -5    1    3    3    0  502 -0.16286279064E+03  0.51006673117E+03  0.89610104035E+03  0.10438924865E+04  0.46999998093E+01 0.  1.
</event>
<event>
 5   0  0.1508771E-06  0.3213450E+04  0.7818609E-02  0.8185274E-01
        2   -1    0    0  501    0  0.00000000000E+00  0.00000000000E+00  0.22729745939E+04  0.22729745939E+04  0.25500000920E-02 0.  1.
       -2   -1    0    0    0  501  0.00000000000E+00  0.00000000000E+00 -0.11357649702E+04  0.11357649702E+04  0.25500000920E-02 0. -1.
    10030    2    1    2    0    0  0.00000000000E+00  0.00000000000E+00  0.11372096238E+04  0.34087395641E+04  0.32134498110E+04 0.  0.
        4    1    3    3  502    0 -0.76665879601E+03 -0.12305968225E+04  0.13030924275E+04  0.19494065088E+04  0.12699999809E+01 0.  1.
       -4    1    3    3    0  502  0.76665879601E+03  0.12305968225E+04 -0.16588280373E+03  0.14593330553E+04  0.12699999809E+01 0. -1.
</event>
<event>
 5   0  0.1508771E-06  0.3188544E+04  0.7818609E-02  0.8191849E-01
        2   -1    0    0  501    0  0.00000000000E+00  0.00000000000E+00  0.13215749777E+04  0.13215749777E+04  0.25500000920E-02 0. -1.
       -2   -1    0    0    0  501  0.00000000000E+00  0.00000000000E+00 -0.19232384188E+04  0.19232384188E+04  0.25500000920E-02 0.  1.
    10030    2    1    2    0    0  0.00000000000E+00  0.00000000000E+00 -0.60166344102E+03  0.32448133965E+04  0.31885443516E+04 0.  0.
        4    1    3    3  502    0  0.33477938468E+03 -0.14408242918E+04 -0.90601130400E+03  0.17346209880E+04  0.12699999809E+01 0.  1.
       -4    1    3    3    0  502 -0.33477938468E+03  0.14408242918E+04  0.30434786298E+03  0.15101924085E+04  0.12699999809E+01 0. -1.
</event>
<event>
 5   0  0.5281187E-07  0.3185846E+04  0.7818609E-02  0.8192565E-01
       -1   -1    0    0    0  501  0.00000000000E+00  0.00000000000E+00  0.12968898870E+04  0.12968898870E+04  0.50400001928E-02 0. -1.
        1   -1    0    0  501    0  0.00000000000E+00  0.00000000000E+00 -0.19565292195E+04  0.19565292196E+04  0.50400001928E-02 0.  1.
    10030    2    1    2    0    0  0.00000000000E+00  0.00000000000E+00 -0.65963933253E+03  0.32534191066E+04  0.31858455446E+04 0.  0.
        5    1    3    3  502    0 -0.18034265537E+03  0.18770368035E+03  0.12750167786E+04  0.13013247176E+04  0.46999998093E+01 0. -1.
       -5    1    3    3    0  502  0.18034265537E+03 -0.18770368035E+03 -0.19346561111E+04  0.19520943889E+04  0.46999998093E+01 0.  1.
</event>
<event>
 5   0  0.4995625E-07  0.3214757E+04  0.7818609E-02  0.8184931E-01
       -3   -1    0    0    0  501  0.00000000000E+00  0.00000000000E+00  0.27022088172E+04  0.27022088191E+04  0.10100000352E+00 0.  1.
        3   -1    0    0  501    0  0.00000000000E+00  0.00000000000E+00 -0.95613122871E+03  0.95613123404E+03  0.10100000352E+00 0. -1.
    10030    2    1    2    0    0  0.00000000000E+00  0.00000000000E+00  0.17460775885E+04  0.36583400532E+04  0.32147573780E+04 0.  0.
        2    1    3    3  502    0  0.20409277855E+03  0.11823572226E+04  0.20902254808E+04  0.24101172222E+04  0.25500000920E-02 0.  1.
       -2    1    3    3    0  502 -0.20409277855E+03 -0.11823572226E+04 -0.34414789222E+03  0.12482228310E+04  0.25500000920E-02 0. -1.
</event>
<event>
 5   0  0.5281187E-07  0.3202817E+04  0.7818609E-02  0.8188074E-01
        1   -1    0    0  501    0  0.00000000000E+00  0.00000000000E+00  0.19735982577E+04  0.19735982577E+04  0.50400001928E-02 0.  1.
       -1   -1    0    0    0  501  0.00000000000E+00  0.00000000000E+00 -0.12994080588E+04  0.12994080588E+04  0.50400001928E-02 0. -1.
    10030    2    1    2    0    0  0.00000000000E+00  0.00000000000E+00  0.67419019885E+03  0.32730063165E+04  0.32028171855E+04 0.  0.
        5    1    3    3  502    0  0.84187740886E+03  0.82170370380E+02 -0.10524752785E+04  0.13502725070E+04  0.46999998093E+01 0. -1.
       -5    1    3    3    0  502 -0.84187740886E+03 -0.82170370380E+02  0.17266654774E+04  0.19227338095E+04  0.46999998093E+01 0.  1.
</event>
<event>
 5   0  0.1508771E-06  0.3242434E+04  0.7818609E-02  0.8177700E-01
        2   -1    0    0  501    0  0.00000000000E+00  0.00000000000E+00  0.14502737538E+04  0.14502737538E+04  0.25500000920E-02 0.  1.
       -2   -1    0    0    0  501  0.00000000000E+00  0.00000000000E+00 -0.18123088258E+04  0.18123088258E+04  0.25500000920E-02 0. -1.
    10030    2    1    2    0    0  0.00000000000E+00  0.00000000000E+00 -0.36203507194E+03  0.32625825796E+04  0.32424336069E+04 0.  0.
        4    1    3    3  502    0  0.69001878192E+03 -0.90740265826E+03  0.97889767943E+03  0.15025803750E+04  0.12699999809E+01 0.  1.
       -4    1    3    3    0  502 -0.69001878192E+03  0.90740265826E+03 -0.13409327514E+04  0.17600022046E+04  0.12699999809E+01 0. -1.
</event>
<event>
 5   0  0.1572769E-06  0.3184496E+04  0.7818609E-02  0.8192924E-01
       -2   -1    0    0    0  501  0.00000000000E+00  0.00000000000E+00  0.18294209304E+04  0.18294209304E+04  0.25500000920E-02 0.  1.
        2   -1    0    0  501    0  0.00000000000E+00  0.00000000000E+00 -0.13858232542E+04  0.13858232542E+04  0.25500000920E-02 0. -1.
    10030    2    1    2    0    0  0.00000000000E+00  0.00000000000E+00  0.44359767621E+03  0.32152441846E+04  0.31844962346E+04 0.  0.
        5    1    3    3  502    0 -0.30877462141E+03  0.10527573117E+04  0.13868871664E+04  0.17683658633E+04  0.46999998093E+01 0.  1.
       -5    1    3    3    0  502  0.30877462141E+03 -0.10527573117E+04 -0.94328949020E+03  0.14468783213E+04  0.46999998093E+01 0. -1.
</event>
<event>
 5   0  0.5177039E-07  0.3230336E+04  0.7818609E-02  0.8180851E-01
        1   -1    0    0  501    0  0.00000000000E+00  0.00000000000E+00  0.21539966615E+04  0.21539966615E+04  0.50400001928E-02 0.  1.
       -1   -1    0    0    0  501  0.00000000000E+00  0.00000000000E+00 -0.12111289148E+04  0.12111289148E+04  0.50400001928E-02 0. -1.
    10030    2    1    2    0    0  0.00000000000E+00  0.00000000000E+00  0.94286774668E+03  0.33651255763E+04  0.32303359819E+04 0.  0.
        3    1    3    3  502    0 -0.10946529371E+04 -0.11763649539E+04  0.30131621932E+03  0.16348978658E+04  0.10100000352E+00 0. -1.
       -3    1    3    3    0  502  0.10946529371E+04  0.11763649539E+04  0.64155152736E+03  0.17302277104E+04  0.10100000352E+00 0.  1.
</event>
<event>
 5   0  0.1508771E-06  0.3211278E+04  0.7818609E-02  0.8185845E-01
       -2   -1    0    0    0  501  0.00000000000E+00  0.00000000000E+00  0.11819612076E+04  0.11819612076E+04  0.25500000920E-02 0. -1.
        2   -1    0    0  501    0  0.00000000000E+00  0.00000000000E+00 -0.21811859255E+04  0.21811859255E+04  0.25500000920E-02 0.  1.
    10030    2    1    2    0    0  0.00000000000E+00  0.00000000000E+00 -0.99922471798E+03  0.33631471331E+04  0.32112783439E+04 0.  0.
        4    1    3    3  502    0 -0.28523711548E+03 -0.53506306502E+03  0.10574485332E+04  0.12189551710E+04  0.12699999809E+01 0. -1.
       -4    1    3    3    0  502  0.28523711548E+03  0.53506306502E+03 -0.20566732512E+04  0.21441919621E+04  0.12699999809E+01 0.  1.
</event>
<event>
 5   0  0.1538349E-06  0.3207782E+04  0.7818609E-02  0.8186765E-01
        2   -1    0    0  501    0  0.00000000000E+00  0.00000000000E+00  0.21652686794E+04  0.21652686794E+04  0.25500000920E-02 0.  1.
       -2   -1    0    0    0  501  0.00000000000E+00  0.00000000000E+00 -0.11880587979E+04  0.11880587979E+04  0.25500000920E-02 0. -1.
    10030    2    1    2    0    0  0.00000000000E+00  0.00000000000E+00  0.97720988153E+03  0.33533274772E+04  0.32077821025E+04 0.  0.
        1    1    3    3  502    0  0.76545942229E+03 -0.22023564780E+02  0.19618213981E+04  0.21059810926E+04  0.50400001928E-02 0.  1.
       -1    1    3    3    0  502 -0.76545942229E+03  0.22023564780E+02 -0.98461151656E+03  0.12473463846E+04  0.50400001928E-02 0. -1.
</event>
<event>
 5   0  0.5177039E-07  0.3222903E+04  0.7818609E-02  0.8182795E-01
       -1   -1    0    0    0  501  0.00000000000E+00  0.00000000000E+00  0.13961327374E+04  0.13961327374E+04  0.50400001928E-02 0.  1.
        1   -1    0    0  501    0  0.00000000000E+00  0.00000000000E+00 -0.18599783029E+04  0.18599783030E+04  0.50400001928E-02 0. -1.
    10030    2    1    2    0    0  0.00000000000E+00  0.00000000000E+00 -0.46384556552E+03  0.32561110404E+04  0.32229034113E+04 0.  0.
        3    1    3    3  502    0  0.84085989110E+03  0.11967873509E+04 -0.91522816469E+03  0.17253950050E+04  0.10100000352E+00 0. -1.
       -3    1    3    3    0  502 -0.84085989110E+03 -0.11967873509E+04  0.45138259917E+03  0.15307160353E+04  0.10100000352E+00 0.  1.
</event>
<event>
 5   0  0.1556396E-06  0.3305451E+04  0.7818609E-02  0.8161510E-01
       -2   -1    0    0    0  501  0.00000000000E+00  0.00000000000E+00  0.19441325928E+04  0.19441325928E+04  0.25500000920E-02 0. -1.
        2   -1    0    0  501    0  0.00000000000E+00  0.00000000000E+00 -0.14049972157E+04  0.14049972157E+04  0.25500000920E-02 0.  1.
    10030    2    1    2    0    0  0.00000000000E+00  0.00000000000E+00  0.53913537711E+03  0.33491298085E+04  0.33054505774E+04 0.  0.
        3    1    3    3  502    0 -0.25536912660E+03 -0.53671457483E+03  0.18320955772E+04  0.19260971263E+04  0.10100000352E+00 0. -1.
       -3    1    3    3    0  502  0.25536912660E+03  0.53671457483E+03 -0.12929602001E+04  0.14230326823E+04  0.10100000352E+00 0.  1.
</event>
<event>
 5   0  0.5177039E-07  0.3191357E+04  0.7818609E-02  0.8191103E-01
       -1   -1    0    0    0  501  0.00000000000E+00  0.00000000000E+00  0.18209660856E+04  0.18209660856E+04  0.50400001928E-02 0.  1.
        1   -1    0    0  501    0  0.00000000000E+00  0.00000000000E+00 -0.13982635190E+04  0.13982635190E+04  0.50400001928E-02 0. -1.
    10030    2    1    2    0    0  0.00000000000E+00  0.00000000000E+00  0.42270256667E+03  0.32192296046E+04  0.31913573581E+04 0.  0.
        3    1    3    3  502    0  0.74024210033E+03 -0.25849773857E+03  0.16132410452E+04  0.17936906444E+04  0.10100000352E+00 0.  1.
       -3    1    3    3    0  502 -0.74024210033E+03  0.25849773857E+03 -0.11905384785E+04  0.14255389602E+04  0.10100000352E+00 0. -1.
</event>
<event>
 5   0  0.5281187E-07  0.3202328E+04  0.7818609E-02  0.8188203E-01
       -1   -1    0    0    0  501  0.00000000000E+00  0.00000000000E+00  0.13862375208E+04  0.13862375208E+04  0.50400001928E-02 0. -1.
        1   -1    0    0  501    0  0.00000000000E+00  0.00000000000E+00 -0.18494133044E+04  0.18494133044E+04  0.50400001928E-02 0.  1.
    10030    2    1    2    0    0  0.00000000000E+00  0.00000000000E+00 -0.46317578360E+03  0.32356508252E+04  0.32023279745E+04 0.  0.
        5    1    3    3  502    0  0.12337344924E+04  0.11799528216E+02 -0.12627286890E+04  0.17654307856E+04  0.46999998093E+01 0.  1.
       -5    1    3    3    0  502 -0.12337344924E+04 -0.11799528216E+02  0.79955290544E+03  0.14702200397E+04  0.46999998093E+01 0. -1.
</event>
<event>
 5   0  0.5370912E-07  0.3211402E+04  0.7818609E-02  0.8185812E-01
       -1   -1    0    0    0  501  0.00000000000E+00  0.00000000000E+00  0.13102077832E+04  0.13102077833E+04  0.50400001928E-02 0. -1.
        1   -1    0    0  501    0  0.00000000000E+00  0.00000000000E+00 -0.19678373745E+04  0.19678373745E+04  0.50400001928E-02 0.  1.
    10030    2    1    2    0    0  0.00000000000E+00  0.00000000000E+00 -0.65762959128E+03  0.32780451578E+04  0.32114020890E+04 0.  0.
        1    1    3    3  502    0  0.11917208661E+04  0.98990516478E+03  0.10204049071E+03  0.15525859460E+04  0.50400001928E-02 0.  1.
       -1    1    3    3    0  502 -0.11917208661E+04 -0.98990516478E+03 -0.75967008199E+03  0.17254592118E+04  0.50400001928E-02 0. -1.
</event>
<event>
 5   0  0.5370912E-07  0.3192916E+04  0.7818609E-02  0.8190691E-01
       -1   -1    0    0    0  501  0.00000000000E+00  0.00000000000E+00  0.15241360772E+04  0.15241360772E+04  0.50400001928E-02 0.  1.
        1   -1    0    0  501    0  0.00000000000E+00  0.00000000000E+00 -0.16722116618E+04  0.16722116618E+04  0.50400001928E-02 0. -1.
    10030    2    1    2    0    0  0.00000000000E+00  0.00000000000E+00 -0.14807558458E+03  0.31963477390E+04  0.31929159854E+04 0.  0.
        1    1    3    3  502    0  0.14670223722E+04 -0.53784501841E+03  0.25379887295E+03  0.15829863462E+04  0.50400001928E-02 0. -1.
       -1    1    3    3    0  502 -0.14670223722E+04  0.53784501841E+03 -0.40187445754E+03  0.16133613928E+04  0.50400001928E-02 0.  1.
</event>
<event>
 5   0  0.1556396E-06  0.3200970E+04  0.7818609E-02  0.8188561E-01
       -2   -1    0    0    0  501  0.00000000000E+00  0.00000000000E+00  0.14396281834E+04  0.14396281834E+04  0.25500000920E-02 0.  1.
        2   -1    0    0  501    0  0.00000000000E+00  0.00000000000E+00 -0.17793154091E+04  0.17793154091E+04  0.25500000920E-02 0. -1.
    10030    2    1    2    0    0  0.00000000000E+00  0.00000000000E+00 -0.33968722568E+03  0.32189435925E+04  0.32009702343E+04 0.  0.
        3    1    3    3  502    0  0.45752691092E+03 -0.32430232356E+02  0.13721186567E+04  0.14467522983E+04  0.10100000352E+00 0.  1.
       -3    1    3    3    0  502 -0.45752691092E+03  0.32430232356E+02 -0.17118058824E+04  0.17721912943E+04  0.10100000352E+00 0. -1.
</event>
<event>
 5   0  0.5370912E-07  0.3165793E+04  0.7818609E-02  0.8197910E-01
        1   -1    0    0  501    0  0.00000000000E+00  0.00000000000E+00  0.24135491318E+04  0.24135491318E+04  0.50400001928E-02 0.  1.
       -1   -1    0    0    0  501  0.00000000000E+00  0.00000000000E+00 -0.10381233516E+04  0.10381233516E+04  0.50400001928E-02 0. -1.
    10030    2    1    2    0    0  0.00000000000E+00  0.00000000000E+00  0.13754257802E+04  0.34516724835E+04  0.31657932428E+04 0.  0.
        1    1    3    3  502    0  0.58332276790E+03 -0.90650423479E+03  0.19514983571E+04  0.22294306935E+04  0.50400001928E-02 0.  1.
       -1    1    3    3    0  502 -0.58332276790E+03  0.90650423479E+03 -0.57607257694E+03  0.12222417900E+04  0.50400001928E-02 0. -1.
</event>
<event>
 5   0  0.5317728E-07  0.3227048E+04  0.7818609E-02  0.8181710E-01
       -1   -1    0    0    0  501  0.00000000000E+00  0.00000000000E+00  0.12350526699E+04  0.12350526699E+04  0.50400001928E-02 0.  1.
        1   -1    0    0  501    0  0.00000000000E+00  0.00000000000E+00 -0.21079749121E+04  0.21079749122E+04  0.50400001928E-02 0. -1.
    10030    2    1    2    0    0  0.00000000000E+00  0.00000000000E+00 -0.87292224224E+03  0.33430275821E+04  0.32270482137E+04 0.  0.
        2    1    3    3  502    0  0.11910801427E+04  0.10252402530E+04 -0.81521090207E+03  0.17704119006E+04  0.25500000920E-02 0. -1.
       -2    1    3    3    0  502 -0.11910801427E+04 -0.10252402530E+04 -0.57711340169E+02  0.15726156815E+04  0.25500000920E-02 0.  1.
</event>
<event>
 5   0  0.5281187E-07  0.3194636E+04  0.7818609E-02  0.8190235E-01
       -1   -1    0    0    0  501  0.00000000000E+00  0.00000000000E+00  0.20411755130E+04  0.20411755130E+04  0.50400001928E-02 0. -1.
        1   -1    0    0  501    0  0.00000000000E+00  0.00000000000E+00 -0.12499778481E+04  0.12499778481E+04  0.50400001928E-02 0.  1.
    10030    2    1    2    0    0  0.00000000000E+00  0.00000000000E+00  0.79119766490E+03  0.32911533610E+04  0.31946356132E+04 0.  0.
        5    1    3    3  502    0  0.12421514532E+04  0.63286186661E+03 -0.40766812918E+03  0.14524702298E+04  0.46999998093E+01 0.  1.
       -5    1    3    3    0  502 -0.12421514532E+04 -0.63286186661E+03  0.11988657941E+04  0.18386831312E+04  0.46999998093E+01 0. -1.
</event>
<event>
 5   0  0.1508771E-06  0.3201769E+04  0.7818609E-02  0.8188350E-01
       -2   -1    0    0    0  501  0.00000000000E+00  0.00000000000E+00  0.11814172651E+04  0.11814172651E+04  0.25500000920E-02 0.  1.
        2   -1    0    0  501    0  0.00000000000E+00  0.00000000000E+00 -0.21692847310E+04  0.21692847310E+04  0.25500000920E-02 0. -1.
    10030    2    1    2    0    0  0.00000000000E+00  0.00000000000E+00 -0.98786746588E+03  0.33507019961E+04  0.32017685326E+04 0.  0.
        4    1    3    3  502    0  0.13169004151E+04  0.82619067385E+03 -0.94045346602E+02  0.15574542924E+04  0.12699999809E+01 0.  1.
       -4    1    3    3    0  502 -0.13169004151E+04 -0.82619067385E+03 -0.89382211927E+03  0.17932477036E+04  0.12699999809E+01 0. -1.
</event>
<event>
 5   0  0.1556396E-06  0.3237993E+04  0.7818609E-02  0.8178855E-01
       -2   -1    0    0    0  501  0.00000000000E+00  0.00000000000E+00  0.11907748015E+04  0.11907748016E+04  0.25500000920E-02 0.  1.
        2   -1    0    0  501    0  0.00000000000E+00  0.00000000000E+00 -0.22012137891E+04  0.22012137891E+04  0.25500000920E-02 0. -1.
    10030    2    1    2    0    0  0.00000000000E+00  0.00000000000E+00 -0.10104389876E+04  0.33919885907E+04  0.32379931519E+04 0.  0.
        3    1    3    3  502    0  0.15871144258E+04  0.14807478624E+03 -0.20838565811E+03  0.16075705072E+04  0.10100000352E+00 0. -1.
       -3    1    3    3    0  502 -0.15871144258E+04 -0.14807478624E+03 -0.80205332947E+03  0.17844180834E+04  0.10100000352E+00 0.  1.
</event>
<event>
 5   0  0.5233813E-07  0.3208444E+04  0.7818609E-02  0.8186591E-01
        1   -1    0    0  501    0  0.00000000000E+00  0.00000000000E+00  0.13670978869E+04  0.13670978869E+04  0.50400001928E-02 0.  1.
       -1   -1    0    0    0  501  0.00000000000E+00  0.00000000000E+00 -0.18824759655E+04  0.18824759655E+04  0.50400001928E-02 0. -1.
    10030    2    1    2    0    0  0.00000000000E+00  0.00000000000E+00 -0.51537807860E+03  0.32495738523E+04  0.32084444296E+04 0.  0.
        4    1    3    3  502    0  0.50297478120E+03 -0.14641070401E+04  0.16833866300E+03  0.15572195008E+04  0.12699999809E+01 0.  1.
       -4    1    3    3    0  502 -0.50297478120E+03  0.14641070401E+04 -0.68371674160E+03  0.16923543515E+04  0.12699999809E+01 0. -1.
</event>
<event>
 5   0  0.5317728E-07  0.3198459E+04  0.7818609E-02  0.8189224E-01
        1   -1    0    0  501    0  0.00000000000E+00  0.00000000000E+00  0.19390624035E+04  0.19390624035E+04  0.50400001928E-02 0. -1.
       -1   -1    0    0    0  501  0.00000000000E+00  0.00000000000E+00 -0.13189544829E+04  0.13189544829E+04  0.50400001928E-02 0.  1.
    10030    2    1    2    0    0  0.00000000000E+00  0.00000000000E+00  0.62010792060E+03  0.32580168864E+04  0.31984590350E+04 0.  0.
        2    1    3    3  502    0  0.15461701633E+03 -0.11355494350E+04  0.14462413800E+04  0.18452623310E+04  0.25500000920E-02 0. -1.
       -2    1    3    3    0  502 -0.15461701633E+03  0.11355494350E+04 -0.82613345937E+03  0.14127545554E+04  0.25500000920E-02 0.  1.
</event>
<event>
 5   0  0.5233813E-07  0.3204515E+04  0.7818609E-02  0.8187626E-01
        1   -1    0    0  501    0  0.00000000000E+00  0.00000000000E+00  0.11482550248E+04  0.11482550248E+04  0.50400001928E-02 0. -1.
       -1   -1    0    0    0  501  0.00000000000E+00  0.00000000000E+00 -0.22357653046E+04  0.22357653046E+04  0.50400001928E-02 0.  1.
    10030    2    1    2    0    0  0.00000000000E+00  0.00000000000E+00 -0.10875102798E+04  0.33840203295E+04  0.32045147810E+04 0.  0.
        4    1    3    3  502    0  0.86247317701E+03 -0.55248875931E+03  0.75738540563E+03  0.12738673698E+04  0.12699999809E+01 0. -1.
       -4    1    3    3    0  502 -0.86247317701E+03  0.55248875931E+03 -0.18448956854E+04  0.21101529597E+04  0.12699999809E+01 0.  1.
</event>
<event>
 5   0  0.5370912E-07  0.3163906E+04  0.7818609E-02  0.8198415E-01
        1   -1    0    0  501    0  0.00000000000E+00  0.00000000000E+00  0.18699109280E+04  0.18699109280E+04  0.50400001928E-02 0. -1.
       -1   -1    0    0    0  501  0.00000000000E+00  0.00000000000E+00 -0.13383391289E+04  0.13383391289E+04  0.50400001928E-02 0.  1.
    10030    2    1    2    0    0  0.00000000000E+00  0.00000000000E+00  0.53157179908E+03  0.32082500568E+04  0.31639057903E+04 0.  0.
        1    1    3    3  502    0 -0.14108155481E+04 -0.11256330883E+03  0.98244749517E+03  0.17228679839E+04  0.50400001928E-02 0. -1.
       -1    1    3    3    0  502  0.14108155481E+04  0.11256330883E+03 -0.45087569610E+03  0.14853820729E+04  0.50400001928E-02 0.  1.
</event>
<event>
 5   0  0.4995625E-07  0.3209048E+04  0.7818609E-02  0.8186432E-01
        3   -1    0    0  501    0  0.00000000000E+00  0.00000000000E+00  0.10211057554E+04  0.10211057604E+04  0.10100000352E+00 0.  1.
       -3   -1    0    0    0  501  0.00000000000E+00  0.00000000000E+00 -0.25212831976E+04  0.25212831996E+04  0.10100000352E+00 0. -1.
    10030    2    1    2    0    0  0.00000000000E+00  0.00000000000E+00 -0.15001774422E+04  0.35423889600E+04  0.32090477070E+04 0.  0.
        5    1    3    3  502    0 -0.18081072333E+02 -0.13524483509E+04  0.20272348870E+03  0.13676850405E+04  0.46999998093E+01 0.  1.
       -5    1    3    3    0  502  0.18081072333E+02  0.13524483509E+04 -0.17029009309E+04  0.21747039195E+04  0.46999998093E+01 0. -1.
</event>
<event>
 5   0  0.5370912E-07  0.3195661E+04  0.7818609E-02  0.8189964E-01
       -1   -1    0    0    0  501  0.00000000000E+00  0.00000000000E+00  0.13029333310E+04  0.13029333310E+04  0.50400001928E-02 0.  1.
        1   -1    0    0  501    0  0.00000000000E+00  0.00000000000E+00 -0.19594727666E+04  0.19594727666E+04  0.50400001928E-02 0. -1.
    10030    2    1    2    0    0  0.00000000000E+00  0.00000000000E+00 -0.65653943562E+03  0.32624060976E+04  0.31956610451E+04 0.  0.
        1    1    3    3  502    0  0.90879258108E+03  0.12538459409E+04  0.73690873069E+02  0.15503109184E+04  0.50400001928E-02 0.  1.
       -1    1    3    3    0  502 -0.90879258108E+03 -0.12538459409E+04 -0.73023030869E+03  0.17120951792E+04  0.50400001928E-02 0. -1.
</event>
<event>
 5   0  0.1508771E-06  0.3199933E+04  0.7818609E-02  0.8188835E-01
        2   -1    0    0  501    0  0.00000000000E+00  0.00000000000E+00  0.20394835231E+04  0.20394835231E+04  0.25500000920E-02 0. -1.
       -2   -1    0    0    0  501  0.00000000000E+00  0.00000000000E+00 -0.12551673511E+04  0.12551673511E+04  0.25500000920E-02 0.  1.
    10030    2    1    2    0    0  0.00000000000E+00  0.00000000000E+00  0.78431617191E+03  0.32946508742E+04  0.31999332064E+04 0.  0.
        4    1    3    3  502    0  0.32904174682E+03  0.14894485733E+04 -0.10500753940E+03  0.15289714582E+04  0.12699999809E+01 0.  1.
       -4    1    3    3    0  502 -0.32904174682E+03 -0.14894485733E+04  0.88932371131E+03  0.17656794160E+04  0.12699999809E+01 0. -1.
</event>
<event>
 5   0  0.1508771E-06  0.3168645E+04  0.7818609E-02  0.8197147E-01
       -2   -1    0    0    0  501  0.00000000000E+00  0.00000000000E+00  0.23408171963E+04  0.23408171963E+04  0.25500000920E-02 0. -1.
        2   -1    0    0  501    0  0.00000000000E+00  0.00000000000E+00 -0.10723082595E+04  0.10723082595E+04  0.25500000920E-02 0.  1.
    10030    2    1    2    0    0  0.00000000000E+00  0.00000000000E+00  0.12685089369E+04  0.34131254558E+04  0.31686448924E+04 0.  0.
        4    1    3    3  502    0  0.85717369193E+03 -0.84570654831E+03  0.17433120231E+04  0.21187507467E+04  0.12699999809E+01 0. -1.
       -4    1    3    3    0  502 -0.85717369193E+03  0.84570654831E+03 -0.47480308619E+03  0.12943747091E+04  0.12699999809E+01 0.  1.
</event>
<event>
 5   0  0.5370912E-07  0.3190575E+04  0.7818609E-02  0.8191311E-01
        1   -1    0    0  501    0  0.00000000000E+00  0.00000000000E+00  0.13664975834E+04  0.13664975834E+04  0.50400001928E-02 0. -1.
       -1   -1    0    0    0  501  0.00000000000E+00  0.00000000000E+00 -0.18623837239E+04  0.18623837239E+04  0.50400001928E-02 0.  1.
    10030    2    1    2    0    0  0.00000000000E+00  0.00000000000E+00 -0.49588614051E+03  0.32288813074E+04  0.31905754078E+04 0.  0.
        1    1    3    3  502    0 -0.13361152312E+04  0.83327436541E+02  0.63011162648E+03  0.14795904956E+04  0.50400001928E-02 0. -1.
       -1    1    3    3    0  502  0.13361152312E+04 -0.83327436541E+02 -0.11259977670E+04  0.17492908118E+04  0.50400001928E-02 0.  1.
</event>
<event>
 5   0  0.5233813E-07  0.3201497E+04  0.7818609E-02  0.8188422E-01
        1   -1    0    0  501    0  0.00000000000E+00  0.00000000000E+00  0.10467134735E+04  0.10467134735E+04  0.50400001928E-02 0.  1.
       -1   -1    0    0    0  501  0.00000000000E+00  0.00000000000E+00 -0.24480397374E+04  0.24480397374E+04  0.50400001928E-02 0. -1.
    10030    2    1    2    0    0  0.00000000000E+00  0.00000000000E+00 -0.14013262639E+04  0.34947532109E+04  0.32014972603E+04 0.  0.
        4    1    3    3  502    0 -0.10318030991E+04 -0.83067781690E+02  0.63219595683E+03  0.12129267218E+04  0.12699999809E+01 0.  1.
       -4    1    3    3    0  502  0.10318030991E+04  0.83067781690E+02 -0.20335222207E+04  0.22818264892E+04  0.12699999809E+01 0. -1.
</event>
<event>
 5   0  0.1508771E-06  0.3178592E+04  0.7818609E-02  0.8194494E-01
       -2   -1    0    0    0  501  0.00000000000E+00  0.00000000000E+00  0.18597621088E+04  0.18597621088E+04  0.25500000920E-02 0. -1.
        2   -1    0    0  501    0  0.00000000000E+00  0.00000000000E+00 -0.13581642434E+04  0.13581642434E+04  0.25500000920E-02 0.  1.
    10030    2    1    2    0    0  0.00000000000E+00  0.00000000000E+00  0.50159786536E+03  0.32179263522E+04  0.31785923912E+04 0.  0.
        4    1    3    3  502    0 -0.47554560271E+03  0.12749581609E+04 -0.58045797109E+03  0.14793900775E+04  0.12699999809E+01 0.  1.
       -4    1    3    3    0  502  0.47554560271E+03 -0.12749581609E+04  0.10820558364E+04  0.17385362747E+04  0.12699999809E+01 0. -1.
</event>
<event>
 5   0  0.1508771E-06  0.3256300E+04  0.7818609E-02  0.8174105E-01
        2   -1    0    0  501    0  0.00000000000E+00  0.00000000000E+00  0.13854438111E+04  0.13854438111E+04  0.25500000920E-02 0. -1.
       -2   -1    0    0    0  501  0.00000000000E+00  0.00000000000E+00 -0.19133744895E+04  0.19133744895E+04  0.25500000920E-02 0.  1.
    10030    2    1    2    0    0  0.00000000000E+00  0.00000000000E+00 -0.52793067834E+03  0.32988183006E+04  0.32563002594E+04 0.  0.
        4    1    3    3  502    0  0.52451700820E+03 -0.76476857652E+03  0.10917467134E+04  0.14324460083E+04  0.12699999809E+01 0. -1.
       -4    1    3    3    0  502 -0.52451700820E+03  0.76476857652E+03 -0.16196773917E+04  0.18663722923E+04  0.12699999809E+01 0.  1.
</event>
<event>
 5   0  0.1572769E-06  0.2946598E+04  0.7818609E-02  0.8259147E-01
        2   -1    0    0  501    0  0.00000000000E+00  0.00000000000E+00  0.20238841053E+04  0.20238841053E+04  0.25500000920E-02 0. -1.
       -2   -1    0    0    0  501  0.00000000000E+00  0.00000000000E+00 -0.10724972303E+04  0.10724972303E+04  0.25500000920E-02 0.  1.
    10030    2    1    2    0    0  0.00000000000E+00  0.00000000000E+00  0.95138687497E+03  0.30963813357E+04  0.29465981046E+04 0.  0.
        5    1    3    3  502    0 -0.78268306681E+02 -0.48851601904E+02  0.20208374868E+04  0.20229480085E+04  0.46999998093E+01 0. -1.
       -5    1    3    3    0  502  0.78268306681E+02  0.48851601904E+02 -0.10694506118E+04  0.10734333272E+04  0.46999998093E+01 0.  1.
</event>
<event>
 5   0  0.1538349E-06  0.3214078E+04  0.7818609E-02  0.8185109E-01
       -2   -1    0    0    0  501  0.00000000000E+00  0.00000000000E+00  0.25451836097E+04  0.25451836097E+04  0.25500000920E-02 0. -1.
        2   -1    0    0  501    0  0.00000000000E+00  0.00000000000E+00 -0.10146907849E+04  0.10146907849E+04  0.25500000920E-02 0.  1.
    10030    2    1    2    0    0  0.00000000000E+00  0.00000000000E+00  0.15304928248E+04  0.35598743946E+04  0.32140780044E+04 0.  0.
        1    1    3    3  502    0 -0.66177307966E+02  0.11032129166E+04  0.20574348783E+04  0.23354863420E+04  0.50400001928E-02 0. -1.
       -1    1    3    3    0  502  0.66177307966E+02 -0.11032129166E+04 -0.52694205353E+03  0.12243880525E+04  0.50400001928E-02 0.  1.
</event>
<event>
 5   0  0.5281187E-07  0.3202826E+04  0.7818609E-02  0.8188071E-01
        1   -1    0    0  501    0  0.00000000000E+00  0.00000000000E+00  0.17323339828E+04  0.17323339828E+04  0.50400001928E-02 0. -1.
       -1   -1    0    0    0  501  0.00000000000E+00  0.00000000000E+00 -0.14803859124E+04  0.14803859124E+04  0.50400001928E-02 0.  1.
    10030    2    1    2    0    0  0.00000000000E+00  0.00000000000E+00  0.25194807045E+03  0.32127198952E+04  0.32028255174E+04 0.  0.
        5    1    3    3  502    0  0.83008151398E+02 -0.51188322965E+02 -0.14773976013E+04  0.14806202618E+04  0.46999998093E+01 0.  1.
       -5    1    3    3    0  502 -0.83008151398E+02  0.51188322965E+02  0.17293456717E+04  0.17320996333E+04  0.46999998093E+01 0. -1.
</event>
<event>
 5   0  0.1572769E-06  0.3259317E+04  0.7818609E-02  0.8173325E-01
        2   -1    0    0  501    0  0.00000000000E+00  0.00000000000E+00  0.22177283876E+04  0.22177283876E+04  0.25500000920E-02 0. -1.
       -2   -1    0    0    0  501  0.00000000000E+00  0.00000000000E+00 -0.11975259521E+04  0.11975259521E+04  0.25500000920E-02 0.  1.
    10030    2    1    2    0    0  0.00000000000E+00  0.00000000000E+00  0.10202024356E+04  0.34152543397E+04  0.32593172898E+04 0.  0.
        5    1    3    3  502    0  0.11036477288E+04 -0.11930825449E+04  0.38488089574E+03  0.16702214411E+04  0.46999998093E+01 0.  1.
       -5    1    3    3    0  502 -0.11036477288E+04  0.11930825449E+04  0.63532153981E+03  0.17450328986E+04  0.46999998093E+01 0. -1.
</event>
<event>
 5   0  0.5317728E-07  0.3203692E+04  0.7818609E-02  0.8187843E-01
        1   -1    0    0  501    0  0.00000000000E+00  0.00000000000E+00  0.25830056460E+04  0.25830056460E+04  0.50400001928E-02 0. -1.
       -1   -1    0    0    0  501  0.00000000000E+00  0.00000000000E+00 -0.99338166088E+03  0.99338166089E+03  0.50400001928E-02 0.  1.
    10030    2    1    2    0    0  0.00000000000E+00  0.00000000000E+00  0.15896239851E+04  0.35763873068E+04  0.32036918945E+04 0.  0.
        2    1    3    3  502    0  0.71209796212E+03 -0.92654250932E+03  0.20178698746E+04  0.23318154644E+04  0.25500000920E-02 0. -1.
       -2    1    3    3    0  502 -0.71209796212E+03  0.92654250932E+03 -0.42824588948E+03  0.12445718425E+04  0.25500000920E-02 0.  1.
</event>
<event>
 5   0  0.1572769E-06  0.3196588E+04  0.7818609E-02  0.8189719E-01
        2   -1    0    0  501    0  0.00000000000E+00  0.00000000000E+00  0.24350001851E+04  0.24350001851E+04  0.25500000920E-02 0. -1.
       -2   -1    0    0    0  501  0.00000000000E+00  0.00000000000E+00 -0.10490935808E+04  0.10490935808E+04  0.25500000920E-02 0.  1.
    10030    2    1    2    0    0  0.00000000000E+00  0.00000000000E+00  0.13859066043E+04  0.34840937659E+04  0.31965875952E+04 0.  0.
        5    1    3    3  502    0  0.98322519529E+03  0.82784582355E+03 -0.34246853799E+03  0.13301756582E+04  0.46999998093E+01 0. -1.
       -5    1    3    3    0  502 -0.98322519529E+03 -0.82784582355E+03  0.17283751423E+04  0.21539181077E+04  0.46999998093E+01 0.  1.
</event>
<event>
 5   0  0.5177039E-07  0.3215750E+04  0.7818609E-02  0.8184670E-01
        1   -1    0    0  501    0  0.00000000000E+00  0.00000000000E+00  0.18857402191E+04  0.18857402191E+04  0.50400001928E-02 0.  1.
       -1   -1    0    0    0  501  0.00000000000E+00  0.00000000000E+00 -0.13709533924E+04  0.13709533924E+04  0.50400001928E-02 0. -1.
    10030    2    1    2    0    0  0.00000000000E+00  0.00000000000E+00  0.51478682663E+03  0.32566936115E+04  0.32157499596E+04 0.  0.
        3    1    3    3  502    0  0.13689248187E+03  0.15854340759E+04  0.24418377111E+02  0.15915203511E+04  0.10100000352E+00 0.  1.
       -3    1    3    3    0  502 -0.13689248187E+03 -0.15854340759E+04  0.49036844952E+03  0.16651732604E+04  0.10100000352E+00 0. -1.
</event>
<event>
 5   0  0.5233813E-07  0.3193721E+04  0.7818609E-02  0.8190477E-01
        1   -1    0    0  501    0  0.00000000000E+00  0.00000000000E+00  0.19015890533E+04  0.19015890533E+04  0.50400001928E-02 0. -1.
       -1   -1    0    0    0  501  0.00000000000E+00  0.00000000000E+00 -0.13409645225E+04  0.13409645225E+04  0.50400001928E-02 0.  1.
    10030    2    1    2    0    0  0.00000000000E+00  0.00000000000E+00  0.56062453084E+03  0.32425535759E+04  0.31937210003E+04 0.  0.
        4    1    3    3  502    0 -0.45920339028E+03 -0.55001158683E+03  0.17292211223E+04  0.18717873282E+04  0.12699999809E+01 0. -1.
       -4    1    3    3    0  502  0.45920339028E+03  0.55001158683E+03 -0.11685965915E+04  0.13707662477E+04  0.12699999809E+01 0.  1.
</event>
<event>
 5   0  0.5177039E-07  0.3199050E+04  0.7818609E-02  0.8189068E-01
        1   -1    0    0  501    0  0.00000000000E+00  0.00000000000E+00  0.15772674813E+04  0.15772674813E+04  0.50400001928E-02 0. -1.
       -1   -1    0    0    0  501  0.00000000000E+00  0.00000000000E+00 -0.16220962685E+04  0.16220962685E+04  0.50400001928E-02 0.  1.
    10030    2    1    2    0    0  0.00000000000E+00  0.00000000000E+00 -0.44828787239E+02  0.31993637498E+04  0.31990496688E+04 0.  0.
        3    1    3    3  502    0  0.14646127583E+03 -0.12280817124E+04 -0.10368334987E+04  0.16138956942E+04  0.10100000352E+00 0.  1.
       -3    1    3    3    0  502 -0.14646127583E+03  0.12280817124E+04  0.99200471144E+03  0.15854680556E+04  0.10100000352E+00 0. -1.
</event>
<event>
 5   0  0.5177039E-07  0.3210543E+04  0.7818609E-02  0.8186038E-01
       -1   -1    0    0    0  501  0.00000000000E+00  0.00000000000E+00  0.13414860083E+04  0.13414860083E+04  0.50400001928E-02 0.  1.
        1   -1    0    0  501    0  0.00000000000E+00  0.00000000000E+00 -0.19209270063E+04  0.19209270063E+04  0.50400001928E-02 0. -1.
    10030    2    1    2    0    0  0.00000000000E+00  0.00000000000E+00 -0.57944099809E+03  0.32624130146E+04  0.32105430705E+04 0.  0.
        3    1    3    3  502    0  0.89632958168E+03 -0.10925277937E+04  0.48407621568E+03  0.14937715661E+04  0.10100000352E+00 0.  1.
       -3    1    3    3    0  502 -0.89632958168E+03  0.10925277937E+04 -0.10635172138E+04  0.17686414485E+04  0.10100000352E+00 0. -1.
</event>
<event>
 5   0  0.1493485E-06  0.3203320E+04  0.7818609E-02  0.8187941E-01
       -2   -1    0    0    0  501  0.00000000000E+00  0.00000000000E+00  0.11232800609E+04  0.11232800609E+04  0.25500000920E-02 0.  1.
        2   -1    0    0  501    0  0.00000000000E+00  0.00000000000E+00 -0.22837713680E+04  0.22837713680E+04  0.25500000920E-02 0. -1.
    10030    2    1    2    0    0  0.00000000000E+00  0.00000000000E+00 -0.11604913071E+04  0.34070514289E+04  0.32033200535E+04 0.  0.
        2    1    3    3  502    0 -0.66167061753E+02  0.43641861344E+03  0.10573101076E+04  0.11457503872E+04  0.25500000920E-02 0.  1.
       -2    1    3    3    0  502  0.66167061753E+02 -0.43641861344E+03 -0.22178014147E+04  0.22613010417E+04  0.25500000920E-02 0. -1.
</event>
<event>
 5   0  0.5281187E-07  0.3211745E+04  0.7818609E-02  0.8185722E-01
        1   -1    0    0  501    0  0.00000000000E+00  0.00000000000E+00  0.16400204817E+04  0.16400204817E+04  0.50400001928E-02 0.  1.
       -1   -1    0    0    0  501  0.00000000000E+00  0.00000000000E+00 -0.15724358096E+04  0.15724358097E+04  0.50400001928E-02 0. -1.
    10030    2    1    2    0    0  0.00000000000E+00  0.00000000000E+00  0.67584672040E+02  0.32124562913E+04  0.32117452788E+04 0.  0.
        5    1    3    3  502    0  0.33348562921E+03 -0.11494481829E+03 -0.15332005433E+04  0.15732612536E+04  0.46999998093E+01 0. -1.
       -5    1    3    3    0  502 -0.33348562921E+03  0.11494481829E+03  0.16007852153E+04  0.16391950377E+04  0.46999998093E+01 0.  1.
</event>
<event>
 5   0  0.5317728E-07  0.3197817E+04  0.7818609E-02  0.8189394E-01
        1   -1    0    0  501    0  0.00000000000E+00  0.00000000000E+00  0.11578919931E+04  0.11578919931E+04  0.50400001928E-02 0. -1.
       -1   -1    0    0    0  501  0.00000000000E+00  0.00000000000E+00 -0.22078985441E+04  0.22078985441E+04  0.50400001928E-02 0.  1.
    10030    2    1    2    0    0  0.00000000000E+00  0.00000000000E+00 -0.10500065510E+04  0.33657905372E+04  0.31978167839E+04 0.  0.
        2    1    3    3  502    0  0.89717910624E+03 -0.19823915113E+02 -0.19178376799E+04  0.21174099043E+04  0.25500000920E-02 0.  1.
       -2    1    3    3    0  502 -0.89717910624E+03  0.19823915113E+02  0.86783112892E+03  0.12483806329E+04  0.25500000920E-02 0. -1.
</event>
<event>
 5   0  0.5177039E-07  0.3185034E+04  0.7818609E-02  0.8192781E-01
        1   -1    0    0  501    0  0.00000000000E+00  0.00000000000E+00  0.18129763388E+04  0.18129763388E+04  0.50400001928E-02 0. -1.
       -1   -1    0    0    0  501  0.00000000000E+00  0.00000000000E+00 -0.13988655875E+04  0.13988655875E+04  0.50400001928E-02 0.  1.
    10030    2    1    2    0    0  0.00000000000E+00  0.00000000000E+00  0.41411075135E+03  0.32118419263E+04  0.31850338845E+04 0.  0.
        3    1    3    3  502    0 -0.13935212965E+03  0.69122654136E+03 -0.12328626056E+04  0.14202687640E+04  0.10100000352E+00 0.  1.
       -3    1    3    3    0  502  0.13935212965E+03 -0.69122654136E+03  0.16469733569E+04  0.17915731624E+04  0.10100000352E+00 0. -1.
</event>
<event>
 5   0  0.1538349E-06  0.3197202E+04  0.7818609E-02  0.8189556E-01
        2   -1    0    0  501    0  0.00000000000E+00  0.00000000000E+00  0.21605362674E+04  0.21605362674E+04  0.25500000920E-02 0. -1.
       -2   -1    0    0    0  501  0.00000000000E+00  0.00000000000E+00 -0.11828200824E+04  0.11828200824E+04  0.25500000920E-02 0.  1.
    10030    2    1    2    0    0  0.00000000000E+00  0.00000000000E+00  0.97771618502E+03  0.33433563498E+04  0.31972023307E+04 0.  0.
        1    1    3    3  502    0 -0.41128368396E+03 -0.12153786912E+04 -0.50826433187E+03  0.13800841506E+04  0.50400001928E-02 0.  1.
       -1    1    3    3    0  502  0.41128368396E+03  0.12153786912E+04  0.14859805169E+04  0.19632721992E+04  0.50400001928E-02 0. -1.
</event>
<event>
 5   0  0.1493485E-06  0.3183638E+04  0.7818609E-02  0.8193152E-01
        2   -1    0    0  501    0  0.00000000000E+00  0.00000000000E+00  0.17278788484E+04  0.17278788484E+04  0.25500000920E-02 0. -1.
       -2   -1    0    0    0  501  0.00000000000E+00  0.00000000000E+00 -0.14664730382E+04  0.14664730382E+04  0.25500000920E-02 0.  1.
    10030    2    1    2    0    0  0.00000000000E+00  0.00000000000E+00  0.26140581014E+03  0.31943518866E+04  0.31836380099E+04 0.  0.
        2    1    3    3  502    0  0.87969342853E+03  0.11889096432E+04 -0.45993851852E+03  0.15488415377E+04  0.25500000920E-02 0.  1.
       -2    1    3    3    0  502 -0.87969342853E+03 -0.11889096432E+04  0.72134432866E+03  0.16455103489E+04  0.25500000920E-02 0. -1.
</event>
<event>
 5   0  0.5177039E-07  0.3207386E+04  0.7818609E-02  0.8186869E-01
        1   -1    0    0  501    0  0.00000000000E+00  0.00000000000E+00  0.27374673416E+04  0.27374673416E+04  0.50400001928E-02 0. -1.
       -1   -1    0    0    0  501  0.00000000000E+00  0.00000000000E+00 -0.93949277659E+03  0.93949277660E+03  0.50400001928E-02 0.  1.
    10030    2    1    2    0    0  0.00000000000E+00  0.00000000000E+00  0.17979745650E+04  0.36769601182E+04  0.32073857228E+04 0.  0.
        3    1    3    3  502    0  0.12803096391E+04 -0.88232921715E+03  0.13490631991E+04  0.20585599687E+04  0.10100000352E+00 0. -1.
       -3    1    3    3    0  502 -0.12803096391E+04  0.88232921715E+03  0.44891136597E+03  0.16184001496E+04  0.10100000352E+00 0.  1.
</event>
<event>
 5   0  0.1538349E-06  0.3188541E+04  0.7818609E-02  0.8191850E-01
        2   -1    0    0  501    0  0.00000000000E+00  0.00000000000E+00  0.16976386904E+04  0.16976386904E+04  0.25500000920E-02 0. -1.
       -2   -1    0    0    0  501  0.00000000000E+00  0.00000000000E+00 -0.14971963815E+04  0.14971963815E+04  0.25500000920E-02 0.  1.
    10030    2    1    2    0    0  0.00000000000E+00  0.00000000000E+00  0.20044230894E+03  0.31948350719E+04  0.31885410485E+04 0.  0.
        1    1    3    3  502    0 -0.47115733112E+03  0.14739684881E+04 -0.28410628767E+03  0.15733050300E+04  0.50400001928E-02 0.  1.
       -1    1    3    3    0  502  0.47115733112E+03 -0.14739684881E+04  0.48454859661E+03  0.16215300420E+04  0.50400001928E-02 0. -1.
</event>
<event>
 5   0  0.5370912E-07  0.3199200E+04  0.7818609E-02  0.8189028E-01
        1   -1    0    0  501    0  0.00000000000E+00  0.00000000000E+00  0.17650697487E+04  0.17650697487E+04  0.50400001928E-02 0.  1.
       -1   -1    0    0    0  501  0.00000000000E+00  0.00000000000E+00 -0.14496424861E+04  0.14496424861E+04  0.50400001928E-02 0. -1.
    10030    2    1    2    0    0  0.00000000000E+00  0.00000000000E+00  0.31542726263E+03  0.32147122347E+04  0.31991999616E+04 0.  0.
        1    1    3    3  502    0  0.11177692511E+04 -0.37696813681E+03  0.12433257015E+04  0.17138762718E+04  0.50400001928E-02 0.  1.
       -1    1    3    3    0  502 -0.11177692511E+04  0.37696813681E+03 -0.92789843889E+03  0.15008359630E+04  0.50400001928E-02 0. -1.
</event>
<event>
 5   0  0.5177039E-07  0.3023794E+04  0.7818609E-02  0.8236969E-01
        1   -1    0    0  501    0  0.00000000000E+00  0.00000000000E+00  0.19277080213E+04  0.19277080213E+04  0.50400001928E-02 0.  1.
       -1   -1    0    0    0  501  0.00000000000E+00  0.00000000000E+00 -0.11857772119E+04  0.11857772119E+04  0.50400001928E-02 0. -1.
    10030    2    1    2    0    0  0.00000000000E+00  0.00000000000E+00  0.74193080934E+03  0.31134852332E+04  0.30237938044E+04 0.  0.
        3    1    3    3  502    0  0.30029768369E+03 -0.37143816095E+03 -0.11060475968E+04  0.12047764535E+04  0.10100000352E+00 0. -1.
       -3    1    3    3    0  502 -0.30029768369E+03  0.37143816095E+03  0.18479784061E+04  0.19087087798E+04  0.10100000352E+00 0.  1.
</event>
<event>
 5   0  0.1508771E-06  0.3214620E+04  0.7818609E-02  0.8184967E-01
        2   -1    0    0  501    0  0.00000000000E+00  0.00000000000E+00  0.27453502159E+04  0.27453502159E+04  0.25500000920E-02 0. -1.
       -2   -1    0    0    0  501  0.00000000000E+00  0.00000000000E+00 -0.94102605201E+03  0.94102605202E+03  0.25500000920E-02 0.  1.
    10030    2    1    2    0    0  0.00000000000E+00  0.00000000000E+00  0.18043241639E+04  0.36863762679E+04  0.32146203976E+04 0.  0.
        4    1    3    3  502    0  0.99601938402E+02 -0.29375666037E+03 -0.90637751250E+03  0.95798503627E+03  0.12699999809E+01 0.  1.
       -4    1    3    3    0  502 -0.99601938402E+02  0.29375666037E+03  0.27107016764E+04  0.27283912317E+04  0.12699999809E+01 0. -1.
</event>
<event>
 5   0  0.1572769E-06  0.3207235E+04  0.7818609E-02  0.8186909E-01
        2   -1    0    0  501    0  0.00000000000E+00  0.00000000000E+00  0.12138177255E+04  0.12138177255E+04  0.25500000920E-02 0.  1.
       -2   -1    0    0    0  501  0.00000000000E+00  0.00000000000E+00 -0.21185959256E+04  0.21185959256E+04  0.25500000920E-02 0. -1.
    10030    2    1    2    0    0  0.00000000000E+00  0.00000000000E+00 -0.90477820011E+03  0.33324136512E+04  0.32072351256E+04 0.  0.
        5    1    3    3  502    0  0.14475299888E+03  0.14531708814E+02  0.12069397959E+04  0.12156851410E+04  0.46999998093E+01 0.  1.
       -5    1    3    3    0  502 -0.14475299888E+03 -0.14531708814E+02 -0.21117179960E+04  0.21167285102E+04  0.46999998093E+01 0. -1.
</event>
<event>
 5   0  0.1538349E-06  0.3144671E+04  0.7818609E-02  0.8203584E-01
       -2   -1    0    0    0  501  0.00000000000E+00  0.00000000000E+00  0.21244125720E+04  0.21244125720E+04  0.25500000920E-02 0. -1.
        2   -1    0    0  501    0  0.00000000000E+00  0.00000000000E+00 -0.11637285058E+04  0.11637285058E+04  0.25500000920E-02 0.  1.
    10030    2    1    2    0    0  0.00000000000E+00  0.00000000000E+00  0.96068406619E+03  0.32881410778E+04  0.31446713457E+04 0.  0.
        1    1    3    3  502    0  0.70516011290E+03 -0.20426970509E+03 -0.97351131425E+03  0.12193035620E+04  0.50400001928E-02 0.  1.
       -1    1    3    3    0  502 -0.70516011290E+03  0.20426970509E+03  0.19341953804E+04  0.20688375159E+04  0.50400001928E-02 0. -1.
</event>
<event>
 5   0  0.1572769E-06  0.3193244E+04  0.7818609E-02  0.8190604E-01
        2   -1    0    0  501    0  0.00000000000E+00  0.00000000000E+00  0.18127686991E+04  0.18127686991E+04  0.25500000920E-02 0. -1.
       -2   -1    0    0    0  501  0.00000000000E+00  0.00000000000E+00 -0.14062479879E+04  0.14062479879E+04  0.25500000920E-02 0.  1.
    10030    2    1    2    0    0  0.00000000000E+00  0.00000000000E+00  0.40652071121E+03  0.32190166869E+04  0.31932443286E+04 0.  0.
        5    1    3    3  502    0  0.66260427780E+03 -0.13345103496E+04  0.78166640610E+03  0.16825536433E+04  0.46999998093E+01 0.  1.
       -5    1    3    3    0  502 -0.66260427780E+03  0.13345103496E+04 -0.37514569489E+03  0.15364630437E+04  0.46999998093E+01 0. -1.
</event>
<event>
 5   0  0.1508771E-06  0.3166628E+04  0.7818609E-02  0.8197687E-01
        2   -1    0    0  501    0  0.00000000000E+00  0.00000000000E+00  0.18201982812E+04  0.18201982812E+04  0.25500000920E-02 0. -1.
       -2   -1    0    0    0  501  0.00000000000E+00  0.00000000000E+00 -0.13772579585E+04  0.13772579585E+04  0.25500000920E-02 0.  1.
    10030    2    1    2    0    0  0.00000000000E+00  0.00000000000E+00  0.44294032275E+03  0.31974562397E+04  0.31666275871E+04 0.  0.
        4    1    3    3  502    0 -0.12487918528E+04  0.70448995333E+03  0.89964400125E+03  0.16926748441E+04  0.12699999809E+01 0. -1.
       -4    1    3    3    0  502  0.12487918528E+04 -0.70448995333E+03 -0.45670367849E+03  0.15047813957E+04  0.12699999809E+01 0.  1.
</event>
<event>
 5   0  0.5177039E-07  0.3133497E+04  0.7818609E-02  0.8206605E-01
       -1   -1    0    0    0  501  0.00000000000E+00  0.00000000000E+00  0.19908209096E+04  0.19908209096E+04  0.50400001928E-02 0. -1.
        1   -1    0    0  501    0  0.00000000000E+00  0.00000000000E+00 -0.12330092644E+04  0.12330092644E+04  0.50400001928E-02 0.  1.
    10030    2    1    2    0    0  0.00000000000E+00  0.00000000000E+00  0.75781164522E+03  0.32238301740E+04  0.31334968487E+04 0.  0.
        3    1    3    3  502    0  0.14319048457E+03 -0.69866442585E+03  0.18141360680E+04  0.19492883774E+04  0.10100000352E+00 0. -1.
       -3    1    3    3    0  502 -0.14319048457E+03  0.69866442585E+03 -0.10563244228E+04  0.12745417966E+04  0.10100000352E+00 0.  1.
</event>
<event>
 5   0  0.5177039E-07  0.3224426E+04  0.7818609E-02  0.8182396E-01
       -1   -1    0    0    0  501  0.00000000000E+00  0.00000000000E+00  0.18012268296E+04  0.18012268296E+04  0.50400001928E-02 0.  1.
        1   -1    0    0  501    0  0.00000000000E+00  0.00000000000E+00 -0.14430335529E+04  0.14430335529E+04  0.50400001928E-02 0. -1.
    10030    2    1    2    0    0  0.00000000000E+00  0.00000000000E+00  0.35819327664E+03  0.32442603825E+04  0.32244259964E+04 0.  0.
        3    1    3    3  502    0  0.39974889565E+02  0.14862107485E+04  0.80647885423E+03  0.16913983958E+04  0.10100000352E+00 0.  1.
       -3    1    3    3    0  502 -0.39974889565E+02 -0.14862107485E+04 -0.44828557759E+03  0.15528619868E+04  0.10100000352E+00 0. -1.
</event>
<event>
 5   0  0.1556396E-06  0.3103657E+04  0.7818609E-02  0.8214735E-01
        2   -1    0    0  501    0  0.00000000000E+00  0.00000000000E+00  0.16892725836E+04  0.16892725836E+04  0.25500000920E-02 0.  1.
       -2   -1    0    0    0  501  0.00000000000E+00  0.00000000000E+00 -0.14255671542E+04  0.14255671542E+04  0.25500000920E-02 0. -1.
    10030    2    1    2    0    0  0.00000000000E+00  0.00000000000E+00  0.26370542942E+03  0.31148397377E+04  0.31036568815E+04 0.  0.
        3    1    3    3  502    0  0.13403141082E+04  0.17343753972E+03  0.89725983979E+03  0.16222199972E+04  0.10100000352E+00 0.  1.
       -3    1    3    3    0  502 -0.13403141082E+04 -0.17343753972E+03 -0.63355441037E+03  0.14926197406E+04  0.10100000352E+00 0. -1.
</event>
<event>
 5   0  0.1508771E-06  0.3207009E+04  0.7818609E-02  0.8186968E-01
       -2   -1    0    0    0  501  0.00000000000E+00  0.00000000000E+00  0.10662235718E+04  0.10662235718E+04  0.25500000920E-02 0. -1.
        2   -1    0    0  501    0  0.00000000000E+00  0.00000000000E+00 -0.24115274609E+04  0.24115274609E+04  0.25500000920E-02 0.  1.
    10030    2    1    2    0    0  0.00000000000E+00  0.00000000000E+00 -0.13453038891E+04  0.34777510327E+04  0.32070094624E+04 0.  0.
        4    1    3    3  502    0 -0.15211516233E+04  0.99436238511E+02 -0.12120752124E+04  0.19475414655E+04  0.12699999809E+01 0.  1.
       -4    1    3    3    0  502  0.15211516233E+04 -0.99436238511E+02 -0.13322867673E+03  0.15302095672E+04  0.12699999809E+01 0. -1.
</event>
<event>
 5   0  0.5317728E-07  0.3202510E+04  0.7818609E-02  0.8188155E-01
       -1   -1    0    0    0  501  0.00000000000E+00  0.00000000000E+00  0.17163854271E+04  0.17163854271E+04  0.50400001928E-02 0.  1.
        1   -1    0    0  501    0  0.00000000000E+00  0.00000000000E+00 -0.14938469834E+04  0.14938469834E+04  0.50400001928E-02 0. -1.
    10030    2    1    2    0    0  0.00000000000E+00  0.00000000000E+00  0.22253844365E+03  0.32102324105E+04  0.32025097612E+04 0.  0.
        2    1    3    3  502    0 -0.15246842750E+04  0.67110303788E+02  0.59705238823E+03  0.16387914711E+04  0.25500000920E-02 0.  1.
       -2    1    3    3    0  502  0.15246842750E+04 -0.67110303788E+02 -0.37451394458E+03  0.15714409394E+04  0.25500000920E-02 0. -1.
</event>
<event>
 5   0  0.5370912E-07  0.3209241E+04  0.7818609E-02  0.8186381E-01
        1   -1    0    0  501    0  0.00000000000E+00  0.00000000000E+00  0.14484351816E+04  0.14484351816E+04  0.50400001928E-02 0. -1.
       -1   -1    0    0    0  501  0.00000000000E+00  0.00000000000E+00 -0.17776474773E+04  0.17776474773E+04  0.50400001928E-02 0.  1.
    10030    2    1    2    0    0  0.00000000000E+00  0.00000000000E+00 -0.32921229573E+03  0.32260826589E+04  0.32092411231E+04 0.  0.
        1    1    3    3  502    0  0.34764667794E+03  0.94297934699E+03 -0.14220658606E+04  0.17413614138E+04  0.50400001928E-02 0.  1.
       -1    1    3    3    0  502 -0.34764667794E+03 -0.94297934699E+03  0.10928535648E+04  0.14847212451E+04  0.50400001928E-02 0. -1.
</event>
<event>
 5   0  0.5317728E-07  0.3161591E+04  0.7818609E-02  0.8199035E-01
        1   -1    0    0  501    0  0.00000000000E+00  0.00000000000E+00  0.11511670334E+04  0.11511670334E+04  0.50400001928E-02 0. -1.
       -1   -1    0    0    0  501  0.00000000000E+00  0.00000000000E+00 -0.21707665138E+04  0.21707665138E+04  0.50400001928E-02 0.  1.
    10030    2    1    2    0    0  0.00000000000E+00  0.00000000000E+00 -0.10195994804E+04  0.33219335472E+04  0.31615912752E+04 0.  0.
        2    1    3    3  502    0  0.14121358953E+04 -0.40755443693E+02 -0.12550868676E+04  0.18897173964E+04  0.25500000920E-02 0.  1.
       -2    1    3    3    0  502 -0.14121358953E+04  0.40755443693E+02  0.23548738718E+03  0.14322161508E+04  0.25500000920E-02 0. -1.
</event>
<event>
 5   0  0.1508771E-06  0.3140561E+04  0.7818609E-02  0.8204694E-01
        2   -1    0    0  501    0  0.00000000000E+00  0.00000000000E+00  0.13133598479E+04  0.13133598479E+04  0.25500000920E-02 0.  1.
       -2   -1    0    0    0  501  0.00000000000E+00  0.00000000000E+00 -0.18774605694E+04  0.18774605694E+04  0.25500000920E-02 0. -1.
    10030    2    1    2    0    0  0.00000000000E+00  0.00000000000E+00 -0.56410072154E+03  0.31908204174E+04  0.31405613052E+04 0.  0.
        4    1    3    3  502    0  0.11049225468E+04 -0.22723921903E+03  0.82780852436E+03  0.13991997938E+04  0.12699999809E+01 0.  1.
       -4    1    3    3    0  502 -0.11049225468E+04  0.22723921903E+03 -0.13919092459E+04  0.17916206236E+04  0.12699999809E+01 0. -1.
</event>
<event>
 5   0  0.1508771E-06  0.3053729E+04  0.7818609E-02  0.8228553E-01
       -2   -1    0    0    0  501  0.00000000000E+00  0.00000000000E+00  0.85921035447E+03  0.85921035448E+03  0.25500000920E-02 0.  1.
        2   -1    0    0  501    0  0.00000000000E+00  0.00000000000E+00 -0.27133225730E+04  0.27133225730E+04  0.25500000920E-02 0. -1.
    10030    2    1    2    0    0  0.00000000000E+00  0.00000000000E+00 -0.18541122186E+04  0.35725329275E+04  0.30537287697E+04 0.  0.
        4    1    3    3  502    0 -0.10744193566E+03 -0.14979401933E+04 -0.60465661115E+03  0.16189440455E+04  0.12699999809E+01 0.  1.
       -4    1    3    3    0  502  0.10744193566E+03  0.14979401933E+04 -0.12494556074E+04  0.19535888820E+04  0.12699999809E+01 0. -1.
</event>
<event>
 5   0  0.1572769E-06  0.3198199E+04  0.7818609E-02  0.8189293E-01
        2   -1    0    0  501    0  0.00000000000E+00  0.00000000000E+00  0.19959169796E+04  0.19959169796E+04  0.25500000920E-02 0. -1.
       -2   -1    0    0    0  501  0.00000000000E+00  0.00000000000E+00 -0.12811753312E+04  0.12811753312E+04  0.25500000920E-02 0.  1.
    10030    2    1    2    0    0  0.00000000000E+00  0.00000000000E+00  0.71474164841E+03  0.32770923109E+04  0.31981992417E+04 0.  0.
        5    1    3    3  502    0  0.46012693584E+03  0.91726007378E+03 -0.89926430087E+03  0.13644710377E+04  0.46999998093E+01 0.  1.
       -5    1    3    3    0  502 -0.46012693584E+03 -0.91726007378E+03  0.16140059493E+04  0.19126212731E+04  0.46999998093E+01 0. -1.
</event>
<event>
 5   0  0.5177039E-07  0.3171060E+04  0.7818609E-02  0.8196502E-01
        1   -1    0    0  501    0  0.00000000000E+00  0.00000000000E+00  0.10430854909E+04  0.10430854909E+04  0.50400001928E-02 0. -1.
       -1   -1    0    0    0  501  0.00000000000E+00  0.00000000000E+00 -0.24100662773E+04  0.24100662773E+04  0.50400001928E-02 0.  1.
    10030    2    1    2    0    0  0.00000000000E+00  0.00000000000E+00 -0.13669807864E+04  0.34531517682E+04  0.31710598644E+04 0.  0.
        3    1    3    3  502    0  0.13859940272E+04  0.12192088471E+03 -0.15114288664E+04  0.20543274749E+04  0.10100000352E+00 0.  1.
       -3    1    3    3    0  502 -0.13859940272E+04 -0.12192088471E+03  0.14444807997E+03  0.13988242933E+04  0.10100000352E+00 0. -1.
</event>
<event>
 5   0  0.5317728E-07  0.3209688E+04  0.7818609E-02  0.8186263E-01
       -1   -1    0    0    0  501  0.00000000000E+00  0.00000000000E+00  0.10303051554E+04  0.10303051554E+04  0.50400001928E-02 0. -1.
        1   -1    0    0  501    0  0.00000000000E+00  0.00000000000E+00 -0.24997680164E+04  0.24997680164E+04  0.50400001928E-02 0.  1.
    10030    2    1    2    0    0  0.00000000000E+00  0.00000000000E+00 -0.14694628610E+04  0.35300731718E+04  0.32096877571E+04 0.  0.
        2    1    3    3  502    0  0.14458168787E+04 -0.16328781940E+03  0.99637139756E+01  0.14550424854E+04  0.25500000920E-02 0. -1.
       -2    1    3    3    0  502 -0.14458168787E+04  0.16328781940E+03 -0.14794265750E+04  0.20750306864E+04  0.25500000920E-02 0.  1.
</event>
<event>
 5   0  0.1538349E-06  0.2813596E+04  0.7818609E-02  0.8299060E-01
        2   -1    0    0  501    0  0.00000000000E+00  0.00000000000E+00  0.16295663865E+04  0.16295663865E+04  0.25500000920E-02 0. -1.
       -2   -1    0    0    0  501  0.00000000000E+00  0.00000000000E+00 -0.12144830354E+04  0.12144830354E+04  0.25500000920E-02 0.  1.
    10030    2    1    2    0    0  0.00000000000E+00  0.00000000000E+00  0.41508335118E+03  0.28440494219E+04  0.28135960843E+04 0.  0.
        1    1    3    3  502    0  0.12291516046E+03 -0.19077992257E+03 -0.11958571216E+04  0.12172014504E+04  0.50400001928E-02 0.  1.
       -1    1    3    3    0  502 -0.12291516046E+03  0.19077992257E+03  0.16109404728E+04  0.16268479715E+04  0.50400001928E-02 0. -1.
</event>
<event>
 5   0  0.5233813E-07  0.3121153E+04  0.7818609E-02  0.8209957E-01
       -1   -1    0    0    0  501  0.00000000000E+00  0.00000000000E+00  0.11048199481E+04  0.11048199481E+04  0.50400001928E-02 0.  1.
        1   -1    0    0  501    0  0.00000000000E+00  0.00000000000E+00 -0.22043403560E+04  0.22043403560E+04  0.50400001928E-02 0. -1.
    10030    2    1    2    0    0  0.00000000000E+00  0.00000000000E+00 -0.10995204080E+04  0.33091603041E+04  0.31211531188E+04 0.  0.
        4    1    3    3  502    0 -0.97900245210E+03 -0.38464446996E+03  0.67250455283E+03  0.12484635181E+04  0.12699999809E+01 0.  1.
       -4    1    3    3    0  502  0.97900245210E+03  0.38464446996E+03 -0.17720249608E+04  0.20606967861E+04  0.12699999809E+01 0. -1.
</event>
<event>
 5   0  0.1508771E-06  0.3200042E+04  0.7818609E-02  0.8188806E-01
       -2   -1    0    0    0  501  0.00000000000E+00  0.00000000000E+00  0.13759801769E+04  0.13759801769E+04  0.25500000920E-02 0. -1.
        2   -1    0    0  501    0  0.00000000000E+00  0.00000000000E+00 -0.18605404334E+04  0.18605404334E+04  0.25500000920E-02 0.  1.
    10030    2    1    2    0    0  0.00000000000E+00  0.00000000000E+00 -0.48456025654E+03  0.32365206103E+04  0.32000417214E+04 0.  0.
        4    1    3    3  502    0 -0.13843102638E+04  0.55758539327E+03  0.34122706059E+03  0.15308997019E+04  0.12699999809E+01 0. -1.
       -4    1    3    3    0  502  0.13843102638E+04 -0.55758539327E+03 -0.82578731712E+03  0.17056209085E+04  0.12699999809E+01 0.  1.
</event>
<event>
 5   0  0.4995625E-07  0.3197794E+04  0.7818609E-02  0.8189400E-01
        3   -1    0    0  501    0  0.00000000000E+00  0.00000000000E+00  0.10449660420E+04  0.10449660469E+04  0.10100000352E+00 0.  1.
       -3   -1    0    0    0  501  0.00000000000E+00  0.00000000000E+00 -0.24464631099E+04  0.24464631120E+04  0.10100000352E+00 0. -1.
    10030    2    1    2    0    0  0.00000000000E+00  0.00000000000E+00 -0.14014970679E+04  0.34914291589E+04  0.31977935425E+04 0.  0.
        5    1    3    3  502    0  0.58536434309E+03  0.14742205803E+04 -0.92039545061E+03  0.18338832049E+04  0.46999998093E+01 0.  1.
       -5    1    3    3    0  502 -0.58536434309E+03 -0.14742205803E+04 -0.48110161730E+03  0.16575459541E+04  0.46999998093E+01 0. -1.
</event>
<event>
 5   0  0.1493485E-06  0.3193694E+04  0.7818609E-02  0.8190485E-01
        2   -1    0    0  501    0  0.00000000000E+00  0.00000000000E+00  0.15920390249E+04  0.15920390249E+04  0.25500000920E-02 0. -1.
       -2   -1    0    0    0  501  0.00000000000E+00  0.00000000000E+00 -0.16016695959E+04  0.16016695959E+04  0.25500000920E-02 0.  1.
    10030    2    1    2    0    0  0.00000000000E+00  0.00000000000E+00 -0.96305710584E+01  0.31937086208E+04  0.31936941003E+04 0.  0.
        2    1    3    3  502    0  0.11738213625E+04 -0.96253242123E+03  0.49076264170E+03  0.15953599040E+04  0.25500000920E-02 0. -1.
       -2    1    3    3    0  502 -0.11738213625E+04  0.96253242123E+03 -0.50039321276E+03  0.15983487167E+04  0.25500000920E-02 0.  1.
</event>
<event>
 5   0  0.5233813E-07  0.3214833E+04  0.7818609E-02  0.8184911E-01
       -1   -1    0    0    0  501  0.00000000000E+00  0.00000000000E+00  0.11047225150E+04  0.11047225150E+04  0.50400001928E-02 0.  1.
        1   -1    0    0  501    0  0.00000000000E+00  0.00000000000E+00 -0.23388567863E+04  0.23388567863E+04  0.50400001928E-02 0. -1.
    10030    2    1    2    0    0  0.00000000000E+00  0.00000000000E+00 -0.12341342713E+04  0.34435793014E+04  0.32148329669E+04 0.  0.
        4    1    3    3  502    0  0.11839068028E+04  0.10361416992E+04 -0.26413679717E+03  0.15953039833E+04  0.12699999809E+01 0.  1.
       -4    1    3    3    0  502 -0.11839068028E+04 -0.10361416992E+04 -0.96999747415E+03  0.18482753181E+04  0.12699999809E+01 0. -1.
</event>
<event>
 5   0  0.1508771E-06  0.3202256E+04  0.7818609E-02  0.8188222E-01
       -2   -1    0    0    0  501  0.00000000000E+00  0.00000000000E+00  0.15579596774E+04  0.15579596774E+04  0.25500000920E-02 0.  1.
        2   -1    0    0  501    0  0.00000000000E+00  0.00000000000E+00 -0.16454928707E+04  0.16454928707E+04  0.25500000920E-02 0. -1.
    10030    2    1    2    0    0  0.00000000000E+00  0.00000000000E+00 -0.87533193356E+02  0.32034525481E+04  0.32022564182E+04 0.  0.
        4    1    3    3  502    0 -0.92258562037E+03  0.13056348637E+04 -0.13190912678E+03  0.16041347371E+04  0.12699999809E+01 0. -1.
       -4    1    3    3    0  502  0.92258562037E+03 -0.13056348637E+04  0.44375933427E+02  0.15993178110E+04  0.12699999809E+01 0.  1.
</event>
<event>
 5   0  0.5177039E-07  0.3201409E+04  0.7818609E-02  0.8188445E-01
       -1   -1    0    0    0  501  0.00000000000E+00  0.00000000000E+00  0.14162836729E+04  0.14162836729E+04  0.50400001928E-02 0.  1.
        1   -1    0    0  501    0  0.00000000000E+00  0.00000000000E+00 -0.18091392762E+04  0.18091392762E+04  0.50400001928E-02 0. -1.
    10030    2    1    2    0    0  0.00000000000E+00  0.00000000000E+00 -0.39285560328E+03  0.32254229490E+04  0.32014087017E+04 0.  0.
        3    1    3    3  502    0  0.11438722330E+04  0.66026056608E+03 -0.11075713738E+04  0.17236885040E+04  0.10100000352E+00 0. -1.
       -3    1    3    3    0  502 -0.11438722330E+04 -0.66026056608E+03  0.71471577056E+03  0.15017344450E+04  0.10100000352E+00 0.  1.
</event>
<event>
 5   0  0.1572769E-06  0.3248704E+04  0.7818609E-02  0.8176072E-01
        2   -1    0    0  501    0  0.00000000000E+00  0.00000000000E+00  0.21891194055E+04  0.21891194055E+04  0.25500000920E-02 0.  1.
       -2   -1    0    0    0  501  0.00000000000E+00  0.00000000000E+00 -0.12052877168E+04  0.12052877168E+04  0.25500000920E-02 0. -1.
    10030    2    1    2    0    0  0.00000000000E+00  0.00000000000E+00  0.98383168872E+03  0.33944071224E+04  0.32487035754E+04 0.  0.
        5    1    3    3  502    0 -0.15091376194E+04 -0.22417580685E+03  0.10743626440E+04  0.18660193802E+04  0.46999998093E+01 0.  1.
       -5    1    3    3    0  502  0.15091376194E+04  0.22417580685E+03 -0.90530955254E+02  0.15283877422E+04  0.46999998093E+01 0. -1.
</event>
<event>
 5   0  0.1572769E-06  0.3195761E+04  0.7818609E-02  0.8189938E-01
        2   -1    0    0  501    0  0.00000000000E+00  0.00000000000E+00  0.16926597541E+04  0.16926597541E+04  0.25500000920E-02 0. -1.
       -2   -1    0    0    0  501  0.00000000000E+00  0.00000000000E+00 -0.15084082952E+04  0.15084082953E+04  0.25500000920E-02 0.  1.
    10030    2    1    2    0    0  0.00000000000E+00  0.00000000000E+00  0.18425145882E+03  0.32010680493E+04  0.31957609511E+04 0.  0.
        5    1    3    3  502    0  0.58065993164E+03  0.14715284385E+04  0.31752836528E+03  0.16135080583E+04  0.46999998093E+01 0.  1.
       -5    1    3    3    0  502 -0.58065993164E+03 -0.14715284385E+04 -0.13327690645E+03  0.15875599910E+04  0.46999998093E+01 0. -1.
</event>
<event>
 5   0  0.1538349E-06  0.3166617E+04  0.7818609E-02  0.8197689E-01
       -2   -1    0    0    0  501  0.00000000000E+00  0.00000000000E+00  0.91033959956E+03  0.91033959957E+03  0.25500000920E-02 0. -1.
        2   -1    0    0  501    0  0.00000000000E+00  0.00000000000E+00 -0.27537704559E+04  0.27537704559E+04  0.25500000920E-02 0.  1.
    10030    2    1    2    0    0  0.00000000000E+00  0.00000000000E+00 -0.18434308563E+04  0.36641100554E+04  0.31666173082E+04 0.  0.
        1    1    3    3  502    0 -0.27229043505E+03  0.10094715589E+04 -0.22974993640E+04  0.25242183417E+04  0.50400001928E-02 0.  1.
       -1    1    3    3    0  502  0.27229043505E+03 -0.10094715589E+04  0.45406850769E+03  0.11398917137E+04  0.50400001928E-02 0. -1.
</event>
<event>
 5   0  0.5233813E-07  0.3204636E+04  0.7818609E-02  0.8187594E-01
       -1   -1    0    0    0  501  0.00000000000E+00  0.00000000000E+00  0.11945012999E+04  0.11945012999E+04  0.50400001928E-02 0. -1.
        1   -1    0    0  501    0  0.00000000000E+00  0.00000000000E+00 -0.21493674889E+04  0.21493674889E+04  0.50400001928E-02 0.  1.
    10030    2    1    2    0    0  0.00000000000E+00  0.00000000000E+00 -0.95486618904E+03  0.33438687888E+04  0.32046355546E+04 0.  0.
        4    1    3    3  502    0  0.12052783276E+04  0.10553401997E+04 -0.51012918805E+03  0.16812710030E+04  0.12699999809E+01 0.  1.
       -4    1    3    3    0  502 -0.12052783276E+04 -0.10553401997E+04 -0.44473700099E+03  0.16625977858E+04  0.12699999809E+01 0. -1.
</event>
<event>
 5   0  0.5177039E-07  0.3184651E+04  0.7818609E-02  0.8192883E-01
       -1   -1    0    0    0  501  0.00000000000E+00  0.00000000000E+00  0.17183858855E+04  0.17183858855E+04  0.50400001928E-02 0. -1.
        1   -1    0    0  501    0  0.00000000000E+00  0.00000000000E+00 -0.14755128055E+04  0.14755128055E+04  0.50400001928E-02 0.  1.
    10030    2    1    2    0    0  0.00000000000E+00  0.00000000000E+00  0.24287308004E+03  0.31938986910E+04  0.31846509252E+04 0.  0.
        3    1    3    3  502    0  0.36366025564E+03 -0.23551292298E+03  0.16581343976E+04  0.17138041921E+04  0.10100000352E+00 0. -1.
       -3    1    3    3    0  502 -0.36366025564E+03  0.23551292298E+03 -0.14152613175E+04  0.14800944988E+04  0.10100000352E+00 0.  1.
</event>
<event>
 5   0  0.5177039E-07  0.3209020E+04  0.7818609E-02  0.8186439E-01
       -1   -1    0    0    0  501  0.00000000000E+00  0.00000000000E+00  0.91678016541E+03  0.91678016542E+03  0.50400001928E-02 0.  1.
        1   -1    0    0  501    0  0.00000000000E+00  0.00000000000E+00 -0.28081452511E+04  0.28081452511E+04  0.50400001928E-02 0. -1.
    10030    2    1    2    0    0  0.00000000000E+00  0.00000000000E+00 -0.18913650857E+04  0.37249254165E+04  0.32090197056E+04 0.  0.
        3    1    3    3  502    0 -0.18016787799E+03  0.18864596159E+02  0.90487175765E+03  0.92282676881E+03  0.10100000352E+00 0.  1.
       -3    1    3    3    0  502  0.18016787799E+03 -0.18864596159E+02 -0.27962368433E+04  0.28020986477E+04  0.10100000352E+00 0. -1.
</event>
<event>
 5   0  0.1508771E-06  0.3197821E+04  0.7818609E-02  0.8189393E-01
       -2   -1    0    0    0  501  0.00000000000E+00  0.00000000000E+00  0.17664347560E+04  0.17664347560E+04  0.25500000920E-02 0. -1.
        2   -1    0    0  501    0  0.00000000000E+00  0.00000000000E+00 -0.14472738580E+04  0.14472738580E+04  0.25500000920E-02 0.  1.
    10030    2    1    2    0    0  0.00000000000E+00  0.00000000000E+00  0.31916089795E+03  0.32137086140E+04  0.31978210358E+04 0.  0.
        4    1    3    3  502    0  0.39318059352E+03  0.15463996947E+04  0.56257999898E+02  0.15965931136E+04  0.12699999809E+01 0. -1.
       -4    1    3    3    0  502 -0.39318059352E+03 -0.15463996947E+04  0.26290289805E+03  0.16171155004E+04  0.12699999809E+01 0.  1.
</event>
<event>
 5   0  0.5281187E-07  0.3179683E+04  0.7818609E-02  0.8194203E-01
        1   -1    0    0  501    0  0.00000000000E+00  0.00000000000E+00  0.22826109350E+04  0.22826109350E+04  0.50400001928E-02 0.  1.
       -1   -1    0    0    0  501  0.00000000000E+00  0.00000000000E+00 -0.11073270189E+04  0.11073270189E+04  0.50400001928E-02 0. -1.
    10030    2    1    2    0    0  0.00000000000E+00  0.00000000000E+00  0.11752839161E+04  0.33899379539E+04  0.31796834823E+04 0.  0.
        5    1    3    3  502    0  0.63828152283E+02 -0.71316802174E+02 -0.11042454909E+04  0.11083953778E+04  0.46999998093E+01 0. -1.
       -5    1    3    3    0  502 -0.63828152283E+02  0.71316802174E+02  0.22795294070E+04  0.22815425762E+04  0.46999998093E+01 0.  1.
</event>
<event>
 5   0  0.5233813E-07  0.3113436E+04  0.7818609E-02  0.8212060E-01
       -1   -1    0    0    0  501  0.00000000000E+00  0.00000000000E+00  0.21870832117E+04  0.21870832117E+04  0.50400001928E-02 0. -1.
        1   -1    0    0  501    0  0.00000000000E+00  0.00000000000E+00 -0.11080376775E+04  0.11080376775E+04  0.50400001928E-02 0.  1.
    10030    2    1    2    0    0  0.00000000000E+00  0.00000000000E+00  0.10790455342E+04  0.32951208892E+04  0.31134357886E+04 0.  0.
        4    1    3    3  502    0  0.90583250439E+03  0.12422225246E+04  0.79815944450E+03  0.17322555927E+04  0.12699999809E+01 0. -1.
       -4    1    3    3    0  502 -0.90583250439E+03 -0.12422225246E+04  0.28088608969E+03  0.15628652965E+04  0.12699999809E+01 0.  1.
</event>
<event>
 5   0  0.5317728E-07  0.3165538E+04  0.7818609E-02  0.8197978E-01
       -1   -1    0    0    0  501  0.00000000000E+00  0.00000000000E+00  0.13337375619E+04  0.13337375619E+04  0.50400001928E-02 0.  1.
        1   -1    0    0  501    0  0.00000000000E+00  0.00000000000E+00 -0.18782988813E+04  0.18782988813E+04  0.50400001928E-02 0. -1.
    10030    2    1    2    0    0  0.00000000000E+00  0.00000000000E+00 -0.54456131946E+03  0.32120364432E+04  0.31655380399E+04 0.  0.
        2    1    3    3  502    0  0.14309585100E+04  0.60152361177E+02  0.41133449569E+03  0.14901196701E+04  0.25500000920E-02 0.  1.
       -2    1    3    3    0  502 -0.14309585100E+04 -0.60152361177E+02 -0.95589581516E+03  0.17219167731E+04  0.25500000920E-02 0. -1.
</event>
<event>
 5   0  0.1556396E-06  0.3194678E+04  0.7818609E-02  0.8190224E-01
        2   -1    0    0  501    0  0.00000000000E+00  0.00000000000E+00  0.22786914819E+04  0.22786914819E+04  0.25500000920E-02 0.  1.
       -2   -1    0    0    0  501  0.00000000000E+00  0.00000000000E+00 -0.11197182539E+04  0.11197182539E+04  0.25500000920E-02 0. -1.
    10030    2    1    2    0    0  0.00000000000E+00  0.00000000000E+00  0.11589732280E+04  0.33984097358E+04  0.31946783546E+04 0.  0.
        3    1    3    3  502    0 -0.12585422114E+04  0.31633631728E+03 -0.41130462724E+03  0.13613113788E+04  0.10100000352E+00 0. -1.
       -3    1    3    3    0  502  0.12585422114E+04 -0.31633631728E+03  0.15702778553E+04  0.20370983571E+04  0.10100000352E+00 0.  1.
</event>
<event>
 5   0  0.1508771E-06  0.3180055E+04  0.7818609E-02  0.8194104E-01
        2   -1    0    0  501    0  0.00000000000E+00  0.00000000000E+00  0.21040472514E+04  0.21040472514E+04  0.25500000920E-02 0.  1.
       -2   -1    0    0    0  501  0.00000000000E+00  0.00000000000E+00 -0.12015831626E+04  0.12015831626E+04  0.25500000920E-02 0. -1.
    10030    2    1    2    0    0  0.00000000000E+00  0.00000000000E+00  0.90246408875E+03  0.33056304140E+04  0.31800551886E+04 0.  0.
        4    1    3    3  502    0  0.86850699778E+03 -0.91292553487E+03 -0.55682983967E+03  0.13776060833E+04  0.12699999809E+01 0. -1.
       -4    1    3    3    0  502 -0.86850699778E+03  0.91292553487E+03  0.14592939284E+04  0.19280243307E+04  0.12699999809E+01 0.  1.
</event>
<event>
 5   0  0.1538349E-06  0.3170213E+04  0.7818609E-02  0.8196728E-01
       -2   -1    0    0    0  501  0.00000000000E+00  0.00000000000E+00  0.15007633055E+04  0.15007633055E+04  0.25500000920E-02 0. -1.
        2   -1    0    0  501    0  0.00000000000E+00  0.00000000000E+00 -0.16741902571E+04  0.16741902571E+04  0.25500000920E-02 0.  1.
    10030    2    1    2    0    0  0.00000000000E+00  0.00000000000E+00 -0.17342695164E+03  0.31749535626E+04  0.31702134340E+04 0.  0.
        1    1    3    3  502    0 -0.66415997862E+03 -0.11932837132E+04 -0.89260840388E+03  0.16314975514E+04  0.50400001928E-02 0.  1.
       -1    1    3    3    0  502  0.66415997862E+03  0.11932837132E+04  0.71918145224E+03  0.15434560113E+04  0.50400001928E-02 0. -1.
</event>
<event>
 5   0  0.1556396E-06  0.3172749E+04  0.7818609E-02  0.8196051E-01
        2   -1    0    0  501    0  0.00000000000E+00  0.00000000000E+00  0.15784693303E+04  0.15784693303E+04  0.25500000920E-02 0.  1.
       -2   -1    0    0    0  501  0.00000000000E+00  0.00000000000E+00 -0.15943194197E+04  0.15943194198E+04  0.25500000920E-02 0. -1.
    10030    2    1    2    0    0  0.00000000000E+00  0.00000000000E+00 -0.15850089486E+02  0.31727887500E+04  0.31727491592E+04 0.  0.
        3    1    3    3  502    0 -0.23382405294E+03 -0.12559580474E+04 -0.94840474463E+03  0.15910926668E+04  0.10100000352E+00 0. -1.
       -3    1    3    3    0  502  0.23382405294E+03  0.12559580474E+04  0.93255465515E+03  0.15816960832E+04  0.10100000352E+00 0.  1.
</event>
<event>
 5   0  0.5281187E-07  0.3193572E+04  0.7818609E-02  0.8190517E-01
       -1   -1    0    0    0  501  0.00000000000E+00  0.00000000000E+00  0.16546142758E+04  0.16546142758E+04  0.50400001928E-02 0.  1.
        1   -1    0    0  501    0  0.00000000000E+00  0.00000000000E+00 -0.15409790341E+04  0.15409790341E+04  0.50400001928E-02 0. -1.
    10030    2    1    2    0    0  0.00000000000E+00  0.00000000000E+00  0.11363524169E+03  0.31955933099E+04  0.31935722372E+04 0.  0.
        5    1    3    3  502    0  0.31152175848E+03  0.14593176358E+04  0.62555224115E+03  0.16180208480E+04  0.46999998093E+01 0.  1.
       -5    1    3    3    0  502 -0.31152175848E+03 -0.14593176358E+04 -0.51191699946E+03  0.15775724619E+04  0.46999998093E+01 0. -1.
</event>
<event>
 5   0  0.5233813E-07  0.3195562E+04  0.7818609E-02  0.8189990E-01
       -1   -1    0    0    0  501  0.00000000000E+00  0.00000000000E+00  0.18541002522E+04  0.18541002522E+04  0.50400001928E-02 0.  1.
        1   -1    0    0  501    0  0.00000000000E+00  0.00000000000E+00 -0.13768967416E+04  0.13768967416E+04  0.50400001928E-02 0. -1.
    10030    2    1    2    0    0  0.00000000000E+00  0.00000000000E+00  0.47720351062E+03  0.32309969938E+04  0.31955622954E+04 0.  0.
        4    1    3    3  502    0 -0.92940582933E+03 -0.11812669705E+04  0.78656719175E+03  0.16964304911E+04  0.12699999809E+01 0. -1.
       -4    1    3    3    0  502  0.92940582933E+03  0.11812669705E+04 -0.30936368113E+03  0.15345665027E+04  0.12699999809E+01 0.  1.
</event>
<event>
 5   0  0.5281187E-07  0.3174194E+04  0.7818609E-02  0.8195666E-01
        1   -1    0    0  501    0  0.00000000000E+00  0.00000000000E+00  0.14110476072E+04  0.14110476073E+04  0.50400001928E-02 0.  1.
       -1   -1    0    0    0  501  0.00000000000E+00  0.00000000000E+00 -0.17851116603E+04  0.17851116604E+04  0.50400001928E-02 0. -1.
    10030    2    1    2    0    0  0.00000000000E+00  0.00000000000E+00 -0.37406405310E+03  0.31961592676E+04  0.31741944093E+04 0.  0.
        5    1    3    3  502    0  0.50580416525E+03  0.61560682000E+03  0.11950716502E+04  0.14363244583E+04  0.46999998093E+01 0.  1.
       -5    1    3    3    0  502 -0.50580416525E+03 -0.61560682000E+03 -0.15691357033E+04  0.17598348093E+04  0.46999998093E+01 0. -1.
</event>
<event>
 5   0  0.5370912E-07  0.3162845E+04  0.7818609E-02  0.8198699E-01
        1   -1    0    0  501    0  0.00000000000E+00  0.00000000000E+00  0.21096357685E+04  0.21096357685E+04  0.50400001928E-02 0.  1.
       -1   -1    0    0    0  501  0.00000000000E+00  0.00000000000E+00 -0.11854640437E+04  0.11854640437E+04  0.50400001928E-02 0. -1.
    10030    2    1    2    0    0  0.00000000000E+00  0.00000000000E+00  0.92417172478E+03  0.32950998122E+04  0.31628451425E+04 0.  0.
        1    1    3    3  502    0 -0.26797711290E+02 -0.13178052560E+04 -0.44827726393E+03  0.13922217192E+04  0.50400001928E-02 0. -1.
       -1    1    3    3    0  502  0.26797711290E+02  0.13178052560E+04  0.13724489887E+04  0.19028780930E+04  0.50400001928E-02 0.  1.
</event>
<event>
 5   0  0.1508771E-06  0.3186861E+04  0.7818609E-02  0.8192296E-01
        2   -1    0    0  501    0  0.00000000000E+00  0.00000000000E+00  0.22835077309E+04  0.22835077309E+04  0.25500000920E-02 0.  1.
       -2   -1    0    0    0  501  0.00000000000E+00  0.00000000000E+00 -0.11118947443E+04  0.11118947443E+04  0.25500000920E-02 0. -1.
    10030    2    1    2    0    0  0.00000000000E+00  0.00000000000E+00  0.11716129866E+04  0.33954024752E+04  0.31868606775E+04 0.  0.
        4    1    3    3  502    0  0.58996442336E+03  0.14116403594E+04  0.11143871517E+03  0.15340165335E+04  0.12699999809E+01 0.  1.
       -4    1    3    3    0  502 -0.58996442336E+03 -0.14116403594E+04  0.10601742714E+04  0.18613859416E+04  0.12699999809E+01 0. -1.
</event>
<event>
 5   0  0.1538349E-06  0.3232379E+04  0.7818609E-02  0.8180318E-01
        2   -1    0    0  501    0  0.00000000000E+00  0.00000000000E+00  0.33100778153E+04  0.33100778153E+04  0.25500000920E-02 0. -1.
       -2   -1    0    0    0  501  0.00000000000E+00  0.00000000000E+00 -0.78912600311E+03  0.78912600311E+03  0.25500000920E-02 0.  1.
    10030    2    1    2    0    0  0.00000000000E+00  0.00000000000E+00  0.25209518122E+04  0.40992038184E+04  0.32323789854E+04 0.  0.
        1    1    3    3  502    0 -0.60782901540E+03 -0.11604886585E+04  0.24608089999E+04  0.27877896213E+04  0.50400001928E-02 0. -1.
       -1    1    3    3    0  502  0.60782901540E+03  0.11604886585E+04  0.60142812291E+02  0.13114141971E+04  0.50400001928E-02 0.  1.
</event>
<event>
 5   0  0.1493485E-06  0.3202458E+04  0.7818609E-02  0.8188168E-01
        2   -1    0    0  501    0  0.00000000000E+00  0.00000000000E+00  0.25424271012E+04  0.25424271012E+04  0.25500000920E-02 0. -1.
       -2   -1    0    0    0  501  0.00000000000E+00  0.00000000000E+00 -0.10084592494E+04  0.10084592495E+04  0.25500000920E-02 0.  1.
    10030    2    1    2    0    0  0.00000000000E+00  0.00000000000E+00  0.15339678518E+04  0.35508863507E+04  0.32024578850E+04 0.  0.
        2    1    3    3  502    0 -0.34724918225E+03 -0.62459536568E+03  0.23557956577E+04  0.24618031087E+04  0.25500000920E-02 0. -1.
       -2    1    3    3    0  502  0.34724918225E+03  0.62459536568E+03 -0.82182780589E+03  0.10890832420E+04  0.25500000920E-02 0.  1.
</event>
<event>
 5   0  0.5177039E-07  0.2902874E+04  0.7818609E-02  0.8272023E-01
        1   -1    0    0  501    0  0.00000000000E+00  0.00000000000E+00  0.80707148056E+03  0.80707148057E+03  0.50400001928E-02 0.  1.
       -1   -1    0    0    0  501  0.00000000000E+00  0.00000000000E+00 -0.26102644279E+04  0.26102644279E+04  0.50400001928E-02 0. -1.
    10030    2    1    2    0    0  0.00000000000E+00  0.00000000000E+00 -0.18031929473E+04  0.34173359084E+04  0.29028744213E+04 0.  0.
        3    1    3    3  502    0  0.51534289069E+03  0.33164814347E+03  0.64729378245E+03  0.89137985004E+03  0.10100000352E+00 0.  1.
       -3    1    3    3    0  502 -0.51534289069E+03 -0.33164814347E+03 -0.24504867298E+04  0.25259560584E+04  0.10100000352E+00 0. -1.
</event>
<event>
 5   0  0.1556396E-06  0.3207135E+04  0.7818609E-02  0.8186935E-01
        2   -1    0    0  501    0  0.00000000000E+00  0.00000000000E+00  0.22545008103E+04  0.22545008103E+04  0.25500000920E-02 0.  1.
       -2   -1    0    0    0  501  0.00000000000E+00  0.00000000000E+00 -0.11405758709E+04  0.11405758709E+04  0.25500000920E-02 0. -1.
    10030    2    1    2    0    0  0.00000000000E+00  0.00000000000E+00  0.11139249394E+04  0.33950766812E+04  0.32071353106E+04 0.  0.
        3    1    3    3  502    0  0.15385338554E+04  0.32165431235E+03  0.89319337252E+03  0.18078557276E+04  0.10100000352E+00 0.  1.
       -3    1    3    3    0  502 -0.15385338554E+04 -0.32165431235E+03  0.22073156687E+03  0.15872209536E+04  0.10100000352E+00 0. -1.
</event>
<event>
 5   0  0.1572769E-06  0.3197711E+04  0.7818609E-02  0.8189422E-01
       -2   -1    0    0    0  501  0.00000000000E+00  0.00000000000E+00  0.17030879949E+04  0.17030879949E+04  0.25500000920E-02 0. -1.
        2   -1    0    0  501    0  0.00000000000E+00  0.00000000000E+00 -0.15010021807E+04  0.15010021807E+04  0.25500000920E-02 0.  1.
    10030    2    1    2    0    0  0.00000000000E+00  0.00000000000E+00  0.20208581419E+03  0.32040901756E+04  0.31977109277E+04 0.  0.
        5    1    3    3  502    0 -0.20262895109E+02 -0.91654524602E+03 -0.12114752095E+04  0.15192629944E+04  0.46999998093E+01 0.  1.
       -5    1    3    3    0  502  0.20262895109E+02  0.91654524602E+03  0.14135610237E+04  0.16848271812E+04  0.46999998093E+01 0. -1.
</event>
<event>
 5   0  0.1538349E-06  0.3197458E+04  0.7818609E-02  0.8189489E-01
       -2   -1    0    0    0  501  0.00000000000E+00  0.00000000000E+00  0.14227591994E+04  0.14227591994E+04  0.25500000920E-02 0. -1.
        2   -1    0    0  501    0  0.00000000000E+00  0.00000000000E+00 -0.17964627074E+04  0.17964627074E+04  0.25500000920E-02 0.  1.
    10030    2    1    2    0    0  0.00000000000E+00  0.00000000000E+00 -0.37370350793E+03  0.32192219068E+04  0.31974576422E+04 0.  0.
        1    1    3    3  502    0  0.84478536943E+03  0.12549987716E+04  0.33362897164E+03  0.15491909269E+04  0.50400001928E-02 0. -1.
       -1    1    3    3    0  502 -0.84478536943E+03 -0.12549987716E+04 -0.70733247957E+03  0.16700309799E+04  0.50400001928E-02 0.  1.
</event>
<event>
 5   0  0.5177039E-07  0.3198730E+04  0.7818609E-02  0.8189153E-01
       -1   -1    0    0    0  501  0.00000000000E+00  0.00000000000E+00  0.13252365579E+04  0.13252365579E+04  0.50400001928E-02 0. -1.
        1   -1    0    0  501    0  0.00000000000E+00  0.00000000000E+00 -0.19301980572E+04  0.19301980572E+04  0.50400001928E-02 0.  1.
    10030    2    1    2    0    0  0.00000000000E+00  0.00000000000E+00 -0.60496149932E+03  0.32554346152E+04  0.31987303916E+04 0.  0.
        3    1    3    3  502    0  0.54657229810E+03 -0.15030727591E+04 -0.30232576555E+03  0.16276885067E+04  0.10100000352E+00 0. -1.
       -3    1    3    3    0  502 -0.54657229810E+03  0.15030727591E+04 -0.30263573377E+03  0.16277461085E+04  0.10100000352E+00 0.  1.
</event>
<event>
 5   0  0.5233813E-07  0.3205924E+04  0.7818609E-02  0.8187254E-01
        1   -1    0    0  501    0  0.00000000000E+00  0.00000000000E+00  0.15651279656E+04  0.15651279656E+04  0.50400001928E-02 0.  1.
       -1   -1    0    0    0  501  0.00000000000E+00  0.00000000000E+00 -0.16417104860E+04  0.16417104860E+04  0.50400001928E-02 0. -1.
    10030    2    1    2    0    0  0.00000000000E+00  0.00000000000E+00 -0.76582520386E+02  0.32068384516E+04  0.32059238875E+04 0.  0.
        4    1    3    3  502    0  0.25719729291E+03  0.12041159180E+04 -0.10649562059E+04  0.16279370150E+04  0.12699999809E+01 0. -1.
       -4    1    3    3    0  502 -0.25719729291E+03 -0.12041159180E+04  0.98837368550E+03  0.15789014366E+04  0.12699999809E+01 0.  1.
</event>
<event>
 5   0  0.5177039E-07  0.3221102E+04  0.7818609E-02  0.8183266E-01
       -1   -1    0    0    0  501  0.00000000000E+00  0.00000000000E+00  0.15924912335E+04  0.15924912335E+04  0.50400001928E-02 0.  1.
        1   -1    0    0  501    0  0.00000000000E+00  0.00000000000E+00 -0.16288151332E+04  0.16288151332E+04  0.50400001928E-02 0. -1.
    10030    2    1    2    0    0  0.00000000000E+00  0.00000000000E+00 -0.36323899686E+02  0.32213063667E+04  0.32211015635E+04 0.  0.
        3    1    3    3  502    0  0.12337433070E+04 -0.93274312782E+02  0.10129473319E+04  0.15990262513E+04  0.10100000352E+00 0.  1.
       -3    1    3    3    0  502 -0.12337433070E+04  0.93274312782E+02 -0.10492712316E+04  0.16222801154E+04  0.10100000352E+00 0. -1.
</event>
<event>
 5   0  0.1508771E-06  0.3205997E+04  0.7818609E-02  0.8187235E-01
        2   -1    0    0  501    0  0.00000000000E+00  0.00000000000E+00  0.15580466741E+04  0.15580466741E+04  0.25500000920E-02 0.  1.
       -2   -1    0    0    0  501  0.00000000000E+00  0.00000000000E+00 -0.16492469367E+04  0.16492469367E+04  0.25500000920E-02 0. -1.
    10030    2    1    2    0    0  0.00000000000E+00  0.00000000000E+00 -0.91200262688E+02  0.32072936108E+04  0.32059966965E+04 0.  0.
        4    1    3    3  502    0 -0.10512209517E+04 -0.78734635841E+03  0.87380500166E+03  0.15775032714E+04  0.12699999809E+01 0.  1.
       -4    1    3    3    0  502  0.10512209517E+04  0.78734635841E+03 -0.96500526435E+03  0.16297903394E+04  0.12699999809E+01 0. -1.
</event>
<event>
 5   0  0.1572769E-06  0.3202042E+04  0.7818609E-02  0.8188278E-01
        2   -1    0    0  501    0  0.00000000000E+00  0.00000000000E+00  0.26169424326E+04  0.26169424326E+04  0.25500000920E-02 0.  1.
       -2   -1    0    0    0  501  0.00000000000E+00  0.00000000000E+00 -0.97948955239E+03  0.97948955239E+03  0.25500000920E-02 0. -1.
    10030    2    1    2    0    0  0.00000000000E+00  0.00000000000E+00  0.16374528802E+04  0.35964319850E+04  0.32020417061E+04 0.  0.
        5    1    3    3  502    0 -0.10665744958E+04  0.11423984337E+04  0.42869363458E+03  0.16206343384E+04  0.46999998093E+01 0.  1.
       -5    1    3    3    0  502  0.10665744958E+04 -0.11423984337E+04  0.12087592456E+04  0.19757976466E+04  0.46999998093E+01 0. -1.
</event>
<event>
 5   0  0.1493485E-06  0.3216830E+04  0.7818609E-02  0.8184386E-01
        2   -1    0    0  501    0  0.00000000000E+00  0.00000000000E+00  0.10652284488E+04  0.10652284488E+04  0.25500000920E-02 0.  1.
       -2   -1    0    0    0  501  0.00000000000E+00  0.00000000000E+00 -0.24285862357E+04  0.24285862357E+04  0.25500000920E-02 0. -1.
    10030    2    1    2    0    0  0.00000000000E+00  0.00000000000E+00 -0.13633577869E+04  0.34938146846E+04  0.32168302092E+04 0.  0.
        2    1    3    3  502    0 -0.21804323822E+03  0.12975187047E+04  0.32313035212E+03  0.13548102699E+04  0.25500000920E-02 0.  1.
       -2    1    3    3    0  502  0.21804323822E+03 -0.12975187047E+04 -0.16864881390E+04  0.21390044147E+04  0.25500000920E-02 0. -1.
</event>
<event>
 5   0  0.1556396E-06  0.3178314E+04  0.7818609E-02  0.8194568E-01
       -2   -1    0    0    0  501  0.00000000000E+00  0.00000000000E+00  0.18259303387E+04  0.18259303387E+04  0.25500000920E-02 0.  1.
        2   -1    0    0  501    0  0.00000000000E+00  0.00000000000E+00 -0.13830869645E+04  0.13830869645E+04  0.25500000920E-02 0. -1.
    10030    2    1    2    0    0  0.00000000000E+00  0.00000000000E+00  0.44284337423E+03  0.32090173032E+04  0.31783143014E+04 0.  0.
        3    1    3    3  502    0 -0.83651835699E+03 -0.13164714853E+04  0.52859791867E+03  0.16468988745E+04  0.10100000352E+00 0. -1.
       -3    1    3    3    0  502  0.83651835699E+03  0.13164714853E+04 -0.85754544443E+02  0.15621184287E+04  0.10100000352E+00 0.  1.
</event>
<event>
 5   0  0.1493485E-06  0.3169294E+04  0.7818609E-02  0.8196974E-01
        2   -1    0    0  501    0  0.00000000000E+00  0.00000000000E+00  0.20251233871E+04  0.20251233871E+04  0.25500000920E-02 0. -1.
       -2   -1    0    0    0  501  0.00000000000E+00  0.00000000000E+00 -0.12399768389E+04  0.12399768389E+04  0.25500000920E-02 0.  1.
    10030    2    1    2    0    0  0.00000000000E+00  0.00000000000E+00  0.78514654819E+03  0.32651002260E+04  0.31692939882E+04 0.  0.
        2    1    3    3  502    0 -0.13508355288E+04  0.32369744909E+03  0.11782335147E+04  0.18214749188E+04  0.25500000920E-02 0. -1.
       -2    1    3    3    0  502  0.13508355288E+04 -0.32369744909E+03 -0.39308696655E+03  0.14436253073E+04  0.25500000920E-02 0.  1.
</event>
<event>
 5   0  0.1556396E-06  0.3197274E+04  0.7818609E-02  0.8189537E-01
        2   -1    0    0  501    0  0.00000000000E+00  0.00000000000E+00  0.13310177796E+04  0.13310177796E+04  0.25500000920E-02 0.  1.
       -2   -1    0    0    0  501  0.00000000000E+00  0.00000000000E+00 -0.19200646153E+04  0.19200646153E+04  0.25500000920E-02 0. -1.
    10030    2    1    2    0    0  0.00000000000E+00  0.00000000000E+00 -0.58904683563E+03  0.32510823949E+04  0.31972739269E+04 0.  0.
        3    1    3    3  502    0  0.97212064878E+03  0.11831589993E+04 -0.76133161318E+03  0.17101197645E+04  0.10100000352E+00 0. -1.
       -3    1    3    3    0  502 -0.97212064878E+03 -0.11831589993E+04  0.17228477754E+03  0.15409626304E+04  0.10100000352E+00 0.  1.
</event>
<event>
 5   0  0.1556396E-06  0.3188325E+04  0.7818609E-02  0.8191907E-01
       -2   -1    0    0    0  501  0.00000000000E+00  0.00000000000E+00  0.14269781140E+04  0.14269781140E+04  0.25500000920E-02 0. -1.
        2   -1    0    0  501    0  0.00000000000E+00  0.00000000000E+00 -0.17809341174E+04  0.17809341174E+04  0.25500000920E-02 0.  1.
    10030    2    1    2    0    0  0.00000000000E+00  0.00000000000E+00 -0.35395600347E+03  0.32079122314E+04  0.31883249571E+04 0.  0.
        3    1    3    3  502    0 -0.26987819772E+03  0.15019087865E+04  0.28714731049E+03  0.15527452568E+04  0.10100000352E+00 0. -1.
       -3    1    3    3    0  502  0.26987819772E+03 -0.15019087865E+04 -0.64110331397E+03  0.16551669746E+04  0.10100000352E+00 0.  1.
</event>
<event>
 5   0  0.1493485E-06  0.3182771E+04  0.7818609E-02  0.8193382E-01
        2   -1    0    0  501    0  0.00000000000E+00  0.00000000000E+00  0.22839361040E+04  0.22839361040E+04  0.25500000920E-02 0.  1.
       -2   -1    0    0    0  501  0.00000000000E+00  0.00000000000E+00 -0.11088350150E+04  0.11088350150E+04  0.25500000920E-02 0. -1.
    10030    2    1    2    0    0  0.00000000000E+00  0.00000000000E+00  0.11751010890E+04  0.33927711190E+04  0.31827713233E+04 0.  0.
        2    1    3    3  502    0  0.88556965746E+03  0.13162603669E+04  0.72125927351E+03  0.17426961615E+04  0.25500000920E-02 0.  1.
       -2    1    3    3    0  502 -0.88556965746E+03 -0.13162603669E+04  0.45384181551E+03  0.16500749575E+04  0.25500000920E-02 0. -1.
</event>
<event>
 5   0  0.5281187E-07  0.3184756E+04  0.7818609E-02  0.8192855E-01
        1   -1    0    0  501    0  0.00000000000E+00  0.00000000000E+00  0.21322719192E+04  0.21322719192E+04  0.50400001928E-02 0. -1.
       -1   -1    0    0    0  501  0.00000000000E+00  0.00000000000E+00 -0.11891859379E+04  0.11891859379E+04  0.50400001928E-02 0.  1.
    10030    2    1    2    0    0  0.00000000000E+00  0.00000000000E+00  0.94308598128E+03  0.33214578571E+04  0.31847560548E+04 0.  0.
        5    1    3    3  502    0  0.13853416367E+04  0.23037814530E+03  0.12543614435E+04  0.18830003348E+04  0.46999998093E+01 0. -1.
       -5    1    3    3    0  502 -0.13853416367E+04 -0.23037814530E+03 -0.31127546218E+03  0.14384575223E+04  0.46999998093E+01 0.  1.
</event>
<event>
 5   0  0.5317728E-07  0.3103727E+04  0.7818609E-02  0.8214716E-01
       -1   -1    0    0    0  501  0.00000000000E+00  0.00000000000E+00  0.12705845547E+04  0.12705845547E+04  0.50400001928E-02 0.  1.
        1   -1    0    0  501    0  0.00000000000E+00  0.00000000000E+00 -0.18954116000E+04  0.18954116000E+04  0.50400001928E-02 0. -1.
    10030    2    1    2    0    0  0.00000000000E+00  0.00000000000E+00 -0.62482704528E+03  0.31659961547E+04  0.31037272456E+04 0.  0.
        2    1    3    3  502    0 -0.91282353854E+03 -0.12460161083E+04 -0.46534723986E+03  0.16131804016E+04  0.25500000920E-02 0. -1.
       -2    1    3    3    0  502  0.91282353854E+03  0.12460161083E+04 -0.15947980542E+03  0.15528157531E+04  0.25500000920E-02 0.  1.
</event>
<event>
 5   0  0.5317728E-07  0.3195264E+04  0.7818609E-02  0.8190069E-01
        1   -1    0    0  501    0  0.00000000000E+00  0.00000000000E+00  0.22081979577E+04  0.22081979577E+04  0.50400001928E-02 0. -1.
       -1   -1    0    0    0  501  0.00000000000E+00  0.00000000000E+00 -0.11558875452E+04  0.11558875452E+04  0.50400001928E-02 0.  1.
    10030    2    1    2    0    0  0.00000000000E+00  0.00000000000E+00  0.10523104124E+04  0.33640855029E+04  0.31952643188E+04 0.  0.
        2    1    3    3  502    0  0.46072557051E+03  0.12581315348E+04  0.14423426243E+04  0.19686328393E+04  0.25500000920E-02 0. -1.
       -2    1    3    3    0  502 -0.46072557051E+03 -0.12581315348E+04 -0.39003221186E+03  0.13954526636E+04  0.25500000920E-02 0.  1.
</event>
<event>
 5   0  0.5177039E-07  0.3206532E+04  0.7818609E-02  0.8187094E-01
       -1   -1    0    0    0  501  0.00000000000E+00  0.00000000000E+00  0.13084168155E+04  0.13084168155E+04  0.50400001928E-02 0.  1.
        1   -1    0    0  501    0  0.00000000000E+00  0.00000000000E+00 -0.19645582845E+04  0.19645582845E+04  0.50400001928E-02 0. -1.
    10030    2    1    2    0    0  0.00000000000E+00  0.00000000000E+00 -0.65614146904E+03  0.32729751000E+04  0.32065315183E+04 0.  0.
        3    1    3    3  502    0 -0.10424312428E+04 -0.50925491652E+03 -0.14575520916E+04  0.18629174904E+04  0.10100000352E+00 0. -1.
       -3    1    3    3    0  502  0.10424312428E+04  0.50925491652E+03  0.80141062260E+03  0.14100576096E+04  0.10100000352E+00 0.  1.
</event>
<event>
 5   0  0.1538349E-06  0.3169018E+04  0.7818609E-02  0.8197048E-01
        2   -1    0    0  501    0  0.00000000000E+00  0.00000000000E+00  0.14227557245E+04  0.14227557245E+04  0.25500000920E-02 0.  1.
       -2   -1    0    0    0  501  0.00000000000E+00  0.00000000000E+00 -0.17646520611E+04  0.17646520611E+04  0.25500000920E-02 0. -1.
    10030    2    1    2    0    0  0.00000000000E+00  0.00000000000E+00 -0.34189633660E+03  0.31874077855E+04  0.31690180319E+04 0.  0.
        1    1    3    3  502    0  0.83050821028E+03  0.30077115359E+03  0.11521556048E+04  0.14517815648E+04  0.50400001928E-02 0.  1.
       -1    1    3    3    0  502 -0.83050821028E+03 -0.30077115359E+03 -0.14940519414E+04  0.17356262207E+04  0.50400001928E-02 0. -1.
</event>
<event>
 5   0  0.5177039E-07  0.3268577E+04  0.7818609E-02  0.8170937E-01
        1   -1    0    0  501    0  0.00000000000E+00  0.00000000000E+00  0.11290540841E+04  0.11290540841E+04  0.50400001928E-02 0. -1.
       -1   -1    0    0    0  501  0.00000000000E+00  0.00000000000E+00 -0.23656075052E+04  0.23656075052E+04  0.50400001928E-02 0.  1.
    10030    2    1    2    0    0  0.00000000000E+00  0.00000000000E+00 -0.12365534211E+04  0.34946615893E+04  0.32685769473E+04 0.  0.
        3    1    3    3  502    0  0.10774918877E+04 -0.55353096189E+02  0.69416752073E+03  0.12829346399E+04  0.10100000352E+00 0. -1.
       -3    1    3    3    0  502 -0.10774918877E+04  0.55353096189E+02 -0.19307209418E+04  0.22117269494E+04  0.10100000352E+00 0.  1.
</event>
<event>
 5   0  0.1556396E-06  0.3201398E+04  0.7818609E-02  0.8188448E-01
       -2   -1    0    0    0  501  0.00000000000E+00  0.00000000000E+00  0.15538041433E+04  0.15538041433E+04  0.25500000920E-02 0.  1.
        2   -1    0    0  501    0  0.00000000000E+00  0.00000000000E+00 -0.16490089511E+04  0.16490089511E+04  0.25500000920E-02 0. -1.
    10030    2    1    2    0    0  0.00000000000E+00  0.00000000000E+00 -0.95204807800E+02  0.32028130944E+04  0.32013977826E+04 0.  0.
        3    1    3    3  502    0  0.27761904739E+03 -0.14612290915E+04  0.54424525116E+03  0.15838136560E+04  0.10100000352E+00 0.  1.
       -3    1    3    3    0  502 -0.27761904739E+03  0.14612290915E+04 -0.63945005896E+03  0.16189994384E+04  0.10100000352E+00 0. -1.
</event>
<event>
 5   0  0.5370912E-07  0.3199752E+04  0.7818609E-02  0.8188883E-01
        1   -1    0    0  501    0  0.00000000000E+00  0.00000000000E+00  0.22679185280E+04  0.22679185280E+04  0.50400001928E-02 0.  1.
       -1   -1    0    0    0  501  0.00000000000E+00  0.00000000000E+00 -0.11286136263E+04  0.11286136263E+04  0.50400001928E-02 0. -1.
    10030    2    1    2    0    0  0.00000000000E+00  0.00000000000E+00  0.11393049018E+04  0.33965321543E+04  0.31997523367E+04 0.  0.
        1    1    3    3  502    0 -0.31234700681E+03  0.11344097245E+04 -0.58106165455E+03  0.13122799709E+04  0.50400001928E-02 0. -1.
       -1    1    3    3    0  502  0.31234700681E+03 -0.11344097245E+04  0.17203665563E+04  0.20842521834E+04  0.50400001928E-02 0.  1.
</event>
<event>
 5   0  0.1508771E-06  0.3209264E+04  0.7818609E-02  0.8186375E-01
        2   -1    0    0  501    0  0.00000000000E+00  0.00000000000E+00  0.15725924727E+04  0.15725924727E+04  0.25500000920E-02 0.  1.
       -2   -1    0    0    0  501  0.00000000000E+00  0.00000000000E+00 -0.16373244450E+04  0.16373244450E+04  0.25500000920E-02 0. -1.
    10030    2    1    2    0    0  0.00000000000E+00  0.00000000000E+00 -0.64731972282E+02  0.32099169177E+04  0.32092641509E+04 0.  0.
        4    1    3    3  502    0 -0.18030168798E+02  0.10943936546E+04  0.11412523828E+04  0.15812909828E+04  0.12699999809E+01 0.  1.
       -4    1    3    3    0  502  0.18030168798E+02 -0.10943936546E+04 -0.12059843551E+04  0.16286259349E+04  0.12699999809E+01 0. -1.
</event>
<event>
 5   0  0.1508771E-06  0.3199597E+04  0.7818609E-02  0.8188924E-01
        2   -1    0    0  501    0  0.00000000000E+00  0.00000000000E+00  0.17487599585E+04  0.17487599585E+04  0.25500000920E-02 0. -1.
       -2   -1    0    0    0  501  0.00000000000E+00  0.00000000000E+00 -0.14635259286E+04  0.14635259286E+04  0.25500000920E-02 0.  1.
    10030    2    1    2    0    0  0.00000000000E+00  0.00000000000E+00  0.28523402990E+03  0.32122858870E+04  0.31995971884E+04 0.  0.
        4    1    3    3  502    0  0.37559944067E+03 -0.88341558354E+03  0.14274797322E+04  0.17202319703E+04  0.12699999809E+01 0. -1.
       -4    1    3    3    0  502 -0.37559944067E+03  0.88341558354E+03 -0.11422457023E+04  0.14920539167E+04  0.12699999809E+01 0.  1.
</event>
<event>
 5   0  0.5281187E-07  0.3226018E+04  0.7818609E-02  0.8181980E-01
        1   -1    0    0  501    0  0.00000000000E+00  0.00000000000E+00  0.12128190786E+04  0.12128190786E+04  0.50400001928E-02 0.  1.
       -1   -1    0    0    0  501  0.00000000000E+00  0.00000000000E+00 -0.21452479491E+04  0.21452479491E+04  0.50400001928E-02 0. -1.
    10030    2    1    2    0    0  0.00000000000E+00  0.00000000000E+00 -0.93242887054E+03  0.33580670277E+04  0.32260177563E+04 0.  0.
        5    1    3    3  502    0 -0.10568329695E+04  0.10133072743E+04 -0.11707404943E+04  0.18746580896E+04  0.46999998093E+01 0. -1.
       -5    1    3    3    0  502  0.10568329695E+04 -0.10133072743E+04  0.23831162381E+03  0.14834089381E+04  0.46999998093E+01 0.  1.
</event>
<event>
 5   0  0.5177039E-07  0.3157837E+04  0.7818609E-02  0.8200042E-01
        1   -1    0    0  501    0  0.00000000000E+00  0.00000000000E+00  0.28047720435E+04  0.28047720435E+04  0.50400001928E-02 0.  1.
       -1   -1    0    0    0  501  0.00000000000E+00  0.00000000000E+00 -0.88883658679E+03  0.88883658681E+03  0.50400001928E-02 0. -1.
    10030    2    1    2    0    0  0.00000000000E+00  0.00000000000E+00  0.19159354567E+04  0.36936086303E+04  0.31578372408E+04 0.  0.
        3    1    3    3  502    0 -0.50398627765E+02 -0.15780123124E+04  0.97892789790E+03  0.18576766993E+04  0.10100000352E+00 0. -1.
       -3    1    3    3    0  502  0.50398627765E+02  0.15780123124E+04  0.93700755879E+03  0.18359319310E+04  0.10100000352E+00 0.  1.
</event>
<event>
 5   0  0.5317728E-07  0.3202464E+04  0.7818609E-02  0.8188167E-01
        1   -1    0    0  501    0  0.00000000000E+00  0.00000000000E+00  0.16560001316E+04  0.16560001316E+04  0.50400001928E-02 0. -1.
       -1   -1    0    0    0  501  0.00000000000E+00  0.00000000000E+00 -0.15482748866E+04  0.15482748866E+04  0.50400001928E-02 0.  1.
    10030    2    1    2    0    0  0.00000000000E+00  0.00000000000E+00  0.10772524499E+03  0.32042750182E+04  0.32024636866E+04 0.  0.
        2    1    3    3  502    0  0.12997209678E+04 -0.92302992349E+03 -0.96836583297E+02  0.15970711185E+04  0.25500000920E-02 0.  1.
       -2    1    3    3    0  502 -0.12997209678E+04  0.92302992349E+03  0.20456182828E+03  0.16072038997E+04  0.25500000920E-02 0. -1.
</event>
<event>
 5   0  0.1508771E-06  0.3210290E+04  0.7818609E-02  0.8186105E-01
       -2   -1    0    0    0  501  0.00000000000E+00  0.00000000000E+00  0.10577165917E+04  0.10577165917E+04  0.25500000920E-02 0.  1.
        2   -1    0    0  501    0  0.00000000000E+00  0.00000000000E+00 -0.24358993356E+04  0.24358993356E+04  0.25500000920E-02 0. -1.
    10030    2    1    2    0    0  0.00000000000E+00  0.00000000000E+00 -0.13781827439E+04  0.34936159272E+04  0.32102904185E+04 0.  0.
        4    1    3    3  502    0  0.86217475406E+03  0.15174645969E+03  0.77505396296E+03  0.11692230553E+04  0.12699999809E+01 0.  1.
       -4    1    3    3    0  502 -0.86217475406E+03 -0.15174645969E+03 -0.21532367069E+04  0.23243928720E+04  0.12699999809E+01 0. -1.
</event>
<event>
 5   0  0.5177039E-07  0.3205281E+04  0.7818609E-02  0.8187424E-01
       -1   -1    0    0    0  501  0.00000000000E+00  0.00000000000E+00  0.11724898008E+04  0.11724898008E+04  0.50400001928E-02 0.  1.
        1   -1    0    0  501    0  0.00000000000E+00  0.00000000000E+00 -0.21906001806E+04  0.21906001806E+04  0.50400001928E-02 0. -1.
    10030    2    1    2    0    0  0.00000000000E+00  0.00000000000E+00 -0.10181103798E+04  0.33630899814E+04  0.32052808734E+04 0.  0.
        3    1    3    3  502    0  0.12340965184E+04  0.24274122963E+03 -0.15512034044E+04  0.19970351858E+04  0.10100000352E+00 0. -1.
       -3    1    3    3    0  502 -0.12340965184E+04 -0.24274122963E+03  0.53309302456E+03  0.13660547955E+04  0.10100000352E+00 0.  1.
</event>
<event>
 5   0  0.1493485E-06  0.3204978E+04  0.7818609E-02  0.8187504E-01
       -2   -1    0    0    0  501  0.00000000000E+00  0.00000000000E+00  0.12764893325E+04  0.12764893325E+04  0.25500000920E-02 0.  1.
        2   -1    0    0  501    0  0.00000000000E+00  0.00000000000E+00 -0.20117450896E+04  0.20117450896E+04  0.25500000920E-02 0. -1.
    10030    2    1    2    0    0  0.00000000000E+00  0.00000000000E+00 -0.73525575713E+03  0.32882344221E+04  0.32049780945E+04 0.  0.
        2    1    3    3  502    0  0.44850972385E+03  0.75008169725E+03  0.10104652118E+04  0.13359728550E+04  0.25500000920E-02 0.  1.
       -2    1    3    3    0  502 -0.44850972385E+03 -0.75008169725E+03 -0.17457209690E+04  0.19522615671E+04  0.25500000920E-02 0. -1.
</event>
<event>
 5   0  0.1508771E-06  0.3190601E+04  0.7818609E-02  0.8191304E-01
       -2   -1    0    0    0  501  0.00000000000E+00  0.00000000000E+00  0.82209435268E+03  0.82209435268E+03  0.25500000920E-02 0.  1.
        2   -1    0    0  501    0  0.00000000000E+00  0.00000000000E+00 -0.30957317435E+04  0.30957317435E+04  0.25500000920E-02 0. -1.
    10030    2    1    2    0    0  0.00000000000E+00  0.00000000000E+00 -0.22736373909E+04  0.39178260962E+04  0.31906009364E+04 0.  0.
        4    1    3    3  502    0  0.23594127111E+03  0.11233342331E+03  0.79563421704E+03  0.83744999948E+03  0.12699999809E+01 0.  1.
       -4    1    3    3    0  502 -0.23594127111E+03 -0.11233342331E+03 -0.30692716079E+04  0.30803760967E+04  0.12699999809E+01 0. -1.
</event>
<event>
 5   0  0.5281187E-07  0.3204431E+04  0.7818609E-02  0.8187648E-01
        1   -1    0    0  501    0  0.00000000000E+00  0.00000000000E+00  0.20196829841E+04  0.20196829841E+04  0.50400001928E-02 0.  1.
       -1   -1    0    0    0  501  0.00000000000E+00  0.00000000000E+00 -0.12710382404E+04  0.12710382404E+04  0.50400001928E-02 0. -1.
    10030    2    1    2    0    0  0.00000000000E+00  0.00000000000E+00  0.74864474378E+03  0.32907212245E+04  0.32044308738E+04 0.  0.
        5    1    3    3  502    0  0.15734352763E+04  0.23122754345E+03  0.17438103615E+03  0.15998736142E+04  0.46999998093E+01 0. -1.
       -5    1    3    3    0  502 -0.15734352763E+04 -0.23122754345E+03  0.57426370763E+03  0.16908476104E+04  0.46999998093E+01 0.  1.
</event>
<event>
 5   0  0.5317728E-07  0.3175603E+04  0.7818609E-02  0.8195290E-01
       -1   -1    0    0    0  501  0.00000000000E+00  0.00000000000E+00  0.11231496318E+04  0.11231496319E+04  0.50400001928E-02 0. -1.
        1   -1    0    0  501    0  0.00000000000E+00  0.00000000000E+00 -0.22446818543E+04  0.22446818543E+04  0.50400001928E-02 0.  1.
    10030    2    1    2    0    0  0.00000000000E+00  0.00000000000E+00 -0.11215322225E+04  0.33678314862E+04  0.31756029968E+04 0.  0.
        2    1    3    3  502    0 -0.79856180426E+03 -0.11905089011E+04  0.16327672357E+03  0.14427999471E+04  0.25500000920E-02 0. -1.
       -2    1    3    3    0  502  0.79856180426E+03  0.11905089011E+04 -0.12848089460E+04  0.19250315391E+04  0.25500000920E-02 0.  1.
</event>
<event>
 5   0  0.1493485E-06  0.3162931E+04  0.7818609E-02  0.8198676E-01
       -2   -1    0    0    0  501  0.00000000000E+00  0.00000000000E+00  0.11591087142E+04  0.11591087142E+04  0.25500000920E-02 0. -1.
        2   -1    0    0  501    0  0.00000000000E+00  0.00000000000E+00 -0.21577215942E+04  0.21577215942E+04  0.25500000920E-02 0.  1.
    10030    2    1    2    0    0  0.00000000000E+00  0.00000000000E+00 -0.99861287994E+03  0.33168303084E+04  0.31629314901E+04 0.  0.
        2    1    3    3  502    0 -0.13768099586E+04 -0.10384782699E+03  0.30934607412E+03  0.14149505386E+04  0.25500000920E-02 0.  1.
       -2    1    3    3    0  502  0.13768099586E+04  0.10384782699E+03 -0.13079589541E+04  0.19018797698E+04  0.25500000920E-02 0. -1.
</event>
<event>
 5   0  0.1556396E-06  0.3196206E+04  0.7818609E-02  0.8189820E-01
       -2   -1    0    0    0  501  0.00000000000E+00  0.00000000000E+00  0.14288384700E+04  0.14288384700E+04  0.25500000920E-02 0. -1.
        2   -1    0    0  501    0  0.00000000000E+00  0.00000000000E+00 -0.17874194954E+04  0.17874194954E+04  0.25500000920E-02 0.  1.
    10030    2    1    2    0    0  0.00000000000E+00  0.00000000000E+00 -0.35858102539E+03  0.32162579655E+04  0.31962063370E+04 0.  0.
        3    1    3    3  502    0 -0.23803603290E+03  0.40332495803E+03 -0.17168164525E+04  0.17795479529E+04  0.10100000352E+00 0.  1.
       -3    1    3    3    0  502  0.23803603290E+03 -0.40332495803E+03  0.13582354271E+04  0.14367100126E+04  0.10100000352E+00 0. -1.
</event>
<event>
 5   0  0.1572769E-06  0.3205087E+04  0.7818609E-02  0.8187475E-01
       -2   -1    0    0    0  501  0.00000000000E+00  0.00000000000E+00  0.16047359559E+04  0.16047359559E+04  0.25500000920E-02 0.  1.
        2   -1    0    0  501    0  0.00000000000E+00  0.00000000000E+00 -0.16003542964E+04  0.16003542964E+04  0.25500000920E-02 0. -1.
    10030    2    1    2    0    0  0.00000000000E+00  0.00000000000E+00  0.43816594807E+01  0.32050902522E+04  0.32050872572E+04 0.  0.
        5    1    3    3  502    0 -0.82503840580E+03  0.13732632502E+04  0.41986167992E+02  0.16025995301E+04  0.46999998093E+01 0.  1.
       -5    1    3    3    0  502  0.82503840580E+03 -0.13732632502E+04 -0.37604508511E+02  0.16024907222E+04  0.46999998093E+01 0. -1.
</event>
<event>
 5   0  0.5317728E-07  0.3186832E+04  0.7818609E-02  0.8192303E-01
       -1   -1    0    0    0  501  0.00000000000E+00  0.00000000000E+00  0.10229862806E+04  0.10229862806E+04  0.50400001928E-02 0.  1.
        1   -1    0    0  501    0  0.00000000000E+00  0.00000000000E+00 -0.24819251143E+04  0.24819251143E+04  0.50400001928E-02 0. -1.
    10030    2    1    2    0    0  0.00000000000E+00  0.00000000000E+00 -0.14589388337E+04  0.35049113949E+04  0.31868324972E+04 0.  0.
        2    1    3    3  502    0 -0.55699334712E+03 -0.13044355690E+04 -0.15280117193E+04  0.20848533658E+04  0.25500000920E-02 0. -1.
       -2    1    3    3    0  502  0.55699334712E+03  0.13044355690E+04  0.69072885570E+02  0.14200580291E+04  0.25500000920E-02 0.  1.
</event>
<event>
 5   0  0.1493485E-06  0.3207144E+04  0.7818609E-02  0.8186933E-01
        2   -1    0    0  501    0  0.00000000000E+00  0.00000000000E+00  0.10776428190E+04  0.10776428190E+04  0.25500000920E-02 0. -1.
       -2   -1    0    0    0  501  0.00000000000E+00  0.00000000000E+00 -0.23861739203E+04  0.23861739203E+04  0.25500000920E-02 0.  1.
    10030    2    1    2    0    0  0.00000000000E+00  0.00000000000E+00 -0.13085311013E+04  0.34638167394E+04  0.32071440193E+04 0.  0.
        2    1    3    3  502    0  0.14017925073E+04  0.73695120109E+03 -0.38248384724E+03  0.16292369992E+04  0.25500000920E-02 0.  1.
       -2    1    3    3    0  502 -0.14017925073E+04 -0.73695120109E+03 -0.92604725405E+03  0.18345797401E+04  0.25500000920E-02 0. -1.
</event>
<event>
 5   0  0.5317728E-07  0.3123427E+04  0.7818609E-02  0.8209338E-01
       -1   -1    0    0    0  501  0.00000000000E+00  0.00000000000E+00  0.10947804773E+04  0.10947804774E+04  0.50400001928E-02 0. -1.
        1   -1    0    0  501    0  0.00000000000E+00  0.00000000000E+00 -0.22277979006E+04  0.22277979006E+04  0.50400001928E-02 0.  1.
    10030    2    1    2    0    0  0.00000000000E+00  0.00000000000E+00 -0.11330174232E+04  0.33225783779E+04  0.31234273797E+04 0.  0.
        2    1    3    3  502    0 -0.82689021568E+02 -0.15153001332E+04 -0.95877197499E+03  0.17950531100E+04  0.25500000920E-02 0. -1.
       -2    1    3    3    0  502  0.82689021568E+02  0.15153001332E+04 -0.17424544824E+03  0.15275252679E+04  0.25500000920E-02 0.  1.
</event>
<event>
 5   0  0.1572769E-06  0.3182909E+04  0.7818609E-02  0.8193346E-01
       -2   -1    0    0    0  501  0.00000000000E+00  0.00000000000E+00  0.94035160065E+03  0.94035160066E+03  0.25500000920E-02 0. -1.
        2   -1    0    0  501    0  0.00000000000E+00  0.00000000000E+00 -0.26933829356E+04  0.26933829356E+04  0.25500000920E-02 0.  1.
    10030    2    1    2    0    0  0.00000000000E+00  0.00000000000E+00 -0.17530313350E+04  0.36337345363E+04  0.31829087041E+04 0.  0.
        5    1    3    3  502    0 -0.11956348048E+04 -0.80740188523E+03 -0.10960533838E+03  0.14468848645E+04  0.46999998093E+01 0. -1.
       -5    1    3    3    0  502  0.11956348048E+04  0.80740188523E+03 -0.16434259966E+04  0.21868496718E+04  0.46999998093E+01 0.  1.
</event>
<event>
 5   0  0.5370912E-07  0.3201441E+04  0.7818609E-02  0.8188437E-01
       -1   -1    0    0    0  501  0.00000000000E+00  0.00000000000E+00  0.16495071198E+04  0.16495071198E+04  0.50400001928E-02 0.  1.
        1   -1    0    0  501    0  0.00000000000E+00  0.00000000000E+00 -0.15533767178E+04  0.15533767178E+04  0.50400001928E-02 0. -1.
    10030    2    1    2    0    0  0.00000000000E+00  0.00000000000E+00  0.96130401996E+02  0.32028838376E+04  0.32014408979E+04 0.  0.
        1    1    3    3  502    0 -0.71037722433E+03 -0.10474581198E+04  0.10285587826E+04  0.16308701612E+04  0.50400001928E-02 0.  1.
       -1    1    3    3    0  502  0.71037722433E+03  0.10474581198E+04 -0.93242838064E+03  0.15720136763E+04  0.50400001928E-02 0. -1.
</event>
<event>
 5   0  0.5317728E-07  0.3189533E+04  0.7818609E-02  0.8191587E-01
        1   -1    0    0  501    0  0.00000000000E+00  0.00000000000E+00  0.19312832231E+04  0.19312832231E+04  0.50400001928E-02 0.  1.
       -1   -1    0    0    0  501  0.00000000000E+00  0.00000000000E+00 -0.13168863908E+04  0.13168863908E+04  0.50400001928E-02 0. -1.
    10030    2    1    2    0    0  0.00000000000E+00  0.00000000000E+00  0.61439683228E+03  0.32481696139E+04  0.31895332532E+04 0.  0.
        2    1    3    3  502    0 -0.80143777307E+03  0.58859007812E+03  0.15769316560E+04  0.18642570187E+04  0.25500000920E-02 0.  1.
       -2    1    3    3    0  502  0.80143777307E+03 -0.58859007812E+03 -0.96253482373E+03  0.13839125952E+04  0.25500000920E-02 0. -1.
</event>
<event>
 5   0  0.5370912E-07  0.3043776E+04  0.7818609E-02  0.8231340E-01
        1   -1    0    0  501    0  0.00000000000E+00  0.00000000000E+00  0.95087359466E+03  0.95087359467E+03  0.50400001928E-02 0.  1.
       -1   -1    0    0    0  501  0.00000000000E+00  0.00000000000E+00 -0.24358051517E+04  0.24358051517E+04  0.50400001928E-02 0. -1.
    10030    2    1    2    0    0  0.00000000000E+00  0.00000000000E+00 -0.14849315571E+04  0.33866787464E+04  0.30437758134E+04 0.  0.
        1    1    3    3  502    0  0.12840239989E+04 -0.69985639234E+02  0.16319005914E+03  0.12962432699E+04  0.50400001928E-02 0.  1.
       -1    1    3    3    0  502 -0.12840239989E+04  0.69985639234E+02 -0.16481216162E+04  0.20904354765E+04  0.50400001928E-02 0. -1.
</event>
<event>
 5   0  0.1572769E-06  0.3212422E+04  0.7818609E-02  0.8185544E-01
       -2   -1    0    0    0  501  0.00000000000E+00  0.00000000000E+00  0.12821108145E+04  0.12821108145E+04  0.25500000920E-02 0. -1.
        2   -1    0    0  501    0  0.00000000000E+00  0.00000000000E+00 -0.20122393190E+04  0.20122393190E+04  0.25500000920E-02 0.  1.
    10030    2    1    2    0    0  0.00000000000E+00  0.00000000000E+00 -0.73012850444E+03  0.32943501335E+04  0.32124220098E+04 0.  0.
        5    1    3    3  502    0 -0.10278890727E+04 -0.54536510363E+03 -0.15005114103E+04  0.18988248009E+04  0.46999998093E+01 0.  1.
       -5    1    3    3    0  502  0.10278890727E+04  0.54536510363E+03  0.77038290590E+03  0.13955253326E+04  0.46999998093E+01 0. -1.
</event>
<event>
 5   0  0.5281187E-07  0.3222686E+04  0.7818609E-02  0.8182851E-01
       -1   -1    0    0    0  501  0.00000000000E+00  0.00000000000E+00  0.15861794177E+04  0.15861794177E+04  0.50400001928E-02 0.  1.
        1   -1    0    0  501    0  0.00000000000E+00  0.00000000000E+00 -0.16369056299E+04  0.16369056299E+04  0.50400001928E-02 0. -1.
    10030    2    1    2    0    0  0.00000000000E+00  0.00000000000E+00 -0.50726212180E+02  0.32230850476E+04  0.32226858481E+04 0.  0.
        5    1    3    3  502    0  0.10351679984E+04  0.51816434009E+03  0.10956400737E+04  0.15938997237E+04  0.46999998093E+01 0.  1.
       -5    1    3    3    0  502 -0.10351679984E+04 -0.51816434009E+03 -0.11463662859E+04  0.16291853239E+04  0.46999998093E+01 0. -1.
</event>
<event>
 5   0  0.5177039E-07  0.3175036E+04  0.7818609E-02  0.8195442E-01
       -1   -1    0    0    0  501  0.00000000000E+00  0.00000000000E+00  0.16464337450E+04  0.16464337450E+04  0.50400001928E-02 0.  1.
        1   -1    0    0  501    0  0.00000000000E+00  0.00000000000E+00 -0.15307100143E+04  0.15307100143E+04  0.50400001928E-02 0. -1.
    10030    2    1    2    0    0  0.00000000000E+00  0.00000000000E+00  0.11572373070E+03  0.31771437593E+04  0.31750355093E+04 0.  0.
        3    1    3    3  502    0  0.12820629108E+04  0.27946320403E+02  0.99429643260E+03  0.16226804091E+04  0.10100000352E+00 0.  1.
       -3    1    3    3    0  502 -0.12820629108E+04 -0.27946320403E+02 -0.87857270190E+03  0.15544633501E+04  0.10100000352E+00 0. -1.
</event>
<event>
 5   0  0.1538349E-06  0.3184952E+04  0.7818609E-02  0.8192803E-01
       -2   -1    0    0    0  501  0.00000000000E+00  0.00000000000E+00  0.14969838328E+04  0.14969838328E+04  0.25500000920E-02 0. -1.
        2   -1    0    0  501    0  0.00000000000E+00  0.00000000000E+00 -0.16940596965E+04  0.16940596965E+04  0.25500000920E-02 0.  1.
    10030    2    1    2    0    0  0.00000000000E+00  0.00000000000E+00 -0.19707586370E+03  0.31910435294E+04  0.31849521049E+04 0.  0.
        1    1    3    3  502    0  0.11489946609E+04  0.37810840761E+03 -0.11362917067E+04  0.16596124672E+04  0.50400001928E-02 0.  1.
       -1    1    3    3    0  502 -0.11489946609E+04 -0.37810840761E+03  0.93921584296E+03  0.15314310622E+04  0.50400001928E-02 0. -1.
</event>
<event>
 5   0  0.5177039E-07  0.3200269E+04  0.7818609E-02  0.8188746E-01
        1   -1    0    0  501    0  0.00000000000E+00  0.00000000000E+00  0.11700880705E+04  0.11700880706E+04  0.50400001928E-02 0. -1.
       -1   -1    0    0    0  501  0.00000000000E+00  0.00000000000E+00 -0.21882370106E+04  0.21882370106E+04  0.50400001928E-02 0.  1.
    10030    2    1    2    0    0  0.00000000000E+00  0.00000000000E+00 -0.10181489400E+04  0.33583250811E+04  0.32002687522E+04 0.  0.
        3    1    3    3  502    0  0.45020715836E+03  0.13689032846E+04  0.22087105991E+03  0.14578637533E+04  0.10100000352E+00 0.  1.
       -3    1    3    3    0  502 -0.45020715836E+03 -0.13689032846E+04 -0.12390199999E+04  0.19004613278E+04  0.10100000352E+00 0. -1.
</event>
<event>
 5   0  0.1556396E-06  0.3165027E+04  0.7818609E-02  0.8198115E-01
       -2   -1    0    0    0  501  0.00000000000E+00  0.00000000000E+00  0.31647426518E+04  0.31647426518E+04  0.25500000920E-02 0.  1.
        2   -1    0    0  501    0  0.00000000000E+00  0.00000000000E+00 -0.79132781988E+03  0.79132781988E+03  0.25500000920E-02 0. -1.
    10030    2    1    2    0    0  0.00000000000E+00  0.00000000000E+00  0.23734148319E+04  0.39560704717E+04  0.31650269529E+04 0.  0.
        3    1    3    3  502    0 -0.75325726827E+03  0.56637441649E+02  0.29248530481E+04  0.30208226818E+04  0.10100000352E+00 0.  1.
       -3    1    3    3    0  502  0.75325726827E+03 -0.56637441649E+02 -0.55143821615E+03  0.93524778986E+03  0.10100000352E+00 0. -1.
</event>
<event>
 5   0  0.5370912E-07  0.3268945E+04  0.7818609E-02  0.8170843E-01
       -1   -1    0    0    0  501  0.00000000000E+00  0.00000000000E+00  0.14608455035E+04  0.14608455035E+04  0.50400001928E-02 0.  1.
        1   -1    0    0  501    0  0.00000000000E+00  0.00000000000E+00 -0.18287358383E+04  0.18287358383E+04  0.50400001928E-02 0. -1.
    10030    2    1    2    0    0  0.00000000000E+00  0.00000000000E+00 -0.36789033484E+03  0.32895813418E+04  0.32689451059E+04 0.  0.
        1    1    3    3  502    0 -0.93777837448E+03  0.19202300853E+03 -0.15171480200E+04  0.17938894141E+04  0.50400001928E-02 0. -1.
       -1    1    3    3    0  502  0.93777837448E+03 -0.19202300853E+03  0.11492576852E+04  0.14956919276E+04  0.50400001928E-02 0.  1.
</event>
<event>
 5   0  0.5370912E-07  0.3167749E+04  0.7818609E-02  0.8197387E-01
        1   -1    0    0  501    0  0.00000000000E+00  0.00000000000E+00  0.11121926416E+04  0.11121926416E+04  0.50400001928E-02 0. -1.
       -1   -1    0    0    0  501  0.00000000000E+00  0.00000000000E+00 -0.22555977328E+04  0.22555977328E+04  0.50400001928E-02 0.  1.
    10030    2    1    2    0    0  0.00000000000E+00  0.00000000000E+00 -0.11434050912E+04  0.33677903743E+04  0.31677494855E+04 0.  0.
        1    1    3    3  502    0 -0.75144266844E+03  0.20755453951E+01 -0.20540195905E+04  0.21871595438E+04  0.50400001928E-02 0.  1.
       -1    1    3    3    0  502  0.75144266844E+03 -0.20755453951E+01  0.91061449925E+03  0.11806308306E+04  0.50400001928E-02 0. -1.
</event>
<event>
 5   0  0.1538349E-06  0.3200079E+04  0.7818609E-02  0.8188796E-01
       -2   -1    0    0    0  501  0.00000000000E+00  0.00000000000E+00  0.13512500353E+04  0.13512500353E+04  0.25500000920E-02 0.  1.
        2   -1    0    0  501    0  0.00000000000E+00  0.00000000000E+00 -0.18946355253E+04  0.18946355253E+04  0.25500000920E-02 0. -1.
    10030    2    1    2    0    0  0.00000000000E+00  0.00000000000E+00 -0.54338549003E+03  0.32458855606E+04  0.32000789493E+04 0.  0.
        1    1    3    3  502    0  0.76479596313E+03  0.12763510270E+04 -0.86845226196E+03  0.17228447813E+04  0.50400001928E-02 0. -1.
       -1    1    3    3    0  502 -0.76479596313E+03 -0.12763510270E+04  0.32506677193E+03  0.15230407793E+04  0.50400001928E-02 0.  1.
</event>
<event>
 5   0  0.5177039E-07  0.3204640E+04  0.7818609E-02  0.8187593E-01
       -1   -1    0    0    0  501  0.00000000000E+00  0.00000000000E+00  0.17418622477E+04  0.17418622477E+04  0.50400001928E-02 0. -1.
        1   -1    0    0  501    0  0.00000000000E+00  0.00000000000E+00 -0.14739562724E+04  0.14739562724E+04  0.50400001928E-02 0.  1.
    10030    2    1    2    0    0  0.00000000000E+00  0.00000000000E+00  0.26790597533E+03  0.32158185202E+04  0.32046396276E+04 0.  0.
        3    1    3    3  502    0  0.15137866298E+03 -0.12357562586E+04  0.11461438543E+04  0.16922336645E+04  0.10100000352E+00 0.  1.
       -3    1    3    3    0  502 -0.15137866298E+03  0.12357562586E+04 -0.87823787896E+03  0.15235848557E+04  0.10100000352E+00 0. -1.
</event>
<event>
 5   0  0.5370912E-07  0.3209538E+04  0.7818609E-02  0.8186303E-01
       -1   -1    0    0    0  501  0.00000000000E+00  0.00000000000E+00  0.17862470989E+04  0.17862470989E+04  0.50400001928E-02 0. -1.
        1   -1    0    0  501    0  0.00000000000E+00  0.00000000000E+00 -0.14417288872E+04  0.14417288872E+04  0.50400001928E-02 0.  1.
    10030    2    1    2    0    0  0.00000000000E+00  0.00000000000E+00  0.34451821174E+03  0.32279759862E+04  0.32095383109E+04 0.  0.
        1    1    3    3  502    0 -0.12393506496E+04 -0.17709289897E+03  0.11819847184E+04  0.17217548612E+04  0.50400001928E-02 0. -1.
       -1    1    3    3    0  502  0.12393506496E+04  0.17709289897E+03 -0.83746650668E+03  0.15062211250E+04  0.50400001928E-02 0.  1.
</event>
<event>
 5   0  0.1556396E-06  0.3219045E+04  0.7818609E-02  0.8183805E-01
       -2   -1    0    0    0  501  0.00000000000E+00  0.00000000000E+00  0.14209169516E+04  0.14209169516E+04  0.25500000920E-02 0. -1.
        2   -1    0    0  501    0  0.00000000000E+00  0.00000000000E+00 -0.18231628303E+04  0.18231628303E+04  0.25500000920E-02 0.  1.
    10030    2    1    2    0    0  0.00000000000E+00  0.00000000000E+00 -0.40224587870E+03  0.32440797818E+04  0.32190451820E+04 0.  0.
        3    1    3    3  502    0 -0.35226575275E+03 -0.72890143558E+03  0.12008012197E+04  0.14482099443E+04  0.10100000352E+00 0. -1.
       -3    1    3    3    0  502  0.35226575275E+03  0.72890143558E+03 -0.16030470984E+04  0.17958698375E+04  0.10100000352E+00 0.  1.
</event>
<event>
 5   0  0.1572769E-06  0.3206048E+04  0.7818609E-02  0.8187222E-01
       -2   -1    0    0    0  501  0.00000000000E+00  0.00000000000E+00  0.10564487733E+04  0.10564487733E+04  0.25500000920E-02 0. -1.
        2   -1    0    0  501    0  0.00000000000E+00  0.00000000000E+00 -0.24323804152E+04  0.24323804152E+04  0.25500000920E-02 0.  1.
    10030    2    1    2    0    0  0.00000000000E+00  0.00000000000E+00 -0.13759316418E+04  0.34888291885E+04  0.32060476016E+04 0.  0.
        5    1    3    3  502    0 -0.97023980095E+03  0.88062357409E+03 -0.16928901333E+04  0.21407387146E+04  0.46999998093E+01 0.  1.
       -5    1    3    3    0  502  0.97023980095E+03 -0.88062357409E+03  0.31695849149E+03  0.13480904739E+04  0.46999998093E+01 0. -1.
</event>
<event>
 5   0  0.1493485E-06  0.3204674E+04  0.7818609E-02  0.8187584E-01
       -2   -1    0    0    0  501  0.00000000000E+00  0.00000000000E+00  0.12091774967E+04  0.12091774967E+04  0.25500000920E-02 0. -1.
        2   -1    0    0  501    0  0.00000000000E+00  0.00000000000E+00 -0.21233311365E+04  0.21233311365E+04  0.25500000920E-02 0.  1.
    10030    2    1    2    0    0  0.00000000000E+00  0.00000000000E+00 -0.91415363980E+03  0.33325086332E+04  0.32046742288E+04 0.  0.
        2    1    3    3  502    0 -0.92447674379E+03  0.11786796224E+04  0.13441981191E+03  0.15039985332E+04  0.25500000920E-02 0.  1.
       -2    1    3    3    0  502  0.92447674379E+03 -0.11786796224E+04 -0.10485734517E+04  0.18285101000E+04  0.25500000920E-02 0. -1.
</event>
<event>
 5   0  0.1493485E-06  0.3213906E+04  0.7818609E-02  0.8185154E-01
        2   -1    0    0  501    0  0.00000000000E+00  0.00000000000E+00  0.20497473259E+04  0.20497473259E+04  0.25500000920E-02 0.  1.
       -2   -1    0    0    0  501  0.00000000000E+00  0.00000000000E+00 -0.12598131054E+04  0.12598131054E+04  0.25500000920E-02 0. -1.
    10030    2    1    2    0    0  0.00000000000E+00  0.00000000000E+00  0.78993422047E+03  0.33095604314E+04  0.32139063733E+04 0.  0.
        2    1    3    3  502    0  0.60993687445E+03  0.92440616320E+03  0.15939878875E+04  0.19409655151E+04  0.25500000920E-02 0.  1.
       -2    1    3    3    0  502 -0.60993687445E+03 -0.92440616320E+03 -0.80405366699E+03  0.13685949163E+04  0.25500000920E-02 0. -1.
</event>
<event>
 5   0  0.1556396E-06  0.3192850E+04  0.7818609E-02  0.8190708E-01
       -2   -1    0    0    0  501  0.00000000000E+00  0.00000000000E+00  0.14304071838E+04  0.14304071838E+04  0.25500000920E-02 0. -1.
        2   -1    0    0  501    0  0.00000000000E+00  0.00000000000E+00 -0.17817116679E+04  0.17817116679E+04  0.25500000920E-02 0.  1.
    10030    2    1    2    0    0  0.00000000000E+00  0.00000000000E+00 -0.35130448412E+03  0.32121188517E+04  0.31928502434E+04 0.  0.
        3    1    3    3  502    0  0.98206034795E+03  0.10150659063E+04 -0.92430165820E+03  0.16879380577E+04  0.10100000352E+00 0.  1.
       -3    1    3    3    0  502 -0.98206034795E+03 -0.10150659063E+04  0.57299717408E+03  0.15241807940E+04  0.10100000352E+00 0. -1.
</event>
<event>
 5   0  0.5317728E-07  0.3121406E+04  0.7818609E-02  0.8209888E-01
        1   -1    0    0  501    0  0.00000000000E+00  0.00000000000E+00  0.29811614100E+04  0.29811614100E+04  0.50400001928E-02 0. -1.
       -1   -1    0    0    0  501  0.00000000000E+00  0.00000000000E+00 -0.81706217849E+03  0.81706217851E+03  0.50400001928E-02 0.  1.
    10030    2    1    2    0    0  0.00000000000E+00  0.00000000000E+00  0.21640992315E+04  0.37982235885E+04  0.31214062447E+04 0.  0.
        2    1    3    3  502    0  0.27859539958E+03  0.81360985814E+03 -0.50273791241E+03  0.99615350550E+03  0.25500000920E-02 0.  1.
       -2    1    3    3    0  502 -0.27859539958E+03 -0.81360985814E+03  0.26668371439E+04  0.28020700830E+04  0.25500000920E-02 0. -1.
</event>
<event>
 5   0  0.1538349E-06  0.3212816E+04  0.7818609E-02  0.8185441E-01
       -2   -1    0    0    0  501  0.00000000000E+00  0.00000000000E+00  0.10115622985E+04  0.10115622985E+04  0.25500000920E-02 0.  1.
        2   -1    0    0  501    0  0.00000000000E+00  0.00000000000E+00 -0.25510512443E+04  0.25510512443E+04  0.25500000920E-02 0. -1.
    10030    2    1    2    0    0  0.00000000000E+00  0.00000000000E+00 -0.15394889457E+04  0.35626135428E+04  0.32128163722E+04 0.  0.
        1    1    3    3  502    0  0.22099326457E+03  0.50604293173E+03 -0.24425043977E+04  0.25041456037E+04  0.50400001928E-02 0. -1.
       -1    1    3    3    0  502 -0.22099326457E+03 -0.50604293173E+03  0.90301545194E+03  0.10584679392E+04  0.50400001928E-02 0.  1.
</event>
<event>
 5   0  0.5177039E-07  0.3235286E+04  0.7818609E-02  0.8179560E-01
        1   -1    0    0  501    0  0.00000000000E+00  0.00000000000E+00  0.83943223311E+03  0.83943223312E+03  0.50400001928E-02 0.  1.
       -1   -1    0    0    0  501  0.00000000000E+00  0.00000000000E+00 -0.31173087731E+04  0.31173087731E+04  0.50400001928E-02 0. -1.
    10030    2    1    2    0    0  0.00000000000E+00  0.00000000000E+00 -0.22778765400E+04  0.39567410063E+04  0.32352863643E+04 0.  0.
        3    1    3    3  502    0 -0.11638509125E+04  0.56199531741E+03  0.50818212523E+02  0.12934334866E+04  0.10100000352E+00 0.  1.
       -3    1    3    3    0  502  0.11638509125E+04 -0.56199531741E+03 -0.23286947526E+04  0.26633075196E+04  0.10100000352E+00 0. -1.
</event>
<event>
 5   0  0.5177039E-07  0.3176709E+04  0.7818609E-02  0.8194995E-01
        1   -1    0    0  501    0  0.00000000000E+00  0.00000000000E+00  0.24017200655E+04  0.24017200655E+04  0.50400001928E-02 0.  1.
       -1   -1    0    0    0  501  0.00000000000E+00  0.00000000000E+00 -0.10504431300E+04  0.10504431300E+04  0.50400001928E-02 0. -1.
    10030    2    1    2    0    0  0.00000000000E+00  0.00000000000E+00  0.13512769355E+04  0.34521631955E+04  0.31767092048E+04 0.  0.
        3    1    3    3  502    0  0.15753399142E+04 -0.20284310869E+03  0.66977014262E+03  0.17237845649E+04  0.10100000352E+00 0.  1.
       -3    1    3    3    0  502 -0.15753399142E+04  0.20284310869E+03  0.68150679288E+03  0.17283786306E+04  0.10100000352E+00 0. -1.
</event>
<event>
 5   0  0.5233813E-07  0.3203057E+04  0.7818609E-02  0.8188010E-01
        1   -1    0    0  501    0  0.00000000000E+00  0.00000000000E+00  0.15116238540E+04  0.15116238540E+04  0.50400001928E-02 0.  1.
       -1   -1    0    0    0  501  0.00000000000E+00  0.00000000000E+00 -0.16967800478E+04  0.16967800478E+04  0.50400001928E-02 0. -1.
    10030    2    1    2    0    0  0.00000000000E+00  0.00000000000E+00 -0.18515619375E+03  0.32084039018E+04  0.32030567870E+04 0.  0.
        4    1    3    3  502    0  0.55140338945E+03 -0.14866608200E+04 -0.31808831543E+03  0.16172160897E+04  0.12699999809E+01 0.  1.
       -4    1    3    3    0  502 -0.55140338945E+03  0.14866608200E+04  0.13293212169E+03  0.15911878121E+04  0.12699999809E+01 0. -1.
</event>
<event>
 5   0  0.1508771E-06  0.3198646E+04  0.7818609E-02  0.8189175E-01
        2   -1    0    0  501    0  0.00000000000E+00  0.00000000000E+00  0.22976132225E+04  0.22976132225E+04  0.25500000920E-02 0. -1.
       -2   -1    0    0    0  501  0.00000000000E+00  0.00000000000E+00 -0.11132570590E+04  0.11132570590E+04  0.25500000920E-02 0.  1.
    10030    2    1    2    0    0  0.00000000000E+00  0.00000000000E+00  0.11843561635E+04  0.34108702814E+04  0.31986460502E+04 0.  0.
        4    1    3    3  502    0  0.12170108138E+04 -0.30166380795E+03 -0.46652689385E+03  0.13378211127E+04  0.12699999809E+01 0.  1.
       -4    1    3    3    0  502 -0.12170108138E+04  0.30166380795E+03  0.16508830574E+04  0.20730491687E+04  0.12699999809E+01 0. -1.
</event>
<event>
 5   0  0.5177039E-07  0.3162127E+04  0.7818609E-02  0.8198892E-01
       -1   -1    0    0    0  501  0.00000000000E+00  0.00000000000E+00  0.17459697930E+04  0.17459697930E+04  0.50400001928E-02 0.  1.
        1   -1    0    0  501    0  0.00000000000E+00  0.00000000000E+00 -0.14317325107E+04  0.14317325107E+04  0.50400001928E-02 0. -1.
    10030    2    1    2    0    0  0.00000000000E+00  0.00000000000E+00  0.31423728228E+03  0.31777023037E+04  0.31621269521E+04 0.  0.
        3    1    3    3  502    0 -0.14000824877E+04 -0.33774152303E+03 -0.49836821480E+03  0.15240312321E+04  0.10100000352E+00 0. -1.
       -3    1    3    3    0  502  0.14000824877E+04  0.33774152303E+03  0.81260549709E+03  0.16536710716E+04  0.10100000352E+00 0.  1.
</event>
<event>
 5   0  0.1572769E-06  0.3202380E+04  0.7818609E-02  0.8188189E-01
        2   -1    0    0  501    0  0.00000000000E+00  0.00000000000E+00  0.12359881836E+04  0.12359881836E+04  0.25500000920E-02 0. -1.
       -2   -1    0    0    0  501  0.00000000000E+00  0.00000000000E+00 -0.20742993784E+04  0.20742993784E+04  0.25500000920E-02 0.  1.
    10030    2    1    2    0    0  0.00000000000E+00  0.00000000000E+00 -0.83831119482E+03  0.33102875621E+04  0.32023800655E+04 0.  0.
        5    1    3    3  502    0  0.58239968376E+03  0.82221845558E+03 -0.17054966944E+04  0.19809022300E+04  0.46999998093E+01 0.  1.
       -5    1    3    3    0  502 -0.58239968376E+03 -0.82221845558E+03  0.86718549958E+03  0.13293853320E+04  0.46999998093E+01 0. -1.
</event>
<event>
 5   0  0.5177039E-07  0.3205471E+04  0.7818609E-02  0.8187374E-01
        1   -1    0    0  501    0  0.00000000000E+00  0.00000000000E+00  0.13492896342E+04  0.13492896342E+04  0.50400001928E-02 0. -1.
       -1   -1    0    0    0  501  0.00000000000E+00  0.00000000000E+00 -0.19037876303E+04  0.19037876303E+04  0.50400001928E-02 0.  1.
    10030    2    1    2    0    0  0.00000000000E+00  0.00000000000E+00 -0.55449799618E+03  0.32530772645E+04  0.32054708954E+04 0.  0.
        3    1    3    3  502    0  0.15151053791E+04 -0.48215003444E+03 -0.72389848020E+02  0.15916196989E+04  0.10100000352E+00 0. -1.
       -3    1    3    3    0  502 -0.15151053791E+04  0.48215003444E+03 -0.48210814816E+03  0.16614575656E+04  0.10100000352E+00 0.  1.
</event>
<event>
 5   0  0.1538349E-06  0.3232126E+04  0.7818609E-02  0.8180384E-01
        2   -1    0    0  501    0  0.00000000000E+00  0.00000000000E+00  0.20134030023E+04  0.20134030023E+04  0.25500000920E-02 0.  1.
       -2   -1    0    0    0  501  0.00000000000E+00  0.00000000000E+00 -0.12971373913E+04  0.12971373913E+04  0.25500000920E-02 0. -1.
    10030    2    1    2    0    0  0.00000000000E+00  0.00000000000E+00  0.71626561104E+03  0.33105403936E+04  0.32321264320E+04 0.  0.
        1    1    3    3  502    0 -0.10419481565E+04  0.48419788318E+03 -0.80590557507E+03  0.14034198755E+04  0.50400001928E-02 0. -1.
       -1    1    3    3    0  502  0.10419481565E+04 -0.48419788318E+03  0.15221711861E+04  0.19071205182E+04  0.50400001928E-02 0.  1.
</event>
<event>
 5   0  0.5177039E-07  0.3197223E+04  0.7818609E-02  0.8189551E-01
       -1   -1    0    0    0  501  0.00000000000E+00  0.00000000000E+00  0.19716499290E+04  0.19716499290E+04  0.50400001928E-02 0. -1.
        1   -1    0    0  501    0  0.00000000000E+00  0.00000000000E+00 -0.12961520914E+04  0.12961520914E+04  0.50400001928E-02 0.  1.
    10030    2    1    2    0    0  0.00000000000E+00  0.00000000000E+00  0.67549783758E+03  0.32678020204E+04  0.31972226566E+04 0.  0.
        3    1    3    3  502    0 -0.46193108036E+03  0.57280438047E+03 -0.11127601802E+04  0.13340616216E+04  0.10100000352E+00 0.  1.
       -3    1    3    3    0  502  0.46193108036E+03 -0.57280438047E+03  0.17882580178E+04  0.19337403988E+04  0.10100000352E+00 0. -1.
</event>
<event>
 5   0  0.1572769E-06  0.3226398E+04  0.7818609E-02  0.8181880E-01
        2   -1    0    0  501    0  0.00000000000E+00  0.00000000000E+00  0.15097830309E+04  0.15097830309E+04  0.25500000920E-02 0. -1.
       -2   -1    0    0    0  501  0.00000000000E+00  0.00000000000E+00 -0.17236990024E+04  0.17236990024E+04  0.25500000920E-02 0.  1.
    10030    2    1    2    0    0  0.00000000000E+00  0.00000000000E+00 -0.21391597156E+03  0.32334820333E+04  0.32263983041E+04 0.  0.
        5    1    3    3  502    0 -0.15846829926E+04  0.24347082032E+03  0.72015135822E+02  0.16049007748E+04  0.46999998093E+01 0. -1.
       -5    1    3    3    0  502  0.15846829926E+04 -0.24347082032E+03 -0.28593110738E+03  0.16285812585E+04  0.46999998093E+01 0.  1.
</event>
<event>
 5   0  0.1556396E-06  0.3213230E+04  0.7818609E-02  0.8185332E-01
       -2   -1    0    0    0  501  0.00000000000E+00  0.00000000000E+00  0.14723243661E+04  0.14723243661E+04  0.25500000920E-02 0. -1.
        2   -1    0    0  501    0  0.00000000000E+00  0.00000000000E+00 -0.17531547660E+04  0.17531547660E+04  0.25500000920E-02 0.  1.
    10030    2    1    2    0    0  0.00000000000E+00  0.00000000000E+00 -0.28083039986E+03  0.32254791321E+04  0.32132304490E+04 0.  0.
        3    1    3    3  502    0  0.12147867920E+04  0.93821526371E+03  0.33600714902E+03  0.15712592547E+04  0.10100000352E+00 0.  1.
       -3    1    3    3    0  502 -0.12147867920E+04 -0.93821526371E+03 -0.61683754888E+03  0.16542198774E+04  0.10100000352E+00 0. -1.
</event>
<event>
 5   0  0.1556396E-06  0.3202714E+04  0.7818609E-02  0.8188101E-01
       -2   -1    0    0    0  501  0.00000000000E+00  0.00000000000E+00  0.35917859172E+04  0.35917859172E+04  0.25500000920E-02 0. -1.
        2   -1    0    0  501    0  0.00000000000E+00  0.00000000000E+00 -0.71394689771E+03  0.71394689772E+03  0.25500000920E-02 0.  1.
    10030    2    1    2    0    0  0.00000000000E+00  0.00000000000E+00  0.28778390194E+04  0.43057328149E+04  0.32027141070E+04 0.  0.
        3    1    3    3  502    0 -0.27655962749E+03 -0.15485818974E+04  0.10361523305E+04  0.18836673758E+04  0.10100000352E+00 0.  1.
       -3    1    3    3    0  502  0.27655962749E+03  0.15485818974E+04  0.18416866890E+04  0.24220654391E+04  0.10100000352E+00 0. -1.
</event>
<event>
 5   0  0.5370912E-07  0.3196920E+04  0.7818609E-02  0.8189631E-01
        1   -1    0    0  501    0  0.00000000000E+00  0.00000000000E+00  0.15140511181E+04  0.15140511181E+04  0.50400001928E-02 0. -1.
       -1   -1    0    0    0  501  0.00000000000E+00  0.00000000000E+00 -0.16875747487E+04  0.16875747487E+04  0.50400001928E-02 0.  1.
    10030    2    1    2    0    0  0.00000000000E+00  0.00000000000E+00 -0.17352363060E+03  0.32016258669E+04  0.31969200398E+04 0.  0.
        1    1    3    3  502    0 -0.55811203945E+03  0.78233432730E+03 -0.13659588803E+04  0.16701436198E+04  0.50400001928E-02 0.  1.
       -1    1    3    3    0  502  0.55811203945E+03 -0.78233432730E+03  0.11924352497E+04  0.15314822470E+04  0.50400001928E-02 0. -1.
</event>
<event>
 5   0  0.5233813E-07  0.3141153E+04  0.7818609E-02  0.8204534E-01
        1   -1    0    0  501    0  0.00000000000E+00  0.00000000000E+00  0.13167952869E+04  0.13167952869E+04  0.50400001928E-02 0. -1.
       -1   -1    0    0    0  501  0.00000000000E+00  0.00000000000E+00 -0.18732677518E+04  0.18732677518E+04  0.50400001928E-02 0.  1.
    10030    2    1    2    0    0  0.00000000000E+00  0.00000000000E+00 -0.55647246492E+03  0.31900630388E+04  0.31411527481E+04 0.  0.
        4    1    3    3  502    0 -0.97954630942E+03 -0.11483337469E+04  0.16272172108E+03  0.15181111086E+04  0.12699999809E+01 0.  1.
       -4    1    3    3    0  502  0.97954630942E+03  0.11483337469E+04 -0.71919418601E+03  0.16719519302E+04  0.12699999809E+01 0. -1.
</event>
<event>
 5   0  0.5370912E-07  0.3165872E+04  0.7818609E-02  0.8197889E-01
       -1   -1    0    0    0  501  0.00000000000E+00  0.00000000000E+00  0.14947676943E+04  0.14947676943E+04  0.50400001928E-02 0.  1.
        1   -1    0    0  501    0  0.00000000000E+00  0.00000000000E+00 -0.16763050621E+04  0.16763050621E+04  0.50400001928E-02 0. -1.
    10030    2    1    2    0    0  0.00000000000E+00  0.00000000000E+00 -0.18153736772E+03  0.31710727564E+04  0.31658721722E+04 0.  0.
        1    1    3    3  502    0  0.13526231167E+04  0.55465992452E+03  0.51722903431E+03  0.15507297642E+04  0.50400001928E-02 0.  1.
       -1    1    3    3    0  502 -0.13526231167E+04 -0.55465992452E+03 -0.69876640204E+03  0.16203429922E+04  0.50400001928E-02 0. -1.
</event>
<event>
 5   0  0.4995625E-07  0.3194001E+04  0.7818609E-02  0.8190403E-01
       -3   -1    0    0    0  501  0.00000000000E+00  0.00000000000E+00  0.18047983488E+04  0.18047983516E+04  0.10100000352E+00 0.  1.
        3   -1    0    0  501    0  0.00000000000E+00  0.00000000000E+00 -0.14131273433E+04  0.14131273469E+04  0.10100000352E+00 0. -1.
    10030    2    1    2    0    0  0.00000000000E+00  0.00000000000E+00  0.39167100546E+03  0.32179256985E+04  0.31940005674E+04 0.  0.
        2    1    3    3  502    0 -0.10603325063E+04  0.80263177216E+03  0.10867028740E+04  0.17173950978E+04  0.25500000920E-02 0.  1.
       -2    1    3    3    0  502  0.10603325063E+04 -0.80263177216E+03 -0.69503186849E+03  0.15005306008E+04  0.25500000920E-02 0. -1.
</event>
<event>
 5   0  0.5177039E-07  0.3197669E+04  0.7818609E-02  0.8189433E-01
       -1   -1    0    0    0  501  0.00000000000E+00  0.00000000000E+00  0.91734544478E+03  0.91734544480E+03  0.50400001928E-02 0.  1.
        1   -1    0    0  501    0  0.00000000000E+00  0.00000000000E+00 -0.27865975185E+04  0.27865975185E+04  0.50400001928E-02 0. -1.
    10030    2    1    2    0    0  0.00000000000E+00  0.00000000000E+00 -0.18692520737E+04  0.37039429633E+04  0.31976694889E+04 0.  0.
        3    1    3    3  502    0  0.10871077417E+04 -0.19572647967E+03 -0.22735626604E+04  0.25276865467E+04  0.10100000352E+00 0. -1.
       -3    1    3    3    0  502 -0.10871077417E+04  0.19572647967E+03  0.40431058671E+03  0.11762564167E+04  0.10100000352E+00 0.  1.
</event>
<event>
 5   0  0.5233813E-07  0.3206657E+04  0.7818609E-02  0.8187061E-01
       -1   -1    0    0    0  501  0.00000000000E+00  0.00000000000E+00  0.13749621628E+04  0.13749621628E+04  0.50400001928E-02 0. -1.
        1   -1    0    0  501    0  0.00000000000E+00  0.00000000000E+00 -0.18696241557E+04  0.18696241557E+04  0.50400001928E-02 0.  1.
    10030    2    1    2    0    0  0.00000000000E+00  0.00000000000E+00 -0.49466199291E+03  0.32445863185E+04  0.32066571209E+04 0.  0.
        4    1    3    3  502    0 -0.93211186611E+03  0.27788362783E+03 -0.15370088374E+04  0.18189144072E+04  0.12699999809E+01 0.  1.
       -4    1    3    3    0  502  0.93211186611E+03 -0.27788362783E+03  0.10423468445E+04  0.14256719113E+04  0.12699999809E+01 0. -1.
</event>
<event>
 5   0  0.5317728E-07  0.3148521E+04  0.7818609E-02  0.8202547E-01
       -1   -1    0    0    0  501  0.00000000000E+00  0.00000000000E+00  0.16910108879E+04  0.16910108879E+04  0.50400001928E-02 0. -1.
        1   -1    0    0  501    0  0.00000000000E+00  0.00000000000E+00 -0.14655703264E+04  0.14655703264E+04  0.50400001928E-02 0.  1.
    10030    2    1    2    0    0  0.00000000000E+00  0.00000000000E+00  0.22544056149E+03  0.31565812143E+04  0.31485205280E+04 0.  0.
        2    1    3    3  502    0  0.10802832210E+04  0.36065766852E+03  0.12023374052E+04  0.16561102100E+04  0.25500000920E-02 0. -1.
       -2    1    3    3    0  502 -0.10802832210E+04 -0.36065766852E+03 -0.97689684374E+03  0.15004710043E+04  0.25500000920E-02 0.  1.
</event>
<event>
 5   0  0.1493485E-06  0.3190411E+04  0.7818609E-02  0.8191354E-01
       -2   -1    0    0    0  501  0.00000000000E+00  0.00000000000E+00  0.13618792804E+04  0.13618792804E+04  0.25500000920E-02 0. -1.
        2   -1    0    0  501    0  0.00000000000E+00  0.00000000000E+00 -0.18685063386E+04  0.18685063386E+04  0.25500000920E-02 0.  1.
    10030    2    1    2    0    0  0.00000000000E+00  0.00000000000E+00 -0.50662705815E+03  0.32303856190E+04  0.31904106744E+04 0.  0.
        2    1    3    3  502    0 -0.14549935692E+04  0.65382784107E+03 -0.23961868551E+03  0.16130450231E+04  0.25500000920E-02 0.  1.
       -2    1    3    3    0  502  0.14549935692E+04 -0.65382784107E+03 -0.26700837263E+03  0.16173405959E+04  0.25500000920E-02 0. -1.
</event>
<event>
 5   0  0.5281187E-07  0.3188858E+04  0.7818609E-02  0.8191766E-01
        1   -1    0    0  501    0  0.00000000000E+00  0.00000000000E+00  0.17475386491E+04  0.17475386491E+04  0.50400001928E-02 0. -1.
       -1   -1    0    0    0  501  0.00000000000E+00  0.00000000000E+00 -0.14547340616E+04  0.14547340616E+04  0.50400001928E-02 0.  1.
    10030    2    1    2    0    0  0.00000000000E+00  0.00000000000E+00  0.29280458749E+03  0.32022727107E+04  0.31888581008E+04 0.  0.
        5    1    3    3  502    0 -0.82662702992E+03  0.10269376411E+04  0.10469852324E+04  0.16834825012E+04  0.46999998093E+01 0. -1.
       -5    1    3    3    0  502  0.82662702992E+03 -0.10269376411E+04 -0.75418064487E+03  0.15187902094E+04  0.46999998093E+01 0.  1.
</event>
<event>
 5   0  0.5177039E-07  0.3194878E+04  0.7818609E-02  0.8190171E-01
        1   -1    0    0  501    0  0.00000000000E+00  0.00000000000E+00  0.20285264591E+04  0.20285264591E+04  0.50400001928E-02 0.  1.
       -1   -1    0    0    0  501  0.00000000000E+00  0.00000000000E+00 -0.12579631864E+04  0.12579631864E+04  0.50400001928E-02 0. -1.
    10030    2    1    2    0    0  0.00000000000E+00  0.00000000000E+00  0.77056327274E+03  0.32864896455E+04  0.31948781561E+04 0.  0.
        3    1    3    3  502    0  0.61075170350E+02  0.13675141911E+04 -0.46172818513E+03  0.14446515726E+04  0.10100000352E+00 0. -1.
       -3    1    3    3    0  502 -0.61075170350E+02 -0.13675141911E+04  0.12322914579E+04  0.18418380728E+04  0.10100000352E+00 0.  1.
</event>
<event>
 5   0  0.1493485E-06  0.2821440E+04  0.7818609E-02  0.8296643E-01
        2   -1    0    0  501    0  0.00000000000E+00  0.00000000000E+00  0.17860900229E+04  0.17860900229E+04  0.25500000920E-02 0.  1.
       -2   -1    0    0    0  501  0.00000000000E+00  0.00000000000E+00 -0.11142385309E+04  0.11142385309E+04  0.25500000920E-02 0. -1.
    10030    2    1    2    0    0  0.00000000000E+00  0.00000000000E+00  0.67185149201E+03  0.29003285538E+04  0.28214395781E+04 0.  0.
        2    1    3    3  502    0 -0.10060596776E+04  0.17564311087E+03  0.13363398519E+04  0.16819068872E+04  0.25500000920E-02 0.  1.
       -2    1    3    3    0  502  0.10060596776E+04 -0.17564311087E+03 -0.66448835986E+03  0.12184216667E+04  0.25500000920E-02 0. -1.
</event>
<event>
 5   0  0.5317728E-07  0.2976438E+04  0.7818609E-02  0.8250491E-01
       -1   -1    0    0    0  501  0.00000000000E+00  0.00000000000E+00  0.11610947213E+04  0.11610947213E+04  0.50400001928E-02 0.  1.
        1   -1    0    0  501    0  0.00000000000E+00  0.00000000000E+00 -0.19075064091E+04  0.19075064091E+04  0.50400001928E-02 0. -1.
    10030    2    1    2    0    0  0.00000000000E+00  0.00000000000E+00 -0.74641168778E+03  0.30686011303E+04  0.29764378860E+04 0.  0.
        2    1    3    3  502    0 -0.51184289166E+03 -0.76766251820E+03  0.83064383290E+03  0.12414741498E+04  0.25500000920E-02 0.  1.
       -2    1    3    3    0  502  0.51184289166E+03  0.76766251820E+03 -0.15770555207E+04  0.18271269805E+04  0.25500000920E-02 0. -1.
</event>
<event>
 5   0  0.5281187E-07  0.3230165E+04  0.7818609E-02  0.8180896E-01
       -1   -1    0    0    0  501  0.00000000000E+00  0.00000000000E+00  0.12636197118E+04  0.12636197118E+04  0.50400001928E-02 0.  1.
        1   -1    0    0  501    0  0.00000000000E+00  0.00000000000E+00 -0.20643011408E+04  0.20643011408E+04  0.50400001928E-02 0. -1.
    10030    2    1    2    0    0  0.00000000000E+00  0.00000000000E+00 -0.80068142900E+03  0.33279208527E+04  0.32301650811E+04 0.  0.
        5    1    3    3  502    0  0.26299949377E+01  0.15265515122E+04 -0.94365506406E+03  0.17946791931E+04  0.46999998093E+01 0.  1.
       -5    1    3    3    0  502 -0.26299949377E+01 -0.15265515122E+04  0.14297363506E+03  0.15332416596E+04  0.46999998093E+01 0. -1.
</event>
<event>
 5   0  0.1538349E-06  0.3201269E+04  0.7818609E-02  0.8188482E-01
       -2   -1    0    0    0  501  0.00000000000E+00  0.00000000000E+00  0.10818511429E+04  0.10818511429E+04  0.25500000920E-02 0. -1.
        2   -1    0    0  501    0  0.00000000000E+00  0.00000000000E+00 -0.23681916388E+04  0.23681916388E+04  0.25500000920E-02 0.  1.
    10030    2    1    2    0    0  0.00000000000E+00  0.00000000000E+00 -0.12863404960E+04  0.34500427817E+04  0.32012690177E+04 0.  0.
        1    1    3    3  502    0 -0.40096925432E+03 -0.23744111574E+03  0.10071273546E+04  0.11097117350E+04  0.50400001928E-02 0. -1.
       -1    1    3    3    0  502  0.40096925432E+03  0.23744111574E+03 -0.22934678506E+04  0.23403310467E+04  0.50400001928E-02 0.  1.
</event>
<event>
 5   0  0.1493485E-06  0.3189403E+04  0.7818609E-02  0.8191622E-01
        2   -1    0    0  501    0  0.00000000000E+00  0.00000000000E+00  0.26954393149E+04  0.26954393149E+04  0.25500000920E-02 0.  1.
       -2   -1    0    0    0  501  0.00000000000E+00  0.00000000000E+00 -0.94347221795E+03  0.94347221795E+03  0.25500000920E-02 0. -1.
    10030    2    1    2    0    0  0.00000000000E+00  0.00000000000E+00  0.17519670970E+04  0.36389115329E+04  0.31894025201E+04 0.  0.
        2    1    3    3  502    0  0.62198540726E+03 -0.14669490154E+04  0.80145618596E+03  0.17835742986E+04  0.25500000920E-02 0.  1.
       -2    1    3    3    0  502 -0.62198540726E+03  0.14669490154E+04  0.95051091101E+03  0.18553372342E+04  0.25500000920E-02 0. -1.
</event>
<event>
 5   0  0.1508771E-06  0.3197788E+04  0.7818609E-02  0.8189402E-01
       -2   -1    0    0    0  501  0.00000000000E+00  0.00000000000E+00  0.16940302778E+04  0.16940302778E+04  0.25500000920E-02 0. -1.
        2   -1    0    0  501    0  0.00000000000E+00  0.00000000000E+00 -0.15091001628E+04  0.15091001628E+04  0.25500000920E-02 0.  1.
    10030    2    1    2    0    0  0.00000000000E+00  0.00000000000E+00  0.18493011499E+03  0.32031304406E+04  0.31977875902E+04 0.  0.
        4    1    3    3  502    0  0.54975236890E+03  0.92210074706E+03  0.12793339165E+04  0.16700881227E+04  0.12699999809E+01 0. -1.
       -4    1    3    3    0  502 -0.54975236890E+03 -0.92210074706E+03 -0.10944038015E+04  0.15330423179E+04  0.12699999809E+01 0.  1.
</event>
<event>
 5   0  0.1572769E-06  0.3194967E+04  0.7818609E-02  0.8190148E-01
        2   -1    0    0  501    0  0.00000000000E+00  0.00000000000E+00  0.12174741165E+04  0.12174741165E+04  0.25500000920E-02 0. -1.
       -2   -1    0    0    0  501  0.00000000000E+00  0.00000000000E+00 -0.20961053734E+04  0.20961053734E+04  0.25500000920E-02 0.  1.
    10030    2    1    2    0    0  0.00000000000E+00  0.00000000000E+00 -0.87863125696E+03  0.33135794899E+04  0.31949673160E+04 0.  0.
        5    1    3    3  502    0  0.76566594465E+03  0.37029128556E+03  0.96313313240E+03  0.12849153652E+04  0.46999998093E+01 0. -1.
       -5    1    3    3    0  502 -0.76566594465E+03 -0.37029128556E+03 -0.18417643894E+04  0.20286641247E+04  0.46999998093E+01 0.  1.
</event>
<event>
 5   0  0.1508771E-06  0.3216567E+04  0.7818609E-02  0.8184455E-01
        2   -1    0    0  501    0  0.00000000000E+00  0.00000000000E+00  0.16632184635E+04  0.16632184635E+04  0.25500000920E-02 0. -1.
       -2   -1    0    0    0  501  0.00000000000E+00  0.00000000000E+00 -0.15551634792E+04  0.15551634792E+04  0.25500000920E-02 0.  1.
    10030    2    1    2    0    0  0.00000000000E+00  0.00000000000E+00  0.10805498425E+03  0.32183819427E+04  0.32165674949E+04 0.  0.
        4    1    3    3  502    0 -0.22878355854E+03 -0.84676713223E+03 -0.12947754032E+04  0.15639058317E+04  0.12699999809E+01 0.  1.
       -4    1    3    3    0  502  0.22878355854E+03  0.84676713223E+03  0.14028303874E+04  0.16544761109E+04  0.12699999809E+01 0. -1.
</event>
<event>
 5   0  0.1538349E-06  0.3192928E+04  0.7818609E-02  0.8190687E-01
       -2   -1    0    0    0  501  0.00000000000E+00  0.00000000000E+00  0.12677680296E+04  0.12677680296E+04  0.25500000920E-02 0.  1.
        2   -1    0    0  501    0  0.00000000000E+00  0.00000000000E+00 -0.20103819743E+04  0.20103819743E+04  0.25500000920E-02 0. -1.
    10030    2    1    2    0    0  0.00000000000E+00  0.00000000000E+00 -0.74261394466E+03  0.32781500039E+04  0.31929284329E+04 0.  0.
        1    1    3    3  502    0 -0.12714317123E+04 -0.94297257917E+03 -0.58411227292E+03  0.16872827361E+04  0.50400001928E-02 0. -1.
       -1    1    3    3    0  502  0.12714317123E+04  0.94297257917E+03 -0.15850167174E+03  0.15908672679E+04  0.50400001928E-02 0.  1.
</event>
<event>
 5   0  0.5317728E-07  0.3209555E+04  0.7818609E-02  0.8186298E-01
       -1   -1    0    0    0  501  0.00000000000E+00  0.00000000000E+00  0.11796348375E+04  0.11796348375E+04  0.50400001928E-02 0. -1.
        1   -1    0    0  501    0  0.00000000000E+00  0.00000000000E+00 -0.21831419032E+04  0.21831419032E+04  0.50400001928E-02 0.  1.
    10030    2    1    2    0    0  0.00000000000E+00  0.00000000000E+00 -0.10035070658E+04  0.33627767407E+04  0.32095546384E+04 0.  0.
        2    1    3    3  502    0 -0.74924366812E+03  0.14189548708E+04 -0.47806339412E+03  0.16743188491E+04  0.25500000920E-02 0. -1.
       -2    1    3    3    0  502  0.74924366812E+03 -0.14189548708E+04 -0.52544367164E+03  0.16884578916E+04  0.25500000920E-02 0.  1.
</event>
<event>
 5   0  0.1493485E-06  0.3305595E+04  0.7818609E-02  0.8161473E-01
       -2   -1    0    0    0  501  0.00000000000E+00  0.00000000000E+00  0.11683144213E+04  0.11683144213E+04  0.25500000920E-02 0.  1.
        2   -1    0    0  501    0  0.00000000000E+00  0.00000000000E+00 -0.23381887857E+04  0.23381887857E+04  0.25500000920E-02 0. -1.
    10030    2    1    2    0    0  0.00000000000E+00  0.00000000000E+00 -0.11698743644E+04  0.35065032070E+04  0.33055950618E+04 0.  0.
        2    1    3    3  502    0 -0.10597039956E+04 -0.12166680268E+04 -0.20470178101E+03  0.16263936992E+04  0.25500000920E-02 0.  1.
       -2    1    3    3    0  502  0.10597039956E+04  0.12166680268E+04 -0.96517258338E+03  0.18801095078E+04  0.25500000920E-02 0. -1.
</event>
<event>
 5   0  0.1556396E-06  0.3208553E+04  0.7818609E-02  0.8186562E-01
        2   -1    0    0  501    0  0.00000000000E+00  0.00000000000E+00  0.15801214558E+04  0.15801214558E+04  0.25500000920E-02 0.  1.
       -2   -1    0    0    0  501  0.00000000000E+00  0.00000000000E+00 -0.16288011322E+04  0.16288011322E+04  0.25500000920E-02 0. -1.
    10030    2    1    2    0    0  0.00000000000E+00  0.00000000000E+00 -0.48679676354E+02  0.32089225880E+04  0.32085533290E+04 0.  0.
        3    1    3    3  502    0 -0.11318972054E+04  0.95408267676E+03 -0.64266544323E+03  0.16138413552E+04  0.10100000352E+00 0. -1.
       -3    1    3    3    0  502  0.11318972054E+04 -0.95408267676E+03  0.59398576688E+03  0.15950812328E+04  0.10100000352E+00 0.  1.
</event>
<event>
 5   0  0.1572769E-06  0.3213548E+04  0.7818609E-02  0.8185248E-01
        2   -1    0    0  501    0  0.00000000000E+00  0.00000000000E+00  0.16023108826E+04  0.16023108826E+04  0.25500000920E-02 0. -1.
       -2   -1    0    0    0  501  0.00000000000E+00  0.00000000000E+00 -0.16112492600E+04  0.16112492600E+04  0.25500000920E-02 0.  1.
    10030    2    1    2    0    0  0.00000000000E+00  0.00000000000E+00 -0.89383773852E+01  0.32135601426E+04  0.32135477117E+04 0.  0.
        5    1    3    3  502    0  0.47851779398E+03  0.97298868762E+03  0.11812899547E+04  0.16034819339E+04  0.46999998093E+01 0. -1.
       -5    1    3    3    0  502 -0.47851779398E+03 -0.97298868762E+03 -0.11902283321E+04  0.16100782086E+04  0.46999998093E+01 0.  1.
</event>
<event>
 5   0  0.1538349E-06  0.3166620E+04  0.7818609E-02  0.8197689E-01
       -2   -1    0    0    0  501  0.00000000000E+00  0.00000000000E+00  0.16460149562E+04  0.16460149562E+04  0.25500000920E-02 0. -1.
        2   -1    0    0  501    0  0.00000000000E+00  0.00000000000E+00 -0.15229939364E+04  0.15229939364E+04  0.25500000920E-02 0.  1.
    10030    2    1    2    0    0  0.00000000000E+00  0.00000000000E+00  0.12302101982E+03  0.31690088926E+04  0.31666201525E+04 0.  0.
        1    1    3    3  502    0  0.12801064709E+04 -0.93175799481E+03  0.56480819192E+02  0.15843091936E+04  0.50400001928E-02 0. -1.
       -1    1    3    3    0  502 -0.12801064709E+04  0.93175799481E+03  0.66540200625E+02  0.15846996990E+04  0.50400001928E-02 0.  1.
</event>
<event>
 5   0  0.5370912E-07  0.3188410E+04  0.7818609E-02  0.8191885E-01
       -1   -1    0    0    0  501  0.00000000000E+00  0.00000000000E+00  0.20691777615E+04  0.20691777615E+04  0.50400001928E-02 0.  1.
        1   -1    0    0  501    0  0.00000000000E+00  0.00000000000E+00 -0.12282607208E+04  0.12282607209E+04  0.50400001928E-02 0. -1.
    10030    2    1    2    0    0  0.00000000000E+00  0.00000000000E+00  0.84091704069E+03  0.32974384824E+04  0.31884101173E+04 0.  0.
        1    1    3    3  502    0  0.97726607774E+03  0.77771930496E+03 -0.60417451205E+03  0.13874159957E+04  0.50400001928E-02 0. -1.
       -1    1    3    3    0  502 -0.97726607774E+03 -0.77771930496E+03  0.14450915527E+04  0.19100224867E+04  0.50400001928E-02 0.  1.
</event>
<event>
 5   0  0.1493485E-06  0.3227412E+04  0.7818609E-02  0.8181615E-01
        2   -1    0    0  501    0  0.00000000000E+00  0.00000000000E+00  0.15750349408E+04  0.15750349408E+04  0.25500000920E-02 0.  1.
       -2   -1    0    0    0  501  0.00000000000E+00  0.00000000000E+00 -0.16533263704E+04  0.16533263704E+04  0.25500000920E-02 0. -1.
    10030    2    1    2    0    0  0.00000000000E+00  0.00000000000E+00 -0.78291429579E+02  0.32283613112E+04  0.32274118436E+04 0.  0.
        2    1    3    3  502    0 -0.11386977455E+04 -0.10523712965E+04  0.40811992386E+03  0.16033339557E+04  0.25500000920E-02 0.  1.
       -2    1    3    3    0  502  0.11386977455E+04  0.10523712965E+04 -0.48641135344E+03  0.16250273555E+04  0.25500000920E-02 0. -1.
</event>
<event>
 5   0  0.5281187E-07  0.3194732E+04  0.7818609E-02  0.8190210E-01
       -1   -1    0    0    0  501  0.00000000000E+00  0.00000000000E+00  0.11527715776E+04  0.11527715776E+04  0.50400001928E-02 0. -1.
        1   -1    0    0  501    0  0.00000000000E+00  0.00000000000E+00 -0.22134285439E+04  0.22134285439E+04  0.50400001928E-02 0.  1.
    10030    2    1    2    0    0  0.00000000000E+00  0.00000000000E+00 -0.10606569663E+04  0.33662001216E+04  0.31947316097E+04 0.  0.
        5    1    3    3  502    0  0.11425943915E+04 -0.98349618969E+03  0.25995237297E+02  0.15078078594E+04  0.46999998093E+01 0. -1.
       -5    1    3    3    0  502 -0.11425943915E+04  0.98349618969E+03 -0.10866522036E+04  0.18583922622E+04  0.46999998093E+01 0.  1.
</event>
<event>
 5   0  0.1572769E-06  0.3168098E+04  0.7818609E-02  0.8197294E-01
        2   -1    0    0  501    0  0.00000000000E+00  0.00000000000E+00  0.10492720323E+04  0.10492720323E+04  0.25500000920E-02 0. -1.
       -2   -1    0    0    0  501  0.00000000000E+00  0.00000000000E+00 -0.23913825341E+04  0.23913825341E+04  0.25500000920E-02 0.  1.
    10030    2    1    2    0    0  0.00000000000E+00  0.00000000000E+00 -0.13421105018E+04  0.34406545663E+04  0.31680977330E+04 0.  0.
        5    1    3    3  502    0 -0.12934778470E+04 -0.90576715874E+03 -0.53502079580E+03  0.16672637549E+04  0.46999998093E+01 0. -1.
       -5    1    3    3    0  502  0.12934778470E+04  0.90576715874E+03 -0.80708970602E+03  0.17733908114E+04  0.46999998093E+01 0.  1.
</event>
<event>
 5   0  0.5233813E-07  0.3210786E+04  0.7818609E-02  0.8185974E-01
        1   -1    0    0  501    0  0.00000000000E+00  0.00000000000E+00  0.22314726663E+04  0.22314726663E+04  0.50400001928E-02 0.  1.
       -1   -1    0    0    0  501  0.00000000000E+00  0.00000000000E+00 -0.11549714420E+04  0.11549714420E+04  0.50400001928E-02 0. -1.
    10030    2    1    2    0    0  0.00000000000E+00  0.00000000000E+00  0.10765012243E+04  0.33864441083E+04  0.32107863231E+04 0.  0.
        4    1    3    3  502    0 -0.59002363812E+03 -0.12516965283E+04  0.13966652100E+04  0.19660995434E+04  0.12699999809E+01 0.  1.
       -4    1    3    3    0  502  0.59002363812E+03  0.12516965283E+04 -0.32016398574E+03  0.14203445650E+04  0.12699999809E+01 0. -1.
</event>
<event>
 5   0  0.1508771E-06  0.3242863E+04  0.7818609E-02  0.8177588E-01
       -2   -1    0    0    0  501  0.00000000000E+00  0.00000000000E+00  0.95079623372E+03  0.95079623373E+03  0.25500000920E-02 0.  1.
        2   -1    0    0  501    0  0.00000000000E+00  0.00000000000E+00 -0.27650939309E+04  0.27650939309E+04  0.25500000920E-02 0. -1.
    10030    2    1    2    0    0  0.00000000000E+00  0.00000000000E+00 -0.18142976972E+04  0.37158901646E+04  0.32428634849E+04 0.  0.
        4    1    3    3  502    0 -0.10588152047E+04  0.12220339644E+04 -0.76877558027E+03  0.17903838006E+04  0.12699999809E+01 0.  1.
       -4    1    3    3    0  502  0.10588152047E+04 -0.12220339644E+04 -0.10455221169E+04  0.19255063640E+04  0.12699999809E+01 0. -1.
</event>
<event>
 5   0  0.5370912E-07  0.3185901E+04  0.7818609E-02  0.8192551E-01
       -1   -1    0    0    0  501  0.00000000000E+00  0.00000000000E+00  0.13123488757E+04  0.13123488757E+04  0.50400001928E-02 0. -1.
        1   -1    0    0  501    0  0.00000000000E+00  0.00000000000E+00 -0.19335489398E+04  0.19335489398E+04  0.50400001928E-02 0.  1.
    10030    2    1    2    0    0  0.00000000000E+00  0.00000000000E+00 -0.62120006406E+03  0.32458978155E+04  0.31859006747E+04 0.  0.
        1    1    3    3  502    0  0.90115798554E+03  0.12552092510E+04 -0.70500096966E+03  0.16984293762E+04  0.50400001928E-02 0. -1.
       -1    1    3    3    0  502 -0.90115798554E+03 -0.12552092510E+04  0.83800905606E+02  0.15474684393E+04  0.50400001928E-02 0.  1.
</event>
<event>
 5   0  0.1538349E-06  0.3194125E+04  0.7818609E-02  0.8190371E-01
        2   -1    0    0  501    0  0.00000000000E+00  0.00000000000E+00  0.18354736629E+04  0.18354736629E+04  0.25500000920E-02 0. -1.
       -2   -1    0    0    0  501  0.00000000000E+00  0.00000000000E+00 -0.13896184343E+04  0.13896184343E+04  0.25500000920E-02 0.  1.
    10030    2    1    2    0    0  0.00000000000E+00  0.00000000000E+00  0.44585522866E+03  0.32250920972E+04  0.31941246298E+04 0.  0.
        1    1    3    3  502    0 -0.95297392773E+03 -0.11340248985E+03 -0.10660021515E+04  0.14343570053E+04  0.50400001928E-02 0.  1.
       -1    1    3    3    0  502  0.95297392773E+03  0.11340248985E+03  0.15118573801E+04  0.17907350919E+04  0.50400001928E-02 0. -1.
</event>
<event>
 5   0  0.5233813E-07  0.3216651E+04  0.7818609E-02  0.8184433E-01
       -1   -1    0    0    0  501  0.00000000000E+00  0.00000000000E+00  0.22077213821E+04  0.22077213821E+04  0.50400001928E-02 0.  1.
        1   -1    0    0  501    0  0.00000000000E+00  0.00000000000E+00 -0.11716657493E+04  0.11716657493E+04  0.50400001928E-02 0. -1.
    10030    2    1    2    0    0  0.00000000000E+00  0.00000000000E+00  0.10360556328E+04  0.33793871314E+04  0.32166513814E+04 0.  0.
        4    1    3    3  502    0 -0.26754000529E+03 -0.74068132255E+03  0.19913017824E+04  0.21413712610E+04  0.12699999809E+01 0.  1.
       -4    1    3    3    0  502  0.26754000529E+03  0.74068132255E+03 -0.95524614963E+03  0.12380158704E+04  0.12699999809E+01 0. -1.
</event>
<event>
 5   0  0.1556396E-06  0.3192065E+04  0.7818609E-02  0.8190916E-01
        2   -1    0    0  501    0  0.00000000000E+00  0.00000000000E+00  0.14334432279E+04  0.14334432279E+04  0.25500000920E-02 0.  1.
       -2   -1    0    0    0  501  0.00000000000E+00  0.00000000000E+00 -0.17770635827E+04  0.17770635827E+04  0.25500000920E-02 0. -1.
    10030    2    1    2    0    0  0.00000000000E+00  0.00000000000E+00 -0.34362035485E+03  0.32105068106E+04  0.31920650107E+04 0.  0.
        3    1    3    3  502    0  0.10014778559E+04 -0.65566733426E+03 -0.12335901735E+04  0.17188956558E+04  0.10100000352E+00 0. -1.
       -3    1    3    3    0  502 -0.10014778559E+04  0.65566733426E+03  0.88996981865E+03  0.14916111549E+04  0.10100000352E+00 0.  1.
</event>
<event>
 5   0  0.5177039E-07  0.3134999E+04  0.7818609E-02  0.8206198E-01
       -1   -1    0    0    0  501  0.00000000000E+00  0.00000000000E+00  0.17428524181E+04  0.17428524181E+04  0.50400001928E-02 0.  1.
        1   -1    0    0  501    0  0.00000000000E+00  0.00000000000E+00 -0.14097889482E+04  0.14097889483E+04  0.50400001928E-02 0. -1.
    10030    2    1    2    0    0  0.00000000000E+00  0.00000000000E+00  0.33306346985E+03  0.31526413664E+04  0.31349986140E+04 0.  0.
        3    1    3    3  502    0 -0.59910730483E+03 -0.64164786432E+03  0.14724594109E+04  0.17142865196E+04  0.10100000352E+00 0.  1.
       -3    1    3    3    0  502  0.59910730483E+03  0.64164786432E+03 -0.11393959410E+04  0.14383548467E+04  0.10100000352E+00 0. -1.
</event>
<event>
 5   0  0.1538349E-06  0.3025943E+04  0.7818609E-02  0.8236361E-01
        2   -1    0    0  501    0  0.00000000000E+00  0.00000000000E+00  0.20568898421E+04  0.20568898421E+04  0.25500000920E-02 0. -1.
       -2   -1    0    0    0  501  0.00000000000E+00  0.00000000000E+00 -0.11128853918E+04  0.11128853918E+04  0.25500000920E-02 0.  1.
    10030    2    1    2    0    0  0.00000000000E+00  0.00000000000E+00  0.94400445035E+03  0.31697752339E+04  0.30259429326E+04 0.  0.
        1    1    3    3  502    0  0.93660197088E+03 -0.90659331504E+03  0.12765921483E+04  0.18245060164E+04  0.50400001928E-02 0. -1.
       -1    1    3    3    0  502 -0.93660197088E+03  0.90659331504E+03 -0.33258769796E+03  0.13452692175E+04  0.50400001928E-02 0.  1.
</event>
<event>
 5   0  0.5233813E-07  0.3193350E+04  0.7818609E-02  0.8190576E-01
       -1   -1    0    0    0  501  0.00000000000E+00  0.00000000000E+00  0.13254325158E+04  0.13254325158E+04  0.50400001928E-02 0.  1.
        1   -1    0    0  501    0  0.00000000000E+00  0.00000000000E+00 -0.19234254144E+04  0.19234254144E+04  0.50400001928E-02 0. -1.
    10030    2    1    2    0    0  0.00000000000E+00  0.00000000000E+00 -0.59799289861E+03  0.32488579302E+04  0.31933497059E+04 0.  0.
        4    1    3    3  502    0  0.32883501088E+03 -0.12834327804E+04  0.60758025802E+03  0.14575621939E+04  0.12699999809E+01 0.  1.
       -4    1    3    3    0  502 -0.32883501088E+03  0.12834327804E+04 -0.12055731566E+04  0.17912957364E+04  0.12699999809E+01 0. -1.
</event>
<event>
 5   0  0.1556396E-06  0.3196279E+04  0.7818609E-02  0.8189801E-01
       -2   -1    0    0    0  501  0.00000000000E+00  0.00000000000E+00  0.11285485429E+04  0.11285485429E+04  0.25500000920E-02 0.  1.
        2   -1    0    0  501    0  0.00000000000E+00  0.00000000000E+00 -0.22631281743E+04  0.22631281743E+04  0.25500000920E-02 0. -1.
    10030    2    1    2    0    0  0.00000000000E+00  0.00000000000E+00 -0.11345796314E+04  0.33916767172E+04  0.31962790889E+04 0.  0.
        3    1    3    3  502    0  0.12989296244E+04  0.76551411948E+03 -0.49695429640E+01  0.15077316548E+04  0.10100000352E+00 0. -1.
       -3    1    3    3    0  502 -0.12989296244E+04 -0.76551411948E+03 -0.11296100884E+04  0.18839450624E+04  0.10100000352E+00 0.  1.
</event>
<event>
 5   0  0.5233813E-07  0.3194263E+04  0.7818609E-02  0.8190334E-01
       -1   -1    0    0    0  501  0.00000000000E+00  0.00000000000E+00  0.18550502448E+04  0.18550502448E+04  0.50400001928E-02 0. -1.
        1   -1    0    0  501    0  0.00000000000E+00  0.00000000000E+00 -0.13750729319E+04  0.13750729319E+04  0.50400001928E-02 0.  1.
    10030    2    1    2    0    0  0.00000000000E+00  0.00000000000E+00  0.47997731286E+03  0.32301231767E+04  0.31942632196E+04 0.  0.
        4    1    3    3  502    0 -0.52920746437E+03  0.85780118794E+03  0.14928260290E+04  0.18012258560E+04  0.12699999809E+01 0. -1.
       -4    1    3    3    0  502  0.52920746437E+03 -0.85780118794E+03 -0.10128487162E+04  0.14288973207E+04  0.12699999809E+01 0.  1.
</event>
<event>
 5   0  0.4995625E-07  0.3200302E+04  0.7818609E-02  0.8188738E-01
        3   -1    0    0  501    0  0.00000000000E+00  0.00000000000E+00  0.21059146387E+04  0.21059146411E+04  0.10100000352E+00 0.  1.
       -3   -1    0    0    0  501  0.00000000000E+00  0.00000000000E+00 -0.12158529656E+04  0.12158529698E+04  0.10100000352E+00 0. -1.
    10030    2    1    2    0    0  0.00000000000E+00  0.00000000000E+00  0.89006167309E+03  0.33217676109E+04  0.32003015919E+04 0.  0.
        2    1    3    3  502    0  0.85946746236E+03 -0.13205455065E+04  0.15522430378E+03  0.15832306648E+04  0.25500000920E-02 0. -1.
       -2    1    3    3    0  502 -0.85946746236E+03  0.13205455065E+04  0.73483736930E+03  0.17385369461E+04  0.25500000920E-02 0.  1.
</event>
<event>
 5   0  0.5233813E-07  0.3183112E+04  0.7818609E-02  0.8193291E-01
       -1   -1    0    0    0  501  0.00000000000E+00  0.00000000000E+00  0.13362878681E+04  0.13362878682E+04  0.50400001928E-02 0. -1.
        1   -1    0    0  501    0  0.00000000000E+00  0.00000000000E+00 -0.18955878453E+04  0.18955878453E+04  0.50400001928E-02 0.  1.
    10030    2    1    2    0    0  0.00000000000E+00  0.00000000000E+00 -0.55929997711E+03  0.32318757134E+04  0.31831123390E+04 0.  0.
        4    1    3    3  502    0 -0.77964505161E+03 -0.13627131555E+04 -0.14467147716E+02  0.15700460063E+04  0.12699999809E+01 0. -1.
       -4    1    3    3    0  502  0.77964505161E+03  0.13627131555E+04 -0.54483282940E+03  0.16618297071E+04  0.12699999809E+01 0.  1.
</event>
<event>
 5   0  0.5281187E-07  0.3197072E+04  0.7818609E-02  0.8189591E-01
       -1   -1    0    0    0  501  0.00000000000E+00  0.00000000000E+00  0.11218649505E+04  0.11218649505E+04  0.50400001928E-02 0. -1.
        1   -1    0    0  501    0  0.00000000000E+00  0.00000000000E+00 -0.22777399297E+04  0.22777399297E+04  0.50400001928E-02 0.  1.
    10030    2    1    2    0    0  0.00000000000E+00  0.00000000000E+00 -0.11558749793E+04  0.33996048802E+04  0.31970715309E+04 0.  0.
        5    1    3    3  502    0 -0.11817619860E+03  0.15924785763E+04 -0.65564844403E+03  0.17262243776E+04  0.46999998093E+01 0.  1.
       -5    1    3    3    0  502  0.11817619860E+03 -0.15924785763E+04 -0.50022653523E+03  0.16733805026E+04  0.46999998093E+01 0. -1.
</event>
<event>
 5   0  0.1493485E-06  0.2872971E+04  0.7818609E-02  0.8280965E-01
       -2   -1    0    0    0  501  0.00000000000E+00  0.00000000000E+00  0.13567323561E+04  0.13567323562E+04  0.25500000920E-02 0.  1.
        2   -1    0    0  501    0  0.00000000000E+00  0.00000000000E+00 -0.15209267324E+04  0.15209267324E+04  0.25500000920E-02 0. -1.
    10030    2    1    2    0    0  0.00000000000E+00  0.00000000000E+00 -0.16419437620E+03  0.28776590885E+04  0.28729709425E+04 0.  0.
        2    1    3    3  502    0 -0.10175395488E+04  0.80975460254E+03  0.52914550361E+03  0.14039530667E+04  0.25500000920E-02 0. -1.
       -2    1    3    3    0  502  0.10175395488E+04 -0.80975460254E+03 -0.69333987982E+03  0.14737060218E+04  0.25500000920E-02 0.  1.
</event>
<event>
 5   0  0.1508771E-06  0.3170175E+04  0.7818609E-02  0.8196739E-01
       -2   -1    0    0    0  501  0.00000000000E+00  0.00000000000E+00  0.13629221047E+04  0.13629221047E+04  0.25500000920E-02 0. -1.
        2   -1    0    0  501    0  0.00000000000E+00  0.00000000000E+00 -0.18434668429E+04  0.18434668429E+04  0.25500000920E-02 0.  1.
    10030    2    1    2    0    0  0.00000000000E+00  0.00000000000E+00 -0.48054473825E+03  0.32063889476E+04  0.31701745752E+04 0.  0.
        4    1    3    3  502    0  0.34568181356E+03  0.10629621748E+04 -0.13769951739E+04  0.17735562644E+04  0.12699999809E+01 0.  1.
       -4    1    3    3    0  502 -0.34568181356E+03 -0.10629621748E+04  0.89645043567E+03  0.14328326831E+04  0.12699999809E+01 0. -1.
</event>
<event>
 5   0  0.1572769E-06  0.3057645E+04  0.7818609E-02  0.8227459E-01
       -2   -1    0    0    0  501  0.00000000000E+00  0.00000000000E+00  0.13377601595E+04  0.13377601595E+04  0.25500000920E-02 0. -1.
        2   -1    0    0  501    0  0.00000000000E+00  0.00000000000E+00 -0.17471734097E+04  0.17471734097E+04  0.25500000920E-02 0.  1.
    10030    2    1    2    0    0  0.00000000000E+00  0.00000000000E+00 -0.40941325020E+03  0.30849335691E+04  0.30576454857E+04 0.  0.
        5    1    3    3  502    0  0.48696801625E+03 -0.25680856529E+03 -0.16436850182E+04  0.17334390722E+04  0.46999998093E+01 0.  1.
       -5    1    3    3    0  502 -0.48696801625E+03  0.25680856529E+03  0.12342717680E+04  0.13514944969E+04  0.46999998093E+01 0. -1.
</event>
<event>
 5   0  0.1572769E-06  0.3161598E+04  0.7818609E-02  0.8199033E-01
       -2   -1    0    0    0  501  0.00000000000E+00  0.00000000000E+00  0.13971152219E+04  0.13971152219E+04  0.25500000920E-02 0.  1.
        2   -1    0    0  501    0  0.00000000000E+00  0.00000000000E+00 -0.17886325562E+04  0.17886325562E+04  0.25500000920E-02 0. -1.
    10030    2    1    2    0    0  0.00000000000E+00  0.00000000000E+00 -0.39151733433E+03  0.31857477781E+04  0.31615981849E+04 0.  0.
        5    1    3    3  502    0 -0.28065167081E+01 -0.15637283309E+04  0.37634211259E+02  0.15641907151E+04  0.46999998093E+01 0.  1.
       -5    1    3    3    0  502  0.28065167081E+01  0.15637283309E+04 -0.42915154559E+03  0.16215570630E+04  0.46999998093E+01 0. -1.
</event>
<event>
 5   0  0.5233813E-07  0.3200265E+04  0.7818609E-02  0.8188747E-01
       -1   -1    0    0    0  501  0.00000000000E+00  0.00000000000E+00  0.11944570164E+04  0.11944570165E+04  0.50400001928E-02 0. -1.
        1   -1    0    0  501    0  0.00000000000E+00  0.00000000000E+00 -0.21435882606E+04  0.21435882606E+04  0.50400001928E-02 0.  1.
    10030    2    1    2    0    0  0.00000000000E+00  0.00000000000E+00 -0.94913124416E+03  0.33380452771E+04  0.32002650129E+04 0.  0.
        4    1    3    3  502    0  0.11399204201E+04  0.32307981107E+03 -0.15963315567E+04  0.19879826911E+04  0.12699999809E+01 0.  1.
       -4    1    3    3    0  502 -0.11399204201E+04 -0.32307981107E+03  0.64720031250E+03  0.13500625859E+04  0.12699999809E+01 0. -1.
</event>
<event>
 5   0  0.5370912E-07  0.3207617E+04  0.7818609E-02  0.8186808E-01
       -1   -1    0    0    0  501  0.00000000000E+00  0.00000000000E+00  0.36301694238E+04  0.36301694238E+04  0.50400001928E-02 0.  1.
        1   -1    0    0  501    0  0.00000000000E+00  0.00000000000E+00 -0.70856240671E+03  0.70856240673E+03  0.50400001928E-02 0. -1.
    10030    2    1    2    0    0  0.00000000000E+00  0.00000000000E+00  0.29216070171E+04  0.43387318305E+04  0.32076169246E+04 0.  0.
        1    1    3    3  502    0  0.75596760461E+03  0.44582187071E+03 -0.35493194836E+03  0.94668941455E+03  0.50400001928E-02 0. -1.
       -1    1    3    3    0  502 -0.75596760461E+03 -0.44582187071E+03  0.32765389655E+04  0.33920424160E+04  0.50400001928E-02 0.  1.
</event>
<event>
 5   0  0.1556396E-06  0.3204312E+04  0.7818609E-02  0.8187679E-01
        2   -1    0    0  501    0  0.00000000000E+00  0.00000000000E+00  0.15657235649E+04  0.15657235649E+04  0.25500000920E-02 0. -1.
       -2   -1    0    0    0  501  0.00000000000E+00  0.00000000000E+00 -0.16394364130E+04  0.16394364130E+04  0.25500000920E-02 0.  1.
    10030    2    1    2    0    0  0.00000000000E+00  0.00000000000E+00 -0.73712848157E+02  0.32051599779E+04  0.32043122351E+04 0.  0.
        3    1    3    3  502    0 -0.26883247188E+03  0.15038843294E+04 -0.51964884835E+03  0.16136833363E+04  0.10100000352E+00 0.  1.
       -3    1    3    3    0  502  0.26883247188E+03 -0.15038843294E+04  0.44593600020E+03  0.15914766416E+04  0.10100000352E+00 0. -1.
</event>
<event>
 5   0  0.1538349E-06  0.3193085E+04  0.7818609E-02  0.8190646E-01
        2   -1    0    0  501    0  0.00000000000E+00  0.00000000000E+00  0.28331694143E+04  0.28331694143E+04  0.25500000920E-02 0.  1.
       -2   -1    0    0    0  501  0.00000000000E+00  0.00000000000E+00 -0.89968066593E+03  0.89968066593E+03  0.25500000920E-02 0. -1.
    10030    2    1    2    0    0  0.00000000000E+00  0.00000000000E+00  0.19334887484E+04  0.37328500802E+04  0.31930848691E+04 0.  0.
        1    1    3    3  502    0 -0.28575306782E+03  0.13114631199E+04  0.19773792007E+04  0.23898993356E+04  0.50400001928E-02 0.  1.
       -1    1    3    3    0  502  0.28575306782E+03 -0.13114631199E+04 -0.43890452369E+02  0.13429507446E+04  0.50400001928E-02 0. -1.
</event>
<event>
 5   0  0.1572769E-06  0.3185260E+04  0.7818609E-02  0.8192721E-01
       -2   -1    0    0    0  501  0.00000000000E+00  0.00000000000E+00  0.20398645942E+04  0.20398645942E+04  0.25500000920E-02 0.  1.
        2   -1    0    0  501    0  0.00000000000E+00  0.00000000000E+00 -0.12434502791E+04  0.12434502791E+04  0.25500000920E-02 0. -1.
    10030    2    1    2    0    0  0.00000000000E+00  0.00000000000E+00  0.79641431504E+03  0.32833148733E+04  0.31852599259E+04 0.  0.
        5    1    3    3  502    0 -0.13731197538E+04  0.56955966202E+03  0.98728197237E+03  0.17845458385E+04  0.46999998093E+01 0.  1.
       -5    1    3    3    0  502  0.13731197538E+04 -0.56955966202E+03 -0.19086765733E+03  0.14987690347E+04  0.46999998093E+01 0. -1.
</event>
<event>
 5   0  0.5177039E-07  0.3199350E+04  0.7818609E-02  0.8188989E-01
        1   -1    0    0  501    0  0.00000000000E+00  0.00000000000E+00  0.18569252426E+04  0.18569252426E+04  0.50400001928E-02 0.  1.
       -1   -1    0    0    0  501  0.00000000000E+00  0.00000000000E+00 -0.13780631607E+04  0.13780631607E+04  0.50400001928E-02 0. -1.
    10030    2    1    2    0    0  0.00000000000E+00  0.00000000000E+00  0.47886208192E+03  0.32349884033E+04  0.31993501021E+04 0.  0.
        3    1    3    3  502    0 -0.24795844390E+03  0.14516198358E+04  0.87111127107E+03  0.17109992386E+04  0.10100000352E+00 0. -1.
       -3    1    3    3    0  502  0.24795844390E+03 -0.14516198358E+04 -0.39224918915E+03  0.15239891647E+04  0.10100000352E+00 0.  1.
</event>
<event>
 5   0  0.1493485E-06  0.3200740E+04  0.7818609E-02  0.8188622E-01
       -2   -1    0    0    0  501  0.00000000000E+00  0.00000000000E+00  0.12490432227E+04  0.12490432227E+04  0.25500000920E-02 0.  1.
        2   -1    0    0  501    0  0.00000000000E+00  0.00000000000E+00 -0.20505174200E+04  0.20505174200E+04  0.25500000920E-02 0. -1.
    10030    2    1    2    0    0  0.00000000000E+00  0.00000000000E+00 -0.80147419736E+03  0.32995606427E+04  0.32007404683E+04 0.  0.
        2    1    3    3  502    0 -0.64692305530E+03 -0.81747351700E+02  0.11058892135E+04  0.12838158051E+04  0.25500000920E-02 0.  1.
       -2    1    3    3    0  502  0.64692305530E+03  0.81747351700E+02 -0.19073634109E+04  0.20157448375E+04  0.25500000920E-02 0. -1.
</event>
<event>
 5   0  0.5370912E-07  0.3166687E+04  0.7818609E-02  0.8197671E-01
       -1   -1    0    0    0  501  0.00000000000E+00  0.00000000000E+00  0.14892983006E+04  0.14892983007E+04  0.50400001928E-02 0.  1.
        1   -1    0    0  501    0  0.00000000000E+00  0.00000000000E+00 -0.16833269164E+04  0.16833269164E+04  0.50400001928E-02 0. -1.
    10030    2    1    2    0    0  0.00000000000E+00  0.00000000000E+00 -0.19402861575E+03  0.31726252171E+04  0.31666865434E+04 0.  0.
        1    1    3    3  502    0 -0.22717175506E+03  0.15666141938E+04 -0.13007433279E+03  0.15883344644E+04  0.50400001928E-02 0. -1.
       -1    1    3    3    0  502  0.22717175506E+03 -0.15666141938E+04 -0.63954282959E+02  0.15842907527E+04  0.50400001928E-02 0.  1.
</event>
<event>
 5   0  0.1556396E-06  0.3201294E+04  0.7818609E-02  0.8188475E-01
       -2   -1    0    0    0  501  0.00000000000E+00  0.00000000000E+00  0.11708904602E+04  0.11708904602E+04  0.25500000920E-02 0.  1.
        2   -1    0    0  501    0  0.00000000000E+00  0.00000000000E+00 -0.21881393000E+04  0.21881393000E+04  0.25500000920E-02 0. -1.
    10030    2    1    2    0    0  0.00000000000E+00  0.00000000000E+00 -0.10172488398E+04  0.33590297603E+04  0.32012943833E+04 0.  0.
        3    1    3    3  502    0 -0.59491624632E+03  0.13415675939E+04 -0.11791270970E+04  0.18825699642E+04  0.10100000352E+00 0. -1.
       -3    1    3    3    0  502  0.59491624632E+03 -0.13415675939E+04  0.16187825716E+03  0.14764597961E+04  0.10100000352E+00 0.  1.
</event>
<event>
 5   0  0.1493485E-06  0.3208393E+04  0.7818609E-02  0.8186604E-01
       -2   -1    0    0    0  501  0.00000000000E+00  0.00000000000E+00  0.90030978566E+03  0.90030978566E+03  0.25500000920E-02 0. -1.
        2   -1    0    0  501    0  0.00000000000E+00  0.00000000000E+00 -0.28584007146E+04  0.28584007146E+04  0.25500000920E-02 0.  1.
    10030    2    1    2    0    0  0.00000000000E+00  0.00000000000E+00 -0.19580909290E+04  0.37587105003E+04  0.32083928280E+04 0.  0.
        2    1    3    3  502    0  0.15098418892E+04  0.46320280028E+03 -0.13088806035E+04  0.20511820492E+04  0.25500000920E-02 0.  1.
       -2    1    3    3    0  502 -0.15098418892E+04 -0.46320280028E+03 -0.64921032548E+03  0.17075284511E+04  0.25500000920E-02 0. -1.
</event>
<event>
 5   0  0.5370912E-07  0.3206687E+04  0.7818609E-02  0.8187053E-01
       -1   -1    0    0    0  501  0.00000000000E+00  0.00000000000E+00  0.18348716711E+04  0.18348716711E+04  0.50400001928E-02 0. -1.
        1   -1    0    0  501    0  0.00000000000E+00  0.00000000000E+00 -0.14010301233E+04  0.14010301233E+04  0.50400001928E-02 0.  1.
    10030    2    1    2    0    0  0.00000000000E+00  0.00000000000E+00  0.43384154783E+03  0.32359017944E+04  0.32066870652E+04 0.  0.
        1    1    3    3  502    0  0.67496810339E+03  0.13158122102E+04  0.84205378995E+03  0.17017632909E+04  0.50400001928E-02 0.  1.
       -1    1    3    3    0  502 -0.67496810339E+03 -0.13158122102E+04 -0.40821224212E+03  0.15341385035E+04  0.50400001928E-02 0. -1.
</event>
<event>
 5   0  0.1572769E-06  0.3200993E+04  0.7818609E-02  0.8188555E-01
       -2   -1    0    0    0  501  0.00000000000E+00  0.00000000000E+00  0.15634685543E+04  0.15634685544E+04  0.25500000920E-02 0.  1.
        2   -1    0    0  501    0  0.00000000000E+00  0.00000000000E+00 -0.16384012223E+04  0.16384012223E+04  0.25500000920E-02 0. -1.
    10030    2    1    2    0    0  0.00000000000E+00  0.00000000000E+00 -0.74932667957E+02  0.32018697767E+04  0.32009928400E+04 0.  0.
        5    1    3    3  502    0 -0.15726645283E+04  0.10821013571E+03  0.23934680790E+03  0.15944566901E+04  0.46999998093E+01 0.  1.
       -5    1    3    3    0  502  0.15726645283E+04 -0.10821013571E+03 -0.31427947586E+03  0.16074130866E+04  0.46999998093E+01 0. -1.
</event>
<event>
 5   0  0.1493485E-06  0.3143668E+04  0.7818609E-02  0.8203855E-01
       -2   -1    0    0    0  501  0.00000000000E+00  0.00000000000E+00  0.20793726921E+04  0.20793726921E+04  0.25500000920E-02 0.  1.
        2   -1    0    0  501    0  0.00000000000E+00  0.00000000000E+00 -0.11881767356E+04  0.11881767356E+04  0.25500000920E-02 0. -1.
    10030    2    1    2    0    0  0.00000000000E+00  0.00000000000E+00  0.89119595658E+03  0.32675494277E+04  0.31436680851E+04 0.  0.
        2    1    3    3  502    0 -0.70996301353E+03 -0.13795340085E+04  0.70752163358E+03  0.17052121344E+04  0.25500000920E-02 0.  1.
       -2    1    3    3    0  502  0.70996301353E+03  0.13795340085E+04  0.18367432300E+03  0.15623372933E+04  0.25500000920E-02 0. -1.
</event>
<event>
 5   0  0.1572769E-06  0.3199090E+04  0.7818609E-02  0.8189058E-01
       -2   -1    0    0    0  501  0.00000000000E+00  0.00000000000E+00  0.13808455640E+04  0.13808455640E+04  0.25500000920E-02 0. -1.
        2   -1    0    0  501    0  0.00000000000E+00  0.00000000000E+00 -0.18528821673E+04  0.18528821673E+04  0.25500000920E-02 0.  1.
    10030    2    1    2    0    0  0.00000000000E+00  0.00000000000E+00 -0.47203660332E+03  0.32337277313E+04  0.31990899464E+04 0.  0.
        5    1    3    3  502    0 -0.10627682817E+04  0.59741435741E+03 -0.12826721948E+04  0.17696469660E+04  0.46999998093E+01 0.  1.
       -5    1    3    3    0  502  0.10627682817E+04 -0.59741435741E+03  0.81063559145E+03  0.14640807653E+04  0.46999998093E+01 0. -1.
</event>
<event>
 5   0  0.5370912E-07  0.3198470E+04  0.7818609E-02  0.8189221E-01
       -1   -1    0    0    0  501  0.00000000000E+00  0.00000000000E+00  0.10562450546E+04  0.10562450546E+04  0.50400001928E-02 0.  1.
        1   -1    0    0  501    0  0.00000000000E+00  0.00000000000E+00 -0.24213632793E+04  0.24213632793E+04  0.50400001928E-02 0. -1.
    10030    2    1    2    0    0  0.00000000000E+00  0.00000000000E+00 -0.13651182247E+04  0.34776083339E+04  0.31984702526E+04 0.  0.
        1    1    3    3  502    0  0.14233817208E+04 -0.13880993066E+03 -0.14607524419E+04  0.20442801707E+04  0.50400001928E-02 0. -1.
       -1    1    3    3    0  502 -0.14233817208E+04  0.13880993066E+03  0.95634217191E+02  0.14333281632E+04  0.50400001928E-02 0.  1.
</event>
<event>
 5   0  0.1508771E-06  0.3203390E+04  0.7818609E-02  0.8187922E-01
       -2   -1    0    0    0  501  0.00000000000E+00  0.00000000000E+00  0.91999887587E+03  0.91999887587E+03  0.25500000920E-02 0.  1.
        2   -1    0    0  501    0  0.00000000000E+00  0.00000000000E+00 -0.27885111367E+04  0.27885111367E+04  0.25500000920E-02 0. -1.
    10030    2    1    2    0    0  0.00000000000E+00  0.00000000000E+00 -0.18685122608E+04  0.37085100125E+04  0.32033901486E+04 0.  0.
        4    1    3    3  502    0 -0.78823128280E+03  0.82612719509E+02 -0.25455960700E+04  0.26661197237E+04  0.12699999809E+01 0. -1.
       -4    1    3    3    0  502  0.78823128280E+03 -0.82612719509E+02  0.67708380922E+03  0.10423902888E+04  0.12699999809E+01 0.  1.
</event>
<event>
 5   0  0.1556396E-06  0.3191341E+04  0.7818609E-02  0.8191108E-01
       -2   -1    0    0    0  501  0.00000000000E+00  0.00000000000E+00  0.13393382700E+04  0.13393382700E+04  0.25500000920E-02 0. -1.
        2   -1    0    0  501    0  0.00000000000E+00  0.00000000000E+00 -0.19010609766E+04  0.19010609766E+04  0.25500000920E-02 0.  1.
    10030    2    1    2    0    0  0.00000000000E+00  0.00000000000E+00 -0.56172270661E+03  0.32403992466E+04  0.31913406083E+04 0.  0.
        3    1    3    3  502    0  0.54545337750E+03  0.91062146485E+03  0.92884436468E+03  0.14104973248E+04  0.10100000352E+00 0. -1.
       -3    1    3    3    0  502 -0.54545337750E+03 -0.91062146485E+03 -0.14905670713E+04  0.18299019218E+04  0.10100000352E+00 0.  1.
</event>
<event>
 5   0  0.1572769E-06  0.3203282E+04  0.7818609E-02  0.8187951E-01
        2   -1    0    0  501    0  0.00000000000E+00  0.00000000000E+00  0.23797096465E+04  0.23797096465E+04  0.25500000920E-02 0.  1.
       -2   -1    0    0    0  501  0.00000000000E+00  0.00000000000E+00 -0.10779690935E+04  0.10779690935E+04  0.25500000920E-02 0. -1.
    10030    2    1    2    0    0  0.00000000000E+00  0.00000000000E+00  0.13017405530E+04  0.34576787400E+04  0.32032817237E+04 0.  0.
        5    1    3    3  502    0 -0.15364131203E+04  0.42097864492E+03  0.47205451025E+03  0.16615191381E+04  0.46999998093E+01 0. -1.
       -5    1    3    3    0  502  0.15364131203E+04 -0.42097864492E+03  0.82968604273E+03  0.17961596018E+04  0.46999998093E+01 0.  1.
</event>
<event>
 5   0  0.1556396E-06  0.3199015E+04  0.7818609E-02  0.8189077E-01
        2   -1    0    0  501    0  0.00000000000E+00  0.00000000000E+00  0.16400460467E+04  0.16400460467E+04  0.25500000920E-02 0. -1.
       -2   -1    0    0    0  501  0.00000000000E+00  0.00000000000E+00 -0.15599714539E+04  0.15599714539E+04  0.25500000920E-02 0.  1.
    10030    2    1    2    0    0  0.00000000000E+00  0.00000000000E+00  0.80074592813E+02  0.32000175006E+04  0.31990154835E+04 0.  0.
        3    1    3    3  502    0 -0.15127728512E+04 -0.38184928694E+03 -0.31240022285E+03  0.15911896451E+04  0.10100000352E+00 0. -1.
       -3    1    3    3    0  502  0.15127728512E+04  0.38184928694E+03  0.39247481567E+03  0.16088278554E+04  0.10100000352E+00 0.  1.
</event>
<event>
 5   0  0.5177039E-07  0.3204342E+04  0.7818609E-02  0.8187671E-01
       -1   -1    0    0    0  501  0.00000000000E+00  0.00000000000E+00  0.13775672900E+04  0.13775672900E+04  0.50400001928E-02 0. -1.
        1   -1    0    0  501    0  0.00000000000E+00  0.00000000000E+00 -0.18633954682E+04  0.18633954682E+04  0.50400001928E-02 0.  1.
    10030    2    1    2    0    0  0.00000000000E+00  0.00000000000E+00 -0.48582817816E+03  0.32409627583E+04  0.32043424570E+04 0.  0.
        3    1    3    3  502    0 -0.54363435805E+03  0.35989917432E+03  0.12373301659E+04  0.13985891751E+04  0.10100000352E+00 0. -1.
       -3    1    3    3    0  502  0.54363435805E+03 -0.35989917432E+03 -0.17231583441E+04  0.18423735832E+04  0.10100000352E+00 0.  1.
</event>
<event>
 5   0  0.5177039E-07  0.3195878E+04  0.7818609E-02  0.8189907E-01
       -1   -1    0    0    0  501  0.00000000000E+00  0.00000000000E+00  0.95539430907E+03  0.95539430908E+03  0.50400001928E-02 0.  1.
        1   -1    0    0  501    0  0.00000000000E+00  0.00000000000E+00 -0.26726227548E+04  0.26726227548E+04  0.50400001928E-02 0. -1.
    10030    2    1    2    0    0  0.00000000000E+00  0.00000000000E+00 -0.17172284457E+04  0.36280170638E+04  0.31958777012E+04 0.  0.
        3    1    3    3  502    0 -0.49137799511E+03  0.16488635534E+03 -0.25745470839E+04  0.26262011617E+04  0.10100000352E+00 0. -1.
       -3    1    3    3    0  502  0.49137799511E+03 -0.16488635534E+03  0.85731863819E+03  0.10018159022E+04  0.10100000352E+00 0.  1.
</event>
<event>
 5   0  0.1508771E-06  0.3193624E+04  0.7818609E-02  0.8190503E-01
        2   -1    0    0  501    0  0.00000000000E+00  0.00000000000E+00  0.23459861086E+04  0.23459861086E+04  0.25500000920E-02 0.  1.
       -2   -1    0    0    0  501  0.00000000000E+00  0.00000000000E+00 -0.10868813457E+04  0.10868813457E+04  0.25500000920E-02 0. -1.
    10030    2    1    2    0    0  0.00000000000E+00  0.00000000000E+00  0.12591047630E+04  0.34328674543E+04  0.31936239846E+04 0.  0.
        4    1    3    3  502    0 -0.13230413871E+04  0.89163017830E+03  0.55854270042E+03  0.16903888452E+04  0.12699999809E+01 0. -1.
       -4    1    3    3    0  502  0.13230413871E+04 -0.89163017830E+03  0.70056206256E+03  0.17424786091E+04  0.12699999809E+01 0.  1.
</event>
<event>
 5   0  0.5281187E-07  0.2967039E+04  0.7818609E-02  0.8253206E-01
        1   -1    0    0  501    0  0.00000000000E+00  0.00000000000E+00  0.12699663774E+04  0.12699663774E+04  0.50400001928E-02 0.  1.
       -1   -1    0    0    0  501  0.00000000000E+00  0.00000000000E+00 -0.17329827946E+04  0.17329827946E+04  0.50400001928E-02 0. -1.
    10030    2    1    2    0    0  0.00000000000E+00  0.00000000000E+00 -0.46301641719E+03  0.30029491720E+04  0.29670388482E+04 0.  0.
        5    1    3    3  502    0  0.13262771564E+04  0.45299500924E+03 -0.72380270012E+03  0.15773801104E+04  0.46999998093E+01 0.  1.
       -5    1    3    3    0  502 -0.13262771564E+04 -0.45299500924E+03  0.26078628293E+03  0.14255690616E+04  0.46999998093E+01 0. -1.
</event>
<event>
 5   0  0.4995625E-07  0.3215617E+04  0.7818609E-02  0.8184705E-01
        3   -1    0    0  501    0  0.00000000000E+00  0.00000000000E+00  0.16168863865E+04  0.16168863896E+04  0.10100000352E+00 0.  1.
       -3   -1    0    0    0  501  0.00000000000E+00  0.00000000000E+00 -0.15987815489E+04  0.15987815521E+04  0.10100000352E+00 0. -1.
    10030    2    1    2    0    0  0.00000000000E+00  0.00000000000E+00  0.18104837602E+02  0.32156679417E+04  0.32156169744E+04 0.  0.
        5    1    3    3  502    0  0.15403674654E+04  0.42112251326E+03 -0.17789957993E+03  0.16067813947E+04  0.46999998093E+01 0. -1.
       -5    1    3    3    0  502 -0.15403674654E+04 -0.42112251326E+03  0.19600441753E+03  0.16088865471E+04  0.46999998093E+01 0.  1.
</event>
<event>
 5   0  0.5177039E-07  0.2862483E+04  0.7818609E-02  0.8284128E-01
       -1   -1    0    0    0  501  0.00000000000E+00  0.00000000000E+00  0.91396463131E+03  0.91396463132E+03  0.50400001928E-02 0.  1.
        1   -1    0    0  501    0  0.00000000000E+00  0.00000000000E+00 -0.22412819120E+04  0.22412819121E+04  0.50400001928E-02 0. -1.
    10030    2    1    2    0    0  0.00000000000E+00  0.00000000000E+00 -0.13273172807E+04  0.31552465434E+04  0.28624831154E+04 0.  0.
        3    1    3    3  502    0 -0.21360595274E+03 -0.88803568742E+03  0.55095627560E+03  0.10666713238E+04  0.10100000352E+00 0.  1.
       -3    1    3    3    0  502  0.21360595274E+03  0.88803568742E+03 -0.18782735563E+04  0.20885752196E+04  0.10100000352E+00 0. -1.
</event>
<event>
 5   0  0.4995625E-07  0.3217873E+04  0.7818609E-02  0.8184113E-01
        3   -1    0    0  501    0  0.00000000000E+00  0.00000000000E+00  0.16089495801E+04  0.16089495832E+04  0.10100000352E+00 0. -1.
       -3   -1    0    0    0  501  0.00000000000E+00  0.00000000000E+00 -0.16089230633E+04  0.16089230665E+04  0.10100000352E+00 0.  1.
    10030    2    1    2    0    0  0.00000000000E+00  0.00000000000E+00  0.26516757378E-01  0.32178726497E+04  0.32178726496E+04 0.  0.
        4    1    3    3  502    0 -0.12063105086E+04  0.96212360758E+03  0.45587245252E+03  0.16089400813E+04  0.12699999809E+01 0.  1.
       -4    1    3    3    0  502  0.12063105086E+04 -0.96212360758E+03 -0.45584593576E+03  0.16089325684E+04  0.12699999809E+01 0. -1.
</event>
<event>
 5   0  0.5177039E-07  0.2903856E+04  0.7818609E-02  0.8271731E-01
       -1   -1    0    0    0  501  0.00000000000E+00  0.00000000000E+00  0.16718891847E+04  0.16718891847E+04  0.50400001928E-02 0. -1.
        1   -1    0    0  501    0  0.00000000000E+00  0.00000000000E+00 -0.12609061746E+04  0.12609061746E+04  0.50400001928E-02 0.  1.
    10030    2    1    2    0    0  0.00000000000E+00  0.00000000000E+00  0.41098301016E+03  0.29327953593E+04  0.29038563299E+04 0.  0.
        3    1    3    3  502    0 -0.13869068129E+04  0.38892210395E+03  0.38986067328E+03  0.14922339848E+04  0.10100000352E+00 0. -1.
       -3    1    3    3    0  502  0.13869068129E+04 -0.38892210395E+03  0.21122336881E+02  0.14405613745E+04  0.10100000352E+00 0.  1.
</event>
<event>
 5   0  0.1538349E-06  0.3167269E+04  0.7818609E-02  0.8197515E-01
       -2   -1    0    0    0  501  0.00000000000E+00  0.00000000000E+00  0.18112856611E+04  0.18112856611E+04  0.25500000920E-02 0.  1.
        2   -1    0    0  501    0  0.00000000000E+00  0.00000000000E+00 -0.13845955575E+04  0.13845955575E+04  0.25500000920E-02 0. -1.
    10030    2    1    2    0    0  0.00000000000E+00  0.00000000000E+00  0.42669010363E+03  0.31958812186E+04  0.31672689053E+04 0.  0.
        1    1    3    3  502    0  0.57133127270E+03 -0.70600413983E+03 -0.10956936896E+04  0.14231675692E+04  0.50400001928E-02 0. -1.
       -1    1    3    3    0  502 -0.57133127270E+03  0.70600413983E+03  0.15223837932E+04  0.17727136493E+04  0.50400001928E-02 0.  1.
</event>
<event>
 5   0  0.5317728E-07  0.3151246E+04  0.7818609E-02  0.8201813E-01
        1   -1    0    0  501    0  0.00000000000E+00  0.00000000000E+00  0.28983570706E+04  0.28983570706E+04  0.50400001928E-02 0.  1.
       -1   -1    0    0    0  501  0.00000000000E+00  0.00000000000E+00 -0.85655021807E+03  0.85655021808E+03  0.50400001928E-02 0. -1.
    10030    2    1    2    0    0  0.00000000000E+00  0.00000000000E+00  0.20418068525E+04  0.37549072887E+04  0.31512463445E+04 0.  0.
        2    1    3    3  502    0  0.13513797683E+04  0.80693846668E+03  0.11069224762E+04  0.19242282441E+04  0.25500000920E-02 0.  1.
       -2    1    3    3    0  502 -0.13513797683E+04 -0.80693846668E+03  0.93488437628E+03  0.18306790445E+04  0.25500000920E-02 0. -1.
</event>
<event>
 5   0  0.5177039E-07  0.3221658E+04  0.7818609E-02  0.8183121E-01
        1   -1    0    0  501    0  0.00000000000E+00  0.00000000000E+00  0.19849552123E+04  0.19849552123E+04  0.50400001928E-02 0.  1.
       -1   -1    0    0    0  501  0.00000000000E+00  0.00000000000E+00 -0.13072185441E+04  0.13072185441E+04  0.50400001928E-02 0. -1.
    10030    2    1    2    0    0  0.00000000000E+00  0.00000000000E+00  0.67773666819E+03  0.32921737564E+04  0.32216581214E+04 0.  0.
        3    1    3    3  502    0 -0.89023929467E+02  0.33647758413E+03  0.19460703775E+04  0.19769502647E+04  0.10100000352E+00 0.  1.
       -3    1    3    3    0  502  0.89023929467E+02 -0.33647758413E+03 -0.12683337094E+04  0.13152234917E+04  0.10100000352E+00 0. -1.
</event>
<event>
 5   0  0.5317728E-07  0.3196445E+04  0.7818609E-02  0.8189757E-01
       -1   -1    0    0    0  501  0.00000000000E+00  0.00000000000E+00  0.14408727201E+04  0.14408727201E+04  0.50400001928E-02 0. -1.
        1   -1    0    0  501    0  0.00000000000E+00  0.00000000000E+00 -0.17727556889E+04  0.17727556889E+04  0.50400001928E-02 0.  1.
    10030    2    1    2    0    0  0.00000000000E+00  0.00000000000E+00 -0.33188296880E+03  0.32136284089E+04  0.31964450950E+04 0.  0.
        2    1    3    3  502    0  0.33158956044E+03  0.12536790701E+04 -0.11051219882E+04  0.17038067544E+04  0.25500000920E-02 0.  1.
       -2    1    3    3    0  502 -0.33158956044E+03 -0.12536790701E+04  0.77323901938E+03  0.15098216546E+04  0.25500000920E-02 0. -1.
</event>
<event>
 5   0  0.5177039E-07  0.3221376E+04  0.7818609E-02  0.8183194E-01
       -1   -1    0    0    0  501  0.00000000000E+00  0.00000000000E+00  0.10695291956E+04  0.10695291956E+04  0.50400001928E-02 0.  1.
        1   -1    0    0  501    0  0.00000000000E+00  0.00000000000E+00 -0.24256620516E+04  0.24256620516E+04  0.50400001928E-02 0. -1.
    10030    2    1    2    0    0  0.00000000000E+00  0.00000000000E+00 -0.13561328560E+04  0.34951912472E+04  0.32213763412E+04 0.  0.
        3    1    3    3  502    0  0.94070025731E+02  0.14765377803E+04  0.12681507380E+02  0.14795856911E+04  0.10100000352E+00 0.  1.
       -3    1    3    3    0  502 -0.94070025731E+02 -0.14765377803E+04 -0.13688143633E+04  0.20156055561E+04  0.10100000352E+00 0. -1.
</event>
<event>
 5   0  0.1572769E-06  0.3188905E+04  0.7818609E-02  0.8191753E-01
       -2   -1    0    0    0  501  0.00000000000E+00  0.00000000000E+00  0.15435658412E+04  0.15435658412E+04  0.25500000920E-02 0. -1.
        2   -1    0    0  501    0  0.00000000000E+00  0.00000000000E+00 -0.16470170643E+04  0.16470170643E+04  0.25500000920E-02 0.  1.
    10030    2    1    2    0    0  0.00000000000E+00  0.00000000000E+00 -0.10345122313E+03  0.31905829055E+04  0.31889053171E+04 0.  0.
        5    1    3    3  502    0  0.10372299601E+04  0.12096450193E+04  0.46078940312E+01  0.15934648994E+04  0.46999998093E+01 0. -1.
       -5    1    3    3    0  502 -0.10372299601E+04 -0.12096450193E+04 -0.10805911716E+03  0.15971180062E+04  0.46999998093E+01 0.  1.
</event>
<event>
 5   0  0.1538349E-06  0.3227312E+04  0.7818609E-02  0.8181641E-01
        2   -1    0    0  501    0  0.00000000000E+00  0.00000000000E+00  0.20230213446E+04  0.20230213446E+04  0.25500000920E-02 0. -1.
       -2   -1    0    0    0  501  0.00000000000E+00  0.00000000000E+00 -0.12871267992E+04  0.12871267992E+04  0.25500000920E-02 0.  1.
    10030    2    1    2    0    0  0.00000000000E+00  0.00000000000E+00  0.73589454546E+03  0.33101481438E+04  0.32273115673E+04 0.  0.
        1    1    3    3  502    0 -0.95165363168E+03  0.54790659198E+03 -0.84478835402E+03  0.13854651318E+04  0.50400001928E-02 0.  1.
       -1    1    3    3    0  502  0.95165363168E+03 -0.54790659198E+03  0.15806828995E+04  0.19246830121E+04  0.50400001928E-02 0. -1.
</event>
<event>
 5   0  0.5370912E-07  0.3212258E+04  0.7818609E-02  0.8185587E-01
        1   -1    0    0  501    0  0.00000000000E+00  0.00000000000E+00  0.16096577217E+04  0.16096577217E+04  0.50400001928E-02 0. -1.
       -1   -1    0    0    0  501  0.00000000000E+00  0.00000000000E+00 -0.16026076637E+04  0.16026076638E+04  0.50400001928E-02 0.  1.
    10030    2    1    2    0    0  0.00000000000E+00  0.00000000000E+00  0.70500579438E+01  0.32122653855E+04  0.32122576490E+04 0.  0.
        1    1    3    3  502    0 -0.79751540608E+03  0.10906342200E+04  0.87193714813E+03  0.16080386236E+04  0.50400001928E-02 0. -1.
       -1    1    3    3    0  502  0.79751540608E+03 -0.10906342200E+04 -0.86488709019E+03  0.16042267619E+04  0.50400001928E-02 0.  1.
</event>
<event>
 5   0  0.1493485E-06  0.3210014E+04  0.7818609E-02  0.8186178E-01
        2   -1    0    0  501    0  0.00000000000E+00  0.00000000000E+00  0.15595319247E+04  0.15595319247E+04  0.25500000920E-02 0. -1.
       -2   -1    0    0    0  501  0.00000000000E+00  0.00000000000E+00 -0.16518080101E+04  0.16518080101E+04  0.25500000920E-02 0.  1.
    10030    2    1    2    0    0  0.00000000000E+00  0.00000000000E+00 -0.92276085452E+02  0.32113399348E+04  0.32100139098E+04 0.  0.
        2    1    3    3  502    0  0.38549693623E+03  0.29885111984E+03  0.14835872788E+04  0.15617141523E+04  0.25500000920E-02 0. -1.
       -2    1    3    3    0  502 -0.38549693623E+03 -0.29885111984E+03 -0.15758633642E+04  0.16496257825E+04  0.25500000920E-02 0.  1.
</event>
<event>
 5   0  0.1572769E-06  0.3201688E+04  0.7818609E-02  0.8188372E-01
        2   -1    0    0  501    0  0.00000000000E+00  0.00000000000E+00  0.23240918767E+04  0.23240918767E+04  0.25500000920E-02 0.  1.
       -2   -1    0    0    0  501  0.00000000000E+00  0.00000000000E+00 -0.11026677501E+04  0.11026677501E+04  0.25500000920E-02 0. -1.
    10030    2    1    2    0    0  0.00000000000E+00  0.00000000000E+00  0.12214241266E+04  0.34267596268E+04  0.32016877803E+04 0.  0.
        5    1    3    3  502    0  0.57398888861E+03 -0.12545063964E+04  0.14798503028E+04  0.20231728922E+04  0.46999998093E+01 0.  1.
       -5    1    3    3    0  502 -0.57398888861E+03  0.12545063964E+04 -0.25842617626E+03  0.14035867346E+04  0.46999998093E+01 0. -1.
</event>
<event>
 5   0  0.5317728E-07  0.3164526E+04  0.7818609E-02  0.8198249E-01
       -1   -1    0    0    0  501  0.00000000000E+00  0.00000000000E+00  0.13765753297E+04  0.13765753297E+04  0.50400001928E-02 0.  1.
        1   -1    0    0  501    0  0.00000000000E+00  0.00000000000E+00 -0.18186849507E+04  0.18186849507E+04  0.50400001928E-02 0. -1.
    10030    2    1    2    0    0  0.00000000000E+00  0.00000000000E+00 -0.44210962099E+03  0.31952602805E+04  0.31645264011E+04 0.  0.
        2    1    3    3  502    0  0.26055794795E+03  0.14911782314E+04 -0.68602019580E+03  0.16619647021E+04  0.25500000920E-02 0. -1.
       -2    1    3    3    0  502 -0.26055794795E+03 -0.14911782314E+04  0.24391057481E+03  0.15332955783E+04  0.25500000920E-02 0.  1.
</event>
<event>
 5   0  0.1493485E-06  0.3218139E+04  0.7818609E-02  0.8184043E-01
       -2   -1    0    0    0  501  0.00000000000E+00  0.00000000000E+00  0.99930640912E+03  0.99930640913E+03  0.25500000920E-02 0.  1.
        2   -1    0    0  501    0  0.00000000000E+00  0.00000000000E+00 -0.25909014408E+04  0.25909014408E+04  0.25500000920E-02 0. -1.
    10030    2    1    2    0    0  0.00000000000E+00  0.00000000000E+00 -0.15915950317E+04  0.35902078500E+04  0.32181388505E+04 0.  0.
        2    1    3    3  502    0 -0.98698844180E+03 -0.10331257469E+04  0.29765577715E+02  0.14291189534E+04  0.25500000920E-02 0.  1.
       -2    1    3    3    0  502  0.98698844180E+03  0.10331257469E+04 -0.16213606094E+04  0.21610888966E+04  0.25500000920E-02 0. -1.
</event>
<event>
 5   0  0.1556396E-06  0.3214423E+04  0.7818609E-02  0.8185019E-01
        2   -1    0    0  501    0  0.00000000000E+00  0.00000000000E+00  0.22174753953E+04  0.22174753953E+04  0.25500000920E-02 0. -1.
       -2   -1    0    0    0  501  0.00000000000E+00  0.00000000000E+00 -0.11648960064E+04  0.11648960064E+04  0.25500000920E-02 0.  1.
    10030    2    1    2    0    0  0.00000000000E+00  0.00000000000E+00  0.10525793889E+04  0.33823714017E+04  0.32144226432E+04 0.  0.
        3    1    3    3  502    0  0.10359227298E+04 -0.30532363781E+02  0.18189118111E+04  0.20934441273E+04  0.10100000352E+00 0. -1.
       -3    1    3    3    0  502 -0.10359227298E+04  0.30532363781E+02 -0.76633242216E+03  0.12889272744E+04  0.10100000352E+00 0.  1.
</event>
<event>
 5   0  0.4995625E-07  0.3146151E+04  0.7818609E-02  0.8203185E-01
       -3   -1    0    0    0  501  0.00000000000E+00  0.00000000000E+00  0.26200845180E+04  0.26200845200E+04  0.10100000352E+00 0. -1.
        3   -1    0    0  501    0  0.00000000000E+00  0.00000000000E+00 -0.94446045684E+03  0.94446046224E+03  0.10100000352E+00 0.  1.
    10030    2    1    2    0    0  0.00000000000E+00  0.00000000000E+00  0.16756240612E+04  0.35645449822E+04  0.31461508126E+04 0.  0.
        2    1    3    3  502    0 -0.11955500431E+03  0.11766227964E+04 -0.33734720189E+03  0.12298527305E+04  0.25500000920E-02 0.  1.
       -2    1    3    3    0  502  0.11955500431E+03 -0.11766227964E+04  0.20129712631E+04  0.23346922517E+04  0.25500000920E-02 0. -1.
</event>
<event>
 5   0  0.5281187E-07  0.3185970E+04  0.7818609E-02  0.8192532E-01
       -1   -1    0    0    0  501  0.00000000000E+00  0.00000000000E+00  0.15738423639E+04  0.15738423639E+04  0.50400001928E-02 0.  1.
        1   -1    0    0  501    0  0.00000000000E+00  0.00000000000E+00 -0.16123608809E+04  0.16123608809E+04  0.50400001928E-02 0. -1.
    10030    2    1    2    0    0  0.00000000000E+00  0.00000000000E+00 -0.38518516917E+02  0.31862032448E+04  0.31859704081E+04 0.  0.
        5    1    3    3  502    0  0.10278936666E+04 -0.12169446049E+04 -0.11499239774E+02  0.15930078103E+04  0.46999998093E+01 0.  1.
       -5    1    3    3    0  502 -0.10278936666E+04  0.12169446049E+04 -0.27019277143E+02  0.15931954345E+04  0.46999998093E+01 0. -1.
</event>
<event>
 5   0  0.1538349E-06  0.3200724E+04  0.7818609E-02  0.8188626E-01
       -2   -1    0    0    0  501  0.00000000000E+00  0.00000000000E+00  0.92742199014E+03  0.92742199014E+03  0.25500000920E-02 0. -1.
        2   -1    0    0  501    0  0.00000000000E+00  0.00000000000E+00 -0.27615885789E+04  0.27615885789E+04  0.25500000920E-02 0.  1.
    10030    2    1    2    0    0  0.00000000000E+00  0.00000000000E+00 -0.18341665888E+04  0.36890105691E+04  0.32007236531E+04 0.  0.
        1    1    3    3  502    0 -0.49827505082E+03 -0.13220095116E+04 -0.50617189486E+02  0.14137005606E+04  0.50400001928E-02 0. -1.
       -1    1    3    3    0  502  0.49827505082E+03  0.13220095116E+04 -0.17835493993E+04  0.22753100085E+04  0.50400001928E-02 0.  1.
</event>
<event>
 5   0  0.5233813E-07  0.3202543E+04  0.7818609E-02  0.8188146E-01
        1   -1    0    0  501    0  0.00000000000E+00  0.00000000000E+00  0.11371504894E+04  0.11371504895E+04  0.50400001928E-02 0. -1.
       -1   -1    0    0    0  501  0.00000000000E+00  0.00000000000E+00 -0.22548206800E+04  0.22548206800E+04  0.50400001928E-02 0.  1.
    10030    2    1    2    0    0  0.00000000000E+00  0.00000000000E+00 -0.11176701905E+04  0.33919711694E+04  0.32025430145E+04 0.  0.
        4    1    3    3  502    0  0.41882856376E+03  0.13655507668E+04 -0.13254737839E+04  0.19485965789E+04  0.12699999809E+01 0.  1.
       -4    1    3    3    0  502 -0.41882856376E+03 -0.13655507668E+04  0.20780359337E+03  0.14433745906E+04  0.12699999809E+01 0. -1.
</event>
<event>
 5   0  0.5317728E-07  0.3244139E+04  0.7818609E-02  0.8177257E-01
        1   -1    0    0  501    0  0.00000000000E+00  0.00000000000E+00  0.10897744772E+04  0.10897744772E+04  0.50400001928E-02 0.  1.
       -1   -1    0    0    0  501  0.00000000000E+00  0.00000000000E+00 -0.24143607426E+04  0.24143607426E+04  0.50400001928E-02 0. -1.
    10030    2    1    2    0    0  0.00000000000E+00  0.00000000000E+00 -0.13245862654E+04  0.35041352198E+04  0.32441385396E+04 0.  0.
        2    1    3    3  502    0  0.13243043132E+04 -0.81704653049E+03 -0.16759003142E+03  0.15650665690E+04  0.25500000920E-02 0.  1.
       -2    1    3    3    0  502 -0.13243043132E+04  0.81704653049E+03 -0.11569962340E+04  0.19390686508E+04  0.25500000920E-02 0. -1.
</event>
<event>
 5   0  0.1508771E-06  0.3215011E+04  0.7818609E-02  0.8184864E-01
        2   -1    0    0  501    0  0.00000000000E+00  0.00000000000E+00  0.23133254384E+04  0.23133254384E+04  0.25500000920E-02 0. -1.
       -2   -1    0    0    0  501  0.00000000000E+00  0.00000000000E+00 -0.11170389847E+04  0.11170389847E+04  0.25500000920E-02 0.  1.
    10030    2    1    2    0    0  0.00000000000E+00  0.00000000000E+00  0.11962864537E+04  0.34303644232E+04  0.32150114769E+04 0.  0.
        4    1    3    3  502    0  0.10139543906E+04 -0.17908829766E+03 -0.71900767494E+03  0.12558462382E+04  0.12699999809E+01 0.  1.
       -4    1    3    3    0  502 -0.10139543906E+04  0.17908829766E+03  0.19152941286E+04  0.21745181849E+04  0.12699999809E+01 0. -1.
</event>
<event>
 5   0  0.1493485E-06  0.3175949E+04  0.7818609E-02  0.8195198E-01
       -2   -1    0    0    0  501  0.00000000000E+00  0.00000000000E+00  0.14863665068E+04  0.14863665068E+04  0.25500000920E-02 0. -1.
        2   -1    0    0  501    0  0.00000000000E+00  0.00000000000E+00 -0.16965286182E+04  0.16965286182E+04  0.25500000920E-02 0.  1.
    10030    2    1    2    0    0  0.00000000000E+00  0.00000000000E+00 -0.21016211132E+03  0.31828951250E+04  0.31759491910E+04 0.  0.
        2    1    3    3  502    0 -0.37590260880E+03 -0.97354354236E+03  0.10944382500E+04  0.15122449812E+04  0.25500000920E-02 0. -1.
       -2    1    3    3    0  502  0.37590260880E+03  0.97354354236E+03 -0.13046003613E+04  0.16706501438E+04  0.25500000920E-02 0.  1.
</event>
<event>
 5   0  0.1556396E-06  0.3193342E+04  0.7818609E-02  0.8190578E-01
        2   -1    0    0  501    0  0.00000000000E+00  0.00000000000E+00  0.17404723931E+04  0.17404723931E+04  0.25500000920E-02 0. -1.
       -2   -1    0    0    0  501  0.00000000000E+00  0.00000000000E+00 -0.14647507641E+04  0.14647507641E+04  0.25500000920E-02 0.  1.
    10030    2    1    2    0    0  0.00000000000E+00  0.00000000000E+00  0.27572162899E+03  0.32052231573E+04  0.31933419909E+04 0.  0.
        3    1    3    3  502    0 -0.70983562524E+02  0.69325034126E+03  0.15797722982E+04  0.17266485532E+04  0.10100000352E+00 0. -1.
       -3    1    3    3    0  502  0.70983562524E+02 -0.69325034126E+03 -0.13040506692E+04  0.14785746041E+04  0.10100000352E+00 0.  1.
</event>
<event>
 5   0  0.5317728E-07  0.3205463E+04  0.7818609E-02  0.8187376E-01
       -1   -1    0    0    0  501  0.00000000000E+00  0.00000000000E+00  0.14269522157E+04  0.14269522157E+04  0.50400001928E-02 0. -1.
        1   -1    0    0  501    0  0.00000000000E+00  0.00000000000E+00 -0.18001640278E+04  0.18001640278E+04  0.50400001928E-02 0.  1.
    10030    2    1    2    0    0  0.00000000000E+00  0.00000000000E+00 -0.37321181217E+03  0.32271162435E+04  0.32054628671E+04 0.  0.
        2    1    3    3  502    0 -0.32943761668E+03  0.23913363855E+03 -0.17472498002E+04  0.17940445660E+04  0.25500000920E-02 0.  1.
       -2    1    3    3    0  502  0.32943761668E+03 -0.23913363855E+03  0.13740379880E+04  0.14330716775E+04  0.25500000920E-02 0. -1.
</event>
<event>
 5   0  0.1508771E-06  0.3200214E+04  0.7818609E-02  0.8188761E-01
        2   -1    0    0  501    0  0.00000000000E+00  0.00000000000E+00  0.30955423545E+04  0.30955423545E+04  0.25500000920E-02 0.  1.
       -2   -1    0    0    0  501  0.00000000000E+00  0.00000000000E+00 -0.82710643132E+03  0.82710643132E+03  0.25500000920E-02 0. -1.
    10030    2    1    2    0    0  0.00000000000E+00  0.00000000000E+00  0.22684359231E+04  0.39226487858E+04  0.32002143614E+04 0.  0.
        4    1    3    3  502    0  0.10319746117E+04  0.57765055559E+03  0.24553475177E+04  0.27253228816E+04  0.12699999809E+01 0.  1.
       -4    1    3    3    0  502 -0.10319746117E+04 -0.57765055559E+03 -0.18691159455E+03  0.11973259041E+04  0.12699999809E+01 0. -1.
</event>
<event>
 5   0  0.1556396E-06  0.3198208E+04  0.7818609E-02  0.8189290E-01
       -2   -1    0    0    0  501  0.00000000000E+00  0.00000000000E+00  0.15063175406E+04  0.15063175406E+04  0.25500000920E-02 0. -1.
        2   -1    0    0  501    0  0.00000000000E+00  0.00000000000E+00 -0.16976063416E+04  0.16976063416E+04  0.25500000920E-02 0.  1.
    10030    2    1    2    0    0  0.00000000000E+00  0.00000000000E+00 -0.19128880093E+03  0.32039238822E+04  0.31982083793E+04 0.  0.
        3    1    3    3  502    0 -0.36441140583E+02  0.91459765148E+03 -0.14092151207E+04  0.16803880765E+04  0.10100000352E+00 0.  1.
       -3    1    3    3    0  502  0.36441140583E+02 -0.91459765148E+03  0.12179263198E+04  0.15235358058E+04  0.10100000352E+00 0. -1.
</event>
<event>
 5   0  0.5177039E-07  0.3193365E+04  0.7818609E-02  0.8190572E-01
        1   -1    0    0  501    0  0.00000000000E+00  0.00000000000E+00  0.23382538215E+04  0.23382538215E+04  0.50400001928E-02 0. -1.
       -1   -1    0    0    0  501  0.00000000000E+00  0.00000000000E+00 -0.10902988225E+04  0.10902988225E+04  0.50400001928E-02 0.  1.
    10030    2    1    2    0    0  0.00000000000E+00  0.00000000000E+00  0.12479549990E+04  0.34285526440E+04  0.31933652396E+04 0.  0.
        3    1    3    3  502    0  0.12699209939E+04  0.25299850293E+03  0.16269561351E+04  0.20793493812E+04  0.10100000352E+00 0. -1.
       -3    1    3    3    0  502 -0.12699209939E+04 -0.25299850293E+03 -0.37900113617E+03  0.13492032629E+04  0.10100000352E+00 0.  1.
</event>
<event>
 5   0  0.1538349E-06  0.3204910E+04  0.7818609E-02  0.8187522E-01
        2   -1    0    0  501    0  0.00000000000E+00  0.00000000000E+00  0.14063538637E+04  0.14063538637E+04  0.25500000920E-02 0. -1.
       -2   -1    0    0    0  501  0.00000000000E+00  0.00000000000E+00 -0.18259005403E+04  0.18259005403E+04  0.25500000920E-02 0.  1.
    10030    2    1    2    0    0  0.00000000000E+00  0.00000000000E+00 -0.41954667659E+03  0.32322544040E+04  0.32049101576E+04 0.  0.
        1    1    3    3  502    0 -0.52268159534E+03  0.13318016198E+04 -0.93771456335E+03  0.17106139854E+04  0.50400001928E-02 0.  1.
       -1    1    3    3    0  502  0.52268159534E+03 -0.13318016198E+04  0.51816788676E+03  0.15216404186E+04  0.50400001928E-02 0. -1.
</event>
<event>
 5   0  0.5317728E-07  0.3129868E+04  0.7818609E-02  0.8207588E-01
       -1   -1    0    0    0  501  0.00000000000E+00  0.00000000000E+00  0.16237986220E+04  0.16237986220E+04  0.50400001928E-02 0.  1.
        1   -1    0    0  501    0  0.00000000000E+00  0.00000000000E+00 -0.15082030376E+04  0.15082030376E+04  0.50400001928E-02 0. -1.
    10030    2    1    2    0    0  0.00000000000E+00  0.00000000000E+00  0.11559558443E+03  0.31320016596E+04  0.31298677379E+04 0.  0.
        2    1    3    3  502    0 -0.71057571165E+03 -0.11618294250E+04  0.82920115626E+03  0.15944717032E+04  0.25500000920E-02 0.  1.
       -2    1    3    3    0  502  0.71057571165E+03  0.11618294250E+04 -0.71360557183E+03  0.15375299564E+04  0.25500000920E-02 0. -1.
</event>
<event>
 5   0  0.5370912E-07  0.3188480E+04  0.7818609E-02  0.8191866E-01
       -1   -1    0    0    0  501  0.00000000000E+00  0.00000000000E+00  0.11138738072E+04  0.11138738072E+04  0.50400001928E-02 0.  1.
        1   -1    0    0  501    0  0.00000000000E+00  0.00000000000E+00 -0.22817670929E+04  0.22817670929E+04  0.50400001928E-02 0. -1.
    10030    2    1    2    0    0  0.00000000000E+00  0.00000000000E+00 -0.11678932857E+04  0.33956409000E+04  0.31884796370E+04 0.  0.
        1    1    3    3  502    0 -0.47719652322E+03 -0.40413865468E+03  0.97781045615E+03  0.11606712981E+04  0.50400001928E-02 0.  1.
       -1    1    3    3    0  502  0.47719652322E+03  0.40413865468E+03 -0.21457037418E+04  0.22349696020E+04  0.50400001928E-02 0. -1.
</event>
<event>
 5   0  0.1508771E-06  0.3202510E+04  0.7818609E-02  0.8188154E-01
        2   -1    0    0  501    0  0.00000000000E+00  0.00000000000E+00  0.15516221071E+04  0.15516221071E+04  0.25500000920E-02 0. -1.
       -2   -1    0    0    0  501  0.00000000000E+00  0.00000000000E+00 -0.16524760021E+04  0.16524760021E+04  0.25500000920E-02 0.  1.
    10030    2    1    2    0    0  0.00000000000E+00  0.00000000000E+00 -0.10085389496E+03  0.32040981092E+04  0.32025104505E+04 0.  0.
        4    1    3    3  502    0 -0.55205877724E+03  0.37377263566E+03 -0.15070133240E+04  0.16478973415E+04  0.12699999809E+01 0.  1.
       -4    1    3    3    0  502  0.55205877724E+03 -0.37377263566E+03  0.14061594290E+04  0.15562007677E+04  0.12699999809E+01 0. -1.
</event>
<event>
 5   0  0.1508771E-06  0.3233673E+04  0.7818609E-02  0.8179980E-01
        2   -1    0    0  501    0  0.00000000000E+00  0.00000000000E+00  0.18790459016E+04  0.18790459016E+04  0.25500000920E-02 0.  1.
       -2   -1    0    0    0  501  0.00000000000E+00  0.00000000000E+00 -0.13912168433E+04  0.13912168433E+04  0.25500000920E-02 0. -1.
    10030    2    1    2    0    0  0.00000000000E+00  0.00000000000E+00  0.48782905835E+03  0.32702627449E+04  0.32336730246E+04 0.  0.
        4    1    3    3  502    0 -0.11488413341E+04 -0.35113402084E+03 -0.85047021761E+03  0.14718806730E+04  0.12699999809E+01 0. -1.
       -4    1    3    3    0  502  0.11488413341E+04  0.35113402084E+03  0.13382992760E+04  0.17983820719E+04  0.12699999809E+01 0.  1.
</event>
<event>
 5   0  0.1508771E-06  0.3357592E+04  0.7818609E-02  0.8148394E-01
       -2   -1    0    0    0  501  0.00000000000E+00  0.00000000000E+00  0.20245031016E+04  0.20245031016E+04  0.25500000920E-02 0.  1.
        2   -1    0    0  501    0  0.00000000000E+00  0.00000000000E+00 -0.13921222415E+04  0.13921222415E+04  0.25500000920E-02 0. -1.
    10030    2    1    2    0    0  0.00000000000E+00  0.00000000000E+00  0.63238086009E+03  0.34166253432E+04  0.33575918727E+04 0.  0.
        4    1    3    3  502    0  0.43514411067E+03  0.15568157239E+04 -0.14490855155E+03  0.16229681748E+04  0.12699999809E+01 0.  1.
       -4    1    3    3    0  502 -0.43514411067E+03 -0.15568157239E+04  0.77728941164E+03  0.17936571684E+04  0.12699999809E+01 0. -1.
</event>
<event>
 5   0  0.5370912E-07  0.3214071E+04  0.7818609E-02  0.8185111E-01
        1   -1    0    0  501    0  0.00000000000E+00  0.00000000000E+00  0.19820589709E+04  0.19820589709E+04  0.50400001928E-02 0. -1.
       -1   -1    0    0    0  501  0.00000000000E+00  0.00000000000E+00 -0.13029701095E+04  0.13029701095E+04  0.50400001928E-02 0.  1.
    10030    2    1    2    0    0  0.00000000000E+00  0.00000000000E+00  0.67908886140E+03  0.32850290804E+04  0.32140713087E+04 0.  0.
        1    1    3    3  502    0 -0.93813463951E+02  0.13243260234E+04 -0.58594252348E+03  0.14511957218E+04  0.50400001928E-02 0.  1.
       -1    1    3    3    0  502  0.93813463951E+02 -0.13243260234E+04  0.12650313849E+04  0.18338333586E+04  0.50400001928E-02 0. -1.
</event>
<event>
 5   0  0.1556396E-06  0.3196433E+04  0.7818609E-02  0.8189760E-01
       -2   -1    0    0    0  501  0.00000000000E+00  0.00000000000E+00  0.20084837625E+04  0.20084837625E+04  0.25500000920E-02 0. -1.
        2   -1    0    0  501    0  0.00000000000E+00  0.00000000000E+00 -0.12717533151E+04  0.12717533151E+04  0.25500000920E-02 0.  1.
    10030    2    1    2    0    0  0.00000000000E+00  0.00000000000E+00  0.73673044733E+03  0.32802370776E+04  0.31964329389E+04 0.  0.
        3    1    3    3  502    0  0.51017919286E+03  0.14284085471E+04  0.88521867002E+03  0.17562021211E+04  0.10100000352E+00 0. -1.
       -3    1    3    3    0  502 -0.51017919286E+03 -0.14284085471E+04 -0.14848822269E+03  0.15240349565E+04  0.10100000352E+00 0.  1.
</event>
<event>
 5   0  0.1538349E-06  0.3190352E+04  0.7818609E-02  0.8191370E-01
       -2   -1    0    0    0  501  0.00000000000E+00  0.00000000000E+00  0.12677897705E+04  0.12677897705E+04  0.25500000920E-02 0. -1.
        2   -1    0    0  501    0  0.00000000000E+00  0.00000000000E+00 -0.20071042160E+04  0.20071042160E+04  0.25500000920E-02 0.  1.
    10030    2    1    2    0    0  0.00000000000E+00  0.00000000000E+00 -0.73931444548E+03  0.32748939865E+04  0.31903518259E+04 0.  0.
        1    1    3    3  502    0 -0.44954673944E+03 -0.12071270230E+04 -0.13355152339E+04  0.18554915415E+04  0.50400001928E-02 0.  1.
       -1    1    3    3    0  502  0.44954673944E+03  0.12071270230E+04  0.59620078839E+03  0.14194024450E+04  0.50400001928E-02 0. -1.
</event>
<event>
 5   0  0.5317728E-07  0.3206114E+04  0.7818609E-02  0.8187204E-01
       -1   -1    0    0    0  501  0.00000000000E+00  0.00000000000E+00  0.31151306713E+04  0.31151306713E+04  0.50400001928E-02 0.  1.
        1   -1    0    0  501    0  0.00000000000E+00  0.00000000000E+00 -0.82493853323E+03  0.82493853324E+03  0.50400001928E-02 0. -1.
    10030    2    1    2    0    0  0.00000000000E+00  0.00000000000E+00  0.22901921380E+04  0.39400692045E+04  0.32061137390E+04 0.  0.
        2    1    3    3  502    0  0.11688269884E+04  0.92722918439E+03  0.18657535724E+04  0.23889216986E+04  0.25500000920E-02 0. -1.
       -2    1    3    3    0  502 -0.11688269884E+04 -0.92722918439E+03  0.42443856562E+03  0.15511475059E+04  0.25500000920E-02 0.  1.
</event>
<event>
 5   0  0.5370912E-07  0.3027764E+04  0.7818609E-02  0.8235847E-01
       -1   -1    0    0    0  501  0.00000000000E+00  0.00000000000E+00  0.15703585708E+04  0.15703585708E+04  0.50400001928E-02 0.  1.
        1   -1    0    0  501    0  0.00000000000E+00  0.00000000000E+00 -0.14594362639E+04  0.14594362639E+04  0.50400001928E-02 0. -1.
    10030    2    1    2    0    0  0.00000000000E+00  0.00000000000E+00  0.11092230690E+03  0.30297948347E+04  0.30277636933E+04 0.  0.
        1    1    3    3  502    0  0.88007205815E+02 -0.12665291917E+04  0.88063351509E+03  0.15451073909E+04  0.50400001928E-02 0.  1.
       -1    1    3    3    0  502 -0.88007205815E+02  0.12665291917E+04 -0.76971120819E+03  0.14846874438E+04  0.50400001928E-02 0. -1.
</event>
<event>
 5   0  0.5317728E-07  0.3217729E+04  0.7818609E-02  0.8184151E-01
       -1   -1    0    0    0  501  0.00000000000E+00  0.00000000000E+00  0.78115782629E+03  0.78115782630E+03  0.50400001928E-02 0. -1.
        1   -1    0    0  501    0  0.00000000000E+00  0.00000000000E+00 -0.33136008220E+04  0.33136008221E+04  0.50400001928E-02 0.  1.
    10030    2    1    2    0    0  0.00000000000E+00  0.00000000000E+00 -0.25324429958E+04  0.40947586484E+04  0.32177291467E+04 0.  0.
        2    1    3    3  502    0  0.41539637577E+03 -0.13026644422E+04 -0.18719997705E+03  0.13800480533E+04  0.25500000920E-02 0. -1.
       -2    1    3    3    0  502 -0.41539637577E+03  0.13026644422E+04 -0.23452430187E+04  0.27147105950E+04  0.25500000920E-02 0.  1.
</event>
<event>
 5   0  0.1556396E-06  0.3267110E+04  0.7818609E-02  0.8171315E-01
       -2   -1    0    0    0  501  0.00000000000E+00  0.00000000000E+00  0.94750125628E+03  0.94750125629E+03  0.25500000920E-02 0.  1.
        2   -1    0    0  501    0  0.00000000000E+00  0.00000000000E+00 -0.28163574133E+04  0.28163574133E+04  0.25500000920E-02 0. -1.
    10030    2    1    2    0    0  0.00000000000E+00  0.00000000000E+00 -0.18688561570E+04  0.37638586696E+04  0.32671101526E+04 0.  0.
        3    1    3    3  502    0 -0.47015387478E+03 -0.86700304585E+03  0.56578220234E+03  0.11370349415E+04  0.10100000352E+00 0.  1.
       -3    1    3    3    0  502  0.47015387478E+03  0.86700304585E+03 -0.24346383594E+04  0.26268237281E+04  0.10100000352E+00 0. -1.
</event>
<event>
 5   0  0.5317728E-07  0.3123888E+04  0.7818609E-02  0.8209213E-01
       -1   -1    0    0    0  501  0.00000000000E+00  0.00000000000E+00  0.10280955117E+04  0.10280955118E+04  0.50400001928E-02 0.  1.
        1   -1    0    0  501    0  0.00000000000E+00  0.00000000000E+00 -0.23729980593E+04  0.23729980593E+04  0.50400001928E-02 0. -1.
    10030    2    1    2    0    0  0.00000000000E+00  0.00000000000E+00 -0.13449025476E+04  0.34010935711E+04  0.31238877407E+04 0.  0.
        2    1    3    3  502    0  0.86517014698E+03 -0.16196947427E+03  0.73236398438E+03  0.11450373354E+04  0.25500000920E-02 0.  1.
       -2    1    3    3    0  502 -0.86517014698E+03  0.16196947427E+03 -0.20772665319E+04  0.22560562357E+04  0.25500000920E-02 0. -1.
</event>
<event>
 5   0  0.1493485E-06  0.3157445E+04  0.7818609E-02  0.8200147E-01
       -2   -1    0    0    0  501  0.00000000000E+00  0.00000000000E+00  0.24682565387E+04  0.24682565387E+04  0.25500000920E-02 0. -1.
        2   -1    0    0  501    0  0.00000000000E+00  0.00000000000E+00 -0.10097670796E+04  0.10097670796E+04  0.25500000920E-02 0.  1.
    10030    2    1    2    0    0  0.00000000000E+00  0.00000000000E+00  0.14584894591E+04  0.34780236183E+04  0.31574446609E+04 0.  0.
        2    1    3    3  502    0  0.11796500751E+04 -0.10158336021E+04  0.10183247622E+04  0.18602358797E+04  0.25500000920E-02 0. -1.
       -2    1    3    3    0  502 -0.11796500751E+04  0.10158336021E+04  0.44016469691E+03  0.16177877386E+04  0.25500000920E-02 0.  1.
</event>
<event>
 5   0  0.5177039E-07  0.3208151E+04  0.7818609E-02  0.8186668E-01
        1   -1    0    0  501    0  0.00000000000E+00  0.00000000000E+00  0.22908372783E+04  0.22908372783E+04  0.50400001928E-02 0. -1.
       -1   -1    0    0    0  501  0.00000000000E+00  0.00000000000E+00 -0.11231952132E+04  0.11231952132E+04  0.50400001928E-02 0.  1.
    10030    2    1    2    0    0  0.00000000000E+00  0.00000000000E+00  0.11676420651E+04  0.34140324916E+04  0.32081505359E+04 0.  0.
        3    1    3    3  502    0  0.10498531136E+04 -0.90607923407E+03 -0.27406897246E+03  0.14136070707E+04  0.10100000352E+00 0.  1.
       -3    1    3    3    0  502 -0.10498531136E+04  0.90607923407E+03  0.14417110376E+04  0.20004254209E+04  0.10100000352E+00 0. -1.
</event>
<event>
 5   0  0.5370912E-07  0.3199158E+04  0.7818609E-02  0.8189040E-01
       -1   -1    0    0    0  501  0.00000000000E+00  0.00000000000E+00  0.19314618409E+04  0.19314618409E+04  0.50400001928E-02 0.  1.
        1   -1    0    0  501    0  0.00000000000E+00  0.00000000000E+00 -0.13247232594E+04  0.13247232594E+04  0.50400001928E-02 0. -1.
    10030    2    1    2    0    0  0.00000000000E+00  0.00000000000E+00  0.60673858150E+03  0.32561851002E+04  0.31991576549E+04 0.  0.
        1    1    3    3  502    0  0.49940987418E+03 -0.15065108595E+04  0.10065265255E+03  0.15903195115E+04  0.50400001928E-02 0. -1.
       -1    1    3    3    0  502 -0.49940987418E+03  0.15065108595E+04  0.50608592895E+03  0.16658655887E+04  0.50400001928E-02 0.  1.
</event>
<event>
 5   0  0.1508771E-06  0.3169285E+04  0.7818609E-02  0.8196976E-01
        2   -1    0    0  501    0  0.00000000000E+00  0.00000000000E+00  0.19701261531E+04  0.19701261531E+04  0.25500000920E-02 0.  1.
       -2   -1    0    0    0  501  0.00000000000E+00  0.00000000000E+00 -0.12745845234E+04  0.12745845234E+04  0.25500000920E-02 0. -1.
    10030    2    1    2    0    0  0.00000000000E+00  0.00000000000E+00  0.69554162970E+03  0.32447106764E+04  0.31692852846E+04 0.  0.
        4    1    3    3  502    0  0.15555104734E+04 -0.10351487682E+03  0.63872164224E+03  0.16847240462E+04  0.12699999809E+01 0. -1.
       -4    1    3    3    0  502 -0.15555104734E+04  0.10351487682E+03  0.56819987460E+02  0.15599866302E+04  0.12699999809E+01 0.  1.
</event>
<event>
 5   0  0.1572769E-06  0.3249271E+04  0.7818609E-02  0.8175925E-01
       -2   -1    0    0    0  501  0.00000000000E+00  0.00000000000E+00  0.14887356337E+04  0.14887356337E+04  0.25500000920E-02 0.  1.
        2   -1    0    0  501    0  0.00000000000E+00  0.00000000000E+00 -0.17729408358E+04  0.17729408358E+04  0.25500000920E-02 0. -1.
    10030    2    1    2    0    0  0.00000000000E+00  0.00000000000E+00 -0.28420520208E+03  0.32616764695E+04  0.32492708097E+04 0.  0.
        5    1    3    3  502    0 -0.15048082609E+04  0.13618936077E+03  0.45718822256E+03  0.15786192084E+04  0.46999998093E+01 0.  1.
       -5    1    3    3    0  502  0.15048082609E+04 -0.13618936077E+03 -0.74139342464E+03  0.16830572611E+04  0.46999998093E+01 0. -1.
</event>
<event>
 5   0  0.5317728E-07  0.2805401E+04  0.7818609E-02  0.8301593E-01
        1   -1    0    0  501    0  0.00000000000E+00  0.00000000000E+00  0.13137694792E+04  0.13137694792E+04  0.50400001928E-02 0. -1.
       -1   -1    0    0    0  501  0.00000000000E+00  0.00000000000E+00 -0.14976515373E+04  0.14976515373E+04  0.50400001928E-02 0.  1.
    10030    2    1    2    0    0  0.00000000000E+00  0.00000000000E+00 -0.18388205806E+03  0.28114210165E+04  0.28054011337E+04 0.  0.
        2    1    3    3  502    0 -0.11862840014E+04 -0.69212712822E+03 -0.37761268641E+03  0.14243949714E+04  0.25500000920E-02 0. -1.
       -2    1    3    3    0  502  0.11862840014E+04  0.69212712822E+03  0.19373062835E+03  0.13870260451E+04  0.25500000920E-02 0.  1.
</event>
<event>
 5   0  0.5317728E-07  0.3255185E+04  0.7818609E-02  0.8174393E-01
       -1   -1    0    0    0  501  0.00000000000E+00  0.00000000000E+00  0.15841310319E+04  0.15841310319E+04  0.50400001928E-02 0. -1.
        1   -1    0    0  501    0  0.00000000000E+00  0.00000000000E+00 -0.16722468006E+04  0.16722468006E+04  0.50400001928E-02 0.  1.
    10030    2    1    2    0    0  0.00000000000E+00  0.00000000000E+00 -0.88115768726E+02  0.32563778325E+04  0.32551854324E+04 0.  0.
        2    1    3    3  502    0 -0.12334864903E+04  0.10298846653E+04  0.21470016881E+03  0.16211870676E+04  0.25500000920E-02 0.  1.
       -2    1    3    3    0  502  0.12334864903E+04 -0.10298846653E+04 -0.30281593754E+03  0.16351907649E+04  0.25500000920E-02 0. -1.
</event>
<event>
 5   0  0.5370912E-07  0.3194013E+04  0.7818609E-02  0.8190400E-01
        1   -1    0    0  501    0  0.00000000000E+00  0.00000000000E+00  0.15429900837E+04  0.15429900837E+04  0.50400001928E-02 0.  1.
       -1   -1    0    0    0  501  0.00000000000E+00  0.00000000000E+00 -0.16529142364E+04  0.16529142364E+04  0.50400001928E-02 0. -1.
    10030    2    1    2    0    0  0.00000000000E+00  0.00000000000E+00 -0.10992415263E+03  0.31959043201E+04  0.31940133225E+04 0.  0.
        1    1    3    3  502    0  0.11582742154E+04 -0.42232973772E+03  0.96075896720E+03  0.15630161095E+04  0.50400001928E-02 0.  1.
       -1    1    3    3    0  502 -0.11582742154E+04  0.42232973772E+03 -0.10706831198E+04  0.16328882107E+04  0.50400001928E-02 0. -1.
</event>
<event>
 5   0  0.5281187E-07  0.3195677E+04  0.7818609E-02  0.8189960E-01
        1   -1    0    0  501    0  0.00000000000E+00  0.00000000000E+00  0.96562970816E+03  0.96562970818E+03  0.50400001928E-02 0. -1.
       -1   -1    0    0    0  501  0.00000000000E+00  0.00000000000E+00 -0.26439618452E+04  0.26439618452E+04  0.50400001928E-02 0.  1.
    10030    2    1    2    0    0  0.00000000000E+00  0.00000000000E+00 -0.16783321370E+04  0.36095915533E+04  0.31956771458E+04 0.  0.
        5    1    3    3  502    0 -0.74347938871E+02 -0.14936165285E+04 -0.14747656227E+04  0.21003270417E+04  0.46999998093E+01 0.  1.
       -5    1    3    3    0  502  0.74347938871E+02  0.14936165285E+04 -0.20356651433E+03  0.15092645116E+04  0.46999998093E+01 0. -1.
</event>
<event>
 5   0  0.5177039E-07  0.3179486E+04  0.7818609E-02  0.8194256E-01
        1   -1    0    0  501    0  0.00000000000E+00  0.00000000000E+00  0.15214533774E+04  0.15214533774E+04  0.50400001928E-02 0. -1.
       -1   -1    0    0    0  501  0.00000000000E+00  0.00000000000E+00 -0.16610976534E+04  0.16610976534E+04  0.50400001928E-02 0.  1.
    10030    2    1    2    0    0  0.00000000000E+00  0.00000000000E+00 -0.13964427602E+03  0.31825510308E+04  0.31794858924E+04 0.  0.
        3    1    3    3  502    0  0.34809824226E+03  0.17457610749E+03 -0.16126170112E+04  0.16589704152E+04  0.10100000352E+00 0.  1.
       -3    1    3    3    0  502 -0.34809824226E+03 -0.17457610749E+03  0.14729727351E+04  0.15235806156E+04  0.10100000352E+00 0. -1.
</event>
<event>
 5   0  0.1538349E-06  0.3201166E+04  0.7818609E-02  0.8188509E-01
       -2   -1    0    0    0  501  0.00000000000E+00  0.00000000000E+00  0.12010182970E+04  0.12010182970E+04  0.25500000920E-02 0.  1.
        2   -1    0    0  501    0  0.00000000000E+00  0.00000000000E+00 -0.21330779073E+04  0.21330779073E+04  0.25500000920E-02 0. -1.
    10030    2    1    2    0    0  0.00000000000E+00  0.00000000000E+00 -0.93205961033E+03  0.33340962043E+04  0.32011657848E+04 0.  0.
        1    1    3    3  502    0 -0.43640104824E+03 -0.14020960268E+04  0.19724005661E+03  0.14816284228E+04  0.50400001928E-02 0. -1.
       -1    1    3    3    0  502  0.43640104824E+03  0.14020960268E+04 -0.11292996669E+04  0.18524677814E+04  0.50400001928E-02 0.  1.
</event>
<event>
 5   0  0.5281187E-07  0.2902486E+04  0.7818609E-02  0.8272138E-01
       -1   -1    0    0    0  501  0.00000000000E+00  0.00000000000E+00  0.12207352621E+04  0.12207352622E+04  0.50400001928E-02 0. -1.
        1   -1    0    0  501    0  0.00000000000E+00  0.00000000000E+00 -0.17252767797E+04  0.17252767797E+04  0.50400001928E-02 0.  1.
    10030    2    1    2    0    0  0.00000000000E+00  0.00000000000E+00 -0.50454151751E+03  0.29460120418E+04  0.29024859703E+04 0.  0.
        5    1    3    3  502    0  0.62971578291E+03  0.32017628716E+03 -0.15389677478E+04  0.16933690209E+04  0.46999998093E+01 0.  1.
       -5    1    3    3    0  502 -0.62971578291E+03 -0.32017628716E+03  0.10344262303E+04  0.12526430210E+04  0.46999998093E+01 0. -1.
</event>
<event>
 5   0  0.5370912E-07  0.3220058E+04  0.7818609E-02  0.8183540E-01
        1   -1    0    0  501    0  0.00000000000E+00  0.00000000000E+00  0.16814441570E+04  0.16814441570E+04  0.50400001928E-02 0.  1.
       -1   -1    0    0    0  501  0.00000000000E+00  0.00000000000E+00 -0.15416467698E+04  0.15416467698E+04  0.50400001928E-02 0. -1.
    10030    2    1    2    0    0  0.00000000000E+00  0.00000000000E+00  0.13979738721E+03  0.32230909268E+04  0.32200577345E+04 0.  0.
        1    1    3    3  502    0 -0.70282716972E+03  0.90256898826E+03  0.12039249265E+04  0.16607323800E+04  0.50400001928E-02 0.  1.
       -1    1    3    3    0  502  0.70282716972E+03 -0.90256898826E+03 -0.10641275393E+04  0.15623585469E+04  0.50400001928E-02 0. -1.
</event>
<event>
 5   0  0.5370912E-07  0.3113411E+04  0.7818609E-02  0.8212067E-01
        1   -1    0    0  501    0  0.00000000000E+00  0.00000000000E+00  0.19045926243E+04  0.19045926243E+04  0.50400001928E-02 0.  1.
       -1   -1    0    0    0  501  0.00000000000E+00  0.00000000000E+00 -0.12723626140E+04  0.12723626140E+04  0.50400001928E-02 0. -1.
    10030    2    1    2    0    0  0.00000000000E+00  0.00000000000E+00  0.63223001023E+03  0.31769552383E+04  0.31134112803E+04 0.  0.
        1    1    3    3  502    0 -0.93541869515E+03  0.11904245208E+03  0.15800041032E+04  0.18399978822E+04  0.50400001928E-02 0.  1.
       -1    1    3    3    0  502  0.93541869515E+03 -0.11904245208E+03 -0.94777409293E+03  0.13369573560E+04  0.50400001928E-02 0. -1.
</event>
<event>
 5   0  0.5233813E-07  0.3255941E+04  0.7818609E-02  0.8174198E-01
        1   -1    0    0  501    0  0.00000000000E+00  0.00000000000E+00  0.26404495452E+04  0.26404495452E+04  0.50400001928E-02 0.  1.
       -1   -1    0    0    0  501  0.00000000000E+00  0.00000000000E+00 -0.10037257621E+04  0.10037257622E+04  0.50400001928E-02 0. -1.
    10030    2    1    2    0    0  0.00000000000E+00  0.00000000000E+00  0.16367237830E+04  0.36441753073E+04  0.32559405597E+04 0.  0.
        4    1    3    3  502    0  0.79551519466E+02  0.14469781649E+04  0.16485711489E+04  0.21949630293E+04  0.12699999809E+01 0.  1.
       -4    1    3    3    0  502 -0.79551519466E+02 -0.14469781649E+04 -0.11847365861E+02  0.14492122781E+04  0.12699999809E+01 0. -1.
</event>
<event>
 5   0  0.5177039E-07  0.3149714E+04  0.7818609E-02  0.8202225E-01
        1   -1    0    0  501    0  0.00000000000E+00  0.00000000000E+00  0.11241280569E+04  0.11241280569E+04  0.50400001928E-02 0. -1.
       -1   -1    0    0    0  501  0.00000000000E+00  0.00000000000E+00 -0.22063102934E+04  0.22063102934E+04  0.50400001928E-02 0.  1.
    10030    2    1    2    0    0  0.00000000000E+00  0.00000000000E+00 -0.10821822365E+04  0.33304383503E+04  0.31497144652E+04 0.  0.
        3    1    3    3  502    0 -0.96319610616E+03 -0.10196446414E+04 -0.12982455540E+04  0.19112465729E+04  0.10100000352E+00 0.  1.
       -3    1    3    3    0  502  0.96319610616E+03  0.10196446414E+04  0.21606331748E+03  0.14191917774E+04  0.10100000352E+00 0. -1.
</event>
<event>
 5   0  0.1538349E-06  0.3212829E+04  0.7818609E-02  0.8185437E-01
        2   -1    0    0  501    0  0.00000000000E+00  0.00000000000E+00  0.19884616321E+04  0.19884616321E+04  0.25500000920E-02 0. -1.
       -2   -1    0    0    0  501  0.00000000000E+00  0.00000000000E+00 -0.12977710920E+04  0.12977710920E+04  0.25500000920E-02 0.  1.
    10030    2    1    2    0    0  0.00000000000E+00  0.00000000000E+00  0.69069054009E+03  0.32862327240E+04  0.32128292974E+04 0.  0.
        1    1    3    3  502    0  0.14201575133E+04  0.10760623323E+03  0.11053842797E+04  0.18028590821E+04  0.50400001928E-02 0. -1.
       -1    1    3    3    0  502 -0.14201575133E+04 -0.10760623323E+03 -0.41469373962E+03  0.14833736420E+04  0.50400001928E-02 0.  1.
</event>
<event>
 5   0  0.1556396E-06  0.3205621E+04  0.7818609E-02  0.8187334E-01
        2   -1    0    0  501    0  0.00000000000E+00  0.00000000000E+00  0.17217390246E+04  0.17217390246E+04  0.25500000920E-02 0.  1.
       -2   -1    0    0    0  501  0.00000000000E+00  0.00000000000E+00 -0.14920973028E+04  0.14920973028E+04  0.25500000920E-02 0. -1.
    10030    2    1    2    0    0  0.00000000000E+00  0.00000000000E+00  0.22964172178E+03  0.32138363274E+04  0.32056214092E+04 0.  0.
        3    1    3    3  502    0  0.55760868221E+03  0.82234598155E+03 -0.11461071784E+04  0.15168197093E+04  0.10100000352E+00 0. -1.
       -3    1    3    3    0  502 -0.55760868221E+03 -0.82234598155E+03  0.13757489002E+04  0.16970166182E+04  0.10100000352E+00 0.  1.
</event>
<event>
 5   0  0.5177039E-07  0.3168915E+04  0.7818609E-02  0.8197075E-01
        1   -1    0    0  501    0  0.00000000000E+00  0.00000000000E+00  0.25334403472E+04  0.25334403472E+04  0.50400001928E-02 0.  1.
       -1   -1    0    0    0  501  0.00000000000E+00  0.00000000000E+00 -0.99094701740E+03  0.99094701741E+03  0.50400001928E-02 0. -1.
    10030    2    1    2    0    0  0.00000000000E+00  0.00000000000E+00  0.15424933298E+04  0.35243873646E+04  0.31689147390E+04 0.  0.
        3    1    3    3  502    0 -0.17899319208E+03 -0.13270105145E+04  0.17133248829E+04  0.21745062964E+04  0.10100000352E+00 0. -1.
       -3    1    3    3    0  502  0.17899319208E+03  0.13270105145E+04 -0.17083155315E+03  0.13498810682E+04  0.10100000352E+00 0.  1.
</event>
<event>
 5   0  0.1572769E-06  0.3199002E+04  0.7818609E-02  0.8189081E-01
       -2   -1    0    0    0  501  0.00000000000E+00  0.00000000000E+00  0.33383193079E+04  0.33383193079E+04  0.25500000920E-02 0.  1.
        2   -1    0    0  501    0  0.00000000000E+00  0.00000000000E+00 -0.76637465059E+03  0.76637465059E+03  0.25500000920E-02 0. -1.
    10030    2    1    2    0    0  0.00000000000E+00  0.00000000000E+00  0.25719446573E+04  0.41046939585E+04  0.31990019026E+04 0.  0.
        5    1    3    3  502    0  0.45729635045E+03  0.41172168407E+03  0.31803618328E+04  0.32393453312E+04  0.46999998093E+01 0.  1.
       -5    1    3    3    0  502 -0.45729635045E+03 -0.41172168407E+03 -0.60841717551E+03  0.86534862727E+03  0.46999998093E+01 0. -1.
</event>
<event>
 5   0  0.5233813E-07  0.3224726E+04  0.7818609E-02  0.8182317E-01
        1   -1    0    0  501    0  0.00000000000E+00  0.00000000000E+00  0.14233051482E+04  0.14233051482E+04  0.50400001928E-02 0.  1.
       -1   -1    0    0    0  501  0.00000000000E+00  0.00000000000E+00 -0.18265334745E+04  0.18265334745E+04  0.50400001928E-02 0. -1.
    10030    2    1    2    0    0  0.00000000000E+00  0.00000000000E+00 -0.40322832630E+03  0.32498386227E+04  0.32247260334E+04 0.  0.
        4    1    3    3  502    0 -0.15513458198E+03 -0.10705179016E+03 -0.18153919733E+04  0.18251510770E+04  0.12699999809E+01 0. -1.
       -4    1    3    3    0  502  0.15513458198E+03  0.10705179016E+03  0.14121636470E+04  0.14246875457E+04  0.12699999809E+01 0.  1.
</event>
<event>
 5   0  0.5317728E-07  0.3192334E+04  0.7818609E-02  0.8190845E-01
        1   -1    0    0  501    0  0.00000000000E+00  0.00000000000E+00  0.18138230277E+04  0.18138230277E+04  0.50400001928E-02 0.  1.
       -1   -1    0    0    0  501  0.00000000000E+00  0.00000000000E+00 -0.14046292956E+04  0.14046292956E+04  0.50400001928E-02 0. -1.
    10030    2    1    2    0    0  0.00000000000E+00  0.00000000000E+00  0.40919373213E+03  0.32184523233E+04  0.31923339185E+04 0.  0.
        2    1    3    3  502    0 -0.12048218978E+04  0.10133333237E+04 -0.60822582931E+02  0.15754807574E+04  0.25500000920E-02 0. -1.
       -2    1    3    3    0  502  0.12048218978E+04 -0.10133333237E+04  0.47001631506E+03  0.16429715660E+04  0.25500000920E-02 0.  1.
</event>
<event>
 5   0  0.5370912E-07  0.3174282E+04  0.7818609E-02  0.8195642E-01
       -1   -1    0    0    0  501  0.00000000000E+00  0.00000000000E+00  0.13498677488E+04  0.13498677488E+04  0.50400001928E-02 0.  1.
        1   -1    0    0  501    0  0.00000000000E+00  0.00000000000E+00 -0.18661213609E+04  0.18661213609E+04  0.50400001928E-02 0. -1.
    10030    2    1    2    0    0  0.00000000000E+00  0.00000000000E+00 -0.51625361215E+03  0.32159891097E+04  0.31742823066E+04 0.  0.
        1    1    3    3  502    0  0.89119511147E+02 -0.14987747857E+04  0.26317124240E+03  0.15243120574E+04  0.50400001928E-02 0. -1.
       -1    1    3    3    0  502 -0.89119511147E+02  0.14987747857E+04 -0.77942485455E+03  0.16916770523E+04  0.50400001928E-02 0.  1.
</event>
<event>
 5   0  0.5281187E-07  0.3181968E+04  0.7818609E-02  0.8193596E-01
        1   -1    0    0  501    0  0.00000000000E+00  0.00000000000E+00  0.24424826173E+04  0.24424826173E+04  0.50400001928E-02 0.  1.
       -1   -1    0    0    0  501  0.00000000000E+00  0.00000000000E+00 -0.10363347793E+04  0.10363347794E+04  0.50400001928E-02 0. -1.
    10030    2    1    2    0    0  0.00000000000E+00  0.00000000000E+00  0.14061478380E+04  0.34788173967E+04  0.31819677461E+04 0.  0.
        5    1    3    3  502    0  0.11118994378E+04 -0.81799640294E+03 -0.16178033096E+03  0.13898321627E+04  0.46999998093E+01 0. -1.
       -5    1    3    3    0  502 -0.11118994378E+04  0.81799640294E+03  0.15679281690E+04  0.20889852340E+04  0.46999998093E+01 0.  1.
</event>
<event>
 5   0  0.1572769E-06  0.3198661E+04  0.7818609E-02  0.8189171E-01
       -2   -1    0    0    0  501  0.00000000000E+00  0.00000000000E+00  0.18046186477E+04  0.18046186477E+04  0.25500000920E-02 0. -1.
        2   -1    0    0  501    0  0.00000000000E+00  0.00000000000E+00 -0.14173951225E+04  0.14173951225E+04  0.25500000920E-02 0.  1.
    10030    2    1    2    0    0  0.00000000000E+00  0.00000000000E+00  0.38722352516E+03  0.32220137702E+04  0.31986607630E+04 0.  0.
        5    1    3    3  502    0  0.98492018893E+03 -0.52341118645E+03 -0.96097147450E+03  0.14722483871E+04  0.46999998093E+01 0.  1.
       -5    1    3    3    0  502 -0.98492018893E+03  0.52341118645E+03  0.13481949997E+04  0.17497653831E+04  0.46999998093E+01 0. -1.
</event>
<event>
 5   0  0.1508771E-06  0.3137492E+04  0.7818609E-02  0.8205523E-01
       -2   -1    0    0    0  501  0.00000000000E+00  0.00000000000E+00  0.14174210403E+04  0.14174210403E+04  0.25500000920E-02 0. -1.
        2   -1    0    0  501    0  0.00000000000E+00  0.00000000000E+00 -0.17362270071E+04  0.17362270071E+04  0.25500000920E-02 0.  1.
    10030    2    1    2    0    0  0.00000000000E+00  0.00000000000E+00 -0.31880596674E+03  0.31536480474E+04  0.31374924323E+04 0.  0.
        4    1    3    3  502    0  0.23843921774E+03  0.43865356462E+03  0.13354309412E+04  0.14257095153E+04  0.12699999809E+01 0. -1.
       -4    1    3    3    0  502 -0.23843921774E+03 -0.43865356462E+03 -0.16542369080E+04  0.17279385321E+04  0.12699999809E+01 0.  1.
</event>
<event>
 5   0  0.5281187E-07  0.3167691E+04  0.7818609E-02  0.8197402E-01
        1   -1    0    0  501    0  0.00000000000E+00  0.00000000000E+00  0.16158340753E+04  0.16158340753E+04  0.50400001928E-02 0.  1.
       -1   -1    0    0    0  501  0.00000000000E+00  0.00000000000E+00 -0.15524901082E+04  0.15524901082E+04  0.50400001928E-02 0. -1.
    10030    2    1    2    0    0  0.00000000000E+00  0.00000000000E+00  0.63343967144E+02  0.31683241835E+04  0.31676909056E+04 0.  0.
        5    1    3    3  502    0  0.10508807332E+04  0.10808438708E+04  0.51753708708E+03  0.15938759409E+04  0.46999998093E+01 0.  1.
       -5    1    3    3    0  502 -0.10508807332E+04 -0.10808438708E+04 -0.45419311993E+03  0.15744482426E+04  0.46999998093E+01 0. -1.
</event>
<event>
 5   0  0.4995625E-07  0.3193728E+04  0.7818609E-02  0.8190476E-01
       -3   -1    0    0    0  501  0.00000000000E+00  0.00000000000E+00  0.20886637624E+04  0.20886637648E+04  0.10100000352E+00 0. -1.
        3   -1    0    0  501    0  0.00000000000E+00  0.00000000000E+00 -0.12208642428E+04  0.12208642470E+04  0.10100000352E+00 0.  1.
    10030    2    1    2    0    0  0.00000000000E+00  0.00000000000E+00  0.86779951955E+03  0.33095280118E+04  0.31937281748E+04 0.  0.
        4    1    3    3  502    0 -0.13340357518E+04  0.54045004790E+03  0.11505200320E+04  0.18426707786E+04  0.12699999809E+01 0. -1.
       -4    1    3    3    0  502  0.13340357518E+04 -0.54045004790E+03 -0.28272051249E+03  0.14668572332E+04  0.12699999809E+01 0.  1.
</event>
<event>
 5   0  0.1538349E-06  0.3206353E+04  0.7818609E-02  0.8187142E-01
        2   -1    0    0  501    0  0.00000000000E+00  0.00000000000E+00  0.29640283951E+04  0.29640283951E+04  0.25500000920E-02 0. -1.
       -2   -1    0    0    0  501  0.00000000000E+00  0.00000000000E+00 -0.86712197120E+03  0.86712197120E+03  0.25500000920E-02 0.  1.
    10030    2    1    2    0    0  0.00000000000E+00  0.00000000000E+00  0.20969064239E+04  0.38311503663E+04  0.32063525350E+04 0.  0.
        1    1    3    3  502    0  0.97502796071E+03 -0.12486398240E+04  0.75481539635E+03  0.17548581757E+04  0.50400001928E-02 0.  1.
       -1    1    3    3    0  502 -0.97502796071E+03  0.12486398240E+04  0.13420910275E+04  0.20762921905E+04  0.50400001928E-02 0. -1.
</event>
<event>
 5   0  0.1508771E-06  0.3157165E+04  0.7818609E-02  0.8200222E-01
        2   -1    0    0  501    0  0.00000000000E+00  0.00000000000E+00  0.21948246438E+04  0.21948246438E+04  0.25500000920E-02 0.  1.
       -2   -1    0    0    0  501  0.00000000000E+00  0.00000000000E+00 -0.11353628902E+04  0.11353628902E+04  0.25500000920E-02 0. -1.
    10030    2    1    2    0    0  0.00000000000E+00  0.00000000000E+00  0.10594617537E+04  0.33301875340E+04  0.31571648364E+04 0.  0.
        4    1    3    3  502    0 -0.87140985107E+02  0.70629724442E+03 -0.95655811504E+03  0.11922476207E+04  0.12699999809E+01 0. -1.
       -4    1    3    3    0  502  0.87140985107E+02 -0.70629724442E+03  0.20160198687E+04  0.21379399133E+04  0.12699999809E+01 0.  1.
</event>
<event>
 5   0  0.1508771E-06  0.3203775E+04  0.7818609E-02  0.8187821E-01
       -2   -1    0    0    0  501  0.00000000000E+00  0.00000000000E+00  0.22433960179E+04  0.22433960179E+04  0.25500000920E-02 0. -1.
        2   -1    0    0  501    0  0.00000000000E+00  0.00000000000E+00 -0.11438212486E+04  0.11438212486E+04  0.25500000920E-02 0.  1.
    10030    2    1    2    0    0  0.00000000000E+00  0.00000000000E+00  0.10995747693E+04  0.33872172665E+04  0.32037752944E+04 0.  0.
        4    1    3    3  502    0  0.97833884977E+03 -0.12173211588E+04  0.92659972492E+03  0.18159312685E+04  0.12699999809E+01 0. -1.
       -4    1    3    3    0  502 -0.97833884977E+03  0.12173211588E+04  0.17297504436E+03  0.15712859980E+04  0.12699999809E+01 0.  1.
</event>
<event>
 5   0  0.5233813E-07  0.3206345E+04  0.7818609E-02  0.8187143E-01
        1   -1    0    0  501    0  0.00000000000E+00  0.00000000000E+00  0.13469380301E+04  0.13469380301E+04  0.50400001928E-02 0.  1.
       -1   -1    0    0    0  501  0.00000000000E+00  0.00000000000E+00 -0.19081522555E+04  0.19081522556E+04  0.50400001928E-02 0. -1.
    10030    2    1    2    0    0  0.00000000000E+00  0.00000000000E+00 -0.56121422550E+03  0.32550902856E+04  0.32063454837E+04 0.  0.
        4    1    3    3  502    0 -0.11966700349E+03  0.15648846940E+04  0.51438531949E+02  0.15702967340E+04  0.12699999809E+01 0. -1.
       -4    1    3    3    0  502  0.11966700349E+03 -0.15648846940E+04 -0.61265275745E+03  0.16847935516E+04  0.12699999809E+01 0.  1.
</event>
<event>
 5   0  0.5177039E-07  0.3206184E+04  0.7818609E-02  0.8187186E-01
        1   -1    0    0  501    0  0.00000000000E+00  0.00000000000E+00  0.13773190161E+04  0.13773190161E+04  0.50400001928E-02 0. -1.
       -1   -1    0    0    0  501  0.00000000000E+00  0.00000000000E+00 -0.18658741140E+04  0.18658741140E+04  0.50400001928E-02 0.  1.
    10030    2    1    2    0    0  0.00000000000E+00  0.00000000000E+00 -0.48855509796E+03  0.32431931301E+04  0.32061839616E+04 0.  0.
        3    1    3    3  502    0  0.11456878763E+04  0.10651418131E+04 -0.59871637185E+03  0.16749892823E+04  0.10100000352E+00 0.  1.
       -3    1    3    3    0  502 -0.11456878763E+04 -0.10651418131E+04  0.11016127389E+03  0.15682038478E+04  0.10100000352E+00 0. -1.
</event>
<event>
 5   0  0.5177039E-07  0.3245774E+04  0.7818609E-02  0.8176832E-01
        1   -1    0    0  501    0  0.00000000000E+00  0.00000000000E+00  0.10528477857E+04  0.10528477857E+04  0.50400001928E-02 0. -1.
       -1   -1    0    0    0  501  0.00000000000E+00  0.00000000000E+00 -0.25015606278E+04  0.25015606278E+04  0.50400001928E-02 0.  1.
    10030    2    1    2    0    0  0.00000000000E+00  0.00000000000E+00 -0.14487128421E+04  0.35544084136E+04  0.32457742176E+04 0.  0.
        3    1    3    3  502    0  0.15810757984E+04 -0.26634669329E+02 -0.11241047518E+04  0.19401344255E+04  0.10100000352E+00 0. -1.
       -3    1    3    3    0  502 -0.15810757984E+04  0.26634669329E+02 -0.32460809029E+03  0.16142739880E+04  0.10100000352E+00 0.  1.
</event>
<event>
 5   0  0.1508771E-06  0.3177686E+04  0.7818609E-02  0.8194735E-01
       -2   -1    0    0    0  501  0.00000000000E+00  0.00000000000E+00  0.98103587219E+03  0.98103587219E+03  0.25500000920E-02 0.  1.
        2   -1    0    0  501    0  0.00000000000E+00  0.00000000000E+00 -0.25732207035E+04  0.25732207035E+04  0.25500000920E-02 0. -1.
    10030    2    1    2    0    0  0.00000000000E+00  0.00000000000E+00 -0.15921848313E+04  0.35542565757E+04  0.31776858354E+04 0.  0.
        4    1    3    3  502    0 -0.15653164674E+04  0.16366727193E+03 -0.10396532956E+04  0.18862351940E+04  0.12699999809E+01 0. -1.
       -4    1    3    3    0  502  0.15653164674E+04 -0.16366727193E+03 -0.55253153567E+03  0.16680213817E+04  0.12699999809E+01 0.  1.
</event>
<event>
 5   0  0.5233813E-07  0.3207295E+04  0.7818609E-02  0.8186893E-01
        1   -1    0    0  501    0  0.00000000000E+00  0.00000000000E+00  0.19574590863E+04  0.19574590863E+04  0.50400001928E-02 0. -1.
       -1   -1    0    0    0  501  0.00000000000E+00  0.00000000000E+00 -0.13137876852E+04  0.13137876852E+04  0.50400001928E-02 0.  1.
    10030    2    1    2    0    0  0.00000000000E+00  0.00000000000E+00  0.64367140111E+03  0.32712467716E+04  0.32072952106E+04 0.  0.
        4    1    3    3  502    0  0.68382917923E+03  0.76653403239E+03  0.15778476013E+04  0.18827643068E+04  0.12699999809E+01 0.  1.
       -4    1    3    3    0  502 -0.68382917923E+03 -0.76653403239E+03 -0.93417620015E+03  0.13884824648E+04  0.12699999809E+01 0. -1.
</event>
<event>
 5   0  0.1538349E-06  0.3194507E+04  0.7818609E-02  0.8190269E-01
       -2   -1    0    0    0  501  0.00000000000E+00  0.00000000000E+00  0.10331504687E+04  0.10331504687E+04  0.25500000920E-02 0. -1.
        2   -1    0    0  501    0  0.00000000000E+00  0.00000000000E+00 -0.24693589334E+04  0.24693589334E+04  0.25500000920E-02 0.  1.
    10030    2    1    2    0    0  0.00000000000E+00  0.00000000000E+00 -0.14362084647E+04  0.35025094021E+04  0.31945073732E+04 0.  0.
        1    1    3    3  502    0  0.11660670439E+04 -0.98265391082E+03 -0.12392171960E+04  0.19649377390E+04  0.50400001928E-02 0.  1.
       -1    1    3    3    0  502 -0.11660670439E+04  0.98265391082E+03 -0.19699126874E+03  0.15375716631E+04  0.50400001928E-02 0. -1.
</event>
<event>
 5   0  0.5281187E-07  0.3187656E+04  0.7818609E-02  0.8192085E-01
        1   -1    0    0  501    0  0.00000000000E+00  0.00000000000E+00  0.14220960158E+04  0.14220960158E+04  0.50400001928E-02 0. -1.
       -1   -1    0    0    0  501  0.00000000000E+00  0.00000000000E+00 -0.17862984770E+04  0.17862984770E+04  0.50400001928E-02 0.  1.
    10030    2    1    2    0    0  0.00000000000E+00  0.00000000000E+00 -0.36420246116E+03  0.32083944928E+04  0.31876561591E+04 0.  0.
        5    1    3    3  502    0  0.23866001292E+03  0.15454064192E+04 -0.49237002583E+03  0.16394175596E+04  0.46999998093E+01 0.  1.
       -5    1    3    3    0  502 -0.23866001292E+03 -0.15454064192E+04  0.12816756467E+03  0.15689769332E+04  0.46999998093E+01 0. -1.
</event>
<event>
 5   0  0.1556396E-06  0.3202936E+04  0.7818609E-02  0.8188042E-01
        2   -1    0    0  501    0  0.00000000000E+00  0.00000000000E+00  0.24955142297E+04  0.24955142297E+04  0.25500000920E-02 0. -1.
       -2   -1    0    0    0  501  0.00000000000E+00  0.00000000000E+00 -0.10277240464E+04  0.10277240465E+04  0.25500000920E-02 0.  1.
    10030    2    1    2    0    0  0.00000000000E+00  0.00000000000E+00  0.14677901832E+04  0.35232382761E+04  0.32029361418E+04 0.  0.
        3    1    3    3  502    0 -0.44188009454E+02 -0.16002992655E+04  0.68736026482E+03  0.17422326088E+04  0.10100000352E+00 0. -1.
       -3    1    3    3    0  502  0.44188009454E+02  0.16002992655E+04  0.78042991841E+03  0.17810056673E+04  0.10100000352E+00 0.  1.
</event>
<event>
 5   0  0.1538349E-06  0.3180804E+04  0.7818609E-02  0.8193905E-01
        2   -1    0    0  501    0  0.00000000000E+00  0.00000000000E+00  0.29424131892E+04  0.29424131892E+04  0.25500000920E-02 0.  1.
       -2   -1    0    0    0  501  0.00000000000E+00  0.00000000000E+00 -0.85962745396E+03  0.85962745396E+03  0.25500000920E-02 0. -1.
    10030    2    1    2    0    0  0.00000000000E+00  0.00000000000E+00  0.20827857353E+04  0.38020406432E+04  0.31808044004E+04 0.  0.
        1    1    3    3  502    0  0.96856588376E+03  0.12580326154E+04  0.11523263654E+04  0.19617905048E+04  0.50400001928E-02 0. -1.
       -1    1    3    3    0  502 -0.96856588376E+03 -0.12580326154E+04  0.93045936991E+03  0.18402501383E+04  0.50400001928E-02 0.  1.
</event>
<event>
 5   0  0.5281187E-07  0.3198641E+04  0.7818609E-02  0.8189176E-01
        1   -1    0    0  501    0  0.00000000000E+00  0.00000000000E+00  0.16573227837E+04  0.16573227837E+04  0.50400001928E-02 0. -1.
       -1   -1    0    0    0  501  0.00000000000E+00  0.00000000000E+00 -0.15433484504E+04  0.15433484504E+04  0.50400001928E-02 0.  1.
    10030    2    1    2    0    0  0.00000000000E+00  0.00000000000E+00  0.11397433328E+03  0.32006712341E+04  0.31986413053E+04 0.  0.
        5    1    3    3  502    0 -0.59369483160E+03 -0.10339890280E+03  0.15393589121E+04  0.16531221481E+04  0.46999998093E+01 0. -1.
       -5    1    3    3    0  502  0.59369483160E+03  0.10339890280E+03 -0.14253845788E+04  0.15475490860E+04  0.46999998093E+01 0.  1.
</event>
<event>
 5   0  0.5317728E-07  0.3239107E+04  0.7818609E-02  0.8178565E-01
        1   -1    0    0  501    0  0.00000000000E+00  0.00000000000E+00  0.27034191214E+04  0.27034191214E+04  0.50400001928E-02 0. -1.
       -1   -1    0    0    0  501  0.00000000000E+00  0.00000000000E+00 -0.97023565523E+03  0.97023565524E+03  0.50400001928E-02 0.  1.
    10030    2    1    2    0    0  0.00000000000E+00  0.00000000000E+00  0.17331834662E+04  0.36736547766E+04  0.32391070514E+04 0.  0.
        2    1    3    3  502    0 -0.15644351334E+04  0.39386534547E+03  0.70473511997E+03  0.17604655027E+04  0.25500000920E-02 0.  1.
       -2    1    3    3    0  502  0.15644351334E+04 -0.39386534547E+03  0.10284483462E+04  0.19131892739E+04  0.25500000920E-02 0. -1.
</event>
<event>
 5   0  0.1493485E-06  0.3184978E+04  0.7818609E-02  0.8192796E-01
        2   -1    0    0  501    0  0.00000000000E+00  0.00000000000E+00  0.16823694111E+04  0.16823694111E+04  0.25500000920E-02 0. -1.
       -2   -1    0    0    0  501  0.00000000000E+00  0.00000000000E+00 -0.15074102154E+04  0.15074102154E+04  0.25500000920E-02 0.  1.
    10030    2    1    2    0    0  0.00000000000E+00  0.00000000000E+00  0.17495919563E+03  0.31897796265E+04  0.31849777621E+04 0.  0.
        2    1    3    3  502    0  0.81205525146E+03 -0.96304905290E+03 -0.88821897035E+03  0.15413728131E+04  0.25500000920E-02 0.  1.
       -2    1    3    3    0  502 -0.81205525146E+03  0.96304905290E+03  0.10631781660E+04  0.16484068134E+04  0.25500000920E-02 0. -1.
</event>
<event>
 5   0  0.1493485E-06  0.3172357E+04  0.7818609E-02  0.8196156E-01
       -2   -1    0    0    0  501  0.00000000000E+00  0.00000000000E+00  0.12402188647E+04  0.12402188647E+04  0.25500000920E-02 0. -1.
        2   -1    0    0  501    0  0.00000000000E+00  0.00000000000E+00 -0.20286441315E+04  0.20286441315E+04  0.25500000920E-02 0.  1.
    10030    2    1    2    0    0  0.00000000000E+00  0.00000000000E+00 -0.78842526681E+03  0.32688629962E+04  0.31723573076E+04 0.  0.
        2    1    3    3  502    0  0.90068126359E+03 -0.16160369673E+03  0.94081682369E+03  0.13124323941E+04  0.25500000920E-02 0. -1.
       -2    1    3    3    0  502 -0.90068126359E+03  0.16160369673E+03 -0.17292420905E+04  0.19564306021E+04  0.25500000920E-02 0.  1.
</event>
<event>
 5   0  0.5177039E-07  0.3212160E+04  0.7818609E-02  0.8185613E-01
       -1   -1    0    0    0  501  0.00000000000E+00  0.00000000000E+00  0.98390784445E+03  0.98390784447E+03  0.50400001928E-02 0.  1.
        1   -1    0    0  501    0  0.00000000000E+00  0.00000000000E+00 -0.26216819935E+04  0.26216819935E+04  0.50400001928E-02 0. -1.
    10030    2    1    2    0    0  0.00000000000E+00  0.00000000000E+00 -0.16377741491E+04  0.36055898380E+04  0.32121603192E+04 0.  0.
        3    1    3    3  502    0 -0.59558909490E+03 -0.11280056246E+04 -0.19143105780E+04  0.23003712871E+04  0.10100000352E+00 0. -1.
       -3    1    3    3    0  502  0.59558909490E+03  0.11280056246E+04  0.27653642895E+03  0.13052185509E+04  0.10100000352E+00 0.  1.
</event>
<event>
 5   0  0.5317728E-07  0.3198157E+04  0.7818609E-02  0.8189304E-01
        1   -1    0    0  501    0  0.00000000000E+00  0.00000000000E+00  0.21324171906E+04  0.21324171906E+04  0.50400001928E-02 0.  1.
       -1   -1    0    0    0  501  0.00000000000E+00  0.00000000000E+00 -0.11991330795E+04  0.11991330795E+04  0.50400001928E-02 0. -1.
    10030    2    1    2    0    0  0.00000000000E+00  0.00000000000E+00  0.93328411112E+03  0.33315502701E+04  0.31981569646E+04 0.  0.
        2    1    3    3  502    0  0.90428233285E+03 -0.12083229749E+04 -0.83870622240E+02  0.15115572204E+04  0.25500000920E-02 0. -1.
       -2    1    3    3    0  502 -0.90428233285E+03  0.12083229749E+04  0.10171547334E+04  0.18199930497E+04  0.25500000920E-02 0.  1.
</event>
<event>
 5   0  0.1538349E-06  0.3213638E+04  0.7818609E-02  0.8185225E-01
       -2   -1    0    0    0  501  0.00000000000E+00  0.00000000000E+00  0.14287818287E+04  0.14287818287E+04  0.25500000920E-02 0. -1.
        2   -1    0    0  501    0  0.00000000000E+00  0.00000000000E+00 -0.18070406080E+04  0.18070406080E+04  0.25500000920E-02 0.  1.
    10030    2    1    2    0    0  0.00000000000E+00  0.00000000000E+00 -0.37825877939E+03  0.32358224367E+04  0.32136376799E+04 0.  0.
        1    1    3    3  502    0  0.66185007907E+03 -0.10438086719E+04 -0.12230012762E+04  0.17387680099E+04  0.50400001928E-02 0.  1.
       -1    1    3    3    0  502 -0.66185007907E+03  0.10438086719E+04  0.84474249683E+03  0.14970544268E+04  0.50400001928E-02 0. -1.
</event>
<event>
 5   0  0.5233813E-07  0.3232816E+04  0.7818609E-02  0.8180204E-01
       -1   -1    0    0    0  501  0.00000000000E+00  0.00000000000E+00  0.15325401620E+04  0.15325401621E+04  0.50400001928E-02 0.  1.
        1   -1    0    0  501    0  0.00000000000E+00  0.00000000000E+00 -0.17048654326E+04  0.17048654326E+04  0.50400001928E-02 0. -1.
    10030    2    1    2    0    0  0.00000000000E+00  0.00000000000E+00 -0.17232527056E+03  0.32374055947E+04  0.32328159529E+04 0.  0.
        4    1    3    3  502    0  0.56110833916E+03 -0.14200758682E+04 -0.61730708738E+03  0.16469753164E+04  0.12699999809E+01 0. -1.
       -4    1    3    3    0  502 -0.56110833916E+03  0.14200758682E+04  0.44498181682E+03  0.15904302783E+04  0.12699999809E+01 0.  1.
</event>
<event>
 5   0  0.1538349E-06  0.3188075E+04  0.7818609E-02  0.8191974E-01
       -2   -1    0    0    0  501  0.00000000000E+00  0.00000000000E+00  0.11658353816E+04  0.11658353816E+04  0.25500000920E-02 0. -1.
        2   -1    0    0  501    0  0.00000000000E+00  0.00000000000E+00 -0.21795151777E+04  0.21795151777E+04  0.25500000920E-02 0.  1.
    10030    2    1    2    0    0  0.00000000000E+00  0.00000000000E+00 -0.10136797961E+04  0.33453505593E+04  0.31880752242E+04 0.  0.
        1    1    3    3  502    0  0.10364842509E+04 -0.97078888570E+02  0.75987075539E+03  0.12888473447E+04  0.50400001928E-02 0. -1.
       -1    1    3    3    0  502 -0.10364842509E+04  0.97078888570E+02 -0.17735505515E+04  0.20565032146E+04  0.50400001928E-02 0.  1.
</event>
<event>
 5   0  0.5370912E-07  0.3208228E+04  0.7818609E-02  0.8186648E-01
        1   -1    0    0  501    0  0.00000000000E+00  0.00000000000E+00  0.22133366574E+04  0.22133366574E+04  0.50400001928E-02 0.  1.
       -1   -1    0    0    0  501  0.00000000000E+00  0.00000000000E+00 -0.11625801220E+04  0.11625801220E+04  0.50400001928E-02 0. -1.
    10030    2    1    2    0    0  0.00000000000E+00  0.00000000000E+00  0.10507565354E+04  0.33759167794E+04  0.32082276735E+04 0.  0.
        1    1    3    3  502    0  0.14673183454E+04  0.54491082409E+03  0.89476836483E+03  0.18029313242E+04  0.50400001928E-02 0.  1.
       -1    1    3    3    0  502 -0.14673183454E+04 -0.54491082409E+03  0.15598817059E+03  0.15729854552E+04  0.50400001928E-02 0. -1.
</event>
<event>
 5   0  0.1508771E-06  0.3209926E+04  0.7818609E-02  0.8186201E-01
       -2   -1    0    0    0  501  0.00000000000E+00  0.00000000000E+00  0.10166160389E+04  0.10166160389E+04  0.25500000920E-02 0. -1.
        2   -1    0    0  501    0  0.00000000000E+00  0.00000000000E+00 -0.25338043838E+04  0.25338043838E+04  0.25500000920E-02 0.  1.
    10030    2    1    2    0    0  0.00000000000E+00  0.00000000000E+00 -0.15171883449E+04  0.35504204228E+04  0.32099259656E+04 0.  0.
        4    1    3    3  502    0  0.79799783547E+03  0.43705968695E+03 -0.22209928072E+04  0.24001317418E+04  0.12699999809E+01 0.  1.
       -4    1    3    3    0  502 -0.79799783547E+03 -0.43705968695E+03  0.70380446236E+03  0.11502886809E+04  0.12699999809E+01 0. -1.
</event>
<event>
 5   0  0.4995625E-07  0.3210402E+04  0.7818609E-02  0.8186075E-01
        3   -1    0    0  501    0  0.00000000000E+00  0.00000000000E+00  0.15754549604E+04  0.15754549636E+04  0.10100000352E+00 0. -1.
       -3   -1    0    0    0  501  0.00000000000E+00  0.00000000000E+00 -0.16355090280E+04  0.16355090311E+04  0.10100000352E+00 0.  1.
    10030    2    1    2    0    0  0.00000000000E+00  0.00000000000E+00 -0.60054067565E+02  0.32109639947E+04  0.32104023555E+04 0.  0.
        4    1    3    3  502    0 -0.83713530664E+03  0.11511711988E+04  0.71217997895E+03  0.15916006365E+04  0.12699999809E+01 0. -1.
       -4    1    3    3    0  502  0.83713530664E+03 -0.11511711988E+04 -0.77223404651E+03  0.16193633583E+04  0.12699999809E+01 0.  1.
</event>
<event>
 5   0  0.1556396E-06  0.3194496E+04  0.7818609E-02  0.8190272E-01
       -2   -1    0    0    0  501  0.00000000000E+00  0.00000000000E+00  0.95069370055E+03  0.95069370056E+03  0.25500000920E-02 0. -1.
        2   -1    0    0  501    0  0.00000000000E+00  0.00000000000E+00 -0.26835146943E+04  0.26835146943E+04  0.25500000920E-02 0.  1.
    10030    2    1    2    0    0  0.00000000000E+00  0.00000000000E+00 -0.17328209937E+04  0.36342083949E+04  0.31944955879E+04 0.  0.
        3    1    3    3  502    0 -0.59197181397E+03 -0.97712247676E+03 -0.21363026057E+04  0.24225993884E+04  0.10100000352E+00 0.  1.
       -3    1    3    3    0  502  0.59197181397E+03  0.97712247676E+03  0.40348161200E+03  0.12116090065E+04  0.10100000352E+00 0. -1.
</event>
<event>
 5   0  0.1493485E-06  0.3015892E+04  0.7818609E-02  0.8239207E-01
        2   -1    0    0  501    0  0.00000000000E+00  0.00000000000E+00  0.20529840543E+04  0.20529840543E+04  0.25500000920E-02 0. -1.
       -2   -1    0    0    0  501  0.00000000000E+00  0.00000000000E+00 -0.11076076531E+04  0.11076076531E+04  0.25500000920E-02 0.  1.
    10030    2    1    2    0    0  0.00000000000E+00  0.00000000000E+00  0.94537640123E+03  0.31605917074E+04  0.30158918085E+04 0.  0.
        2    1    3    3  502    0 -0.18449357806E+03 -0.13648085830E+04 -0.17091136297E+03  0.13877863822E+04  0.25500000920E-02 0.  1.
       -2    1    3    3    0  502  0.18449357806E+03  0.13648085830E+04  0.11162877642E+04  0.17728053252E+04  0.25500000920E-02 0. -1.
</event>
<event>
 5   0  0.1538349E-06  0.3188494E+04  0.7818609E-02  0.8191862E-01
       -2   -1    0    0    0  501  0.00000000000E+00  0.00000000000E+00  0.13317830270E+04  0.13317830270E+04  0.25500000920E-02 0.  1.
        2   -1    0    0  501    0  0.00000000000E+00  0.00000000000E+00 -0.19084368604E+04  0.19084368604E+04  0.25500000920E-02 0. -1.
    10030    2    1    2    0    0  0.00000000000E+00  0.00000000000E+00 -0.57665383342E+03  0.32402198874E+04  0.31884942019E+04 0.  0.
        1    1    3    3  502    0 -0.11377304021E+04 -0.11019238441E+04 -0.47281314691E+03  0.16529424969E+04  0.50400001928E-02 0.  1.
       -1    1    3    3    0  502  0.11377304021E+04  0.11019238441E+04 -0.10384068651E+03  0.15872773905E+04  0.50400001928E-02 0. -1.
</event>
<event>
 5   0  0.5233813E-07  0.3205396E+04  0.7818609E-02  0.8187394E-01
       -1   -1    0    0    0  501  0.00000000000E+00  0.00000000000E+00  0.13595863113E+04  0.13595863113E+04  0.50400001928E-02 0. -1.
        1   -1    0    0  501    0  0.00000000000E+00  0.00000000000E+00 -0.18892811423E+04  0.18892811423E+04  0.50400001928E-02 0.  1.
    10030    2    1    2    0    0  0.00000000000E+00  0.00000000000E+00 -0.52969483098E+03  0.32488674536E+04  0.32053959377E+04 0.  0.
        4    1    3    3  502    0  0.37949282895E+03 -0.13797671667E+04 -0.99634635624E+03  0.17436971973E+04  0.12699999809E+01 0.  1.
       -4    1    3    3    0  502 -0.37949282895E+03  0.13797671667E+04  0.46665152525E+03  0.15051702563E+04  0.12699999809E+01 0. -1.
</event>
<event>
 5   0  0.1493485E-06  0.3173031E+04  0.7818609E-02  0.8195976E-01
       -2   -1    0    0    0  501  0.00000000000E+00  0.00000000000E+00  0.10233336264E+04  0.10233336264E+04  0.25500000920E-02 0.  1.
        2   -1    0    0  501    0  0.00000000000E+00  0.00000000000E+00 -0.24596384074E+04  0.24596384074E+04  0.25500000920E-02 0. -1.
    10030    2    1    2    0    0  0.00000000000E+00  0.00000000000E+00 -0.14363047810E+04  0.34829720338E+04  0.31730305332E+04 0.  0.
        2    1    3    3  502    0 -0.89753116769E+03  0.77496989835E+03 -0.18750936097E+04  0.22185843652E+04  0.25500000920E-02 0. -1.
       -2    1    3    3    0  502  0.89753116769E+03 -0.77496989835E+03  0.43878882876E+03  0.12643876686E+04  0.25500000920E-02 0.  1.
</event>
<event>
 5   0  0.5177039E-07  0.3161499E+04  0.7818609E-02  0.8199060E-01
       -1   -1    0    0    0  501  0.00000000000E+00  0.00000000000E+00  0.11278790984E+04  0.11278790984E+04  0.50400001928E-02 0.  1.
        1   -1    0    0  501    0  0.00000000000E+00  0.00000000000E+00 -0.22154588525E+04  0.22154588525E+04  0.50400001928E-02 0. -1.
    10030    2    1    2    0    0  0.00000000000E+00  0.00000000000E+00 -0.10875797541E+04  0.33433379509E+04  0.31614994753E+04 0.  0.
        3    1    3    3  502    0 -0.44364905855E+03 -0.12727473573E+04 -0.14171598639E+04  0.19557741211E+04  0.10100000352E+00 0.  1.
       -3    1    3    3    0  502  0.44364905855E+03  0.12727473573E+04  0.32958010980E+03  0.13875638298E+04  0.10100000352E+00 0. -1.
</event>
<event>
 5   0  0.5233813E-07  0.3194423E+04  0.7818609E-02  0.8190292E-01
       -1   -1    0    0    0  501  0.00000000000E+00  0.00000000000E+00  0.20308763930E+04  0.20308763930E+04  0.50400001928E-02 0. -1.
        1   -1    0    0  501    0  0.00000000000E+00  0.00000000000E+00 -0.12561494843E+04  0.12561494843E+04  0.50400001928E-02 0.  1.
    10030    2    1    2    0    0  0.00000000000E+00  0.00000000000E+00  0.77472690867E+03  0.32870258773E+04  0.31944228485E+04 0.  0.
        4    1    3    3  502    0  0.16570619614E+03 -0.10707747463E+04  0.15948659512E+04  0.19281120600E+04  0.12699999809E+01 0. -1.
       -4    1    3    3    0  502 -0.16570619614E+03  0.10707747463E+04 -0.82013904251E+03  0.13589138173E+04  0.12699999809E+01 0.  1.
</event>
<event>
 5   0  0.5317728E-07  0.3092816E+04  0.7818609E-02  0.8217712E-01
       -1   -1    0    0    0  501  0.00000000000E+00  0.00000000000E+00  0.14494337835E+04  0.14494337835E+04  0.50400001928E-02 0.  1.
        1   -1    0    0  501    0  0.00000000000E+00  0.00000000000E+00 -0.16498700179E+04  0.16498700179E+04  0.50400001928E-02 0. -1.
    10030    2    1    2    0    0  0.00000000000E+00  0.00000000000E+00 -0.20043623443E+03  0.30993038015E+04  0.30928157672E+04 0.  0.
        2    1    3    3  502    0 -0.33611262678E+03  0.17969669641E+03  0.14016301830E+04  0.14525253080E+04  0.25500000920E-02 0.  1.
       -2    1    3    3    0  502  0.33611262678E+03 -0.17969669641E+03 -0.16020664174E+04  0.16467784934E+04  0.25500000920E-02 0. -1.
</event>
<event>
 5   0  0.5281187E-07  0.3199529E+04  0.7818609E-02  0.8188942E-01
        1   -1    0    0  501    0  0.00000000000E+00  0.00000000000E+00  0.14987153392E+04  0.14987153392E+04  0.50400001928E-02 0. -1.
       -1   -1    0    0    0  501  0.00000000000E+00  0.00000000000E+00 -0.17076269095E+04  0.17076269095E+04  0.50400001928E-02 0.  1.
    10030    2    1    2    0    0  0.00000000000E+00  0.00000000000E+00 -0.20891157028E+03  0.32063422487E+04  0.31995291172E+04 0.  0.
        5    1    3    3  502    0  0.10051083094E+04  0.12363238021E+04 -0.24788741369E+03  0.16125165169E+04  0.46999998093E+01 0. -1.
       -5    1    3    3    0  502 -0.10051083094E+04 -0.12363238021E+04  0.38975843414E+02  0.15938257319E+04  0.46999998093E+01 0.  1.
</event>
<event>
 5   0  0.1538349E-06  0.3203262E+04  0.7818609E-02  0.8187956E-01
        2   -1    0    0  501    0  0.00000000000E+00  0.00000000000E+00  0.12918244146E+04  0.12918244146E+04  0.25500000920E-02 0. -1.
       -2   -1    0    0    0  501  0.00000000000E+00  0.00000000000E+00 -0.19857351901E+04  0.19857351901E+04  0.25500000920E-02 0.  1.
    10030    2    1    2    0    0  0.00000000000E+00  0.00000000000E+00 -0.69391077551E+03  0.32775596047E+04  0.32032615875E+04 0.  0.
        1    1    3    3  502    0  0.22412915311E+03  0.74672959780E+03 -0.17784707506E+04  0.19418540574E+04  0.50400001928E-02 0.  1.
       -1    1    3    3    0  502 -0.22412915311E+03 -0.74672959780E+03  0.10845599751E+04  0.13357055473E+04  0.50400001928E-02 0. -1.
</event>
<event>
 5   0  0.1508771E-06  0.3195867E+04  0.7818609E-02  0.8189910E-01
        2   -1    0    0  501    0  0.00000000000E+00  0.00000000000E+00  0.25653530597E+04  0.25653530597E+04  0.25500000920E-02 0.  1.
       -2   -1    0    0    0  501  0.00000000000E+00  0.00000000000E+00 -0.99533698907E+03  0.99533698908E+03  0.25500000920E-02 0. -1.
    10030    2    1    2    0    0  0.00000000000E+00  0.00000000000E+00  0.15700160706E+04  0.35606900488E+04  0.31958665744E+04 0.  0.
        4    1    3    3  502    0 -0.68582654301E+03 -0.44605549599E+03 -0.74429497805E+03  0.11060290140E+04  0.12699999809E+01 0. -1.
       -4    1    3    3    0  502  0.68582654301E+03  0.44605549599E+03  0.23143110487E+04  0.24546610348E+04  0.12699999809E+01 0.  1.
</event>
<event>
 5   0  0.1556396E-06  0.3212311E+04  0.7818609E-02  0.8185573E-01
       -2   -1    0    0    0  501  0.00000000000E+00  0.00000000000E+00  0.14221957352E+04  0.14221957352E+04  0.25500000920E-02 0.  1.
        2   -1    0    0  501    0  0.00000000000E+00  0.00000000000E+00 -0.18139105167E+04  0.18139105167E+04  0.25500000920E-02 0. -1.
    10030    2    1    2    0    0  0.00000000000E+00  0.00000000000E+00 -0.39171478152E+03  0.32361062518E+04  0.32123111934E+04 0.  0.
        3    1    3    3  502    0  0.20878225027E+03  0.99638499822E+02 -0.17970389077E+04  0.18118682912E+04  0.10100000352E+00 0. -1.
       -3    1    3    3    0  502 -0.20878225027E+03 -0.99638499822E+02  0.14053241262E+04  0.14242379606E+04  0.10100000352E+00 0.  1.
</event>
<event>
 5   0  0.5317728E-07  0.3119674E+04  0.7818609E-02  0.8210359E-01
        1   -1    0    0  501    0  0.00000000000E+00  0.00000000000E+00  0.15094693789E+04  0.15094693789E+04  0.50400001928E-02 0.  1.
       -1   -1    0    0    0  501  0.00000000000E+00  0.00000000000E+00 -0.16118851057E+04  0.16118851057E+04  0.50400001928E-02 0. -1.
    10030    2    1    2    0    0  0.00000000000E+00  0.00000000000E+00 -0.10241572676E+03  0.31213544846E+04  0.31196738351E+04 0.  0.
        2    1    3    3  502    0  0.10268568984E+04 -0.87225487337E+03  0.73523565930E+03  0.15348730008E+04  0.25500000920E-02 0.  1.
       -2    1    3    3    0  502 -0.10268568984E+04  0.87225487337E+03 -0.83765138605E+03  0.15864814838E+04  0.25500000920E-02 0. -1.
</event>
<event>
 5   0  0.5317728E-07  0.3192345E+04  0.7818609E-02  0.8190842E-01
       -1   -1    0    0    0  501  0.00000000000E+00  0.00000000000E+00  0.10655720116E+04  0.10655720116E+04  0.50400001928E-02 0.  1.
        1   -1    0    0  501    0  0.00000000000E+00  0.00000000000E+00 -0.23909844827E+04  0.23909844827E+04  0.50400001928E-02 0. -1.
    10030    2    1    2    0    0  0.00000000000E+00  0.00000000000E+00 -0.13254124711E+04  0.34565564942E+04  0.31923446837E+04 0.  0.
        2    1    3    3  502    0  0.68176361026E+03 -0.72906279324E+03  0.68594685089E+03  0.12111388273E+04  0.25500000920E-02 0.  1.
       -2    1    3    3    0  502 -0.68176361026E+03  0.72906279324E+03 -0.20113593220E+04  0.22454176669E+04  0.25500000920E-02 0. -1.
</event>
<event>
 5   0  0.4995625E-07  0.3212611E+04  0.7818609E-02  0.8185494E-01
        3   -1    0    0  501    0  0.00000000000E+00  0.00000000000E+00  0.75782823865E+03  0.75782824538E+03  0.10100000352E+00 0. -1.
       -3   -1    0    0    0  501  0.00000000000E+00  0.00000000000E+00 -0.34047530402E+04  0.34047530417E+04  0.10100000352E+00 0.  1.
    10030    2    1    2    0    0  0.00000000000E+00  0.00000000000E+00 -0.26469248016E+04  0.41625812871E+04  0.32126114092E+04 0.  0.
        3    1    3    3  502    0  0.61419305229E+03 -0.14121533534E+03 -0.32378756365E+04  0.32986381317E+04  0.10100000352E+00 0.  1.
       -3    1    3    3    0  502 -0.61419305229E+03  0.14121533534E+03  0.59095083486E+03  0.86394315544E+03  0.10100000352E+00 0. -1.
</event>
<event>
 5   0  0.4995625E-07  0.3221680E+04  0.7818609E-02  0.8183115E-01
       -3   -1    0    0    0  501  0.00000000000E+00  0.00000000000E+00  0.22287641717E+04  0.22287641740E+04  0.10100000352E+00 0. -1.
        3   -1    0    0  501    0  0.00000000000E+00  0.00000000000E+00 -0.11642352681E+04  0.11642352725E+04  0.10100000352E+00 0.  1.
    10030    2    1    2    0    0  0.00000000000E+00  0.00000000000E+00  0.10645289036E+04  0.33929994465E+04  0.32216802227E+04 0.  0.
        4    1    3    3  502    0 -0.32714058767E+03  0.14252743762E+04  0.12437447374E+04  0.19197214892E+04  0.12699999809E+01 0. -1.
       -4    1    3    3    0  502  0.32714058767E+03 -0.14252743762E+04 -0.17921583378E+03  0.14732779573E+04  0.12699999809E+01 0.  1.
</event>
<event>
 5   0  0.5233813E-07  0.3209223E+04  0.7818609E-02  0.8186386E-01
        1   -1    0    0  501    0  0.00000000000E+00  0.00000000000E+00  0.19495631506E+04  0.19495631506E+04  0.50400001928E-02 0. -1.
       -1   -1    0    0    0  501  0.00000000000E+00  0.00000000000E+00 -0.13206951073E+04  0.13206951073E+04  0.50400001928E-02 0.  1.
    10030    2    1    2    0    0  0.00000000000E+00  0.00000000000E+00  0.62886804325E+03  0.32702582579E+04  0.32092232795E+04 0.  0.
        4    1    3    3  502    0  0.98960302853E+03  0.24543905893E+02  0.16013300094E+04  0.18825981965E+04  0.12699999809E+01 0. -1.
       -4    1    3    3    0  502 -0.98960302853E+03 -0.24543905893E+02 -0.97246196619E+03  0.13876600614E+04  0.12699999809E+01 0.  1.
</event>
<event>
 5   0  0.5370912E-07  0.3179933E+04  0.7818609E-02  0.8194137E-01
        1   -1    0    0  501    0  0.00000000000E+00  0.00000000000E+00  0.28461121357E+04  0.28461121357E+04  0.50400001928E-02 0.  1.
       -1   -1    0    0    0  501  0.00000000000E+00  0.00000000000E+00 -0.88822683730E+03  0.88822683732E+03  0.50400001928E-02 0. -1.
    10030    2    1    2    0    0  0.00000000000E+00  0.00000000000E+00  0.19578852984E+04  0.37343389731E+04  0.31799328175E+04 0.  0.
        1    1    3    3  502    0 -0.83595860081E+03 -0.43688632760E+03  0.24820571874E+04  0.26552409169E+04  0.50400001928E-02 0.  1.
       -1    1    3    3    0  502  0.83595860081E+03  0.43688632760E+03 -0.52417188896E+03  0.10790980561E+04  0.50400001928E-02 0. -1.
</event>
<event>
 5   0  0.1508771E-06  0.3210970E+04  0.7818609E-02  0.8185926E-01
        2   -1    0    0  501    0  0.00000000000E+00  0.00000000000E+00  0.29480043265E+04  0.29480043265E+04  0.25500000920E-02 0.  1.
       -2   -1    0    0    0  501  0.00000000000E+00  0.00000000000E+00 -0.87434833198E+03  0.87434833198E+03  0.25500000920E-02 0. -1.
    10030    2    1    2    0    0  0.00000000000E+00  0.00000000000E+00  0.20736559945E+04  0.38223526585E+04  0.32109703615E+04 0.  0.
        4    1    3    3  502    0  0.42812976096E+03  0.11782604028E+04 -0.15713519795E+03  0.12634420257E+04  0.12699999809E+01 0. -1.
       -4    1    3    3    0  502 -0.42812976096E+03 -0.11782604028E+04  0.22307911924E+04  0.25589106327E+04  0.12699999809E+01 0.  1.
</event>
<event>
 5   0  0.1572769E-06  0.3210692E+04  0.7818609E-02  0.8185999E-01
        2   -1    0    0  501    0  0.00000000000E+00  0.00000000000E+00  0.15946077690E+04  0.15946077690E+04  0.25500000920E-02 0. -1.
       -2   -1    0    0    0  501  0.00000000000E+00  0.00000000000E+00 -0.16161566840E+04  0.16161566840E+04  0.25500000920E-02 0.  1.
    10030    2    1    2    0    0  0.00000000000E+00  0.00000000000E+00 -0.21548915001E+02  0.32107644530E+04  0.32106921399E+04 0.  0.
        5    1    3    3  502    0 -0.26807968713E+03 -0.16263448685E+03 -0.15852295628E+04  0.16159491179E+04  0.46999998093E+01 0.  1.
       -5    1    3    3    0  502  0.26807968713E+03  0.16263448685E+03  0.15636806478E+04  0.15948153351E+04  0.46999998093E+01 0. -1.
</event>
<event>
 5   0  0.5281187E-07  0.3193216E+04  0.7818609E-02  0.8190611E-01
        1   -1    0    0  501    0  0.00000000000E+00  0.00000000000E+00  0.15219416061E+04  0.15219416062E+04  0.50400001928E-02 0.  1.
       -1   -1    0    0    0  501  0.00000000000E+00  0.00000000000E+00 -0.16749373194E+04  0.16749373195E+04  0.50400001928E-02 0. -1.
    10030    2    1    2    0    0  0.00000000000E+00  0.00000000000E+00 -0.15299571330E+03  0.31968789256E+04  0.31932158049E+04 0.  0.
        5    1    3    3  502    0  0.13035455636E+04  0.18118590111E+03  0.82846128056E+03  0.15551300751E+04  0.46999998093E+01 0.  1.
       -5    1    3    3    0  502 -0.13035455636E+04 -0.18118590111E+03 -0.98145699386E+03  0.16417488505E+04  0.46999998093E+01 0. -1.
</event>
<event>
 5   0  0.1538349E-06  0.3187173E+04  0.7818609E-02  0.8192213E-01
        2   -1    0    0  501    0  0.00000000000E+00  0.00000000000E+00  0.26167572335E+04  0.26167572335E+04  0.25500000920E-02 0.  1.
       -2   -1    0    0    0  501  0.00000000000E+00  0.00000000000E+00 -0.97048296151E+03  0.97048296152E+03  0.25500000920E-02 0. -1.
    10030    2    1    2    0    0  0.00000000000E+00  0.00000000000E+00  0.16462742719E+04  0.35872401950E+04  0.31871732363E+04 0.  0.
        1    1    3    3  502    0  0.13739371438E+04 -0.39065913972E+03  0.27908005527E+02  0.14286695543E+04  0.50400001928E-02 0. -1.
       -1    1    3    3    0  502 -0.13739371438E+04  0.39065913972E+03  0.16183662664E+04  0.21585706407E+04  0.50400001928E-02 0.  1.
</event>
<event>
 5   0  0.1493485E-06  0.3183728E+04  0.7818609E-02  0.8193128E-01
        2   -1    0    0  501    0  0.00000000000E+00  0.00000000000E+00  0.14448213960E+04  0.14448213960E+04  0.25500000920E-02 0.  1.
       -2   -1    0    0    0  501  0.00000000000E+00  0.00000000000E+00 -0.17538716723E+04  0.17538716723E+04  0.25500000920E-02 0. -1.
    10030    2    1    2    0    0  0.00000000000E+00  0.00000000000E+00 -0.30905027637E+03  0.31986930683E+04  0.31837282032E+04 0.  0.
        2    1    3    3  502    0 -0.11346987189E+04 -0.24625536282E+03 -0.12486104215E+04  0.17050545067E+04  0.25500000920E-02 0. -1.
       -2    1    3    3    0  502  0.11346987189E+04  0.24625536282E+03  0.93956014510E+03  0.14936385616E+04  0.25500000920E-02 0.  1.
</event>
<event>
 5   0  0.1493485E-06  0.3294369E+04  0.7818609E-02  0.8164330E-01
        2   -1    0    0  501    0  0.00000000000E+00  0.00000000000E+00  0.10146368079E+04  0.10146368079E+04  0.25500000920E-02 0.  1.
       -2   -1    0    0    0  501  0.00000000000E+00  0.00000000000E+00 -0.26740775831E+04  0.26740775831E+04  0.25500000920E-02 0. -1.
    10030    2    1    2    0    0  0.00000000000E+00  0.00000000000E+00 -0.16594407752E+04  0.36887143910E+04  0.32943694650E+04 0.  0.
        2    1    3    3  502    0 -0.15051345789E+04  0.60303621955E+03 -0.50493950578E+03  0.16982481230E+04  0.25500000920E-02 0. -1.
       -2    1    3    3    0  502  0.15051345789E+04 -0.60303621955E+03 -0.11545012694E+04  0.19904662680E+04  0.25500000920E-02 0.  1.
</event>
<event>
 5   0  0.5233813E-07  0.3244427E+04  0.7818609E-02  0.8177182E-01
       -1   -1    0    0    0  501  0.00000000000E+00  0.00000000000E+00  0.14542220956E+04  0.14542220956E+04  0.50400001928E-02 0. -1.
        1   -1    0    0  501    0  0.00000000000E+00  0.00000000000E+00 -0.18096107345E+04  0.18096107345E+04  0.50400001928E-02 0.  1.
    10030    2    1    2    0    0  0.00000000000E+00  0.00000000000E+00 -0.35538863896E+03  0.32638328301E+04  0.32444265531E+04 0.  0.
        4    1    3    3  502    0  0.33650872939E+03  0.50783688126E+03  0.13347738643E+04  0.14672284432E+04  0.12699999809E+01 0. -1.
       -4    1    3    3    0  502 -0.33650872939E+03 -0.50783688126E+03 -0.16901625032E+04  0.17966043869E+04  0.12699999809E+01 0.  1.
</event>
<event>
 5   0  0.5370912E-07  0.3199793E+04  0.7818609E-02  0.8188872E-01
        1   -1    0    0  501    0  0.00000000000E+00  0.00000000000E+00  0.25463768677E+04  0.25463768677E+04  0.50400001928E-02 0.  1.
       -1   -1    0    0    0  501  0.00000000000E+00  0.00000000000E+00 -0.10052197300E+04  0.10052197301E+04  0.50400001928E-02 0. -1.
    10030    2    1    2    0    0  0.00000000000E+00  0.00000000000E+00  0.15411571377E+04  0.35515965978E+04  0.31997926605E+04 0.  0.
        1    1    3    3  502    0 -0.14987254684E+04 -0.12071074706E+02  0.13918950160E+04  0.20454083886E+04  0.50400001928E-02 0.  1.
       -1    1    3    3    0  502  0.14987254684E+04  0.12071074706E+02  0.14926212165E+03  0.15061882092E+04  0.50400001928E-02 0. -1.
</event>
<event>
 5   0  0.1572769E-06  0.3208896E+04  0.7818609E-02  0.8186472E-01
       -2   -1    0    0    0  501  0.00000000000E+00  0.00000000000E+00  0.19148856426E+04  0.19148856426E+04  0.25500000920E-02 0.  1.
        2   -1    0    0  501    0  0.00000000000E+00  0.00000000000E+00 -0.13443381933E+04  0.13443381933E+04  0.25500000920E-02 0. -1.
    10030    2    1    2    0    0  0.00000000000E+00  0.00000000000E+00  0.57054744924E+03  0.32592238359E+04  0.32088963244E+04 0.  0.
        5    1    3    3  502    0  0.12148776871E+04  0.10346858870E+04  0.45440606904E+03  0.16592195892E+04  0.46999998093E+01 0. -1.
       -5    1    3    3    0  502 -0.12148776871E+04 -0.10346858870E+04  0.11614138020E+03  0.16000042468E+04  0.46999998093E+01 0.  1.
</event>
<event>
 5   0  0.5281187E-07  0.3209002E+04  0.7818609E-02  0.8186444E-01
        1   -1    0    0  501    0  0.00000000000E+00  0.00000000000E+00  0.15201686180E+04  0.15201686180E+04  0.50400001928E-02 0. -1.
       -1   -1    0    0    0  501  0.00000000000E+00  0.00000000000E+00 -0.16935120286E+04  0.16935120287E+04  0.50400001928E-02 0.  1.
    10030    2    1    2    0    0  0.00000000000E+00  0.00000000000E+00 -0.17334341067E+03  0.32136806466E+04  0.32090022375E+04 0.  0.
        5    1    3    3  502    0 -0.80272254916E+03  0.95631718381E+03  0.92251551561E+03  0.15524055570E+04  0.46999998093E+01 0. -1.
       -5    1    3    3    0  502  0.80272254916E+03 -0.95631718381E+03 -0.10958589263E+04  0.16612750896E+04  0.46999998093E+01 0.  1.
</event>
<event>
 5   0  0.1493485E-06  0.3280840E+04  0.7818609E-02  0.8167788E-01
        2   -1    0    0  501    0  0.00000000000E+00  0.00000000000E+00  0.22152531512E+04  0.22152531512E+04  0.25500000920E-02 0.  1.
       -2   -1    0    0    0  501  0.00000000000E+00  0.00000000000E+00 -0.12147492427E+04  0.12147492427E+04  0.25500000920E-02 0. -1.
    10030    2    1    2    0    0  0.00000000000E+00  0.00000000000E+00  0.10005039085E+04  0.34300023938E+04  0.32808395802E+04 0.  0.
        2    1    3    3  502    0 -0.55172306435E+03  0.16120451848E+03 -0.11060229689E+04  0.12464638158E+04  0.25500000920E-02 0. -1.
       -2    1    3    3    0  502  0.55172306435E+03 -0.16120451848E+03  0.21065268774E+04  0.21835385780E+04  0.25500000920E-02 0.  1.
</event>
<event>
 5   0  0.1508771E-06  0.3289347E+04  0.7818609E-02  0.8165611E-01
        2   -1    0    0  501    0  0.00000000000E+00  0.00000000000E+00  0.22507220456E+04  0.22507220456E+04  0.25500000920E-02 0. -1.
       -2   -1    0    0    0  501  0.00000000000E+00  0.00000000000E+00 -0.12018147995E+04  0.12018147995E+04  0.25500000920E-02 0.  1.
    10030    2    1    2    0    0  0.00000000000E+00  0.00000000000E+00  0.10489072461E+04  0.34525368452E+04  0.32893470867E+04 0.  0.
        4    1    3    3  502    0 -0.16099207196E+04  0.41765655082E+02  0.87471635360E+03  0.18326809339E+04  0.12699999809E+01 0. -1.
       -4    1    3    3    0  502  0.16099207196E+04 -0.41765655082E+02  0.17419089249E+03  0.16198559113E+04  0.12699999809E+01 0.  1.
</event>
<event>
 5   0  0.5233813E-07  0.3008172E+04  0.7818609E-02  0.8241401E-01
        1   -1    0    0  501    0  0.00000000000E+00  0.00000000000E+00  0.20239981517E+04  0.20239981517E+04  0.50400001928E-02 0.  1.
       -1   -1    0    0    0  501  0.00000000000E+00  0.00000000000E+00 -0.11177254430E+04  0.11177254430E+04  0.50400001928E-02 0. -1.
    10030    2    1    2    0    0  0.00000000000E+00  0.00000000000E+00  0.90627270866E+03  0.31417235947E+04  0.30081716911E+04 0.  0.
        4    1    3    3  502    0 -0.28853289855E+03 -0.11746645229E+04 -0.48052400164E+03  0.13015348262E+04  0.12699999809E+01 0. -1.
       -4    1    3    3    0  502  0.28853289855E+03  0.11746645229E+04  0.13867967103E+04  0.18401887684E+04  0.12699999809E+01 0.  1.
</event>
<event>
 5   0  0.1572769E-06  0.2857840E+04  0.7818609E-02  0.8285533E-01
       -2   -1    0    0    0  501  0.00000000000E+00  0.00000000000E+00  0.96583745529E+03  0.96583745530E+03  0.25500000920E-02 0.  1.
        2   -1    0    0  501    0  0.00000000000E+00  0.00000000000E+00 -0.21140336708E+04  0.21140336708E+04  0.25500000920E-02 0. -1.
    10030    2    1    2    0    0  0.00000000000E+00  0.00000000000E+00 -0.11481962155E+04  0.30798711261E+04  0.28578403741E+04 0.  0.
        5    1    3    3  502    0  0.93828883139E+03  0.88012615611E+03  0.96138538337E+02  0.12900669325E+04  0.46999998093E+01 0.  1.
       -5    1    3    3    0  502 -0.93828883139E+03 -0.88012615611E+03 -0.12443347538E+04  0.17898041936E+04  0.46999998093E+01 0. -1.
</event>
<event>
 5   0  0.1556396E-06  0.3201475E+04  0.7818609E-02  0.8188428E-01
       -2   -1    0    0    0  501  0.00000000000E+00  0.00000000000E+00  0.24064057266E+04  0.24064057266E+04  0.25500000920E-02 0.  1.
        2   -1    0    0  501    0  0.00000000000E+00  0.00000000000E+00 -0.10648081608E+04  0.10648081608E+04  0.25500000920E-02 0. -1.
    10030    2    1    2    0    0  0.00000000000E+00  0.00000000000E+00  0.13415975659E+04  0.34712138874E+04  0.32014749450E+04 0.  0.
        3    1    3    3  502    0 -0.15247286071E+04  0.35785335627E+03  0.10295938381E+04  0.18742784829E+04  0.10100000352E+00 0. -1.
       -3    1    3    3    0  502  0.15247286071E+04 -0.35785335627E+03  0.31200372775E+03  0.15969354045E+04  0.10100000352E+00 0.  1.
</event>
<event>
 5   0  0.1508771E-06  0.3212615E+04  0.7818609E-02  0.8185494E-01
       -2   -1    0    0    0  501  0.00000000000E+00  0.00000000000E+00  0.30935425790E+04  0.30935425790E+04  0.25500000920E-02 0.  1.
        2   -1    0    0  501    0  0.00000000000E+00  0.00000000000E+00 -0.83406750624E+03  0.83406750624E+03  0.25500000920E-02 0. -1.
    10030    2    1    2    0    0  0.00000000000E+00  0.00000000000E+00  0.22594750728E+04  0.39276100852E+04  0.32126147259E+04 0.  0.
        4    1    3    3  502    0 -0.86212575093E+03 -0.28433539075E+03  0.27498535372E+04  0.28958251870E+04  0.12699999809E+01 0.  1.
       -4    1    3    3    0  502  0.86212575093E+03  0.28433539075E+03 -0.49037846446E+03  0.10317848982E+04  0.12699999809E+01 0. -1.
</event>
<event>
 5   0  0.5317728E-07  0.3287914E+04  0.7818609E-02  0.8165978E-01
       -1   -1    0    0    0  501  0.00000000000E+00  0.00000000000E+00  0.10504006099E+04  0.10504006099E+04  0.50400001928E-02 0. -1.
        1   -1    0    0  501    0  0.00000000000E+00  0.00000000000E+00 -0.25729178075E+04  0.25729178075E+04  0.50400001928E-02 0.  1.
    10030    2    1    2    0    0  0.00000000000E+00  0.00000000000E+00 -0.15225171976E+04  0.36233184174E+04  0.32879138883E+04 0.  0.
        2    1    3    3  502    0  0.56774377263E+03  0.93352176317E+02  0.93581984789E+03  0.10985474081E+04  0.25500000920E-02 0. -1.
       -2    1    3    3    0  502 -0.56774377263E+03 -0.93352176317E+02 -0.24583370455E+04  0.25247710093E+04  0.25500000920E-02 0.  1.
</event>
<event>
 5   0  0.1556396E-06  0.3239496E+04  0.7818609E-02  0.8178464E-01
        2   -1    0    0  501    0  0.00000000000E+00  0.00000000000E+00  0.25650447816E+04  0.25650447816E+04  0.25500000920E-02 0.  1.
       -2   -1    0    0    0  501  0.00000000000E+00  0.00000000000E+00 -0.10228215408E+04  0.10228215408E+04  0.25500000920E-02 0. -1.
    10030    2    1    2    0    0  0.00000000000E+00  0.00000000000E+00  0.15422232409E+04  0.35878663224E+04  0.32394956741E+04 0.  0.
        3    1    3    3  502    0 -0.32191086016E+03  0.12125732038E+04  0.19057969768E+04  0.22816709893E+04  0.10100000352E+00 0.  1.
       -3    1    3    3    0  502  0.32191086016E+03 -0.12125732038E+04 -0.36357373592E+03  0.13061953331E+04  0.10100000352E+00 0. -1.
</event>
<event>
 5   0  0.5281187E-07  0.3185723E+04  0.7818609E-02  0.8192598E-01
       -1   -1    0    0    0  501  0.00000000000E+00  0.00000000000E+00  0.16583111199E+04  0.16583111199E+04  0.50400001928E-02 0.  1.
        1   -1    0    0  501    0  0.00000000000E+00  0.00000000000E+00 -0.15299947620E+04  0.15299947620E+04  0.50400001928E-02 0. -1.
    10030    2    1    2    0    0  0.00000000000E+00  0.00000000000E+00  0.12831635786E+03  0.31883058819E+04  0.31857227294E+04 0.  0.
        5    1    3    3  502    0  0.98251459757E+03 -0.90405246579E+03  0.93350481802E+03  0.16291406111E+04  0.46999998093E+01 0.  1.
       -5    1    3    3    0  502 -0.98251459757E+03  0.90405246579E+03 -0.80518846016E+03  0.15591652708E+04  0.46999998093E+01 0. -1.
</event>
<event>
 5   0  0.1508771E-06  0.3321673E+04  0.7818609E-02  0.8157402E-01
        2   -1    0    0  501    0  0.00000000000E+00  0.00000000000E+00  0.19211888215E+04  0.19211888215E+04  0.25500000920E-02 0.  1.
       -2   -1    0    0    0  501  0.00000000000E+00  0.00000000000E+00 -0.14357664851E+04  0.14357664851E+04  0.25500000920E-02 0. -1.
    10030    2    1    2    0    0  0.00000000000E+00  0.00000000000E+00  0.48542233635E+03  0.33569553066E+04  0.33216733864E+04 0.  0.
        4    1    3    3  502    0 -0.11834094965E+04  0.11618662206E+04  0.15239891181E+03  0.16654183235E+04  0.12699999809E+01 0.  1.
       -4    1    3    3    0  502  0.11834094965E+04 -0.11618662206E+04  0.33302342454E+03  0.16915369831E+04  0.12699999809E+01 0. -1.
</event>
<event>
 5   0  0.5370912E-07  0.3199590E+04  0.7818609E-02  0.8188926E-01
        1   -1    0    0  501    0  0.00000000000E+00  0.00000000000E+00  0.19219947874E+04  0.19219947874E+04  0.50400001928E-02 0.  1.
       -1   -1    0    0    0  501  0.00000000000E+00  0.00000000000E+00 -0.13316078971E+04  0.13316078971E+04  0.50400001928E-02 0. -1.
    10030    2    1    2    0    0  0.00000000000E+00  0.00000000000E+00  0.59038689032E+03  0.32536026845E+04  0.31995896219E+04 0.  0.
        1    1    3    3  502    0 -0.96666641297E+02 -0.20263188505E+03  0.19058958863E+04  0.19190735395E+04  0.50400001928E-02 0.  1.
       -1    1    3    3    0  502  0.96666641297E+02  0.20263188505E+03 -0.13155089960E+04  0.13345291450E+04  0.50400001928E-02 0. -1.
</event>
<event>
 5   0  0.1572769E-06  0.3201252E+04  0.7818609E-02  0.8188487E-01
       -2   -1    0    0    0  501  0.00000000000E+00  0.00000000000E+00  0.11345953607E+04  0.11345953607E+04  0.25500000920E-02 0. -1.
        2   -1    0    0  501    0  0.00000000000E+00  0.00000000000E+00 -0.22580769280E+04  0.22580769280E+04  0.25500000920E-02 0.  1.
    10030    2    1    2    0    0  0.00000000000E+00  0.00000000000E+00 -0.11234815673E+04  0.33926722887E+04  0.32012520092E+04 0.  0.
        5    1    3    3  502    0 -0.11436241937E+04 -0.64765454502E+03 -0.15299605327E+04  0.20169615831E+04  0.46999998093E+01 0.  1.
       -5    1    3    3    0  502  0.11436241937E+04  0.64765454502E+03  0.40647896545E+03  0.13757107055E+04  0.46999998093E+01 0. -1.
</event>
<event>
 5   0  0.5281187E-07  0.3196630E+04  0.7818609E-02  0.8189708E-01
        1   -1    0    0  501    0  0.00000000000E+00  0.00000000000E+00  0.17264375192E+04  0.17264375192E+04  0.50400001928E-02 0. -1.
       -1   -1    0    0    0  501  0.00000000000E+00  0.00000000000E+00 -0.14797003242E+04  0.14797003242E+04  0.50400001928E-02 0.  1.
    10030    2    1    2    0    0  0.00000000000E+00  0.00000000000E+00  0.24673719496E+03  0.32061378434E+04  0.31966295731E+04 0.  0.
        5    1    3    3  502    0  0.10950406602E+04  0.92138809557E+03 -0.59044911082E+03  0.15481351080E+04  0.46999998093E+01 0.  1.
       -5    1    3    3    0  502 -0.10950406602E+04 -0.92138809557E+03  0.83718630578E+03  0.16580027354E+04  0.46999998093E+01 0. -1.
</event>
<event>
 5   0  0.5281187E-07  0.3187966E+04  0.7818609E-02  0.8192003E-01
       -1   -1    0    0    0  501  0.00000000000E+00  0.00000000000E+00  0.16803744875E+04  0.16803744875E+04  0.50400001928E-02 0.  1.
        1   -1    0    0  501    0  0.00000000000E+00  0.00000000000E+00 -0.15120331578E+04  0.15120331578E+04  0.50400001928E-02 0. -1.
    10030    2    1    2    0    0  0.00000000000E+00  0.00000000000E+00  0.16834132972E+03  0.31924076453E+04  0.31879660868E+04 0.  0.
        5    1    3    3  502    0  0.77967116106E+03 -0.63368539881E+03  0.13233580839E+04  0.16615483780E+04  0.46999998093E+01 0.  1.
       -5    1    3    3    0  502 -0.77967116106E+03  0.63368539881E+03 -0.11550167542E+04  0.15308592674E+04  0.46999998093E+01 0. -1.
</event>
<event>
 5   0  0.1572769E-06  0.3210396E+04  0.7818609E-02  0.8186077E-01
        2   -1    0    0  501    0  0.00000000000E+00  0.00000000000E+00  0.20643492632E+04  0.20643492632E+04  0.25500000920E-02 0.  1.
       -2   -1    0    0    0  501  0.00000000000E+00  0.00000000000E+00 -0.12481711779E+04  0.12481711779E+04  0.25500000920E-02 0. -1.
    10030    2    1    2    0    0  0.00000000000E+00  0.00000000000E+00  0.81617808531E+03  0.33125204411E+04  0.32103963938E+04 0.  0.
        5    1    3    3  502    0  0.70920504190E+03  0.96174246644E+02  0.18906027392E+04  0.20215395333E+04  0.46999998093E+01 0.  1.
       -5    1    3    3    0  502 -0.70920504190E+03 -0.96174246644E+02 -0.10744246539E+04  0.12909809077E+04  0.46999998093E+01 0. -1.
</event>
<event>
 5   0  0.5233813E-07  0.3212392E+04  0.7818609E-02  0.8185552E-01
       -1   -1    0    0    0  501  0.00000000000E+00  0.00000000000E+00  0.12771794559E+04  0.12771794559E+04  0.50400001928E-02 0.  1.
        1   -1    0    0  501    0  0.00000000000E+00  0.00000000000E+00 -0.20199710833E+04  0.20199710833E+04  0.50400001928E-02 0. -1.
    10030    2    1    2    0    0  0.00000000000E+00  0.00000000000E+00 -0.74279162738E+03  0.32971505392E+04  0.32123919867E+04 0.  0.
        4    1    3    3  502    0  0.92401110897E+03 -0.87636962495E+03  0.63322669355E+03  0.14222510001E+04  0.12699999809E+01 0.  1.
       -4    1    3    3    0  502 -0.92401110897E+03  0.87636962495E+03 -0.13760183209E+04  0.18748995390E+04  0.12699999809E+01 0. -1.
</event>
<event>
 5   0  0.5233813E-07  0.3306040E+04  0.7818609E-02  0.8161360E-01
       -1   -1    0    0    0  501  0.00000000000E+00  0.00000000000E+00  0.17356235039E+04  0.17356235039E+04  0.50400001928E-02 0.  1.
        1   -1    0    0  501    0  0.00000000000E+00  0.00000000000E+00 -0.15743480353E+04  0.15743480353E+04  0.50400001928E-02 0. -1.
    10030    2    1    2    0    0  0.00000000000E+00  0.00000000000E+00  0.16127546854E+03  0.33099715392E+04  0.33060402015E+04 0.  0.
        4    1    3    3  502    0 -0.48277454237E+03 -0.94931578828E+03 -0.11850657623E+04  0.15933154736E+04  0.12699999809E+01 0. -1.
       -4    1    3    3    0  502  0.48277454237E+03  0.94931578828E+03  0.13463412309E+04  0.17166560656E+04  0.12699999809E+01 0.  1.
</event>
<event>
 5   0  0.5281187E-07  0.3192062E+04  0.7818609E-02  0.8190917E-01
        1   -1    0    0  501    0  0.00000000000E+00  0.00000000000E+00  0.13173868161E+04  0.13173868161E+04  0.50400001928E-02 0. -1.
       -1   -1    0    0    0  501  0.00000000000E+00  0.00000000000E+00 -0.19336116471E+04  0.19336116471E+04  0.50400001928E-02 0.  1.
    10030    2    1    2    0    0  0.00000000000E+00  0.00000000000E+00 -0.61622483097E+03  0.32509984632E+04  0.31920617107E+04 0.  0.
        5    1    3    3  502    0  0.71000869915E+03 -0.26131809932E+03 -0.17393682153E+04  0.18967929198E+04  0.46999998093E+01 0.  1.
       -5    1    3    3    0  502 -0.71000869915E+03  0.26131809932E+03  0.11231433844E+04  0.13542055434E+04  0.46999998093E+01 0. -1.
</event>
<event>
 5   0  0.5233813E-07  0.3213397E+04  0.7818609E-02  0.8185288E-01
       -1   -1    0    0    0  501  0.00000000000E+00  0.00000000000E+00  0.31284458081E+04  0.31284458081E+04  0.50400001928E-02 0.  1.
        1   -1    0    0  501    0  0.00000000000E+00  0.00000000000E+00 -0.82516380152E+03  0.82516380154E+03  0.50400001928E-02 0. -1.
    10030    2    1    2    0    0  0.00000000000E+00  0.00000000000E+00  0.23032820066E+04  0.39536096096E+04  0.32133971033E+04 0.  0.
        4    1    3    3  502    0 -0.53836233865E+03 -0.10908339928E+04 -0.13977495494E+03  0.12244555763E+04  0.12699999809E+01 0. -1.
       -4    1    3    3    0  502  0.53836233865E+03  0.10908339928E+04  0.24430569615E+04  0.27291540333E+04  0.12699999809E+01 0.  1.
</event>
<event>
 5   0  0.5233813E-07  0.3185803E+04  0.7818609E-02  0.8192577E-01
        1   -1    0    0  501    0  0.00000000000E+00  0.00000000000E+00  0.25725058075E+04  0.25725058075E+04  0.50400001928E-02 0. -1.
       -1   -1    0    0    0  501  0.00000000000E+00  0.00000000000E+00 -0.98632796915E+03  0.98632796916E+03  0.50400001928E-02 0.  1.
    10030    2    1    2    0    0  0.00000000000E+00  0.00000000000E+00  0.15861778384E+04  0.35588337767E+04  0.31858025229E+04 0.  0.
        4    1    3    3  502    0 -0.65295779207E+03 -0.90580951307E+03  0.20621012669E+04  0.23450176972E+04  0.12699999809E+01 0. -1.
       -4    1    3    3    0  502  0.65295779207E+03  0.90580951307E+03 -0.47592342851E+03  0.12138160795E+04  0.12699999809E+01 0.  1.
</event>
<event>
 5   0  0.5233813E-07  0.3205159E+04  0.7818609E-02  0.8187456E-01
        1   -1    0    0  501    0  0.00000000000E+00  0.00000000000E+00  0.18708849176E+04  0.18708849177E+04  0.50400001928E-02 0. -1.
       -1   -1    0    0    0  501  0.00000000000E+00  0.00000000000E+00 -0.13727517793E+04  0.13727517793E+04  0.50400001928E-02 0.  1.
    10030    2    1    2    0    0  0.00000000000E+00  0.00000000000E+00  0.49813313836E+03  0.32436366969E+04  0.32051587165E+04 0.  0.
        4    1    3    3  502    0  0.78692313480E+03  0.28119361541E+03  0.16329408259E+04  0.18343432676E+04  0.12699999809E+01 0. -1.
       -4    1    3    3    0  502 -0.78692313480E+03 -0.28119361541E+03 -0.11348076876E+04  0.14092934294E+04  0.12699999809E+01 0.  1.
</event>
<event>
 5   0  0.5370912E-07  0.3251000E+04  0.7818609E-02  0.8175477E-01
        1   -1    0    0  501    0  0.00000000000E+00  0.00000000000E+00  0.86214481519E+03  0.86214481521E+03  0.50400001928E-02 0.  1.
       -1   -1    0    0    0  501  0.00000000000E+00  0.00000000000E+00 -0.30647397280E+04  0.30647397280E+04  0.50400001928E-02 0. -1.
    10030    2    1    2    0    0  0.00000000000E+00  0.00000000000E+00 -0.22025949128E+04  0.39268845432E+04  0.32509995180E+04 0.  0.
        1    1    3    3  502    0 -0.68541921211E+03  0.33473851723E+03 -0.28351294321E+04  0.29359509989E+04  0.50400001928E-02 0. -1.
       -1    1    3    3    0  502  0.68541921211E+03 -0.33473851723E+03  0.63253451924E+03  0.99093354434E+03  0.50400001928E-02 0.  1.
</event>
<event>
 5   0  0.1493485E-06  0.3208889E+04  0.7818609E-02  0.8186474E-01
        2   -1    0    0  501    0  0.00000000000E+00  0.00000000000E+00  0.15545616043E+04  0.15545616043E+04  0.25500000920E-02 0.  1.
       -2   -1    0    0    0  501  0.00000000000E+00  0.00000000000E+00 -0.16559282258E+04  0.16559282258E+04  0.25500000920E-02 0. -1.
    10030    2    1    2    0    0  0.00000000000E+00  0.00000000000E+00 -0.10136662147E+03  0.32104898301E+04  0.32088891781E+04 0.  0.
        2    1    3    3  502    0 -0.11678226734E+04 -0.10640123216E+04  0.22929627267E+03  0.15964049604E+04  0.25500000920E-02 0.  1.
       -2    1    3    3    0  502  0.11678226734E+04  0.10640123216E+04 -0.33066289414E+03  0.16140848697E+04  0.25500000920E-02 0. -1.
</event>
<event>
 5   0  0.5370912E-07  0.3238003E+04  0.7818609E-02  0.8178852E-01
       -1   -1    0    0    0  501  0.00000000000E+00  0.00000000000E+00  0.17314596925E+04  0.17314596925E+04  0.50400001928E-02 0. -1.
        1   -1    0    0  501    0  0.00000000000E+00  0.00000000000E+00 -0.15138476635E+04  0.15138476636E+04  0.50400001928E-02 0.  1.
    10030    2    1    2    0    0  0.00000000000E+00  0.00000000000E+00  0.21761202892E+03  0.32453073560E+04  0.32380032180E+04 0.  0.
        1    1    3    3  502    0 -0.92878060789E+03  0.12870276087E+03  0.14316197425E+04  0.17113541146E+04  0.50400001928E-02 0. -1.
       -1    1    3    3    0  502  0.92878060789E+03 -0.12870276087E+03 -0.12140077136E+04  0.15339532415E+04  0.50400001928E-02 0.  1.
</event>
<event>
 5   0  0.5370912E-07  0.3031272E+04  0.7818609E-02  0.8234857E-01
        1   -1    0    0  501    0  0.00000000000E+00  0.00000000000E+00  0.19553598223E+04  0.19553598223E+04  0.50400001928E-02 0. -1.
       -1   -1    0    0    0  501  0.00000000000E+00  0.00000000000E+00 -0.11747974883E+04  0.11747974883E+04  0.50400001928E-02 0.  1.
    10030    2    1    2    0    0  0.00000000000E+00  0.00000000000E+00  0.78056233398E+03  0.31301573106E+04  0.30312715536E+04 0.  0.
        1    1    3    3  502    0  0.44244034607E+03  0.12560586247E+04  0.11375706317E+04  0.17514290367E+04  0.50400001928E-02 0. -1.
       -1    1    3    3    0  502 -0.44244034607E+03 -0.12560586247E+04 -0.35700829768E+03  0.13787282739E+04  0.50400001928E-02 0.  1.
</event>
<event>
 5   0  0.1572769E-06  0.3272320E+04  0.7818609E-02  0.8169975E-01
       -2   -1    0    0    0  501  0.00000000000E+00  0.00000000000E+00  0.12840335102E+04  0.12840335102E+04  0.25500000920E-02 0.  1.
        2   -1    0    0  501    0  0.00000000000E+00  0.00000000000E+00 -0.20848515986E+04  0.20848515986E+04  0.25500000920E-02 0. -1.
    10030    2    1    2    0    0  0.00000000000E+00  0.00000000000E+00 -0.80081808843E+03  0.33688851088E+04  0.32723198599E+04 0.  0.
        5    1    3    3  502    0  0.94231786901E+03  0.11635018422E+04  0.27883157616E+03  0.15229801840E+04  0.46999998093E+01 0.  1.
       -5    1    3    3    0  502 -0.94231786901E+03 -0.11635018422E+04 -0.10796496646E+04  0.18459049248E+04  0.46999998093E+01 0. -1.
</event>
<event>
 5   0  0.4995625E-07  0.3197453E+04  0.7818609E-02  0.8189490E-01
        4   -1    0    0  501    0  0.00000000000E+00  0.00000000000E+00  0.21365408938E+04  0.21365412713E+04  0.12699999809E+01 0. -1.
       -4   -1    0    0    0  501  0.00000000000E+00  0.00000000000E+00 -0.11962908740E+04  0.11962915482E+04  0.12699999809E+01 0.  1.
    10030    2    1    2    0    0  0.00000000000E+00  0.00000000000E+00  0.94025001977E+03  0.33328328194E+04  0.31974528148E+04 0.  0.
        2    1    3    3  502    0 -0.69282288148E+03  0.13535837260E+04  0.98472189782E+03  0.18115931288E+04  0.25500000920E-02 0. -1.
       -2    1    3    3    0  502  0.69282288148E+03 -0.13535837260E+04 -0.44471878054E+02  0.15212396906E+04  0.25500000920E-02 0.  1.
</event>
<event>
 5   0  0.5177039E-07  0.3213747E+04  0.7818609E-02  0.8185196E-01
        1   -1    0    0  501    0  0.00000000000E+00  0.00000000000E+00  0.25864982891E+04  0.25864982891E+04  0.50400001928E-02 0. -1.
       -1   -1    0    0    0  501  0.00000000000E+00  0.00000000000E+00 -0.99827711969E+03  0.99827711970E+03  0.50400001928E-02 0.  1.
    10030    2    1    2    0    0  0.00000000000E+00  0.00000000000E+00  0.15882211694E+04  0.35847754088E+04  0.32137467618E+04 0.  0.
        3    1    3    3  502    0  0.89571569120E+02 -0.55728462763E+03 -0.88405968838E+03  0.10488807201E+04  0.10100000352E+00 0.  1.
       -3    1    3    3    0  502 -0.89571569120E+02  0.55728462763E+03  0.24722808578E+04  0.25358946887E+04  0.10100000352E+00 0. -1.
</event>
<event>
 5   0  0.5233813E-07  0.3188808E+04  0.7818609E-02  0.8191779E-01
        1   -1    0    0  501    0  0.00000000000E+00  0.00000000000E+00  0.17608834909E+04  0.17608834909E+04  0.50400001928E-02 0.  1.
       -1   -1    0    0    0  501  0.00000000000E+00  0.00000000000E+00 -0.14436637798E+04  0.14436637798E+04  0.50400001928E-02 0. -1.
    10030    2    1    2    0    0  0.00000000000E+00  0.00000000000E+00  0.31721971112E+03  0.32045472707E+04  0.31888077498E+04 0.  0.
        4    1    3    3  502    0  0.11213204708E+04  0.29395231352E+03 -0.94148721624E+03  0.14933744849E+04  0.12699999809E+01 0. -1.
       -4    1    3    3    0  502 -0.11213204708E+04 -0.29395231352E+03  0.12587069274E+04  0.17111727858E+04  0.12699999809E+01 0.  1.
</event>
<event>
 5   0  0.5233813E-07  0.3175945E+04  0.7818609E-02  0.8195199E-01
       -1   -1    0    0    0  501  0.00000000000E+00  0.00000000000E+00  0.12783581082E+04  0.12783581082E+04  0.50400001928E-02 0. -1.
        1   -1    0    0  501    0  0.00000000000E+00  0.00000000000E+00 -0.19725747923E+04  0.19725747923E+04  0.50400001928E-02 0.  1.
    10030    2    1    2    0    0  0.00000000000E+00  0.00000000000E+00 -0.69421668410E+03  0.32509329004E+04  0.31759452008E+04 0.  0.
        4    1    3    3  502    0  0.31337785779E+03  0.15187285358E+04 -0.69710750152E+03  0.17002066135E+04  0.12699999809E+01 0.  1.
       -4    1    3    3    0  502 -0.31337785779E+03 -0.15187285358E+04  0.28908174233E+01  0.15507262869E+04  0.12699999809E+01 0. -1.
</event>
<event>
 5   0  0.1508771E-06  0.3175606E+04  0.7818609E-02  0.8195289E-01
        2   -1    0    0  501    0  0.00000000000E+00  0.00000000000E+00  0.20479867294E+04  0.20479867294E+04  0.25500000920E-02 0. -1.
       -2   -1    0    0    0  501  0.00000000000E+00  0.00000000000E+00 -0.12310231649E+04  0.12310231649E+04  0.25500000920E-02 0.  1.
    10030    2    1    2    0    0  0.00000000000E+00  0.00000000000E+00  0.81696356448E+03  0.32790098942E+04  0.31756064651E+04 0.  0.
        4    1    3    3  502    0  0.12614070093E+04  0.93496931530E+03  0.65239864289E+03  0.17002767027E+04  0.12699999809E+01 0. -1.
       -4    1    3    3    0  502 -0.12614070093E+04 -0.93496931530E+03  0.16456492159E+03  0.15787331915E+04  0.12699999809E+01 0.  1.
</event>
<event>
 5   0  0.4995625E-07  0.3189753E+04  0.7818609E-02  0.8191529E-01
       -3   -1    0    0    0  501  0.00000000000E+00  0.00000000000E+00  0.15260711567E+04  0.15260711601E+04  0.10100000352E+00 0. -1.
        3   -1    0    0  501    0  0.00000000000E+00  0.00000000000E+00 -0.16667837642E+04  0.16667837673E+04  0.10100000352E+00 0.  1.
    10030    2    1    2    0    0  0.00000000000E+00  0.00000000000E+00 -0.14071260748E+03  0.31928549274E+04  0.31897527411E+04 0.  0.
        1    1    3    3  502    0 -0.58495506763E+03  0.10006302167E+04 -0.11669569643E+04  0.16447558537E+04  0.50400001928E-02 0.  1.
       -1    1    3    3    0  502  0.58495506763E+03 -0.10006302167E+04  0.10262443568E+04  0.15480990736E+04  0.50400001928E-02 0. -1.
</event>
<event>
 5   0  0.5177039E-07  0.3117404E+04  0.7818609E-02  0.8210978E-01
       -1   -1    0    0    0  501  0.00000000000E+00  0.00000000000E+00  0.11218096711E+04  0.11218096711E+04  0.50400001928E-02 0. -1.
        1   -1    0    0  501    0  0.00000000000E+00  0.00000000000E+00 -0.21657431233E+04  0.21657431233E+04  0.50400001928E-02 0.  1.
    10030    2    1    2    0    0  0.00000000000E+00  0.00000000000E+00 -0.10439334522E+04  0.32875527945E+04  0.31174037794E+04 0.  0.
        3    1    3    3  502    0 -0.11860179621E+04 -0.93622395143E+03 -0.92546972906E+03  0.17719052241E+04  0.10100000352E+00 0.  1.
       -3    1    3    3    0  502  0.11860179621E+04  0.93622395143E+03 -0.11846372318E+03  0.15156475703E+04  0.10100000352E+00 0. -1.
</event>
<event>
 5   0  0.1493485E-06  0.3182729E+04  0.7818609E-02  0.8193393E-01
       -2   -1    0    0    0  501  0.00000000000E+00  0.00000000000E+00  0.97753043894E+03  0.97753043894E+03  0.25500000920E-02 0. -1.
        2   -1    0    0  501    0  0.00000000000E+00  0.00000000000E+00 -0.25906515683E+04  0.25906515683E+04  0.25500000920E-02 0.  1.
    10030    2    1    2    0    0  0.00000000000E+00  0.00000000000E+00 -0.16131211294E+04  0.35681820072E+04  0.31827288698E+04 0.  0.
        2    1    3    3  502    0 -0.83848862532E+03  0.60854474432E+03 -0.21607598318E+04  0.23963040148E+04  0.25500000920E-02 0.  1.
       -2    1    3    3    0  502  0.83848862532E+03 -0.60854474432E+03  0.54763870248E+03  0.11718779924E+04  0.25500000920E-02 0. -1.
</event>
<event>
 5   0  0.1572769E-06  0.3083250E+04  0.7818609E-02  0.8220350E-01
       -2   -1    0    0    0  501  0.00000000000E+00  0.00000000000E+00  0.14984575794E+04  0.14984575794E+04  0.25500000920E-02 0.  1.
        2   -1    0    0  501    0  0.00000000000E+00  0.00000000000E+00 -0.15860355152E+04  0.15860355152E+04  0.25500000920E-02 0. -1.
    10030    2    1    2    0    0  0.00000000000E+00  0.00000000000E+00 -0.87577935831E+02  0.30844930945E+04  0.30832495448E+04 0.  0.
        5    1    3    3  502    0  0.68657078514E+03  0.13767630840E+04  0.54885576381E+02  0.15394448834E+04  0.46999998093E+01 0. -1.
       -5    1    3    3    0  502 -0.68657078514E+03 -0.13767630840E+04 -0.14246351221E+03  0.15450482112E+04  0.46999998093E+01 0.  1.
</event>
<event>
 5   0  0.1556396E-06  0.3179774E+04  0.7818609E-02  0.8194179E-01
        2   -1    0    0  501    0  0.00000000000E+00  0.00000000000E+00  0.29252548867E+04  0.29252548867E+04  0.25500000920E-02 0.  1.
       -2   -1    0    0    0  501  0.00000000000E+00  0.00000000000E+00 -0.86410938766E+03  0.86410938766E+03  0.25500000920E-02 0. -1.
    10030    2    1    2    0    0  0.00000000000E+00  0.00000000000E+00  0.20611454991E+04  0.37893642744E+04  0.31797737083E+04 0.  0.
        3    1    3    3  502    0  0.13520534780E+04 -0.49465739841E+03  0.18344292660E+04  0.23319230887E+04  0.10100000352E+00 0.  1.
       -3    1    3    3    0  502 -0.13520534780E+04  0.49465739841E+03  0.22671623301E+03  0.14574411857E+04  0.10100000352E+00 0. -1.
</event>
<event>
 5   0  0.5317728E-07  0.3201942E+04  0.7818609E-02  0.8188305E-01
       -1   -1    0    0    0  501  0.00000000000E+00  0.00000000000E+00  0.13509178446E+04  0.13509178446E+04  0.50400001928E-02 0. -1.
        1   -1    0    0  501    0  0.00000000000E+00  0.00000000000E+00 -0.18973085965E+04  0.18973085965E+04  0.50400001928E-02 0.  1.
    10030    2    1    2    0    0  0.00000000000E+00  0.00000000000E+00 -0.54639075183E+03  0.32482264411E+04  0.32019419356E+04 0.  0.
        2    1    3    3  502    0  0.25927584669E+02  0.40962203693E+03  0.12966376740E+04  0.13600484221E+04  0.25500000920E-02 0. -1.
       -2    1    3    3    0  502 -0.25927584669E+02 -0.40962203693E+03 -0.18430284259E+04  0.18881780190E+04  0.25500000920E-02 0.  1.
</event>
<event>
 5   0  0.1556396E-06  0.3214004E+04  0.7818609E-02  0.8185129E-01
        2   -1    0    0  501    0  0.00000000000E+00  0.00000000000E+00  0.17121316183E+04  0.17121316183E+04  0.25500000920E-02 0. -1.
       -2   -1    0    0    0  501  0.00000000000E+00  0.00000000000E+00 -0.15083275581E+04  0.15083275581E+04  0.25500000920E-02 0.  1.
    10030    2    1    2    0    0  0.00000000000E+00  0.00000000000E+00  0.20380406015E+03  0.32204591764E+04  0.32140039222E+04 0.  0.
        3    1    3    3  502    0 -0.37386885902E+03  0.15554823557E+04  0.25436548194E+03  0.16198781100E+04  0.10100000352E+00 0.  1.
       -3    1    3    3    0  502  0.37386885902E+03 -0.15554823557E+04 -0.50561421788E+02  0.16005810664E+04  0.10100000352E+00 0. -1.
</event>
<event>
 5   0  0.5281187E-07  0.3182825E+04  0.7818609E-02  0.8193368E-01
       -1   -1    0    0    0  501  0.00000000000E+00  0.00000000000E+00  0.10980864472E+04  0.10980864472E+04  0.50400001928E-02 0. -1.
        1   -1    0    0  501    0  0.00000000000E+00  0.00000000000E+00 -0.23063705732E+04  0.23063705733E+04  0.50400001928E-02 0.  1.
    10030    2    1    2    0    0  0.00000000000E+00  0.00000000000E+00 -0.12082841261E+04  0.34044570204E+04  0.31828253290E+04 0.  0.
        5    1    3    3  502    0  0.10781856829E+04 -0.32085997272E+03 -0.18081983322E+04  0.21295630509E+04  0.46999998093E+01 0.  1.
       -5    1    3    3    0  502 -0.10781856829E+04  0.32085997272E+03  0.59991420614E+03  0.12748939696E+04  0.46999998093E+01 0. -1.
</event>
<event>
 5   0  0.5177039E-07  0.3168883E+04  0.7818609E-02  0.8197084E-01
        1   -1    0    0  501    0  0.00000000000E+00  0.00000000000E+00  0.17925112344E+04  0.17925112344E+04  0.50400001928E-02 0.  1.
       -1   -1    0    0    0  501  0.00000000000E+00  0.00000000000E+00 -0.14005238183E+04  0.14005238183E+04  0.50400001928E-02 0. -1.
    10030    2    1    2    0    0  0.00000000000E+00  0.00000000000E+00  0.39198741610E+03  0.31930350527E+04  0.31688828810E+04 0.  0.
        3    1    3    3  502    0  0.52582209842E+03  0.14733810515E+04  0.44913359266E+03  0.16275938057E+04  0.10100000352E+00 0.  1.
       -3    1    3    3    0  502 -0.52582209842E+03 -0.14733810515E+04 -0.57146176557E+02  0.15654412470E+04  0.10100000352E+00 0. -1.
</event>
<event>
 5   0  0.5233813E-07  0.3197272E+04  0.7818609E-02  0.8189538E-01
        1   -1    0    0  501    0  0.00000000000E+00  0.00000000000E+00  0.16769804175E+04  0.16769804175E+04  0.50400001928E-02 0.  1.
       -1   -1    0    0    0  501  0.00000000000E+00  0.00000000000E+00 -0.15239512570E+04  0.15239512570E+04  0.50400001928E-02 0. -1.
    10030    2    1    2    0    0  0.00000000000E+00  0.00000000000E+00  0.15302916050E+03  0.32009316745E+04  0.31972715963E+04 0.  0.
        4    1    3    3  502    0 -0.52298107345E+02  0.67956445622E+03  0.15242307669E+04  0.16696778090E+04  0.12699999809E+01 0.  1.
       -4    1    3    3    0  502  0.52298107345E+02 -0.67956445622E+03 -0.13712016064E+04  0.15312538655E+04  0.12699999809E+01 0. -1.
</event>
<event>
 5   0  0.1508771E-06  0.3089287E+04  0.7818609E-02  0.8218684E-01
       -2   -1    0    0    0  501  0.00000000000E+00  0.00000000000E+00  0.18718148429E+04  0.18718148430E+04  0.25500000920E-02 0. -1.
        2   -1    0    0  501    0  0.00000000000E+00  0.00000000000E+00 -0.12746579900E+04  0.12746579900E+04  0.25500000920E-02 0.  1.
    10030    2    1    2    0    0  0.00000000000E+00  0.00000000000E+00  0.59715685295E+03  0.31464728330E+04  0.30892871316E+04 0.  0.
        4    1    3    3  502    0 -0.15303344284E+04 -0.26927831845E+02  0.51045211674E+03  0.16134471009E+04  0.12699999809E+01 0. -1.
       -4    1    3    3    0  502  0.15303344284E+04  0.26927831845E+02  0.86704736215E+02  0.15330257321E+04  0.12699999809E+01 0.  1.
</event>
<event>
 5   0  0.5233813E-07  0.3217678E+04  0.7818609E-02  0.8184164E-01
       -1   -1    0    0    0  501  0.00000000000E+00  0.00000000000E+00  0.12336194670E+04  0.12336194670E+04  0.50400001928E-02 0. -1.
        1   -1    0    0  501    0  0.00000000000E+00  0.00000000000E+00 -0.20981864612E+04  0.20981864612E+04  0.50400001928E-02 0.  1.
    10030    2    1    2    0    0  0.00000000000E+00  0.00000000000E+00 -0.86456699421E+03  0.33318059282E+04  0.32176784575E+04 0.  0.
        4    1    3    3  502    0 -0.55283719901E+03  0.13011749720E+04 -0.12274243460E+04  0.18722332692E+04  0.12699999809E+01 0.  1.
       -4    1    3    3    0  502  0.55283719901E+03 -0.13011749720E+04  0.36285735178E+03  0.14595726590E+04  0.12699999809E+01 0. -1.
</event>
<event>
 5   0  0.1572769E-06  0.3195553E+04  0.7818609E-02  0.8189993E-01
       -2   -1    0    0    0  501  0.00000000000E+00  0.00000000000E+00  0.16148799481E+04  0.16148799481E+04  0.25500000920E-02 0.  1.
        2   -1    0    0  501    0  0.00000000000E+00  0.00000000000E+00 -0.15808542308E+04  0.15808542308E+04  0.25500000920E-02 0. -1.
    10030    2    1    2    0    0  0.00000000000E+00  0.00000000000E+00  0.34025717237E+02  0.31957341789E+04  0.31955530340E+04 0.  0.
        5    1    3    3  502    0  0.11910801518E+04 -0.32630609823E+03  0.10308356388E+04  0.16086614939E+04  0.46999998093E+01 0.  1.
       -5    1    3    3    0  502 -0.11910801518E+04  0.32630609823E+03 -0.99680992160E+03  0.15870726850E+04  0.46999998093E+01 0. -1.
</event>
<event>
 5   0  0.5177039E-07  0.3211078E+04  0.7818609E-02  0.8185898E-01
       -1   -1    0    0    0  501  0.00000000000E+00  0.00000000000E+00  0.16588900117E+04  0.16588900117E+04  0.50400001928E-02 0. -1.
        1   -1    0    0  501    0  0.00000000000E+00  0.00000000000E+00 -0.15539034578E+04  0.15539034578E+04  0.50400001928E-02 0.  1.
    10030    2    1    2    0    0  0.00000000000E+00  0.00000000000E+00  0.10498655396E+03  0.32127934695E+04  0.32110776542E+04 0.  0.
        3    1    3    3  502    0  0.47782717567E+03  0.21572085871E+03  0.15708352508E+04  0.16560125887E+04  0.10100000352E+00 0. -1.
       -3    1    3    3    0  502 -0.47782717567E+03 -0.21572085871E+03 -0.14658486968E+04  0.15567808808E+04  0.10100000352E+00 0.  1.
</event>
<event>
 5   0  0.1493485E-06  0.3173738E+04  0.7818609E-02  0.8195788E-01
       -2   -1    0    0    0  501  0.00000000000E+00  0.00000000000E+00  0.14477691353E+04  0.14477691353E+04  0.25500000920E-02 0. -1.
        2   -1    0    0  501    0  0.00000000000E+00  0.00000000000E+00 -0.17393332372E+04  0.17393332372E+04  0.25500000920E-02 0.  1.
    10030    2    1    2    0    0  0.00000000000E+00  0.00000000000E+00 -0.29156410187E+03  0.31871023725E+04  0.31737378448E+04 0.  0.
        2    1    3    3  502    0 -0.32206124094E+03 -0.15162387561E+04 -0.48699155520E+03  0.16247658857E+04  0.25500000920E-02 0. -1.
       -2    1    3    3    0  502  0.32206124094E+03  0.15162387561E+04  0.19542745333E+03  0.15623364868E+04  0.25500000920E-02 0.  1.
</event>
<event>
 5   0  0.1508771E-06  0.3196474E+04  0.7818609E-02  0.8189749E-01
       -2   -1    0    0    0  501  0.00000000000E+00  0.00000000000E+00  0.17134002753E+04  0.17134002753E+04  0.25500000920E-02 0.  1.
        2   -1    0    0  501    0  0.00000000000E+00  0.00000000000E+00 -0.14908138757E+04  0.14908138757E+04  0.25500000920E-02 0. -1.
    10030    2    1    2    0    0  0.00000000000E+00  0.00000000000E+00  0.22258639957E+03  0.32042141510E+04  0.31964736226E+04 0.  0.
        4    1    3    3  502    0 -0.14213981737E+04 -0.72830944088E+03  0.51551208986E+02  0.15979569925E+04  0.12699999809E+01 0.  1.
       -4    1    3    3    0  502  0.14213981737E+04  0.72830944088E+03  0.17103519058E+03  0.16062571585E+04  0.12699999809E+01 0. -1.
</event>
<event>
 5   0  0.1493485E-06  0.3191211E+04  0.7818609E-02  0.8191142E-01
        2   -1    0    0  501    0  0.00000000000E+00  0.00000000000E+00  0.15076812621E+04  0.15076812621E+04  0.25500000920E-02 0. -1.
       -2   -1    0    0    0  501  0.00000000000E+00  0.00000000000E+00 -0.16886571268E+04  0.16886571268E+04  0.25500000920E-02 0.  1.
    10030    2    1    2    0    0  0.00000000000E+00  0.00000000000E+00 -0.18097586471E+03  0.31963383890E+04  0.31912108726E+04 0.  0.
        2    1    3    3  502    0  0.15678410558E+04 -0.25725733040E+03 -0.23786305229E+03  0.16065135362E+04  0.25500000920E-02 0. -1.
       -2    1    3    3    0  502 -0.15678410558E+04  0.25725733040E+03  0.56887187582E+02  0.15898248528E+04  0.25500000920E-02 0.  1.
</event>
<event>
 5   0  0.5233813E-07  0.3183026E+04  0.7818609E-02  0.8193314E-01
        1   -1    0    0  501    0  0.00000000000E+00  0.00000000000E+00  0.10650539640E+04  0.10650539640E+04  0.50400001928E-02 0.  1.
       -1   -1    0    0    0  501  0.00000000000E+00  0.00000000000E+00 -0.23782015564E+04  0.23782015564E+04  0.50400001928E-02 0. -1.
    10030    2    1    2    0    0  0.00000000000E+00  0.00000000000E+00 -0.13131475925E+04  0.34432555204E+04  0.31830256014E+04 0.  0.
        4    1    3    3  502    0  0.14050917074E+04 -0.31711616458E+03 -0.13887121461E+04  0.20008419242E+04  0.12699999809E+01 0.  1.
       -4    1    3    3    0  502 -0.14050917074E+04  0.31711616458E+03  0.75564553570E+02  0.14424135962E+04  0.12699999809E+01 0. -1.
</event>
<event>
 5   0  0.1572769E-06  0.3201202E+04  0.7818609E-02  0.8188500E-01
        2   -1    0    0  501    0  0.00000000000E+00  0.00000000000E+00  0.18372929461E+04  0.18372929461E+04  0.25500000920E-02 0. -1.
       -2   -1    0    0    0  501  0.00000000000E+00  0.00000000000E+00 -0.13944010951E+04  0.13944010951E+04  0.25500000920E-02 0.  1.
    10030    2    1    2    0    0  0.00000000000E+00  0.00000000000E+00  0.44289185104E+03  0.32316940412E+04  0.32012018343E+04 0.  0.
        5    1    3    3  502    0  0.91105969521E+03 -0.82819487985E+03  0.12539117616E+04  0.17573426880E+04  0.46999998093E+01 0. -1.
       -5    1    3    3    0  502 -0.91105969521E+03  0.82819487985E+03 -0.81101991054E+03  0.14743513532E+04  0.46999998093E+01 0.  1.
</event>
<event>
 5   0  0.5317728E-07  0.3059652E+04  0.7818609E-02  0.8226899E-01
        1   -1    0    0  501    0  0.00000000000E+00  0.00000000000E+00  0.17638215187E+04  0.17638215187E+04  0.50400001928E-02 0.  1.
       -1   -1    0    0    0  501  0.00000000000E+00  0.00000000000E+00 -0.13268729340E+04  0.13268729340E+04  0.50400001928E-02 0. -1.
    10030    2    1    2    0    0  0.00000000000E+00  0.00000000000E+00  0.43694858470E+03  0.30906944526E+04  0.30596516360E+04 0.  0.
        2    1    3    3  502    0  0.13151655389E+04 -0.78147552260E+03  0.22011752339E+03  0.15455795390E+04  0.25500000920E-02 0. -1.
       -2    1    3    3    0  502 -0.13151655389E+04  0.78147552260E+03  0.21683106130E+03  0.15451149137E+04  0.25500000920E-02 0.  1.
</event>
<event>
 5   0  0.5370912E-07  0.3144048E+04  0.7818609E-02  0.8203752E-01
       -1   -1    0    0    0  501  0.00000000000E+00  0.00000000000E+00  0.12233442255E+04  0.12233442255E+04  0.50400001928E-02 0.  1.
        1   -1    0    0  501    0  0.00000000000E+00  0.00000000000E+00 -0.20200851028E+04  0.20200851028E+04  0.50400001928E-02 0. -1.
    10030    2    1    2    0    0  0.00000000000E+00  0.00000000000E+00 -0.79674087729E+03  0.32434293283E+04  0.31440479929E+04 0.  0.
        1    1    3    3  502    0  0.10650808419E+04  0.94675926232E+03  0.28631759390E+03  0.14535226400E+04  0.50400001928E-02 0.  1.
       -1    1    3    3    0  502 -0.10650808419E+04 -0.94675926232E+03 -0.10830584712E+04  0.17899066882E+04  0.50400001928E-02 0. -1.
</event>
<event>
 5   0  0.5281187E-07  0.3009626E+04  0.7818609E-02  0.8240987E-01
        1   -1    0    0  501    0  0.00000000000E+00  0.00000000000E+00  0.21385152981E+04  0.21385152981E+04  0.50400001928E-02 0.  1.
       -1   -1    0    0    0  501  0.00000000000E+00  0.00000000000E+00 -0.10588947552E+04  0.10588947552E+04  0.50400001928E-02 0. -1.
    10030    2    1    2    0    0  0.00000000000E+00  0.00000000000E+00  0.10796205429E+04  0.31974100534E+04  0.30096263112E+04 0.  0.
        5    1    3    3  502    0  0.64916766293E+03 -0.12976302474E+04  0.96367451121E+03  0.17418247808E+04  0.46999998093E+01 0. -1.
       -5    1    3    3    0  502 -0.64916766293E+03  0.12976302474E+04  0.11594603169E+03  0.14555852726E+04  0.46999998093E+01 0.  1.
</event>
<event>
 5   0  0.5233813E-07  0.3206039E+04  0.7818609E-02  0.8187224E-01
        1   -1    0    0  501    0  0.00000000000E+00  0.00000000000E+00  0.23925554035E+04  0.23925554035E+04  0.50400001928E-02 0. -1.
       -1   -1    0    0    0  501  0.00000000000E+00  0.00000000000E+00 -0.10740279498E+04  0.10740279498E+04  0.50400001928E-02 0.  1.
    10030    2    1    2    0    0  0.00000000000E+00  0.00000000000E+00  0.13185274537E+04  0.34665833534E+04  0.32060389111E+04 0.  0.
        4    1    3    3  502    0 -0.15236719740E+04  0.47729573680E+03  0.81325318896E+03  0.17918621228E+04  0.12699999809E+01 0.  1.
       -4    1    3    3    0  502  0.15236719740E+04 -0.47729573680E+03  0.50527426478E+03  0.16747212306E+04  0.12699999809E+01 0. -1.
</event>
<event>
 5   0  0.1538349E-06  0.3218147E+04  0.7818609E-02  0.8184041E-01
       -2   -1    0    0    0  501  0.00000000000E+00  0.00000000000E+00  0.10614409644E+04  0.10614409644E+04  0.25500000920E-02 0.  1.
        2   -1    0    0  501    0  0.00000000000E+00  0.00000000000E+00 -0.24392472310E+04  0.24392472310E+04  0.25500000920E-02 0. -1.
    10030    2    1    2    0    0  0.00000000000E+00  0.00000000000E+00 -0.13778062666E+04  0.35006881954E+04  0.32181466302E+04 0.  0.
        1    1    3    3  502    0  0.46256857203E+03  0.12859950826E+04 -0.16128027848E+04  0.21139739494E+04  0.50400001928E-02 0. -1.
       -1    1    3    3    0  502 -0.46256857203E+03 -0.12859950826E+04  0.23499651814E+03  0.13867142460E+04  0.50400001928E-02 0.  1.
</event>
<event>
 5   0  0.5370912E-07  0.3203545E+04  0.7818609E-02  0.8187881E-01
       -1   -1    0    0    0  501  0.00000000000E+00  0.00000000000E+00  0.15479313878E+04  0.15479313878E+04  0.50400001928E-02 0.  1.
        1   -1    0    0  501    0  0.00000000000E+00  0.00000000000E+00 -0.16574866681E+04  0.16574866681E+04  0.50400001928E-02 0. -1.
    10030    2    1    2    0    0  0.00000000000E+00  0.00000000000E+00 -0.10955528030E+03  0.32054180559E+04  0.32035453100E+04 0.  0.
        1    1    3    3  502    0 -0.10510511523E+03  0.11675821202E+04 -0.11469195174E+04  0.16400364241E+04  0.50400001928E-02 0. -1.
       -1    1    3    3    0  502  0.10510511523E+03 -0.11675821202E+04  0.10373642371E+04  0.15653816318E+04  0.50400001928E-02 0.  1.
</event>
<event>
 5   0  0.1556396E-06  0.3240555E+04  0.7818609E-02  0.8178188E-01
       -2   -1    0    0    0  501  0.00000000000E+00  0.00000000000E+00  0.82845818865E+03  0.82845818865E+03  0.25500000920E-02 0. -1.
        2   -1    0    0  501    0  0.00000000000E+00  0.00000000000E+00 -0.31688984756E+04  0.31688984756E+04  0.25500000920E-02 0.  1.
    10030    2    1    2    0    0  0.00000000000E+00  0.00000000000E+00 -0.23404402870E+04  0.39973566643E+04  0.32405554407E+04 0.  0.
        3    1    3    3  502    0 -0.60300993190E+03 -0.65652344061E+03  0.49878164023E+03  0.10214828148E+04  0.10100000352E+00 0. -1.
       -3    1    3    3    0  502  0.60300993190E+03  0.65652344061E+03 -0.28392219272E+04  0.29758738495E+04  0.10100000352E+00 0.  1.
</event>
<event>
 5   0  0.1538349E-06  0.3179683E+04  0.7818609E-02  0.8194204E-01
       -2   -1    0    0    0  501  0.00000000000E+00  0.00000000000E+00  0.12003794889E+04  0.12003794889E+04  0.25500000920E-02 0.  1.
        2   -1    0    0  501    0  0.00000000000E+00  0.00000000000E+00 -0.21056640350E+04  0.21056640350E+04  0.25500000920E-02 0. -1.
    10030    2    1    2    0    0  0.00000000000E+00  0.00000000000E+00 -0.90528454611E+03  0.33060435239E+04  0.31796829516E+04 0.  0.
        1    1    3    3  502    0  0.54353375606E+03 -0.66777473260E+03  0.93697474920E+03  0.12725068637E+04  0.50400001928E-02 0.  1.
       -1    1    3    3    0  502 -0.54353375606E+03  0.66777473260E+03 -0.18422592953E+04  0.20335366603E+04  0.50400001928E-02 0. -1.
</event>
<event>
 5   0  0.1538349E-06  0.3218620E+04  0.7818609E-02  0.8183917E-01
       -2   -1    0    0    0  501  0.00000000000E+00  0.00000000000E+00  0.15247357012E+04  0.15247357012E+04  0.25500000920E-02 0. -1.
        2   -1    0    0  501    0  0.00000000000E+00  0.00000000000E+00 -0.16985757515E+04  0.16985757515E+04  0.25500000920E-02 0.  1.
    10030    2    1    2    0    0  0.00000000000E+00  0.00000000000E+00 -0.17384005033E+03  0.32233114527E+04  0.32186202569E+04 0.  0.
        1    1    3    3  502    0 -0.14741859825E+04 -0.48010737195E+03 -0.51900187394E+03  0.16349588205E+04  0.50400001928E-02 0.  1.
       -1    1    3    3    0  502  0.14741859825E+04  0.48010737195E+03  0.34516182361E+03  0.15883526322E+04  0.50400001928E-02 0. -1.
</event>
<event>
 5   0  0.1572769E-06  0.3203117E+04  0.7818609E-02  0.8187994E-01
        2   -1    0    0  501    0  0.00000000000E+00  0.00000000000E+00  0.13535769595E+04  0.13535769595E+04  0.25500000920E-02 0.  1.
       -2   -1    0    0    0  501  0.00000000000E+00  0.00000000000E+00 -0.18949717935E+04  0.18949717935E+04  0.25500000920E-02 0. -1.
    10030    2    1    2    0    0  0.00000000000E+00  0.00000000000E+00 -0.54139483392E+03  0.32485487530E+04  0.32031173307E+04 0.  0.
        5    1    3    3  502    0  0.12801732920E+04 -0.62620999509E+03 -0.10118049961E+04  0.17477854718E+04  0.46999998093E+01 0.  1.
       -5    1    3    3    0  502 -0.12801732920E+04  0.62620999509E+03  0.47041016216E+03  0.15007632812E+04  0.46999998093E+01 0. -1.
</event>
<event>
 5   0  0.5281187E-07  0.3206909E+04  0.7818609E-02  0.8186995E-01
       -1   -1    0    0    0  501  0.00000000000E+00  0.00000000000E+00  0.14409150841E+04  0.14409150841E+04  0.50400001928E-02 0. -1.
        1   -1    0    0  501    0  0.00000000000E+00  0.00000000000E+00 -0.17843286105E+04  0.17843286105E+04  0.50400001928E-02 0.  1.
    10030    2    1    2    0    0  0.00000000000E+00  0.00000000000E+00 -0.34341352634E+03  0.32252436946E+04  0.32069087981E+04 0.  0.
        5    1    3    3  502    0 -0.45540432164E+03 -0.10114870028E+04 -0.13361453881E+04  0.17366075092E+04  0.46999998093E+01 0.  1.
       -5    1    3    3    0  502  0.45540432164E+03  0.10114870028E+04  0.99273186176E+03  0.14886361854E+04  0.46999998093E+01 0. -1.
</event>
<event>
 5   0  0.1556396E-06  0.3192870E+04  0.7818609E-02  0.8190703E-01
       -2   -1    0    0    0  501  0.00000000000E+00  0.00000000000E+00  0.15495444407E+04  0.15495444407E+04  0.25500000920E-02 0.  1.
        2   -1    0    0  501    0  0.00000000000E+00  0.00000000000E+00 -0.16447447782E+04  0.16447447782E+04  0.25500000920E-02 0. -1.
    10030    2    1    2    0    0  0.00000000000E+00  0.00000000000E+00 -0.95200337525E+02  0.31942892188E+04  0.31928702619E+04 0.  0.
        3    1    3    3  502    0 -0.11059725311E+04  0.69384868393E+03  0.87150495186E+03  0.15697522502E+04  0.10100000352E+00 0.  1.
       -3    1    3    3    0  502  0.11059725311E+04 -0.69384868393E+03 -0.96670528938E+03  0.16245369686E+04  0.10100000352E+00 0. -1.
</event>
<event>
 5   0  0.5317728E-07  0.3207397E+04  0.7818609E-02  0.8186866E-01
       -1   -1    0    0    0  501  0.00000000000E+00  0.00000000000E+00  0.14468514636E+04  0.14468514637E+04  0.50400001928E-02 0.  1.
        1   -1    0    0  501    0  0.00000000000E+00  0.00000000000E+00 -0.17775481500E+04  0.17775481500E+04  0.50400001928E-02 0. -1.
    10030    2    1    2    0    0  0.00000000000E+00  0.00000000000E+00 -0.33069668637E+03  0.32243996137E+04  0.32073965409E+04 0.  0.
        2    1    3    3  502    0 -0.10021949999E+04 -0.44992617280E+02 -0.14231521070E+04  0.17412010432E+04  0.25500000920E-02 0. -1.
       -2    1    3    3    0  502  0.10021949999E+04  0.44992617280E+02  0.10924554206E+04  0.14831985704E+04  0.25500000920E-02 0.  1.
</event>
<event>
 5   0  0.5370912E-07  0.3190977E+04  0.7818609E-02  0.8191204E-01
        1   -1    0    0  501    0  0.00000000000E+00  0.00000000000E+00  0.16006564298E+04  0.16006564298E+04  0.50400001928E-02 0. -1.
       -1   -1    0    0    0  501  0.00000000000E+00  0.00000000000E+00 -0.15903368993E+04  0.15903368993E+04  0.50400001928E-02 0.  1.
    10030    2    1    2    0    0  0.00000000000E+00  0.00000000000E+00  0.10319530566E+02  0.31909933291E+04  0.31909766426E+04 0.  0.
        1    1    3    3  502    0  0.10795782941E+04  0.70184870398E+03  0.94723798339E+03  0.15985433036E+04  0.50400001928E-02 0. -1.
       -1    1    3    3    0  502 -0.10795782941E+04 -0.70184870398E+03 -0.93691845282E+03  0.15924500255E+04  0.50400001928E-02 0.  1.
</event>
<event>
 5   0  0.5177039E-07  0.3186957E+04  0.7818609E-02  0.8192270E-01
        1   -1    0    0  501    0  0.00000000000E+00  0.00000000000E+00  0.10783476611E+04  0.10783476611E+04  0.50400001928E-02 0.  1.
       -1   -1    0    0    0  501  0.00000000000E+00  0.00000000000E+00 -0.23546895341E+04  0.23546895341E+04  0.50400001928E-02 0. -1.
    10030    2    1    2    0    0  0.00000000000E+00  0.00000000000E+00 -0.12763418730E+04  0.34330371953E+04  0.31869571392E+04 0.  0.
        3    1    3    3  502    0  0.10337005066E+04  0.11868615130E+04 -0.36995322082E+03  0.16168000446E+04  0.10100000352E+00 0. -1.
       -3    1    3    3    0  502 -0.10337005066E+04 -0.11868615130E+04 -0.90638865219E+03  0.18162371507E+04  0.10100000352E+00 0.  1.
</event>
<event>
 5   0  0.5177039E-07  0.3220076E+04  0.7818609E-02  0.8183535E-01
        1   -1    0    0  501    0  0.00000000000E+00  0.00000000000E+00  0.11994131007E+04  0.11994131007E+04  0.50400001928E-02 0. -1.
       -1   -1    0    0    0  501  0.00000000000E+00  0.00000000000E+00 -0.21612417492E+04  0.21612417492E+04  0.50400001928E-02 0.  1.
    10030    2    1    2    0    0  0.00000000000E+00  0.00000000000E+00 -0.96182864851E+03  0.33606548500E+04  0.32200755692E+04 0.  0.
        3    1    3    3  502    0 -0.30591787888E+03 -0.15802457385E+04 -0.52078305002E+03  0.16917379638E+04  0.10100000352E+00 0.  1.
       -3    1    3    3    0  502  0.30591787888E+03  0.15802457385E+04 -0.44104559849E+03  0.16689168862E+04  0.10100000352E+00 0. -1.
</event>
<event>
 5   0  0.1493485E-06  0.3268885E+04  0.7818609E-02  0.8170858E-01
       -2   -1    0    0    0  501  0.00000000000E+00  0.00000000000E+00  0.11857397174E+04  0.11857397174E+04  0.25500000920E-02 0. -1.
        2   -1    0    0  501    0  0.00000000000E+00  0.00000000000E+00 -0.22529421431E+04  0.22529421431E+04  0.25500000920E-02 0.  1.
    10030    2    1    2    0    0  0.00000000000E+00  0.00000000000E+00 -0.10672024256E+04  0.34386818605E+04  0.32688854248E+04 0.  0.
        2    1    3    3  502    0  0.43833026472E+01 -0.14052835795E+04 -0.14115559663E+04  0.19918161055E+04  0.25500000920E-02 0.  1.
       -2    1    3    3    0  502 -0.43833026472E+01  0.14052835795E+04  0.34435354063E+03  0.14468657550E+04  0.25500000920E-02 0. -1.
</event>
<event>
 5   0  0.5281187E-07  0.3198320E+04  0.7818609E-02  0.8189261E-01
       -1   -1    0    0    0  501  0.00000000000E+00  0.00000000000E+00  0.10057452437E+04  0.10057452437E+04  0.50400001928E-02 0.  1.
        1   -1    0    0  501    0  0.00000000000E+00  0.00000000000E+00 -0.25427036391E+04  0.25427036391E+04  0.50400001928E-02 0. -1.
    10030    2    1    2    0    0  0.00000000000E+00  0.00000000000E+00 -0.15369583954E+04  0.35484488829E+04  0.31983196159E+04 0.  0.
        5    1    3    3  502    0  0.10645671745E+03  0.15135207722E+04 -0.13289682080E+04  0.20169920051E+04  0.46999998093E+01 0. -1.
       -5    1    3    3    0  502 -0.10645671745E+03 -0.15135207722E+04 -0.20799018739E+03  0.15314568778E+04  0.46999998093E+01 0.  1.
</event>
<event>
 5   0  0.1572769E-06  0.3234866E+04  0.7818609E-02  0.8179669E-01
       -2   -1    0    0    0  501  0.00000000000E+00  0.00000000000E+00  0.17754143996E+04  0.17754143996E+04  0.25500000920E-02 0.  1.
        2   -1    0    0  501    0  0.00000000000E+00  0.00000000000E+00 -0.14735094461E+04  0.14735094461E+04  0.25500000920E-02 0. -1.
    10030    2    1    2    0    0  0.00000000000E+00  0.00000000000E+00  0.30190495345E+03  0.32489238457E+04  0.32348662343E+04 0.  0.
        5    1    3    3  502    0  0.11998145375E+04  0.10839090522E+04  0.11010584019E+03  0.16206662654E+04  0.46999998093E+01 0.  1.
       -5    1    3    3    0  502 -0.11998145375E+04 -0.10839090522E+04  0.19179911326E+03  0.16282575802E+04  0.46999998093E+01 0. -1.
</event>
<event>
 5   0  0.5317728E-07  0.3204700E+04  0.7818609E-02  0.8187577E-01
        1   -1    0    0  501    0  0.00000000000E+00  0.00000000000E+00  0.19369487228E+04  0.19369487228E+04  0.50400001928E-02 0.  1.
       -1   -1    0    0    0  501  0.00000000000E+00  0.00000000000E+00 -0.13255518248E+04  0.13255518248E+04  0.50400001928E-02 0. -1.
    10030    2    1    2    0    0  0.00000000000E+00  0.00000000000E+00  0.61139689800E+03  0.32625005477E+04  0.32047002444E+04 0.  0.
        2    1    3    3  502    0 -0.37243726065E+03 -0.65187621280E+03  0.17468125370E+04  0.19013169513E+04  0.25500000920E-02 0.  1.
       -2    1    3    3    0  502  0.37243726065E+03  0.65187621280E+03 -0.11354156390E+04  0.13611835964E+04  0.25500000920E-02 0. -1.
</event>
<event>
 5   0  0.5317728E-07  0.3205248E+04  0.7818609E-02  0.8187433E-01
       -1   -1    0    0    0  501  0.00000000000E+00  0.00000000000E+00  0.19157441387E+04  0.19157441387E+04  0.50400001928E-02 0.  1.
        1   -1    0    0  501    0  0.00000000000E+00  0.00000000000E+00 -0.13406818790E+04  0.13406818790E+04  0.50400001928E-02 0. -1.
    10030    2    1    2    0    0  0.00000000000E+00  0.00000000000E+00  0.57506225976E+03  0.32564260177E+04  0.32052478541E+04 0.  0.
        2    1    3    3  502    0 -0.11014975496E+04 -0.97305342330E+03 -0.36163412286E+03  0.15135749255E+04  0.25500000920E-02 0. -1.
       -2    1    3    3    0  502  0.11014975496E+04  0.97305342330E+03  0.93669638262E+03  0.17428510922E+04  0.25500000920E-02 0.  1.
</event>
<event>
 5   0  0.5370912E-07  0.3201004E+04  0.7818609E-02  0.8188552E-01
        1   -1    0    0  501    0  0.00000000000E+00  0.00000000000E+00  0.20367159749E+04  0.20367159749E+04  0.50400001928E-02 0. -1.
       -1   -1    0    0    0  501  0.00000000000E+00  0.00000000000E+00 -0.12577140762E+04  0.12577140762E+04  0.50400001928E-02 0.  1.
    10030    2    1    2    0    0  0.00000000000E+00  0.00000000000E+00  0.77900189866E+03  0.32944300511E+04  0.32010038118E+04 0.  0.
        1    1    3    3  502    0 -0.67195137280E+03 -0.39368044234E+03  0.18285611636E+04  0.19874956270E+04  0.50400001928E-02 0. -1.
       -1    1    3    3    0  502  0.67195137280E+03  0.39368044234E+03 -0.10495592650E+04  0.13069344241E+04  0.50400001928E-02 0.  1.
</event>
<event>
 5   0  0.5317728E-07  0.3210058E+04  0.7818609E-02  0.8186166E-01
       -1   -1    0    0    0  501  0.00000000000E+00  0.00000000000E+00  0.25070209850E+04  0.25070209850E+04  0.50400001928E-02 0.  1.
        1   -1    0    0  501    0  0.00000000000E+00  0.00000000000E+00 -0.10275614425E+04  0.10275614425E+04  0.50400001928E-02 0. -1.
    10030    2    1    2    0    0  0.00000000000E+00  0.00000000000E+00  0.14794595425E+04  0.35345824275E+04  0.32100580055E+04 0.  0.
        2    1    3    3  502    0 -0.18261103645E+03  0.14171800251E+04  0.15446393869E+04  0.21041998122E+04  0.25500000920E-02 0.  1.
       -2    1    3    3    0  502  0.18261103645E+03 -0.14171800251E+04 -0.65179844369E+02  0.14303826153E+04  0.25500000920E-02 0. -1.
</event>
<event>
 5   0  0.1538349E-06  0.3160494E+04  0.7818609E-02  0.8199329E-01
       -2   -1    0    0    0  501  0.00000000000E+00  0.00000000000E+00  0.24538023429E+04  0.24538023429E+04  0.25500000920E-02 0.  1.
        2   -1    0    0  501    0  0.00000000000E+00  0.00000000000E+00 -0.10176777828E+04  0.10176777828E+04  0.25500000920E-02 0. -1.
    10030    2    1    2    0    0  0.00000000000E+00  0.00000000000E+00  0.14361245602E+04  0.34714801257E+04  0.31604937131E+04 0.  0.
        1    1    3    3  502    0 -0.10353840147E+04  0.79386200181E+03 -0.26126488104E+03  0.13305999677E+04  0.50400001928E-02 0. -1.
       -1    1    3    3    0  502  0.10353840147E+04 -0.79386200181E+03  0.16973894412E+04  0.21408801580E+04  0.50400001928E-02 0.  1.
</event>
<event>
 5   0  0.1538349E-06  0.3224644E+04  0.7818609E-02  0.8182339E-01
        2   -1    0    0  501    0  0.00000000000E+00  0.00000000000E+00  0.25137500472E+04  0.25137500472E+04  0.25500000920E-02 0. -1.
       -2   -1    0    0    0  501  0.00000000000E+00  0.00000000000E+00 -0.10341448178E+04  0.10341448178E+04  0.25500000920E-02 0.  1.
    10030    2    1    2    0    0  0.00000000000E+00  0.00000000000E+00  0.14796052294E+04  0.35478948650E+04  0.32246435987E+04 0.  0.
        1    1    3    3  502    0 -0.98108692986E+02  0.95771363713E+03  0.21627975451E+04  0.23673896907E+04  0.50400001928E-02 0. -1.
       -1    1    3    3    0  502  0.98108692986E+02 -0.95771363713E+03 -0.68319231570E+03  0.11805051743E+04  0.50400001928E-02 0.  1.
</event>
<event>
 5   0  0.4995625E-07  0.3203277E+04  0.7818609E-02  0.8187952E-01
       -3   -1    0    0    0  501  0.00000000000E+00  0.00000000000E+00  0.14272010429E+04  0.14272010465E+04  0.10100000352E+00 0.  1.
        3   -1    0    0  501    0  0.00000000000E+00  0.00000000000E+00 -0.17973958264E+04  0.17973958293E+04  0.10100000352E+00 0. -1.
    10030    2    1    2    0    0  0.00000000000E+00  0.00000000000E+00 -0.37019478354E+03  0.32245968757E+04  0.32032765777E+04 0.  0.
        3    1    3    3  502    0 -0.85879143606E+03 -0.82105846320E+03 -0.12662969979E+04  0.17364238618E+04  0.10100000352E+00 0. -1.
       -3    1    3    3    0  502  0.85879143606E+03  0.82105846320E+03  0.89610221436E+03  0.14881730139E+04  0.10100000352E+00 0.  1.
</event>
<event>
 5   0  0.5233813E-07  0.3188041E+04  0.7818609E-02  0.8191983E-01
        1   -1    0    0  501    0  0.00000000000E+00  0.00000000000E+00  0.20328772195E+04  0.20328772195E+04  0.50400001928E-02 0. -1.
       -1   -1    0    0    0  501  0.00000000000E+00  0.00000000000E+00 -0.12499036473E+04  0.12499036473E+04  0.50400001928E-02 0.  1.
    10030    2    1    2    0    0  0.00000000000E+00  0.00000000000E+00  0.78297357217E+03  0.32827808669E+04  0.31880405589E+04 0.  0.
        4    1    3    3  502    0  0.12921494637E+04 -0.88609125046E+02  0.13482916620E+04  0.18695972379E+04  0.12699999809E+01 0. -1.
       -4    1    3    3    0  502 -0.12921494637E+04  0.88609125046E+02 -0.56531808980E+03  0.14131836289E+04  0.12699999809E+01 0.  1.
</event>
<event>
 5   0  0.1572769E-06  0.3192139E+04  0.7818609E-02  0.8190896E-01
       -2   -1    0    0    0  501  0.00000000000E+00  0.00000000000E+00  0.33086508924E+04  0.33086508924E+04  0.25500000920E-02 0.  1.
        2   -1    0    0  501    0  0.00000000000E+00  0.00000000000E+00 -0.76993227817E+03  0.76993227817E+03  0.25500000920E-02 0. -1.
    10030    2    1    2    0    0  0.00000000000E+00  0.00000000000E+00  0.25387186143E+04  0.40785831706E+04  0.31921385429E+04 0.  0.
        5    1    3    3  502    0 -0.83529171332E+03 -0.73909454934E+03  0.27280843919E+04  0.29472766308E+04  0.46999998093E+01 0.  1.
       -5    1    3    3    0  502  0.83529171332E+03  0.73909454934E+03 -0.18936577765E+03  0.11313065398E+04  0.46999998093E+01 0. -1.
</event>
<event>
 5   0  0.5281187E-07  0.3182090E+04  0.7818609E-02  0.8193563E-01
        1   -1    0    0  501    0  0.00000000000E+00  0.00000000000E+00  0.23224368855E+04  0.23224368855E+04  0.50400001928E-02 0. -1.
       -1   -1    0    0    0  501  0.00000000000E+00  0.00000000000E+00 -0.10899864181E+04  0.10899864181E+04  0.50400001928E-02 0.  1.
    10030    2    1    2    0    0  0.00000000000E+00  0.00000000000E+00  0.12324504673E+04  0.34124233036E+04  0.31820902955E+04 0.  0.
        5    1    3    3  502    0  0.95312865554E+03  0.38971819918E+03  0.19168942161E+04  0.21759687577E+04  0.46999998093E+01 0. -1.
       -5    1    3    3    0  502 -0.95312865554E+03 -0.38971819918E+03 -0.68444374880E+03  0.12364545459E+04  0.46999998093E+01 0.  1.
</event>
<event>
 5   0  0.5317728E-07  0.3171691E+04  0.7818609E-02  0.8196334E-01
        1   -1    0    0  501    0  0.00000000000E+00  0.00000000000E+00  0.28454014449E+04  0.28454014449E+04  0.50400001928E-02 0. -1.
       -1   -1    0    0    0  501  0.00000000000E+00  0.00000000000E+00 -0.88384944731E+03  0.88384944733E+03  0.50400001928E-02 0.  1.
    10030    2    1    2    0    0  0.00000000000E+00  0.00000000000E+00  0.19615519976E+04  0.37292508922E+04  0.31716913434E+04 0.  0.
        2    1    3    3  502    0  0.85906527649E+03  0.13170739260E+03  0.25404489086E+04  0.26849991888E+04  0.25500000920E-02 0. -1.
       -2    1    3    3    0  502 -0.85906527649E+03 -0.13170739260E+03 -0.57889691102E+03  0.10442517034E+04  0.25500000920E-02 0.  1.
</event>
<event>
 5   0  0.1572769E-06  0.3200829E+04  0.7818609E-02  0.8188598E-01
       -2   -1    0    0    0  501  0.00000000000E+00  0.00000000000E+00  0.14266405149E+04  0.14266405149E+04  0.25500000920E-02 0.  1.
        2   -1    0    0  501    0  0.00000000000E+00  0.00000000000E+00 -0.17953553511E+04  0.17953553512E+04  0.25500000920E-02 0. -1.
    10030    2    1    2    0    0  0.00000000000E+00  0.00000000000E+00 -0.36871483622E+03  0.32219958661E+04  0.32008290693E+04 0.  0.
        5    1    3    3  502    0 -0.28081961302E+03 -0.58397798541E+03 -0.16573917908E+04  0.17795672454E+04  0.46999998093E+01 0. -1.
       -5    1    3    3    0  502  0.28081961302E+03  0.58397798541E+03  0.12886769546E+04  0.14424286207E+04  0.46999998093E+01 0.  1.
</event>
<event>
 5   0  0.1538349E-06  0.3204337E+04  0.7818609E-02  0.8187673E-01
       -2   -1    0    0    0  501  0.00000000000E+00  0.00000000000E+00  0.14753897870E+04  0.14753897870E+04  0.25500000920E-02 0. -1.
        2   -1    0    0  501    0  0.00000000000E+00  0.00000000000E+00 -0.17398407515E+04  0.17398407515E+04  0.25500000920E-02 0.  1.
    10030    2    1    2    0    0  0.00000000000E+00  0.00000000000E+00 -0.26445096448E+03  0.32152305385E+04  0.32043366089E+04 0.  0.
        1    1    3    3  502    0  0.34769308999E+03 -0.15028849882E+04 -0.56658227359E+03  0.16433408793E+04  0.50400001928E-02 0.  1.
       -1    1    3    3    0  502 -0.34769308999E+03  0.15028849882E+04  0.30213130910E+03  0.15718896592E+04  0.50400001928E-02 0. -1.
</event>
<event>
 5   0  0.5317728E-07  0.3196985E+04  0.7818609E-02  0.8189614E-01
        1   -1    0    0  501    0  0.00000000000E+00  0.00000000000E+00  0.21853441568E+04  0.21853441568E+04  0.50400001928E-02 0. -1.
       -1   -1    0    0    0  501  0.00000000000E+00  0.00000000000E+00 -0.11692338520E+04  0.11692338520E+04  0.50400001928E-02 0.  1.
    10030    2    1    2    0    0  0.00000000000E+00  0.00000000000E+00  0.10161103048E+04  0.33545780089E+04  0.31969850588E+04 0.  0.
        2    1    3    3  502    0 -0.77229465329E+03  0.72398625360E+03 -0.74872746502E+03  0.12966063180E+04  0.25500000920E-02 0.  1.
       -2    1    3    3    0  502  0.77229465329E+03 -0.72398625360E+03  0.17648377698E+04  0.20579716909E+04  0.25500000920E-02 0. -1.
</event>
<event>
 5   0  0.5281187E-07  0.3188364E+04  0.7818609E-02  0.8191897E-01
       -1   -1    0    0    0  501  0.00000000000E+00  0.00000000000E+00  0.13480811862E+04  0.13480811862E+04  0.50400001928E-02 0.  1.
        1   -1    0    0  501    0  0.00000000000E+00  0.00000000000E+00 -0.18852095551E+04  0.18852095551E+04  0.50400001928E-02 0. -1.
    10030    2    1    2    0    0  0.00000000000E+00  0.00000000000E+00 -0.53712836893E+03  0.32332907413E+04  0.31883635510E+04 0.  0.
        5    1    3    3  502    0  0.11538068403E+04  0.77786530590E+03 -0.10573736608E+04  0.17476858434E+04  0.46999998093E+01 0. -1.
       -5    1    3    3    0  502 -0.11538068403E+04 -0.77786530590E+03  0.52024529182E+03  0.14856048979E+04  0.46999998093E+01 0.  1.
</event>
<event>
 5   0  0.5177039E-07  0.3202653E+04  0.7818609E-02  0.8188117E-01
       -1   -1    0    0    0  501  0.00000000000E+00  0.00000000000E+00  0.17311805988E+04  0.17311805988E+04  0.50400001928E-02 0. -1.
        1   -1    0    0  501    0  0.00000000000E+00  0.00000000000E+00 -0.14812123762E+04  0.14812123762E+04  0.50400001928E-02 0.  1.
    10030    2    1    2    0    0  0.00000000000E+00  0.00000000000E+00  0.24996822261E+03  0.32123929750E+04  0.32026527307E+04 0.  0.
        3    1    3    3  502    0  0.33069909898E+03 -0.47082287654E+03  0.16239218837E+04  0.17228344000E+04  0.10100000352E+00 0. -1.
       -3    1    3    3    0  502 -0.33069909898E+03  0.47082287654E+03 -0.13739536611E+04  0.14895585750E+04  0.10100000352E+00 0.  1.
</event>
<event>
 5   0  0.5177039E-07  0.3187359E+04  0.7818609E-02  0.8192163E-01
       -1   -1    0    0    0  501  0.00000000000E+00  0.00000000000E+00  0.17084686953E+04  0.17084686953E+04  0.50400001928E-02 0. -1.
        1   -1    0    0  501    0  0.00000000000E+00  0.00000000000E+00 -0.14866032638E+04  0.14866032638E+04  0.50400001928E-02 0.  1.
    10030    2    1    2    0    0  0.00000000000E+00  0.00000000000E+00  0.22186543149E+03  0.31950719592E+04  0.31873594957E+04 0.  0.
        3    1    3    3  502    0  0.13093901652E+04 -0.17406290801E+03 -0.78286070626E+03  0.15354710666E+04  0.10100000352E+00 0.  1.
       -3    1    3    3    0  502 -0.13093901652E+04  0.17406290801E+03  0.10047261377E+04  0.16596008926E+04  0.10100000352E+00 0. -1.
</event>
<event>
 5   0  0.5281187E-07  0.3189961E+04  0.7818609E-02  0.8191473E-01
       -1   -1    0    0    0  501  0.00000000000E+00  0.00000000000E+00  0.12660575129E+04  0.12660575129E+04  0.50400001928E-02 0. -1.
        1   -1    0    0  501    0  0.00000000000E+00  0.00000000000E+00 -0.20093584694E+04  0.20093584694E+04  0.50400001928E-02 0.  1.
    10030    2    1    2    0    0  0.00000000000E+00  0.00000000000E+00 -0.74330095649E+03  0.32754159822E+04  0.31899613704E+04 0.  0.
        5    1    3    3  502    0  0.63229236443E+03 -0.11734802157E+04 -0.12709507464E+04  0.18417891683E+04  0.46999998093E+01 0.  1.
       -5    1    3    3    0  502 -0.63229236443E+03  0.11734802157E+04  0.52764978995E+03  0.14336268139E+04  0.46999998093E+01 0. -1.
</event>
<event>
 5   0  0.5233813E-07  0.3097304E+04  0.7818609E-02  0.8216478E-01
       -1   -1    0    0    0  501  0.00000000000E+00  0.00000000000E+00  0.12431245659E+04  0.12431245659E+04  0.50400001928E-02 0. -1.
        1   -1    0    0  501    0  0.00000000000E+00  0.00000000000E+00 -0.19292704829E+04  0.19292704829E+04  0.50400001928E-02 0.  1.
    10030    2    1    2    0    0  0.00000000000E+00  0.00000000000E+00 -0.68614591700E+03  0.31723950488E+04  0.30973043321E+04 0.  0.
        4    1    3    3  502    0  0.74962605218E+03 -0.29528659552E+03  0.10115601734E+04  0.12932087956E+04  0.12699999809E+01 0. -1.
       -4    1    3    3    0  502 -0.74962605218E+03  0.29528659552E+03 -0.16977060905E+04  0.18791862532E+04  0.12699999809E+01 0.  1.
</event>
<event>
 5   0  0.5281187E-07  0.3212394E+04  0.7818609E-02  0.8185552E-01
        1   -1    0    0  501    0  0.00000000000E+00  0.00000000000E+00  0.14011263873E+04  0.14011263873E+04  0.50400001928E-02 0. -1.
       -1   -1    0    0    0  501  0.00000000000E+00  0.00000000000E+00 -0.18412821693E+04  0.18412821693E+04  0.50400001928E-02 0.  1.
    10030    2    1    2    0    0  0.00000000000E+00  0.00000000000E+00 -0.44015578195E+03  0.32424085566E+04  0.32123941439E+04 0.  0.
        5    1    3    3  502    0 -0.15424694410E+04 -0.33639512672E+03  0.78444308453E+02  0.15806799983E+04  0.46999998093E+01 0. -1.
       -5    1    3    3    0  502  0.15424694410E+04  0.33639512672E+03 -0.51860009040E+03  0.16617285583E+04  0.46999998093E+01 0.  1.
</event>
<event>
 5   0  0.1508771E-06  0.3175756E+04  0.7818609E-02  0.8195249E-01
        2   -1    0    0  501    0  0.00000000000E+00  0.00000000000E+00  0.20171541074E+04  0.20171541074E+04  0.25500000920E-02 0. -1.
       -2   -1    0    0    0  501  0.00000000000E+00  0.00000000000E+00 -0.12499573961E+04  0.12499573961E+04  0.25500000920E-02 0.  1.
    10030    2    1    2    0    0  0.00000000000E+00  0.00000000000E+00  0.76719671124E+03  0.32671115035E+04  0.31757560962E+04 0.  0.
        4    1    3    3  502    0  0.10972786131E+03  0.13569207978E+04 -0.45727641212E+03  0.14360980416E+04  0.12699999809E+01 0.  1.
       -4    1    3    3    0  502 -0.10972786131E+03 -0.13569207978E+04  0.12244731234E+04  0.18310134619E+04  0.12699999809E+01 0. -1.
</event>
<event>
 5   0  0.5281187E-07  0.3201048E+04  0.7818609E-02  0.8188541E-01
       -1   -1    0    0    0  501  0.00000000000E+00  0.00000000000E+00  0.18252235799E+04  0.18252235799E+04  0.50400001928E-02 0.  1.
        1   -1    0    0  501    0  0.00000000000E+00  0.00000000000E+00 -0.14034863281E+04  0.14034863281E+04  0.50400001928E-02 0. -1.
    10030    2    1    2    0    0  0.00000000000E+00  0.00000000000E+00  0.42173725173E+03  0.32287099080E+04  0.32010475411E+04 0.  0.
        5    1    3    3  502    0  0.47618197513E+03  0.89481200735E+03 -0.10384701500E+04  0.14511650990E+04  0.46999998093E+01 0. -1.
       -5    1    3    3    0  502 -0.47618197513E+03 -0.89481200735E+03  0.14602074018E+04  0.17775448090E+04  0.46999998093E+01 0.  1.
</event>
<event>
 5   0  0.1556396E-06  0.3205545E+04  0.7818609E-02  0.8187354E-01
       -2   -1    0    0    0  501  0.00000000000E+00  0.00000000000E+00  0.10157809778E+04  0.10157809778E+04  0.25500000920E-02 0.  1.
        2   -1    0    0  501    0  0.00000000000E+00  0.00000000000E+00 -0.25289707524E+04  0.25289707524E+04  0.25500000920E-02 0. -1.
    10030    2    1    2    0    0  0.00000000000E+00  0.00000000000E+00 -0.15131897745E+04  0.35447517302E+04  0.32055454349E+04 0.  0.
        3    1    3    3  502    0 -0.12647373346E+04 -0.26573923353E+03  0.29172026488E+03  0.13248692724E+04  0.10100000352E+00 0.  1.
       -3    1    3    3    0  502  0.12647373346E+04  0.26573923353E+03 -0.18049100394E+04  0.22198824578E+04  0.10100000352E+00 0. -1.
</event>
<event>
 5   0  0.1556396E-06  0.3177790E+04  0.7818609E-02  0.8194708E-01
       -2   -1    0    0    0  501  0.00000000000E+00  0.00000000000E+00  0.96079255117E+03  0.96079255117E+03  0.25500000920E-02 0. -1.
        2   -1    0    0  501    0  0.00000000000E+00  0.00000000000E+00 -0.26276087639E+04  0.26276087639E+04  0.25500000920E-02 0.  1.
    10030    2    1    2    0    0  0.00000000000E+00  0.00000000000E+00 -0.16668162128E+04  0.35884013151E+04  0.31777897525E+04 0.  0.
        3    1    3    3  502    0 -0.77634345561E+02 -0.31367757036E+03 -0.25901115122E+04  0.26101912508E+04  0.10100000352E+00 0.  1.
       -3    1    3    3    0  502  0.77634345561E+02  0.31367757036E+03  0.92329529945E+03  0.97821006433E+03  0.10100000352E+00 0. -1.
</event>
<event>
 5   0  0.5317728E-07  0.3341907E+04  0.7818609E-02  0.8152313E-01
       -1   -1    0    0    0  501  0.00000000000E+00  0.00000000000E+00  0.19144770440E+04  0.19144770440E+04  0.50400001928E-02 0. -1.
        1   -1    0    0  501    0  0.00000000000E+00  0.00000000000E+00 -0.14584063279E+04  0.14584063279E+04  0.50400001928E-02 0.  1.
    10030    2    1    2    0    0  0.00000000000E+00  0.00000000000E+00  0.45607071614E+03  0.33728833719E+04  0.33419069021E+04 0.  0.
        2    1    3    3  502    0 -0.14775193976E+04 -0.16223435543E+03 -0.54238932156E+03  0.15822672759E+04  0.25500000920E-02 0.  1.
       -2    1    3    3    0  502  0.14775193976E+04  0.16223435543E+03  0.99846003769E+03  0.17906160960E+04  0.25500000920E-02 0. -1.
</event>
<event>
 5   0  0.1572769E-06  0.3189108E+04  0.7818609E-02  0.8191700E-01
       -2   -1    0    0    0  501  0.00000000000E+00  0.00000000000E+00  0.87472196448E+03  0.87472196448E+03  0.25500000920E-02 0. -1.
        2   -1    0    0  501    0  0.00000000000E+00  0.00000000000E+00 -0.29067549416E+04  0.29067549416E+04  0.25500000920E-02 0.  1.
    10030    2    1    2    0    0  0.00000000000E+00  0.00000000000E+00 -0.20320329771E+04  0.37814769060E+04  0.31891079585E+04 0.  0.
        5    1    3    3  502    0 -0.96898460930E+03 -0.49811936377E+03  0.36451460883E+03  0.11488894915E+04  0.46999998093E+01 0. -1.
       -5    1    3    3    0  502  0.96898460930E+03  0.49811936377E+03 -0.23965475859E+04  0.26325874145E+04  0.46999998093E+01 0.  1.
</event>
<event>
 5   0  0.5281187E-07  0.3235989E+04  0.7818609E-02  0.8179377E-01
       -1   -1    0    0    0  501  0.00000000000E+00  0.00000000000E+00  0.10770503010E+04  0.10770503010E+04  0.50400001928E-02 0.  1.
        1   -1    0    0  501    0  0.00000000000E+00  0.00000000000E+00 -0.24306259331E+04  0.24306259331E+04  0.50400001928E-02 0. -1.
    10030    2    1    2    0    0  0.00000000000E+00  0.00000000000E+00 -0.13535756321E+04  0.35076762342E+04  0.32359891180E+04 0.  0.
        5    1    3    3  502    0 -0.32765703355E+03 -0.65655567837E+03 -0.22398912371E+04  0.23570234056E+04  0.46999998093E+01 0. -1.
       -5    1    3    3    0  502  0.32765703355E+03  0.65655567837E+03  0.88631560495E+03  0.11506528286E+04  0.46999998093E+01 0.  1.
</event>
<event>
 5   0  0.5317728E-07  0.3200510E+04  0.7818609E-02  0.8188683E-01
        1   -1    0    0  501    0  0.00000000000E+00  0.00000000000E+00  0.19177020017E+04  0.19177020017E+04  0.50400001928E-02 0.  1.
       -1   -1    0    0    0  501  0.00000000000E+00  0.00000000000E+00 -0.13353564585E+04  0.13353564585E+04  0.50400001928E-02 0. -1.
    10030    2    1    2    0    0  0.00000000000E+00  0.00000000000E+00  0.58234554325E+03  0.32530584602E+04  0.32005098053E+04 0.  0.
        2    1    3    3  502    0 -0.61450956176E+02  0.15930301537E+04  0.43235793151E+03  0.16518034604E+04  0.25500000920E-02 0. -1.
       -2    1    3    3    0  502  0.61450956176E+02 -0.15930301537E+04  0.14998761174E+03  0.16012549998E+04  0.25500000920E-02 0.  1.
</event>
<event>
 5   0  0.1572769E-06  0.3208390E+04  0.7818609E-02  0.8186605E-01
       -2   -1    0    0    0  501  0.00000000000E+00  0.00000000000E+00  0.19022317667E+04  0.19022317667E+04  0.25500000920E-02 0.  1.
        2   -1    0    0  501    0  0.00000000000E+00  0.00000000000E+00 -0.13528540459E+04  0.13528540459E+04  0.25500000920E-02 0. -1.
    10030    2    1    2    0    0  0.00000000000E+00  0.00000000000E+00  0.54937772086E+03  0.32550858126E+04  0.32083902143E+04 0.  0.
        5    1    3    3  502    0 -0.15742341572E+04  0.29657244487E+03  0.36108370695E+03  0.16421242128E+04  0.46999998093E+01 0.  1.
       -5    1    3    3    0  502  0.15742341572E+04 -0.29657244487E+03  0.18829401392E+03  0.16129615998E+04  0.46999998093E+01 0. -1.
</event>
<event>
 5   0  0.1538349E-06  0.3210787E+04  0.7818609E-02  0.8185974E-01
        2   -1    0    0  501    0  0.00000000000E+00  0.00000000000E+00  0.19363429921E+04  0.19363429921E+04  0.25500000920E-02 0.  1.
       -2   -1    0    0    0  501  0.00000000000E+00  0.00000000000E+00 -0.13310084109E+04  0.13310084109E+04  0.25500000920E-02 0. -1.
    10030    2    1    2    0    0  0.00000000000E+00  0.00000000000E+00  0.60533458119E+03  0.32673514030E+04  0.32107873233E+04 0.  0.
        1    1    3    3  502    0  0.43969002618E+03  0.12293153369E+04 -0.64799893073E+03  0.14575479858E+04  0.50400001928E-02 0. -1.
       -1    1    3    3    0  502 -0.43969002618E+03 -0.12293153369E+04  0.12533335119E+04  0.18098034172E+04  0.50400001928E-02 0.  1.
</event>
<event>
 5   0  0.5317728E-07  0.3208605E+04  0.7818609E-02  0.8186548E-01
       -1   -1    0    0    0  501  0.00000000000E+00  0.00000000000E+00  0.12662654242E+04  0.12662654242E+04  0.50400001928E-02 0.  1.
        1   -1    0    0  501    0  0.00000000000E+00  0.00000000000E+00 -0.20325808651E+04  0.20325808651E+04  0.50400001928E-02 0. -1.
    10030    2    1    2    0    0  0.00000000000E+00  0.00000000000E+00 -0.76631544088E+03  0.32988462893E+04  0.32086052243E+04 0.  0.
        2    1    3    3  502    0  0.56147335711E+03 -0.85059718721E+02  0.11594745778E+04  0.12910727257E+04  0.25500000920E-02 0.  1.
       -2    1    3    3    0  502 -0.56147335711E+03  0.85059718721E+02 -0.19257900187E+04  0.20077735636E+04  0.25500000920E-02 0. -1.
</event>
<event>
 5   0  0.1538349E-06  0.3182772E+04  0.7818609E-02  0.8193382E-01
       -2   -1    0    0    0  501  0.00000000000E+00  0.00000000000E+00  0.13498394019E+04  0.13498394019E+04  0.25500000920E-02 0. -1.
        2   -1    0    0  501    0  0.00000000000E+00  0.00000000000E+00 -0.18761563267E+04  0.18761563267E+04  0.25500000920E-02 0.  1.
    10030    2    1    2    0    0  0.00000000000E+00  0.00000000000E+00 -0.52631692485E+03  0.32259957286E+04  0.31827722092E+04 0.  0.
        1    1    3    3  502    0 -0.10761590862E+04  0.93495035664E+03 -0.98005381780E+03  0.17299583908E+04  0.50400001928E-02 0.  1.
       -1    1    3    3    0  502  0.10761590862E+04 -0.93495035664E+03  0.45373689295E+03  0.14960373378E+04  0.50400001928E-02 0. -1.
</event>
<event>
 5   0  0.5233813E-07  0.3282828E+04  0.7818609E-02  0.8167278E-01
       -1   -1    0    0    0  501  0.00000000000E+00  0.00000000000E+00  0.16793185508E+04  0.16793185508E+04  0.50400001928E-02 0.  1.
        1   -1    0    0  501    0  0.00000000000E+00  0.00000000000E+00 -0.16043653700E+04  0.16043653700E+04  0.50400001928E-02 0. -1.
    10030    2    1    2    0    0  0.00000000000E+00  0.00000000000E+00  0.74953180745E+02  0.32836839208E+04  0.32828283708E+04 0.  0.
        4    1    3    3  502    0  0.12533139945E+04 -0.66362149395E+03 -0.78920686156E+03  0.16229721314E+04  0.12699999809E+01 0. -1.
       -4    1    3    3    0  502 -0.12533139945E+04  0.66362149395E+03  0.86416004231E+03  0.16607117894E+04  0.12699999809E+01 0.  1.
</event>
<event>
 5   0  0.1556396E-06  0.3203301E+04  0.7818609E-02  0.8187946E-01
        2   -1    0    0  501    0  0.00000000000E+00  0.00000000000E+00  0.90548027489E+03  0.90548027489E+03  0.25500000920E-02 0. -1.
       -2   -1    0    0    0  501  0.00000000000E+00  0.00000000000E+00 -0.28330640322E+04  0.28330640322E+04  0.25500000920E-02 0.  1.
    10030    2    1    2    0    0  0.00000000000E+00  0.00000000000E+00 -0.19275837573E+04  0.37385443071E+04  0.32033005471E+04 0.  0.
        3    1    3    3  502    0  0.59632879811E+03 -0.14864263446E+04 -0.98079601220E+03  0.18780394407E+04  0.10100000352E+00 0.  1.
       -3    1    3    3    0  502 -0.59632879811E+03  0.14864263446E+04 -0.94678774513E+03  0.18605048664E+04  0.10100000352E+00 0. -1.
</event>
<event>
 5   0  0.5233813E-07  0.3176245E+04  0.7818609E-02  0.8195119E-01
        1   -1    0    0  501    0  0.00000000000E+00  0.00000000000E+00  0.12826465800E+04  0.12826465800E+04  0.50400001928E-02 0.  1.
       -1   -1    0    0    0  501  0.00000000000E+00  0.00000000000E+00 -0.19663509264E+04  0.19663509264E+04  0.50400001928E-02 0. -1.
    10030    2    1    2    0    0  0.00000000000E+00  0.00000000000E+00 -0.68370434635E+03  0.32489975064E+04  0.31762451359E+04 0.  0.
        4    1    3    3  502    0  0.61973848156E+03 -0.12927972392E+02 -0.18374950847E+04  0.19392350856E+04  0.12699999809E+01 0. -1.
       -4    1    3    3    0  502 -0.61973848156E+03  0.12927972392E+02  0.11537907384E+04  0.13097624208E+04  0.12699999809E+01 0.  1.
</event>
<event>
 5   0  0.1556396E-06  0.3213499E+04  0.7818609E-02  0.8185261E-01
        2   -1    0    0  501    0  0.00000000000E+00  0.00000000000E+00  0.16891928334E+04  0.16891928334E+04  0.25500000920E-02 0. -1.
       -2   -1    0    0    0  501  0.00000000000E+00  0.00000000000E+00 -0.15283297925E+04  0.15283297925E+04  0.25500000920E-02 0.  1.
    10030    2    1    2    0    0  0.00000000000E+00  0.00000000000E+00  0.16086304096E+03  0.32175226259E+04  0.32134988611E+04 0.  0.
        3    1    3    3  502    0  0.14149341093E+04  0.64197366964E+03  0.49018103503E+03  0.16292471217E+04  0.10100000352E+00 0. -1.
       -3    1    3    3    0  502 -0.14149341093E+04 -0.64197366964E+03 -0.32931799407E+03  0.15882755043E+04  0.10100000352E+00 0.  1.
</event>
<event>
 5   0  0.1508771E-06  0.3208576E+04  0.7818609E-02  0.8186556E-01
       -2   -1    0    0    0  501  0.00000000000E+00  0.00000000000E+00  0.19800256291E+04  0.19800256291E+04  0.25500000920E-02 0. -1.
        2   -1    0    0  501    0  0.00000000000E+00  0.00000000000E+00 -0.12998515768E+04  0.12998515768E+04  0.25500000920E-02 0.  1.
    10030    2    1    2    0    0  0.00000000000E+00  0.00000000000E+00  0.68017405225E+03  0.32798772059E+04  0.32085756566E+04 0.  0.
        4    1    3    3  502    0  0.13644732529E+04  0.68416605206E+03  0.84489029114E+03  0.17446236447E+04  0.12699999809E+01 0. -1.
       -4    1    3    3    0  502 -0.13644732529E+04 -0.68416605206E+03 -0.16471623890E+03  0.15352535612E+04  0.12699999809E+01 0.  1.
</event>
<event>
 5   0  0.1493485E-06  0.3178366E+04  0.7818609E-02  0.8194554E-01
       -2   -1    0    0    0  501  0.00000000000E+00  0.00000000000E+00  0.12155122479E+04  0.12155122479E+04  0.25500000920E-02 0. -1.
        2   -1    0    0  501    0  0.00000000000E+00  0.00000000000E+00 -0.20777275657E+04  0.20777275657E+04  0.25500000920E-02 0.  1.
    10030    2    1    2    0    0  0.00000000000E+00  0.00000000000E+00 -0.86221531784E+03  0.32932398136E+04  0.31783664382E+04 0.  0.
        2    1    3    3  502    0 -0.46081070363E+03 -0.11151246176E+04  0.64051287739E+03  0.13660549636E+04  0.25500000920E-02 0.  1.
       -2    1    3    3    0  502  0.46081070363E+03  0.11151246176E+04 -0.15027281952E+04  0.19271848500E+04  0.25500000920E-02 0. -1.
</event>
<event>
 5   0  0.1493485E-06  0.3193683E+04  0.7818609E-02  0.8190487E-01
       -2   -1    0    0    0  501  0.00000000000E+00  0.00000000000E+00  0.21331733908E+04  0.21331733908E+04  0.25500000920E-02 0.  1.
        2   -1    0    0  501    0  0.00000000000E+00  0.00000000000E+00 -0.11953564669E+04  0.11953564669E+04  0.25500000920E-02 0. -1.
    10030    2    1    2    0    0  0.00000000000E+00  0.00000000000E+00  0.93781692381E+03  0.33285298577E+04  0.31936828946E+04 0.  0.
        2    1    3    3  502    0  0.15390635109E+04 -0.23113309044E+03  0.96375886409E+02  0.15593034687E+04  0.25500000920E-02 0. -1.
       -2    1    3    3    0  502 -0.15390635109E+04  0.23113309044E+03  0.84144103740E+03  0.17692263890E+04  0.25500000920E-02 0.  1.
</event>
<event>
 5   0  0.5233813E-07  0.3139112E+04  0.7818609E-02  0.8205085E-01
       -1   -1    0    0    0  501  0.00000000000E+00  0.00000000000E+00  0.15075613549E+04  0.15075613549E+04  0.50400001928E-02 0.  1.
        1   -1    0    0  501    0  0.00000000000E+00  0.00000000000E+00 -0.16341002538E+04  0.16341002538E+04  0.50400001928E-02 0. -1.
    10030    2    1    2    0    0  0.00000000000E+00  0.00000000000E+00 -0.12653889892E+03  0.31416616087E+04  0.31391122266E+04 0.  0.
        4    1    3    3  502    0 -0.21312975228E+03 -0.14847562967E+04 -0.52579110195E+03  0.15894601120E+04  0.12699999809E+01 0. -1.
       -4    1    3    3    0  502  0.21312975228E+03  0.14847562967E+04  0.39925220303E+03  0.15522014967E+04  0.12699999809E+01 0.  1.
</event>
<event>
 5   0  0.1493485E-06  0.3269612E+04  0.7818609E-02  0.8170671E-01
       -2   -1    0    0    0  501  0.00000000000E+00  0.00000000000E+00  0.16225113654E+04  0.16225113654E+04  0.25500000920E-02 0. -1.
        2   -1    0    0  501    0  0.00000000000E+00  0.00000000000E+00 -0.16471939459E+04  0.16471939459E+04  0.25500000920E-02 0.  1.
    10030    2    1    2    0    0  0.00000000000E+00  0.00000000000E+00 -0.24682580494E+02  0.32697053114E+04  0.32696121472E+04 0.  0.
        2    1    3    3  502    0 -0.27203140306E+03 -0.12703433655E+04 -0.10047493067E+04  0.16423442148E+04  0.25500000920E-02 0.  1.
       -2    1    3    3    0  502  0.27203140306E+03  0.12703433655E+04  0.98006672625E+03  0.16273610965E+04  0.25500000920E-02 0. -1.
</event>
<event>
 5   0  0.1572769E-06  0.3506405E+04  0.7818609E-02  0.8112274E-01
        2   -1    0    0  501    0  0.00000000000E+00  0.00000000000E+00  0.10810555459E+04  0.10810555459E+04  0.25500000920E-02 0. -1.
       -2   -1    0    0    0  501  0.00000000000E+00  0.00000000000E+00 -0.28432564765E+04  0.28432564765E+04  0.25500000920E-02 0.  1.
    10030    2    1    2    0    0  0.00000000000E+00  0.00000000000E+00 -0.17622009307E+04  0.39243120224E+04  0.35064045302E+04 0.  0.
        5    1    3    3  502    0 -0.14369011850E+04 -0.16742754048E+03  0.22738853650E+03  0.14643922403E+04  0.46999998093E+01 0. -1.
       -5    1    3    3    0  502  0.14369011850E+04  0.16742754048E+03 -0.19895894672E+04  0.24599197822E+04  0.46999998093E+01 0.  1.
</event>
<event>
 5   0  0.1572769E-06  0.3225005E+04  0.7818609E-02  0.8182245E-01
       -2   -1    0    0    0  501  0.00000000000E+00  0.00000000000E+00  0.97264723849E+03  0.97264723850E+03  0.25500000920E-02 0. -1.
        2   -1    0    0  501    0  0.00000000000E+00  0.00000000000E+00 -0.26732855711E+04  0.26732855711E+04  0.25500000920E-02 0.  1.
    10030    2    1    2    0    0  0.00000000000E+00  0.00000000000E+00 -0.17006383326E+04  0.36459328096E+04  0.32250046998E+04 0.  0.
        5    1    3    3  502    0 -0.24438387441E+03 -0.12613398322E+04  0.25125081221E+03  0.13091412113E+04  0.46999998093E+01 0. -1.
       -5    1    3    3    0  502  0.24438387441E+03  0.12613398322E+04 -0.19518891448E+04  0.23367915983E+04  0.46999998093E+01 0.  1.
</event>
<event>
 5   0  0.1556396E-06  0.3200374E+04  0.7818609E-02  0.8188718E-01
        2   -1    0    0  501    0  0.00000000000E+00  0.00000000000E+00  0.13109478625E+04  0.13109478625E+04  0.25500000920E-02 0. -1.
       -2   -1    0    0    0  501  0.00000000000E+00  0.00000000000E+00 -0.19532426018E+04  0.19532426018E+04  0.25500000920E-02 0.  1.
    10030    2    1    2    0    0  0.00000000000E+00  0.00000000000E+00 -0.64229473929E+03  0.32641904644E+04  0.32003744868E+04 0.  0.
        3    1    3    3  502    0  0.13983881056E+04 -0.75992220033E+03 -0.15161576660E+03  0.15987364996E+04  0.10100000352E+00 0. -1.
       -3    1    3    3    0  502 -0.13983881056E+04  0.75992220033E+03 -0.49067897269E+03  0.16654539648E+04  0.10100000352E+00 0.  1.
</event>
<event>
 5   0  0.5281187E-07  0.3152257E+04  0.7818609E-02  0.8201541E-01
       -1   -1    0    0    0  501  0.00000000000E+00  0.00000000000E+00  0.10789034634E+04  0.10789034634E+04  0.50400001928E-02 0.  1.
        1   -1    0    0  501    0  0.00000000000E+00  0.00000000000E+00 -0.23025051387E+04  0.23025051387E+04  0.50400001928E-02 0. -1.
    10030    2    1    2    0    0  0.00000000000E+00  0.00000000000E+00 -0.12236016753E+04  0.33814086021E+04  0.31522568224E+04 0.  0.
        5    1    3    3  502    0 -0.11862919568E+04 -0.97721909624E+03 -0.23725850703E+03  0.15551718419E+04  0.46999998093E+01 0.  1.
       -5    1    3    3    0  502  0.11862919568E+04  0.97721909624E+03 -0.98634316825E+03  0.18262367602E+04  0.46999998093E+01 0. -1.
</event>
<event>
 5   0  0.5370912E-07  0.3196357E+04  0.7818609E-02  0.8189780E-01
        1   -1    0    0  501    0  0.00000000000E+00  0.00000000000E+00  0.90020418042E+03  0.90020418043E+03  0.50400001928E-02 0. -1.
       -1   -1    0    0    0  501  0.00000000000E+00  0.00000000000E+00 -0.28373271398E+04  0.28373271398E+04  0.50400001928E-02 0.  1.
    10030    2    1    2    0    0  0.00000000000E+00  0.00000000000E+00 -0.19371229593E+04  0.37375313202E+04  0.31963565211E+04 0.  0.
        1    1    3    3  502    0  0.14816882511E+04 -0.24020544354E+03 -0.32695758585E+03  0.15362291468E+04  0.50400001928E-02 0. -1.
       -1    1    3    3    0  502 -0.14816882511E+04  0.24020544354E+03 -0.16101653735E+04  0.22013021734E+04  0.50400001928E-02 0.  1.
</event>
<event>
 5   0  0.1556396E-06  0.3205414E+04  0.7818609E-02  0.8187389E-01
       -2   -1    0    0    0  501  0.00000000000E+00  0.00000000000E+00  0.13700595312E+04  0.13700595312E+04  0.25500000920E-02 0. -1.
        2   -1    0    0  501    0  0.00000000000E+00  0.00000000000E+00 -0.18748595911E+04  0.18748595911E+04  0.25500000920E-02 0.  1.
    10030    2    1    2    0    0  0.00000000000E+00  0.00000000000E+00 -0.50480005989E+03  0.32449191223E+04  0.32054137034E+04 0.  0.
        3    1    3    3  502    0  0.52803475840E+03 -0.39917776798E+03 -0.17300144890E+04  0.18523265746E+04  0.10100000352E+00 0.  1.
       -3    1    3    3    0  502 -0.52803475840E+03  0.39917776798E+03  0.12252144291E+04  0.13925925477E+04  0.10100000352E+00 0. -1.
</event>
<event>
 5   0  0.5317728E-07  0.3183950E+04  0.7818609E-02  0.8193069E-01
        1   -1    0    0  501    0  0.00000000000E+00  0.00000000000E+00  0.16123048024E+04  0.16123048024E+04  0.50400001928E-02 0.  1.
       -1   -1    0    0    0  501  0.00000000000E+00  0.00000000000E+00 -0.15719015243E+04  0.15719015243E+04  0.50400001928E-02 0. -1.
    10030    2    1    2    0    0  0.00000000000E+00  0.00000000000E+00  0.40403278061E+02  0.31842063267E+04  0.31839499849E+04 0.  0.
        2    1    3    3  502    0 -0.13210949365E+04 -0.39856340581E+03  0.81414196616E+03  0.16021771939E+04  0.25500000920E-02 0.  1.
       -2    1    3    3    0  502  0.13210949365E+04  0.39856340581E+03 -0.77373868810E+03  0.15820291328E+04  0.25500000920E-02 0. -1.
</event>
<event>
 5   0  0.1508771E-06  0.3191903E+04  0.7818609E-02  0.8190959E-01
        2   -1    0    0  501    0  0.00000000000E+00  0.00000000000E+00  0.17107957596E+04  0.17107957596E+04  0.25500000920E-02 0. -1.
       -2   -1    0    0    0  501  0.00000000000E+00  0.00000000000E+00 -0.14888170100E+04  0.14888170100E+04  0.25500000920E-02 0.  1.
    10030    2    1    2    0    0  0.00000000000E+00  0.00000000000E+00  0.22197874965E+03  0.31996127696E+04  0.31919033992E+04 0.  0.
        4    1    3    3  502    0 -0.11989445166E+04 -0.37106251596E+03 -0.87724410095E+03  0.15312459535E+04  0.12699999809E+01 0.  1.
       -4    1    3    3    0  502  0.11989445166E+04  0.37106251596E+03  0.10992228506E+04  0.16683668160E+04  0.12699999809E+01 0. -1.
</event>
<event>
 5   0  0.5233813E-07  0.3168997E+04  0.7818609E-02  0.8197053E-01
       -1   -1    0    0    0  501  0.00000000000E+00  0.00000000000E+00  0.19510716972E+04  0.19510716972E+04  0.50400001928E-02 0. -1.
        1   -1    0    0  501    0  0.00000000000E+00  0.00000000000E+00 -0.12867979033E+04  0.12867979033E+04  0.50400001928E-02 0.  1.
    10030    2    1    2    0    0  0.00000000000E+00  0.00000000000E+00  0.66427379390E+03  0.32378696004E+04  0.31689966671E+04 0.  0.
        4    1    3    3  502    0 -0.93412848481E+03 -0.23657587181E+02 -0.97531362324E+03  0.13507012935E+04  0.12699999809E+01 0.  1.
       -4    1    3    3    0  502  0.93412848481E+03  0.23657587181E+02  0.16395874171E+04  0.18871683070E+04  0.12699999809E+01 0. -1.
</event>
<event>
 5   0  0.1508771E-06  0.3171349E+04  0.7818609E-02  0.8196425E-01
       -2   -1    0    0    0  501  0.00000000000E+00  0.00000000000E+00  0.13810110568E+04  0.13810110568E+04  0.25500000920E-02 0.  1.
        2   -1    0    0  501    0  0.00000000000E+00  0.00000000000E+00 -0.18206682505E+04  0.18206682506E+04  0.25500000920E-02 0. -1.
    10030    2    1    2    0    0  0.00000000000E+00  0.00000000000E+00 -0.43965719379E+03  0.32016793073E+04  0.31713485994E+04 0.  0.
        4    1    3    3  502    0 -0.32746743775E+03  0.51823631611E+03 -0.16961955626E+04  0.18035755603E+04  0.12699999809E+01 0. -1.
       -4    1    3    3    0  502  0.32746743775E+03 -0.51823631611E+03  0.12565383688E+04  0.13981037470E+04  0.12699999809E+01 0.  1.
</event>
<event>
 5   0  0.1538349E-06  0.3209083E+04  0.7818609E-02  0.8186423E-01
        2   -1    0    0  501    0  0.00000000000E+00  0.00000000000E+00  0.13983648848E+04  0.13983648848E+04  0.25500000920E-02 0. -1.
       -2   -1    0    0    0  501  0.00000000000E+00  0.00000000000E+00 -0.18411168929E+04  0.18411168929E+04  0.25500000920E-02 0.  1.
    10030    2    1    2    0    0  0.00000000000E+00  0.00000000000E+00 -0.44275200811E+03  0.32394817777E+04  0.32090828670E+04 0.  0.
        1    1    3    3  502    0 -0.20520721898E+03 -0.15854297646E+04 -0.35999271883E+03  0.16386861502E+04  0.50400001928E-02 0.  1.
       -1    1    3    3    0  502  0.20520721898E+03  0.15854297646E+04 -0.82759289286E+02  0.16007956275E+04  0.50400001928E-02 0. -1.
</event>
<event>
 5   0  0.1493485E-06  0.3200911E+04  0.7818609E-02  0.8188577E-01
       -2   -1    0    0    0  501  0.00000000000E+00  0.00000000000E+00  0.14354745323E+04  0.14354745324E+04  0.25500000920E-02 0.  1.
        2   -1    0    0  501    0  0.00000000000E+00  0.00000000000E+00 -0.17843978815E+04  0.17843978815E+04  0.25500000920E-02 0. -1.
    10030    2    1    2    0    0  0.00000000000E+00  0.00000000000E+00 -0.34892334914E+03  0.32198724138E+04  0.32009109419E+04 0.  0.
        2    1    3    3  502    0 -0.14200423256E+04  0.12666451390E+03  0.55709711348E+03  0.15306604128E+04  0.25500000920E-02 0.  1.
       -2    1    3    3    0  502  0.14200423256E+04 -0.12666451390E+03 -0.90602046262E+03  0.16892120010E+04  0.25500000920E-02 0. -1.
</event>
<event>
 5   0  0.5177039E-07  0.3216969E+04  0.7818609E-02  0.8184350E-01
       -1   -1    0    0    0  501  0.00000000000E+00  0.00000000000E+00  0.10761587425E+04  0.10761587425E+04  0.50400001928E-02 0. -1.
        1   -1    0    0  501    0  0.00000000000E+00  0.00000000000E+00 -0.24041277638E+04  0.24041277638E+04  0.50400001928E-02 0.  1.
    10030    2    1    2    0    0  0.00000000000E+00  0.00000000000E+00 -0.13279690214E+04  0.34802865063E+04  0.32169694504E+04 0.  0.
        3    1    3    3  502    0 -0.11277791519E+04  0.10553767951E+04 -0.11496352113E+04  0.19254524467E+04  0.10100000352E+00 0.  1.
       -3    1    3    3    0  502  0.11277791519E+04 -0.10553767951E+04 -0.17833381005E+03  0.15548340597E+04  0.10100000352E+00 0. -1.
</event>
<event>
 5   0  0.5370912E-07  0.3210587E+04  0.7818609E-02  0.8186027E-01
       -1   -1    0    0    0  501  0.00000000000E+00  0.00000000000E+00  0.20632033279E+04  0.20632033279E+04  0.50400001928E-02 0. -1.
        1   -1    0    0  501    0  0.00000000000E+00  0.00000000000E+00 -0.12490126890E+04  0.12490126890E+04  0.50400001928E-02 0.  1.
    10030    2    1    2    0    0  0.00000000000E+00  0.00000000000E+00  0.81419063895E+03  0.33122160169E+04  0.32105869473E+04 0.  0.
        1    1    3    3  502    0  0.19768239795E+03 -0.15922568515E+04  0.45976958324E+03  0.16690561049E+04  0.50400001928E-02 0.  1.
       -1    1    3    3    0  502 -0.19768239795E+03  0.15922568515E+04  0.35442105571E+03  0.16431599120E+04  0.50400001928E-02 0. -1.
</event>
<event>
 5   0  0.5317728E-07  0.3273461E+04  0.7818609E-02  0.8169681E-01
       -1   -1    0    0    0  501  0.00000000000E+00  0.00000000000E+00  0.10933452836E+04  0.10933452836E+04  0.50400001928E-02 0. -1.
        1   -1    0    0  501    0  0.00000000000E+00  0.00000000000E+00 -0.24501751230E+04  0.24501751230E+04  0.50400001928E-02 0.  1.
    10030    2    1    2    0    0  0.00000000000E+00  0.00000000000E+00 -0.13568298394E+04  0.35435204065E+04  0.32734614185E+04 0.  0.
        2    1    3    3  502    0  0.56652068694E+03  0.64511557555E+03  0.83001917081E+03  0.11941740319E+04  0.25500000920E-02 0. -1.
       -2    1    3    3    0  502 -0.56652068694E+03 -0.64511557555E+03 -0.21868490102E+04  0.23493463746E+04  0.25500000920E-02 0.  1.
</event>
<event>
 5   0  0.1493485E-06  0.3198765E+04  0.7818609E-02  0.8189144E-01
        2   -1    0    0  501    0  0.00000000000E+00  0.00000000000E+00  0.18020890290E+04  0.18020890290E+04  0.25500000920E-02 0.  1.
       -2   -1    0    0    0  501  0.00000000000E+00  0.00000000000E+00 -0.14194768951E+04  0.14194768952E+04  0.25500000920E-02 0. -1.
    10030    2    1    2    0    0  0.00000000000E+00  0.00000000000E+00  0.38261213389E+03  0.32215659242E+04  0.31987645989E+04 0.  0.
        2    1    3    3  502    0  0.21651011670E+03 -0.13125683701E+04  0.10855039570E+04  0.17169831675E+04  0.25500000920E-02 0.  1.
       -2    1    3    3    0  502 -0.21651011670E+03  0.13125683701E+04 -0.70289182309E+03  0.15045827567E+04  0.25500000920E-02 0. -1.
</event>
<event>
 5   0  0.1572769E-06  0.3177883E+04  0.7818609E-02  0.8194683E-01
       -2   -1    0    0    0  501  0.00000000000E+00  0.00000000000E+00  0.18447319100E+04  0.18447319100E+04  0.25500000920E-02 0. -1.
        2   -1    0    0  501    0  0.00000000000E+00  0.00000000000E+00 -0.13686187469E+04  0.13686187469E+04  0.25500000920E-02 0.  1.
    10030    2    1    2    0    0  0.00000000000E+00  0.00000000000E+00  0.47611316303E+03  0.32133506569E+04  0.31778827386E+04 0.  0.
        5    1    3    3  502    0  0.89744283461E+02  0.11470292839E+04  0.13461811113E+04  0.17708630351E+04  0.46999998093E+01 0. -1.
       -5    1    3    3    0  502 -0.89744283461E+02 -0.11470292839E+04 -0.87006794824E+03  0.14424876218E+04  0.46999998093E+01 0.  1.
</event>
<event>
 5   0  0.5370912E-07  0.3203489E+04  0.7818609E-02  0.8187896E-01
        1   -1    0    0  501    0  0.00000000000E+00  0.00000000000E+00  0.99303525647E+03  0.99303525649E+03  0.50400001928E-02 0.  1.
       -1   -1    0    0    0  501  0.00000000000E+00  0.00000000000E+00 -0.25835802122E+04  0.25835802122E+04  0.50400001928E-02 0. -1.
    10030    2    1    2    0    0  0.00000000000E+00  0.00000000000E+00 -0.15905449557E+04  0.35766154687E+04  0.32034894966E+04 0.  0.
        1    1    3    3  502    0 -0.15375083122E+04  0.44837624905E+03 -0.76762607731E+03  0.17760131941E+04  0.50400001928E-02 0.  1.
       -1    1    3    3    0  502  0.15375083122E+04 -0.44837624905E+03 -0.82291887838E+03  0.18006022746E+04  0.50400001928E-02 0. -1.
</event>
<event>
 5   0  0.1538349E-06  0.3218503E+04  0.7818609E-02  0.8183948E-01
        2   -1    0    0  501    0  0.00000000000E+00  0.00000000000E+00  0.20624977894E+04  0.20624977894E+04  0.25500000920E-02 0.  1.
       -2   -1    0    0    0  501  0.00000000000E+00  0.00000000000E+00 -0.12556090860E+04  0.12556090860E+04  0.25500000920E-02 0. -1.
    10030    2    1    2    0    0  0.00000000000E+00  0.00000000000E+00  0.80688870340E+03  0.33181068754E+04  0.32185033566E+04 0.  0.
        1    1    3    3  502    0  0.94790517329E+03 -0.49007914739E+03 -0.83840378600E+03  0.13570639987E+04  0.50400001928E-02 0. -1.
       -1    1    3    3    0  502 -0.94790517329E+03  0.49007914739E+03  0.16452924894E+04  0.19610428766E+04  0.50400001928E-02 0.  1.
</event>
<event>
 5   0  0.5370912E-07  0.3198044E+04  0.7818609E-02  0.8189334E-01
       -1   -1    0    0    0  501  0.00000000000E+00  0.00000000000E+00  0.10856036325E+04  0.10856036325E+04  0.50400001928E-02 0.  1.
        1   -1    0    0  501    0  0.00000000000E+00  0.00000000000E+00 -0.23552535204E+04  0.23552535204E+04  0.50400001928E-02 0. -1.
    10030    2    1    2    0    0  0.00000000000E+00  0.00000000000E+00 -0.12696498879E+04  0.34408571528E+04  0.31980442631E+04 0.  0.
        1    1    3    3  502    0 -0.15306712523E+04  0.45758424905E+03 -0.56237792743E+03  0.16936961832E+04  0.50400001928E-02 0. -1.
       -1    1    3    3    0  502  0.15306712523E+04 -0.45758424905E+03 -0.70727196046E+03  0.17471609696E+04  0.50400001928E-02 0.  1.
</event>
<event>
 5   0  0.1572769E-06  0.2927839E+04  0.7818609E-02  0.8264642E-01
       -2   -1    0    0    0  501  0.00000000000E+00  0.00000000000E+00  0.11246055697E+04  0.11246055697E+04  0.25500000920E-02 0.  1.
        2   -1    0    0  501    0  0.00000000000E+00  0.00000000000E+00 -0.19056105913E+04  0.19056105913E+04  0.25500000920E-02 0. -1.
    10030    2    1    2    0    0  0.00000000000E+00  0.00000000000E+00 -0.78100502153E+03  0.30302161610E+04  0.29278389878E+04 0.  0.
        5    1    3    3  502    0  0.10265345243E+04 -0.40205397465E+03  0.60630413782E+03  0.12581920862E+04  0.46999998093E+01 0.  1.
       -5    1    3    3    0  502 -0.10265345243E+04  0.40205397465E+03 -0.13873091593E+04  0.17720240748E+04  0.46999998093E+01 0. -1.
</event>
<event>
 5   0  0.1508771E-06  0.3174430E+04  0.7818609E-02  0.8195603E-01
        2   -1    0    0  501    0  0.00000000000E+00  0.00000000000E+00  0.22631205257E+04  0.22631205257E+04  0.25500000920E-02 0. -1.
       -2   -1    0    0    0  501  0.00000000000E+00  0.00000000000E+00 -0.11131762786E+04  0.11131762786E+04  0.25500000920E-02 0.  1.
    10030    2    1    2    0    0  0.00000000000E+00  0.00000000000E+00  0.11499442471E+04  0.33762968043E+04  0.31744303960E+04 0.  0.
        4    1    3    3  502    0 -0.73968186201E+03  0.13828805939E+04  0.31496268928E+03  0.15995909173E+04  0.12699999809E+01 0.  1.
       -4    1    3    3    0  502  0.73968186201E+03 -0.13828805939E+04  0.83498155783E+03  0.17767058870E+04  0.12699999809E+01 0. -1.
</event>
<event>
 5   0  0.1572769E-06  0.3207115E+04  0.7818609E-02  0.8186941E-01
        2   -1    0    0  501    0  0.00000000000E+00  0.00000000000E+00  0.20898578574E+04  0.20898578574E+04  0.25500000920E-02 0.  1.
       -2   -1    0    0    0  501  0.00000000000E+00  0.00000000000E+00 -0.12304167833E+04  0.12304167833E+04  0.25500000920E-02 0. -1.
    10030    2    1    2    0    0  0.00000000000E+00  0.00000000000E+00  0.85944107403E+03  0.33202746407E+04  0.32071147048E+04 0.  0.
        5    1    3    3  502    0 -0.20714249742E+03 -0.45047112985E+03  0.20085004568E+04  0.20687987887E+04  0.46999998093E+01 0.  1.
       -5    1    3    3    0  502  0.20714249742E+03  0.45047112985E+03 -0.11490593828E+04  0.12514758520E+04  0.46999998093E+01 0. -1.
</event>
<event>
 5   0  0.1572769E-06  0.3185365E+04  0.7818609E-02  0.8192693E-01
       -2   -1    0    0    0  501  0.00000000000E+00  0.00000000000E+00  0.12589427483E+04  0.12589427483E+04  0.25500000920E-02 0. -1.
        2   -1    0    0  501    0  0.00000000000E+00  0.00000000000E+00 -0.20148947761E+04  0.20148947761E+04  0.25500000920E-02 0.  1.
    10030    2    1    2    0    0  0.00000000000E+00  0.00000000000E+00 -0.75595202774E+03  0.32738375244E+04  0.31853647622E+04 0.  0.
        5    1    3    3  502    0 -0.79355702353E+02 -0.11187017536E+02 -0.20128140802E+04  0.20144143288E+04  0.46999998093E+01 0.  1.
       -5    1    3    3    0  502  0.79355702353E+02  0.11187017536E+02  0.12568620524E+04  0.12594231956E+04  0.46999998093E+01 0. -1.
</event>
<event>
 5   0  0.5317728E-07  0.3202100E+04  0.7818609E-02  0.8188263E-01
       -1   -1    0    0    0  501  0.00000000000E+00  0.00000000000E+00  0.90007198781E+03  0.90007198782E+03  0.50400001928E-02 0.  1.
        1   -1    0    0  501    0  0.00000000000E+00  0.00000000000E+00 -0.28479519598E+04  0.28479519598E+04  0.50400001928E-02 0. -1.
    10030    2    1    2    0    0  0.00000000000E+00  0.00000000000E+00 -0.19478799720E+04  0.37480239477E+04  0.32021004242E+04 0.  0.
        2    1    3    3  502    0  0.40272655194E+03  0.39459011749E+03  0.78002615882E+03  0.96246082772E+03  0.25500000920E-02 0.  1.
       -2    1    3    3    0  502 -0.40272655194E+03 -0.39459011749E+03 -0.27279061308E+04  0.27855631199E+04  0.25500000920E-02 0. -1.
</event>
<event>
 5   0  0.1538349E-06  0.3149049E+04  0.7818609E-02  0.8202404E-01
       -2   -1    0    0    0  501  0.00000000000E+00  0.00000000000E+00  0.95176079402E+03  0.95176079402E+03  0.25500000920E-02 0.  1.
        2   -1    0    0  501    0  0.00000000000E+00  0.00000000000E+00 -0.26047804972E+04  0.26047804972E+04  0.25500000920E-02 0. -1.
    10030    2    1    2    0    0  0.00000000000E+00  0.00000000000E+00 -0.16530197032E+04  0.35565412912E+04  0.31490493513E+04 0.  0.
        1    1    3    3  502    0  0.44913959507E+03  0.14963687112E+04 -0.10474868976E+04  0.18809770058E+04  0.50400001928E-02 0. -1.
       -1    1    3    3    0  502 -0.44913959507E+03 -0.14963687112E+04 -0.60553280560E+03  0.16755642854E+04  0.50400001928E-02 0.  1.
</event>
<event>
 5   0  0.5317728E-07  0.3212315E+04  0.7818609E-02  0.8185572E-01
        1   -1    0    0  501    0  0.00000000000E+00  0.00000000000E+00  0.24632577862E+04  0.24632577862E+04  0.50400001928E-02 0.  1.
       -1   -1    0    0    0  501  0.00000000000E+00  0.00000000000E+00 -0.10472885862E+04  0.10472885862E+04  0.50400001928E-02 0. -1.
    10030    2    1    2    0    0  0.00000000000E+00  0.00000000000E+00  0.14159692000E+04  0.35105463724E+04  0.32123149063E+04 0.  0.
        2    1    3    3  502    0  0.32947034263E+03 -0.54149707206E+01  0.24259214145E+04  0.24481982636E+04  0.25500000920E-02 0.  1.
       -2    1    3    3    0  502 -0.32947034263E+03  0.54149707206E+01 -0.10099522145E+04  0.10623481087E+04  0.25500000920E-02 0. -1.
</event>
<event>
 5   0  0.1508771E-06  0.3183058E+04  0.7818609E-02  0.8193306E-01
        2   -1    0    0  501    0  0.00000000000E+00  0.00000000000E+00  0.84570823828E+03  0.84570823828E+03  0.25500000920E-02 0.  1.
       -2   -1    0    0    0  501  0.00000000000E+00  0.00000000000E+00 -0.29950805471E+04  0.29950805471E+04  0.25500000920E-02 0. -1.
    10030    2    1    2    0    0  0.00000000000E+00  0.00000000000E+00 -0.21493723088E+04  0.38407887854E+04  0.31830578336E+04 0.  0.
        4    1    3    3  502    0 -0.14818369158E+04 -0.51226176734E+03 -0.74487524138E+03  0.17358264606E+04  0.12699999809E+01 0. -1.
       -4    1    3    3    0  502  0.14818369158E+04  0.51226176734E+03 -0.14044970674E+04  0.21049623247E+04  0.12699999809E+01 0.  1.
</event>
<event>
 5   0  0.5177039E-07  0.3221231E+04  0.7818609E-02  0.8183232E-01
        1   -1    0    0  501    0  0.00000000000E+00  0.00000000000E+00  0.24076692582E+04  0.24076692582E+04  0.50400001928E-02 0.  1.
       -1   -1    0    0    0  501  0.00000000000E+00  0.00000000000E+00 -0.10774248900E+04  0.10774248900E+04  0.50400001928E-02 0. -1.
    10030    2    1    2    0    0  0.00000000000E+00  0.00000000000E+00  0.13302443681E+04  0.34850941482E+04  0.32212313085E+04 0.  0.
        3    1    3    3  502    0 -0.59615335601E+03  0.52132375641E+03 -0.85222285773E+03  0.11633834674E+04  0.10100000352E+00 0. -1.
       -3    1    3    3    0  502  0.59615335601E+03 -0.52132375641E+03  0.21824672259E+04  0.23217106807E+04  0.10100000352E+00 0.  1.
</event>
<event>
 5   0  0.1556396E-06  0.3238979E+04  0.7818609E-02  0.8178598E-01
        2   -1    0    0  501    0  0.00000000000E+00  0.00000000000E+00  0.20631610687E+04  0.20631610687E+04  0.25500000920E-02 0. -1.
       -2   -1    0    0    0  501  0.00000000000E+00  0.00000000000E+00 -0.12712267270E+04  0.12712267270E+04  0.25500000920E-02 0.  1.
    10030    2    1    2    0    0  0.00000000000E+00  0.00000000000E+00  0.79193434171E+03  0.33343877956E+04  0.32389785381E+04 0.  0.
        3    1    3    3  502    0  0.12172615727E+04 -0.66477069343E+03  0.12567182707E+04  0.18716267345E+04  0.10100000352E+00 0. -1.
       -3    1    3    3    0  502 -0.12172615727E+04  0.66477069343E+03 -0.46478392900E+03  0.14627610611E+04  0.10100000352E+00 0.  1.
</event>
<event>
 5   0  0.5233813E-07  0.3172038E+04  0.7818609E-02  0.8196241E-01
        1   -1    0    0  501    0  0.00000000000E+00  0.00000000000E+00  0.21137052171E+04  0.21137052171E+04  0.50400001928E-02 0.  1.
       -1   -1    0    0    0  501  0.00000000000E+00  0.00000000000E+00 -0.11900694873E+04  0.11900694873E+04  0.50400001928E-02 0. -1.
    10030    2    1    2    0    0  0.00000000000E+00  0.00000000000E+00  0.92363572975E+03  0.33037747044E+04  0.31720378838E+04 0.  0.
        4    1    3    3  502    0 -0.13177846055E+04 -0.67616600950E+03 -0.12892169867E+03  0.14867343933E+04  0.12699999809E+01 0.  1.
       -4    1    3    3    0  502  0.13177846055E+04  0.67616600950E+03  0.10525574284E+04  0.18170403111E+04  0.12699999809E+01 0. -1.
</event>
<event>
 5   0  0.1538349E-06  0.3172866E+04  0.7818609E-02  0.8196020E-01
        2   -1    0    0  501    0  0.00000000000E+00  0.00000000000E+00  0.20771608817E+04  0.20771608817E+04  0.25500000920E-02 0.  1.
       -2   -1    0    0    0  501  0.00000000000E+00  0.00000000000E+00 -0.12116392459E+04  0.12116392459E+04  0.25500000920E-02 0. -1.
    10030    2    1    2    0    0  0.00000000000E+00  0.00000000000E+00  0.86552163578E+03  0.32888001277E+04  0.31728659880E+04 0.  0.
        1    1    3    3  502    0 -0.93554297374E+03 -0.12415555773E+03  0.17545472737E+04  0.19922578633E+04  0.50400001928E-02 0.  1.
       -1    1    3    3    0  502  0.93554297374E+03  0.12415555773E+03 -0.88902563796E+03  0.12965422643E+04  0.50400001928E-02 0. -1.
</event>
<event>
 5   0  0.5281187E-07  0.3187287E+04  0.7818609E-02  0.8192183E-01
       -1   -1    0    0    0  501  0.00000000000E+00  0.00000000000E+00  0.11046769181E+04  0.11046769182E+04  0.50400001928E-02 0.  1.
        1   -1    0    0  501    0  0.00000000000E+00  0.00000000000E+00 -0.22990426175E+04  0.22990426175E+04  0.50400001928E-02 0. -1.
    10030    2    1    2    0    0  0.00000000000E+00  0.00000000000E+00 -0.11943656993E+04  0.34037195357E+04  0.31872868170E+04 0.  0.
        5    1    3    3  502    0 -0.16912522199E+03 -0.32511271701E+03  0.10590602115E+04  0.11206838274E+04  0.46999998093E+01 0.  1.
       -5    1    3    3    0  502  0.16912522199E+03  0.32511271701E+03 -0.22534259108E+04  0.22830357082E+04  0.46999998093E+01 0. -1.
</event>
<event>
 5   0  0.5233813E-07  0.3148843E+04  0.7818609E-02  0.8202460E-01
        1   -1    0    0  501    0  0.00000000000E+00  0.00000000000E+00  0.19278372806E+04  0.19278372806E+04  0.50400001928E-02 0. -1.
       -1   -1    0    0    0  501  0.00000000000E+00  0.00000000000E+00 -0.12857947893E+04  0.12857947893E+04  0.50400001928E-02 0.  1.
    10030    2    1    2    0    0  0.00000000000E+00  0.00000000000E+00  0.64204249133E+03  0.32136320699E+04  0.31488430447E+04 0.  0.
        4    1    3    3  502    0 -0.12706699816E+04  0.32780357630E+03 -0.56678801267E+03  0.14294431261E+04  0.12699999809E+01 0. -1.
       -4    1    3    3    0  502  0.12706699816E+04 -0.32780357630E+03  0.12088305040E+04  0.17841889437E+04  0.12699999809E+01 0.  1.
</event>
<event>
 5   0  0.1556396E-06  0.3250756E+04  0.7818609E-02  0.8175540E-01
        2   -1    0    0  501    0  0.00000000000E+00  0.00000000000E+00  0.12303064620E+04  0.12303064620E+04  0.25500000920E-02 0. -1.
       -2   -1    0    0    0  501  0.00000000000E+00  0.00000000000E+00 -0.21473133512E+04  0.21473133513E+04  0.25500000920E-02 0.  1.
    10030    2    1    2    0    0  0.00000000000E+00  0.00000000000E+00 -0.91700688924E+03  0.33776198133E+04  0.32507559072E+04 0.  0.
        3    1    3    3  502    0  0.44970424283E+03  0.14149346880E+04 -0.11458168898E+04  0.18754120700E+04  0.10100000352E+00 0.  1.
       -3    1    3    3    0  502 -0.44970424283E+03 -0.14149346880E+04  0.22881000052E+03  0.15022077432E+04  0.10100000352E+00 0. -1.
</event>
<event>
 5   0  0.5281187E-07  0.3374537E+04  0.7818609E-02  0.8144184E-01
       -1   -1    0    0    0  501  0.00000000000E+00  0.00000000000E+00  0.14227800510E+04  0.14227800510E+04  0.50400001928E-02 0.  1.
        1   -1    0    0  501    0  0.00000000000E+00  0.00000000000E+00 -0.20009240738E+04  0.20009240738E+04  0.50400001928E-02 0. -1.
    10030    2    1    2    0    0  0.00000000000E+00  0.00000000000E+00 -0.57814402281E+03  0.34237041248E+04  0.33745369198E+04 0.  0.
        5    1    3    3  502    0 -0.91682543944E+03 -0.30729876802E+03 -0.16919151189E+04  0.19487432563E+04  0.46999998093E+01 0. -1.
       -5    1    3    3    0  502  0.91682543944E+03  0.30729876802E+03  0.11137710961E+04  0.14749608686E+04  0.46999998093E+01 0.  1.
</event>
<event>
 5   0  0.5177039E-07  0.3231079E+04  0.7818609E-02  0.8180657E-01
       -1   -1    0    0    0  501  0.00000000000E+00  0.00000000000E+00  0.84130674046E+03  0.84130674048E+03  0.50400001928E-02 0. -1.
        1   -1    0    0  501    0  0.00000000000E+00  0.00000000000E+00 -0.31022786486E+04  0.31022786486E+04  0.50400001928E-02 0.  1.
    10030    2    1    2    0    0  0.00000000000E+00  0.00000000000E+00 -0.22609719081E+04  0.39435853890E+04  0.32310790383E+04 0.  0.
        3    1    3    3  502    0 -0.55619852978E+03 -0.66225104443E+03 -0.27959587737E+04  0.29266565779E+04  0.10100000352E+00 0.  1.
       -3    1    3    3    0  502  0.55619852978E+03  0.66225104443E+03  0.53498686562E+03  0.10169288112E+04  0.10100000352E+00 0. -1.
</event>
<event>
 5   0  0.5317728E-07  0.3206141E+04  0.7818609E-02  0.8187197E-01
        1   -1    0    0  501    0  0.00000000000E+00  0.00000000000E+00  0.20382215226E+04  0.20382215226E+04  0.50400001928E-02 0.  1.
       -1   -1    0    0    0  501  0.00000000000E+00  0.00000000000E+00 -0.12608219155E+04  0.12608219155E+04  0.50400001928E-02 0. -1.
    10030    2    1    2    0    0  0.00000000000E+00  0.00000000000E+00  0.77739960710E+03  0.32990434381E+04  0.32061405860E+04 0.  0.
        2    1    3    3  502    0 -0.15998195492E+04 -0.53026398157E+02  0.47840375416E+03  0.16706599118E+04  0.25500000920E-02 0. -1.
       -2    1    3    3    0  502  0.15998195492E+04  0.53026398157E+02  0.29899585293E+03  0.16283835263E+04  0.25500000920E-02 0.  1.
</event>
<event>
 5   0  0.1493485E-06  0.3176962E+04  0.7818609E-02  0.8194928E-01
       -2   -1    0    0    0  501  0.00000000000E+00  0.00000000000E+00  0.14376627439E+04  0.14376627439E+04  0.25500000920E-02 0. -1.
        2   -1    0    0  501    0  0.00000000000E+00  0.00000000000E+00 -0.17551211931E+04  0.17551211931E+04  0.25500000920E-02 0.  1.
    10030    2    1    2    0    0  0.00000000000E+00  0.00000000000E+00 -0.31745844915E+03  0.31927839370E+04  0.31769622914E+04 0.  0.
        2    1    3    3  502    0 -0.34402982987E+03  0.67721856051E+03 -0.15607722457E+04  0.17357970807E+04  0.25500000920E-02 0.  1.
       -2    1    3    3    0  502  0.34402982987E+03 -0.67721856051E+03  0.12433137966E+04  0.14569868562E+04  0.25500000920E-02 0. -1.
</event>
<event>
 5   0  0.5317728E-07  0.3190654E+04  0.7818609E-02  0.8191290E-01
       -1   -1    0    0    0  501  0.00000000000E+00  0.00000000000E+00  0.21124876246E+04  0.21124876246E+04  0.50400001928E-02 0.  1.
        1   -1    0    0  501    0  0.00000000000E+00  0.00000000000E+00 -0.12047728965E+04  0.12047728965E+04  0.50400001928E-02 0. -1.
    10030    2    1    2    0    0  0.00000000000E+00  0.00000000000E+00  0.90771472812E+03  0.33172605211E+04  0.31906537476E+04 0.  0.
        2    1    3    3  502    0 -0.97842392491E+03  0.50045423718E+03 -0.74844673565E+03  0.13296391753E+04  0.25500000920E-02 0. -1.
       -2    1    3    3    0  502  0.97842392491E+03 -0.50045423718E+03  0.16561614638E+04  0.19876213458E+04  0.25500000920E-02 0.  1.
</event>
<event>
 5   0  0.5317728E-07  0.3192959E+04  0.7818609E-02  0.8190679E-01
        1   -1    0    0  501    0  0.00000000000E+00  0.00000000000E+00  0.22513079016E+04  0.22513079016E+04  0.50400001928E-02 0.  1.
       -1   -1    0    0    0  501  0.00000000000E+00  0.00000000000E+00 -0.11321182689E+04  0.11321182689E+04  0.50400001928E-02 0. -1.
    10030    2    1    2    0    0  0.00000000000E+00  0.00000000000E+00  0.11191896327E+04  0.33834261705E+04  0.31929590065E+04 0.  0.
        2    1    3    3  502    0  0.35139473365E+03 -0.12356611422E+04 -0.44479123140E+03  0.13594763539E+04  0.25500000920E-02 0. -1.
       -2    1    3    3    0  502 -0.35139473365E+03  0.12356611422E+04  0.15639808641E+04  0.20239498167E+04  0.25500000920E-02 0.  1.
</event>
<event>
 5   0  0.5177039E-07  0.3194166E+04  0.7818609E-02  0.8190359E-01
       -1   -1    0    0    0  501  0.00000000000E+00  0.00000000000E+00  0.78338127827E+03  0.78338127829E+03  0.50400001928E-02 0.  1.
        1   -1    0    0  501    0  0.00000000000E+00  0.00000000000E+00 -0.32559814359E+04  0.32559814359E+04  0.50400001928E-02 0. -1.
    10030    2    1    2    0    0  0.00000000000E+00  0.00000000000E+00 -0.24726001576E+04  0.40393627142E+04  0.31941664949E+04 0.  0.
        3    1    3    3  502    0 -0.11088896939E+04 -0.28503704867E+03  0.17178789833E+03  0.11577536718E+04  0.10100000352E+00 0.  1.
       -3    1    3    3    0  502  0.11088896939E+04  0.28503704867E+03 -0.26443880560E+04  0.28816090424E+04  0.10100000352E+00 0. -1.
</event>
<event>
 5   0  0.1538349E-06  0.3191199E+04  0.7818609E-02  0.8191145E-01
       -2   -1    0    0    0  501  0.00000000000E+00  0.00000000000E+00  0.26445887597E+04  0.26445887597E+04  0.25500000920E-02 0.  1.
        2   -1    0    0  501    0  0.00000000000E+00  0.00000000000E+00 -0.96269729377E+03  0.96269729378E+03  0.25500000920E-02 0. -1.
    10030    2    1    2    0    0  0.00000000000E+00  0.00000000000E+00  0.16818914659E+04  0.36072860534E+04  0.31911994247E+04 0.  0.
        1    1    3    3  502    0 -0.26883555248E+03  0.15700069125E+04  0.73524299391E+03  0.17543592904E+04  0.50400001928E-02 0. -1.
       -1    1    3    3    0  502  0.26883555248E+03 -0.15700069125E+04  0.94664847198E+03  0.18529267630E+04  0.50400001928E-02 0.  1.
</event>
<event>
 5   0  0.1508771E-06  0.3241662E+04  0.7818609E-02  0.8177900E-01
       -2   -1    0    0    0  501  0.00000000000E+00  0.00000000000E+00  0.17802056790E+04  0.17802056790E+04  0.25500000920E-02 0.  1.
        2   -1    0    0  501    0  0.00000000000E+00  0.00000000000E+00 -0.14757242129E+04  0.14757242129E+04  0.25500000920E-02 0. -1.
    10030    2    1    2    0    0  0.00000000000E+00  0.00000000000E+00  0.30448146616E+03  0.32559298919E+04  0.32416616877E+04 0.  0.
        4    1    3    3  502    0  0.70463305737E+03 -0.14300849849E+04  0.44582886110E+03  0.16554201267E+04  0.12699999809E+01 0. -1.
       -4    1    3    3    0  502 -0.70463305737E+03  0.14300849849E+04 -0.14134739494E+03  0.16005097652E+04  0.12699999809E+01 0.  1.
</event>
<event>
 5   0  0.5370912E-07  0.3235819E+04  0.7818609E-02  0.8179421E-01
       -1   -1    0    0    0  501  0.00000000000E+00  0.00000000000E+00  0.95142809048E+03  0.95142809049E+03  0.50400001928E-02 0.  1.
        1   -1    0    0  501    0  0.00000000000E+00  0.00000000000E+00 -0.27512651572E+04  0.27512651572E+04  0.50400001928E-02 0. -1.
    10030    2    1    2    0    0  0.00000000000E+00  0.00000000000E+00 -0.17998370667E+04  0.37026932477E+04  0.32358188793E+04 0.  0.
        1    1    3    3  502    0 -0.42340997048E+03 -0.14228614053E+03 -0.26793100704E+04  0.27162886081E+04  0.50400001928E-02 0. -1.
       -1    1    3    3    0  502  0.42340997048E+03  0.14228614053E+03  0.87947300368E+03  0.98640463964E+03  0.50400001928E-02 0.  1.
</event>
<event>
 5   0  0.1538349E-06  0.3256983E+04  0.7818609E-02  0.8173928E-01
       -2   -1    0    0    0  501  0.00000000000E+00  0.00000000000E+00  0.14074138329E+04  0.14074138329E+04  0.25500000920E-02 0. -1.
        2   -1    0    0  501    0  0.00000000000E+00  0.00000000000E+00 -0.18842961122E+04  0.18842961122E+04  0.25500000920E-02 0.  1.
    10030    2    1    2    0    0  0.00000000000E+00  0.00000000000E+00 -0.47688227925E+03  0.32917099451E+04  0.32569829067E+04 0.  0.
        1    1    3    3  502    0  0.93881408834E+03 -0.11106185114E+04  0.50227096344E+03  0.15385452515E+04  0.50400001928E-02 0. -1.
       -1    1    3    3    0  502 -0.93881408834E+03  0.11106185114E+04 -0.97915324269E+03  0.17531646936E+04  0.50400001928E-02 0.  1.
</event>
<event>
 5   0  0.1508771E-06  0.3199055E+04  0.7818609E-02  0.8189067E-01
        2   -1    0    0  501    0  0.00000000000E+00  0.00000000000E+00  0.26266864346E+04  0.26266864346E+04  0.25500000920E-02 0.  1.
       -2   -1    0    0    0  501  0.00000000000E+00  0.00000000000E+00 -0.97403665024E+03  0.97403665025E+03  0.25500000920E-02 0. -1.
    10030    2    1    2    0    0  0.00000000000E+00  0.00000000000E+00  0.16526497844E+04  0.36007230849E+04  0.31990553956E+04 0.  0.
        4    1    3    3  502    0 -0.83201653578E+03 -0.75585826315E+03  0.21071458580E+04  0.23882291577E+04  0.12699999809E+01 0.  1.
       -4    1    3    3    0  502  0.83201653578E+03  0.75585826315E+03 -0.45449607358E+03  0.12124939272E+04  0.12699999809E+01 0. -1.
</event>
<event>
 5   0  0.1572769E-06  0.3166654E+04  0.7818609E-02  0.8197680E-01
        2   -1    0    0  501    0  0.00000000000E+00  0.00000000000E+00  0.19289675061E+04  0.19289675061E+04  0.25500000920E-02 0.  1.
       -2   -1    0    0    0  501  0.00000000000E+00  0.00000000000E+00 -0.12996200991E+04  0.12996200991E+04  0.25500000920E-02 0. -1.
    10030    2    1    2    0    0  0.00000000000E+00  0.00000000000E+00  0.62934740706E+03  0.32285876052E+04  0.31666543489E+04 0.  0.
        5    1    3    3  502    0 -0.92573889705E+02 -0.15617078403E+04  0.56316477865E+03  0.16627320775E+04  0.46999998093E+01 0. -1.
       -5    1    3    3    0  502  0.92573889705E+02  0.15617078403E+04  0.66182628412E+02  0.15658555278E+04  0.46999998093E+01 0.  1.
</event>
<event>
 5   0  0.1538349E-06  0.3223463E+04  0.7818609E-02  0.8182648E-01
        2   -1    0    0  501    0  0.00000000000E+00  0.00000000000E+00  0.19405952577E+04  0.19405952577E+04  0.25500000920E-02 0. -1.
       -2   -1    0    0    0  501  0.00000000000E+00  0.00000000000E+00 -0.13385989049E+04  0.13385989049E+04  0.25500000920E-02 0.  1.
    10030    2    1    2    0    0  0.00000000000E+00  0.00000000000E+00  0.60199635283E+03  0.32791941627E+04  0.32234631606E+04 0.  0.
        1    1    3    3  502    0 -0.27445177466E+03  0.57026321657E+02  0.19156072014E+04  0.19360079360E+04  0.50400001928E-02 0. -1.
       -1    1    3    3    0  502  0.27445177466E+03 -0.57026321657E+02 -0.13136108486E+04  0.13431862267E+04  0.50400001928E-02 0.  1.
</event>
<event>
 5   0  0.1572769E-06  0.3196252E+04  0.7818609E-02  0.8189808E-01
        2   -1    0    0  501    0  0.00000000000E+00  0.00000000000E+00  0.18210368939E+04  0.18210368939E+04  0.25500000920E-02 0.  1.
       -2   -1    0    0    0  501  0.00000000000E+00  0.00000000000E+00 -0.14025014559E+04  0.14025014559E+04  0.25500000920E-02 0. -1.
    10030    2    1    2    0    0  0.00000000000E+00  0.00000000000E+00  0.41853543800E+03  0.32235383498E+04  0.31962521146E+04 0.  0.
        5    1    3    3  502    0  0.31242553511E+03 -0.10820204989E+04 -0.93425785462E+03  0.14632969296E+04  0.46999998093E+01 0. -1.
       -5    1    3    3    0  502 -0.31242553511E+03  0.10820204989E+04  0.13527932926E+04  0.17602414203E+04  0.46999998093E+01 0.  1.
</event>
<event>
 5   0  0.1538349E-06  0.3207701E+04  0.7818609E-02  0.8186786E-01
        2   -1    0    0  501    0  0.00000000000E+00  0.00000000000E+00  0.15499673817E+04  0.15499673817E+04  0.25500000920E-02 0.  1.
       -2   -1    0    0    0  501  0.00000000000E+00  0.00000000000E+00 -0.16596068611E+04  0.16596068611E+04  0.25500000920E-02 0. -1.
    10030    2    1    2    0    0  0.00000000000E+00  0.00000000000E+00 -0.10963947938E+03  0.32095742427E+04  0.32077010466E+04 0.  0.
        1    1    3    3  502    0  0.16430604205E+03 -0.60518689249E+03  0.14222160189E+04  0.15543313851E+04  0.50400001928E-02 0.  1.
       -1    1    3    3    0  502 -0.16430604205E+03  0.60518689249E+03 -0.15318554983E+04  0.16552428577E+04  0.50400001928E-02 0. -1.
</event>
<event>
 5   0  0.5233813E-07  0.3193391E+04  0.7818609E-02  0.8190565E-01
       -1   -1    0    0    0  501  0.00000000000E+00  0.00000000000E+00  0.16831606349E+04  0.16831606349E+04  0.50400001928E-02 0.  1.
        1   -1    0    0  501    0  0.00000000000E+00  0.00000000000E+00 -0.15146721235E+04  0.15146721235E+04  0.50400001928E-02 0. -1.
    10030    2    1    2    0    0  0.00000000000E+00  0.00000000000E+00  0.16848851140E+03  0.31978327583E+04  0.31933909832E+04 0.  0.
        4    1    3    3  502    0 -0.51641334200E+03  0.10059165908E+04 -0.10446586746E+04  0.15394363536E+04  0.12699999809E+01 0. -1.
       -4    1    3    3    0  502  0.51641334200E+03 -0.10059165908E+04  0.12131471860E+04  0.16583964047E+04  0.12699999809E+01 0.  1.
</event>
<event>
 5   0  0.5177039E-07  0.3201234E+04  0.7818609E-02  0.8188491E-01
       -1   -1    0    0    0  501  0.00000000000E+00  0.00000000000E+00  0.13250366348E+04  0.13250366348E+04  0.50400001928E-02 0. -1.
        1   -1    0    0  501    0  0.00000000000E+00  0.00000000000E+00 -0.19335122977E+04  0.19335122977E+04  0.50400001928E-02 0.  1.
    10030    2    1    2    0    0  0.00000000000E+00  0.00000000000E+00 -0.60847566286E+03  0.32585489326E+04  0.32012339048E+04 0.  0.
        3    1    3    3  502    0  0.27878630232E+03 -0.14199330512E+04  0.39214762287E+03  0.14992369527E+04  0.10100000352E+00 0. -1.
       -3    1    3    3    0  502 -0.27878630232E+03  0.14199330512E+04 -0.10006232857E+04  0.17593119798E+04  0.10100000352E+00 0.  1.
</event>
<event>
 5   0  0.1538349E-06  0.3229638E+04  0.7818609E-02  0.8181033E-01
       -2   -1    0    0    0  501  0.00000000000E+00  0.00000000000E+00  0.16751974847E+04  0.16751974847E+04  0.25500000920E-02 0. -1.
        2   -1    0    0  501    0  0.00000000000E+00  0.00000000000E+00 -0.15566171803E+04  0.15566171803E+04  0.25500000920E-02 0.  1.
    10030    2    1    2    0    0  0.00000000000E+00  0.00000000000E+00  0.11858030444E+03  0.32318146650E+04  0.32296384845E+04 0.  0.
        1    1    3    3  502    0  0.13751452298E+04  0.16858641897E+03 -0.77084426306E+03  0.15854484102E+04  0.50400001928E-02 0.  1.
       -1    1    3    3    0  502 -0.13751452298E+04 -0.16858641897E+03  0.88942456749E+03  0.16463662548E+04  0.50400001928E-02 0. -1.
</event>
<event>
 5   0  0.5317728E-07  0.3138383E+04  0.7818609E-02  0.8205282E-01
       -1   -1    0    0    0  501  0.00000000000E+00  0.00000000000E+00  0.10732148088E+04  0.10732148088E+04  0.50400001928E-02 0.  1.
        1   -1    0    0  501    0  0.00000000000E+00  0.00000000000E+00 -0.22943789603E+04  0.22943789603E+04  0.50400001928E-02 0. -1.
    10030    2    1    2    0    0  0.00000000000E+00  0.00000000000E+00 -0.12211641515E+04  0.33675937691E+04  0.31383826900E+04 0.  0.
        2    1    3    3  502    0 -0.14836875258E+04  0.50192373194E+03 -0.71297326895E+03  0.17209262009E+04  0.25500000920E-02 0. -1.
       -2    1    3    3    0  502  0.14836875258E+04 -0.50192373194E+03 -0.50819088256E+03  0.16466675681E+04  0.25500000920E-02 0.  1.
</event>
<event>
 5   0  0.1493485E-06  0.3206466E+04  0.7818609E-02  0.8187112E-01
        2   -1    0    0  501    0  0.00000000000E+00  0.00000000000E+00  0.19371316578E+04  0.19371316578E+04  0.25500000920E-02 0.  1.
       -2   -1    0    0    0  501  0.00000000000E+00  0.00000000000E+00 -0.13268875560E+04  0.13268875560E+04  0.25500000920E-02 0. -1.
    10030    2    1    2    0    0  0.00000000000E+00  0.00000000000E+00  0.61024410181E+03  0.32640192138E+04  0.32064658995E+04 0.  0.
        2    1    3    3  502    0  0.13577327926E+04 -0.41763310359E+03 -0.45152314584E+03  0.14905465094E+04  0.25500000920E-02 0.  1.
       -2    1    3    3    0  502 -0.13577327926E+04  0.41763310359E+03  0.10617672476E+04  0.17734727045E+04  0.25500000920E-02 0. -1.
</event>
<event>
 5   0  0.5233813E-07  0.3212912E+04  0.7818609E-02  0.8185416E-01
       -1   -1    0    0    0  501  0.00000000000E+00  0.00000000000E+00  0.12564991089E+04  0.12564991089E+04  0.50400001928E-02 0. -1.
        1   -1    0    0  501    0  0.00000000000E+00  0.00000000000E+00 -0.20538814876E+04  0.20538814876E+04  0.50400001928E-02 0.  1.
    10030    2    1    2    0    0  0.00000000000E+00  0.00000000000E+00 -0.79738237867E+03  0.33103805965E+04  0.32129116135E+04 0.  0.
        4    1    3    3  502    0 -0.32213029230E+03 -0.94980463338E+03 -0.16916720955E+04  0.19666349073E+04  0.12699999809E+01 0.  1.
       -4    1    3    3    0  502  0.32213029230E+03  0.94980463338E+03  0.89428971685E+03  0.13437456892E+04  0.12699999809E+01 0. -1.
</event>
<event>
 5   0  0.1572769E-06  0.3245447E+04  0.7818609E-02  0.8176917E-01
       -2   -1    0    0    0  501  0.00000000000E+00  0.00000000000E+00  0.18945567847E+04  0.18945567847E+04  0.25500000920E-02 0. -1.
        2   -1    0    0  501    0  0.00000000000E+00  0.00000000000E+00 -0.13898933845E+04  0.13898933845E+04  0.25500000920E-02 0.  1.
    10030    2    1    2    0    0  0.00000000000E+00  0.00000000000E+00  0.50466340019E+03  0.32844501693E+04  0.32454472368E+04 0.  0.
        5    1    3    3  502    0  0.61229748036E+03  0.13753222842E+04  0.86524214546E+03  0.17364001987E+04  0.46999998093E+01 0. -1.
       -5    1    3    3    0  502 -0.61229748036E+03 -0.13753222842E+04 -0.36057874527E+03  0.15480499706E+04  0.46999998093E+01 0.  1.
</event>
<event>
 5   0  0.5233813E-07  0.3140633E+04  0.7818609E-02  0.8204674E-01
       -1   -1    0    0    0  501  0.00000000000E+00  0.00000000000E+00  0.14351128056E+04  0.14351128056E+04  0.50400001928E-02 0. -1.
        1   -1    0    0  501    0  0.00000000000E+00  0.00000000000E+00 -0.17182574454E+04  0.17182574454E+04  0.50400001928E-02 0.  1.
    10030    2    1    2    0    0  0.00000000000E+00  0.00000000000E+00 -0.28314463988E+03  0.31533702510E+04  0.31406325880E+04 0.  0.
        4    1    3    3  502    0  0.12217347540E+04  0.54752266353E+03 -0.96555579125E+03  0.16506715225E+04  0.12699999809E+01 0.  1.
       -4    1    3    3    0  502 -0.12217347540E+04 -0.54752266353E+03  0.68241115137E+03  0.15026987285E+04  0.12699999809E+01 0. -1.
</event>
<event>
 5   0  0.1538349E-06  0.3206903E+04  0.7818609E-02  0.8186997E-01
       -2   -1    0    0    0  501  0.00000000000E+00  0.00000000000E+00  0.10942850421E+04  0.10942850421E+04  0.25500000920E-02 0. -1.
        2   -1    0    0  501    0  0.00000000000E+00  0.00000000000E+00 -0.23495307719E+04  0.23495307719E+04  0.25500000920E-02 0.  1.
    10030    2    1    2    0    0  0.00000000000E+00  0.00000000000E+00 -0.12552457297E+04  0.34438158140E+04  0.32069027922E+04 0.  0.
        1    1    3    3  502    0  0.14825451945E+04 -0.59039689770E+03 -0.79587434576E+03  0.17832343438E+04  0.50400001928E-02 0. -1.
       -1    1    3    3    0  502 -0.14825451945E+04  0.59039689770E+03 -0.45937138396E+03  0.16605814702E+04  0.50400001928E-02 0.  1.
</event>
<event>
 5   0  0.5317728E-07  0.3209361E+04  0.7818609E-02  0.8186349E-01
        1   -1    0    0  501    0  0.00000000000E+00  0.00000000000E+00  0.10510367145E+04  0.10510367145E+04  0.50400001928E-02 0.  1.
       -1   -1    0    0    0  501  0.00000000000E+00  0.00000000000E+00 -0.24499609095E+04  0.24499609095E+04  0.50400001928E-02 0. -1.
    10030    2    1    2    0    0  0.00000000000E+00  0.00000000000E+00 -0.13989241951E+04  0.35009976240E+04  0.32093605998E+04 0.  0.
        2    1    3    3  502    0  0.75653461402E+03 -0.13620690706E+04 -0.28061589653E+03  0.15831367776E+04  0.25500000920E-02 0.  1.
       -2    1    3    3    0  502 -0.75653461402E+03  0.13620690706E+04 -0.11183082985E+04  0.19178608463E+04  0.25500000920E-02 0. -1.
</event>
<event>
 5   0  0.5317728E-07  0.3176591E+04  0.7818609E-02  0.8195027E-01
       -1   -1    0    0    0  501  0.00000000000E+00  0.00000000000E+00  0.14710879530E+04  0.14710879530E+04  0.50400001928E-02 0. -1.
        1   -1    0    0  501    0  0.00000000000E+00  0.00000000000E+00 -0.17148416089E+04  0.17148416089E+04  0.50400001928E-02 0.  1.
    10030    2    1    2    0    0  0.00000000000E+00  0.00000000000E+00 -0.24375365592E+03  0.31859295619E+04  0.31765911491E+04 0.  0.
        2    1    3    3  502    0  0.98824790174E+03  0.10874539312E+04 -0.72655291375E+03  0.16392282038E+04  0.25500000920E-02 0.  1.
       -2    1    3    3    0  502 -0.98824790174E+03 -0.10874539312E+04  0.48279925783E+03  0.15467013581E+04  0.25500000920E-02 0. -1.
</event>
<event>
 5   0  0.5177039E-07  0.3191083E+04  0.7818609E-02  0.8191176E-01
       -1   -1    0    0    0  501  0.00000000000E+00  0.00000000000E+00  0.18852626869E+04  0.18852626869E+04  0.50400001928E-02 0. -1.
        1   -1    0    0  501    0  0.00000000000E+00  0.00000000000E+00 -0.13503441268E+04  0.13503441268E+04  0.50400001928E-02 0.  1.
    10030    2    1    2    0    0  0.00000000000E+00  0.00000000000E+00  0.53491856017E+03  0.32356068137E+04  0.31910834503E+04 0.  0.
        3    1    3    3  502    0 -0.76531116446E+03  0.74019247329E+03 -0.93746749948E+03  0.14186019169E+04  0.10100000352E+00 0.  1.
       -3    1    3    3    0  502  0.76531116446E+03 -0.74019247329E+03  0.14723860596E+04  0.18170048967E+04  0.10100000352E+00 0. -1.
</event>
<event>
 5   0  0.5281187E-07  0.3223521E+04  0.7818609E-02  0.8182633E-01
        1   -1    0    0  501    0  0.00000000000E+00  0.00000000000E+00  0.18180072187E+04  0.18180072187E+04  0.50400001928E-02 0.  1.
       -1   -1    0    0    0  501  0.00000000000E+00  0.00000000000E+00 -0.14289113294E+04  0.14289113294E+04  0.50400001928E-02 0. -1.
    10030    2    1    2    0    0  0.00000000000E+00  0.00000000000E+00  0.38909588934E+03  0.32469185481E+04  0.32235205051E+04 0.  0.
        5    1    3    3  502    0 -0.55913329022E+03 -0.12005864205E+03  0.17123715624E+04  0.18053483241E+04  0.46999998093E+01 0.  1.
       -5    1    3    3    0  502  0.55913329022E+03  0.12005864205E+03 -0.13232756730E+04  0.14415702240E+04  0.46999998093E+01 0. -1.
</event>
<event>
 5   0  0.5233813E-07  0.3210833E+04  0.7818609E-02  0.8185962E-01
        1   -1    0    0  501    0  0.00000000000E+00  0.00000000000E+00  0.25579266550E+04  0.25579266550E+04  0.50400001928E-02 0. -1.
       -1   -1    0    0    0  501  0.00000000000E+00  0.00000000000E+00 -0.10075984217E+04  0.10075984218E+04  0.50400001928E-02 0.  1.
    10030    2    1    2    0    0  0.00000000000E+00  0.00000000000E+00  0.15503282333E+04  0.35655250768E+04  0.32108334498E+04 0.  0.
        4    1    3    3  502    0 -0.61521107656E+03  0.13408925231E+04  0.14782606892E+04  0.20884764076E+04  0.12699999809E+01 0. -1.
       -4    1    3    3    0  502  0.61521107656E+03 -0.13408925231E+04  0.72067544044E+02  0.14770486691E+04  0.12699999809E+01 0.  1.
</event>
<event>
 5   0  0.1508771E-06  0.3159631E+04  0.7818609E-02  0.8199561E-01
        2   -1    0    0  501    0  0.00000000000E+00  0.00000000000E+00  0.78971775410E+03  0.78971775410E+03  0.25500000920E-02 0.  1.
       -2   -1    0    0    0  501  0.00000000000E+00  0.00000000000E+00 -0.31603904504E+04  0.31603904504E+04  0.25500000920E-02 0. -1.
    10030    2    1    2    0    0  0.00000000000E+00  0.00000000000E+00 -0.23706726963E+04  0.39501082045E+04  0.31596306421E+04 0.  0.
        4    1    3    3  502    0 -0.14588794170E+04  0.37354766055E+03 -0.17822209898E+04  0.23332767254E+04  0.12699999809E+01 0. -1.
       -4    1    3    3    0  502  0.14588794170E+04 -0.37354766055E+03 -0.58845170652E+03  0.16168314791E+04  0.12699999809E+01 0.  1.
</event>
<event>
 5   0  0.1538349E-06  0.3200753E+04  0.7818609E-02  0.8188618E-01
        2   -1    0    0  501    0  0.00000000000E+00  0.00000000000E+00  0.17687630359E+04  0.17687630359E+04  0.25500000920E-02 0.  1.
       -2   -1    0    0    0  501  0.00000000000E+00  0.00000000000E+00 -0.14480207333E+04  0.14480207333E+04  0.25500000920E-02 0. -1.
    10030    2    1    2    0    0  0.00000000000E+00  0.00000000000E+00  0.32074230254E+03  0.32167837692E+04  0.32007533790E+04 0.  0.
        1    1    3    3  502    0  0.12500524746E+04  0.77312581393E+03 -0.47592757286E+03  0.15449471732E+04  0.50400001928E-02 0.  1.
       -1    1    3    3    0  502 -0.12500524746E+04 -0.77312581393E+03  0.79666987540E+03  0.16718365960E+04  0.50400001928E-02 0. -1.
</event>
<event>
 5   0  0.1572769E-06  0.3123600E+04  0.7818609E-02  0.8209291E-01
        2   -1    0    0  501    0  0.00000000000E+00  0.00000000000E+00  0.14947992614E+04  0.14947992614E+04  0.25500000920E-02 0.  1.
       -2   -1    0    0    0  501  0.00000000000E+00  0.00000000000E+00 -0.16318038404E+04  0.16318038404E+04  0.25500000920E-02 0. -1.
    10030    2    1    2    0    0  0.00000000000E+00  0.00000000000E+00 -0.13700457900E+03  0.31266031018E+04  0.31235999586E+04 0.  0.
        5    1    3    3  502    0 -0.92494522444E+03 -0.57901284512E+03 -0.11869025957E+04  0.16123087188E+04  0.46999998093E+01 0. -1.
       -5    1    3    3    0  502  0.92494522444E+03  0.57901284512E+03  0.10498980167E+04  0.15142943830E+04  0.46999998093E+01 0.  1.
</event>
<event>
 5   0  0.1493485E-06  0.3216807E+04  0.7818609E-02  0.8184393E-01
       -2   -1    0    0    0  501  0.00000000000E+00  0.00000000000E+00  0.94602849393E+03  0.94602849393E+03  0.25500000920E-02 0.  1.
        2   -1    0    0  501    0  0.00000000000E+00  0.00000000000E+00 -0.27345494548E+04  0.27345494548E+04  0.25500000920E-02 0. -1.
    10030    2    1    2    0    0  0.00000000000E+00  0.00000000000E+00 -0.17885209609E+04  0.36805779487E+04  0.32168069276E+04 0.  0.
        2    1    3    3  502    0 -0.15298400516E+04 -0.44678152375E+03 -0.64637534312E+03  0.17198329563E+04  0.25500000920E-02 0.  1.
       -2    1    3    3    0  502  0.15298400516E+04  0.44678152375E+03 -0.11421456177E+04  0.19607449925E+04  0.25500000920E-02 0. -1.
</event>
<event>
 5   0  0.5317728E-07  0.3029308E+04  0.7818609E-02  0.8235411E-01
       -1   -1    0    0    0  501  0.00000000000E+00  0.00000000000E+00  0.12053143457E+04  0.12053143457E+04  0.50400001928E-02 0. -1.
        1   -1    0    0  501    0  0.00000000000E+00  0.00000000000E+00 -0.19033844940E+04  0.19033844940E+04  0.50400001928E-02 0.  1.
    10030    2    1    2    0    0  0.00000000000E+00  0.00000000000E+00 -0.69807014834E+03  0.31086988397E+04  0.30293079316E+04 0.  0.
        2    1    3    3  502    0  0.79272661977E+03  0.15000476968E+03 -0.16645274425E+04  0.18497482346E+04  0.25500000920E-02 0.  1.
       -2    1    3    3    0  502 -0.79272661977E+03 -0.15000476968E+03  0.96645729418E+03  0.12589506051E+04  0.25500000920E-02 0. -1.
</event>
<event>
 5   0  0.5370912E-07  0.2961923E+04  0.7818609E-02  0.8254688E-01
        1   -1    0    0  501    0  0.00000000000E+00  0.00000000000E+00  0.21818105915E+04  0.21818105915E+04  0.50400001928E-02 0. -1.
       -1   -1    0    0    0  501  0.00000000000E+00  0.00000000000E+00 -0.10052419234E+04  0.10052419234E+04  0.50400001928E-02 0.  1.
    10030    2    1    2    0    0  0.00000000000E+00  0.00000000000E+00  0.11765686682E+04  0.31870525149E+04  0.29619233450E+04 0.  0.
        1    1    3    3  502    0  0.33729349415E+03  0.64896934374E+03 -0.79735272804E+03  0.10819886706E+04  0.50400001928E-02 0.  1.
       -1    1    3    3    0  502 -0.33729349415E+03 -0.64896934374E+03  0.19739213962E+04  0.21050638443E+04  0.50400001928E-02 0. -1.
</event>
<event>
 5   0  0.1572769E-06  0.3201846E+04  0.7818609E-02  0.8188330E-01
       -2   -1    0    0    0  501  0.00000000000E+00  0.00000000000E+00  0.10172732382E+04  0.10172732382E+04  0.25500000920E-02 0.  1.
        2   -1    0    0  501    0  0.00000000000E+00  0.00000000000E+00 -0.25194356937E+04  0.25194356937E+04  0.25500000920E-02 0. -1.
    10030    2    1    2    0    0  0.00000000000E+00  0.00000000000E+00 -0.15021624554E+04  0.35367089319E+04  0.32018460341E+04 0.  0.
        5    1    3    3  502    0 -0.51004092231E+03 -0.11965431311E+04 -0.17820053506E+04  0.22062235532E+04  0.46999998093E+01 0. -1.
       -5    1    3    3    0  502  0.51004092231E+03  0.11965431311E+04  0.27984289519E+03  0.13304853787E+04  0.46999998093E+01 0.  1.
</event>
<event>
 5   0  0.1538349E-06  0.3202152E+04  0.7818609E-02  0.8188249E-01
        2   -1    0    0  501    0  0.00000000000E+00  0.00000000000E+00  0.15964492063E+04  0.15964492063E+04  0.25500000920E-02 0. -1.
       -2   -1    0    0    0  501  0.00000000000E+00  0.00000000000E+00 -0.16057165221E+04  0.16057165221E+04  0.25500000920E-02 0.  1.
    10030    2    1    2    0    0  0.00000000000E+00  0.00000000000E+00 -0.92673157706E+01  0.32021657284E+04  0.32021523182E+04 0.  0.
        1    1    3    3  502    0  0.47050129539E+03  0.69035693161E+03 -0.13704653935E+04  0.16050356871E+04  0.50400001928E-02 0.  1.
       -1    1    3    3    0  502 -0.47050129539E+03 -0.69035693161E+03  0.13611980778E+04  0.15971300413E+04  0.50400001928E-02 0. -1.
</event>
<event>
 5   0  0.5281187E-07  0.3188111E+04  0.7818609E-02  0.8191964E-01
        1   -1    0    0  501    0  0.00000000000E+00  0.00000000000E+00  0.18018875239E+04  0.18018875239E+04  0.50400001928E-02 0. -1.
       -1   -1    0    0    0  501  0.00000000000E+00  0.00000000000E+00 -0.14101947337E+04  0.14101947337E+04  0.50400001928E-02 0.  1.
    10030    2    1    2    0    0  0.00000000000E+00  0.00000000000E+00  0.39169279018E+03  0.32120822576E+04  0.31881105984E+04 0.  0.
        5    1    3    3  502    0  0.70229492164E+03  0.11339390012E+04 -0.68361699924E+03  0.14987962194E+04  0.46999998093E+01 0.  1.
       -5    1    3    3    0  502 -0.70229492164E+03 -0.11339390012E+04  0.10753097894E+04  0.17132860382E+04  0.46999998093E+01 0. -1.
</event>
<event>
 5   0  0.5177039E-07  0.3217876E+04  0.7818609E-02  0.8184112E-01
       -1   -1    0    0    0  501  0.00000000000E+00  0.00000000000E+00  0.12867184591E+04  0.12867184591E+04  0.50400001928E-02 0. -1.
        1   -1    0    0  501    0  0.00000000000E+00  0.00000000000E+00 -0.20118474475E+04  0.20118474475E+04  0.50400001928E-02 0.  1.
    10030    2    1    2    0    0  0.00000000000E+00  0.00000000000E+00 -0.72512898843E+03  0.32985659066E+04  0.32178758507E+04 0.  0.
        3    1    3    3  502    0 -0.10020619408E+04 -0.11812055589E+04  0.83439430922E+02  0.15512372012E+04  0.10100000352E+00 0. -1.
       -3    1    3    3    0  502  0.10020619408E+04  0.11812055589E+04 -0.80856841935E+03  0.17473287054E+04  0.10100000352E+00 0.  1.
</event>
<event>
 5   0  0.1572769E-06  0.3224283E+04  0.7818609E-02  0.8182433E-01
       -2   -1    0    0    0  501  0.00000000000E+00  0.00000000000E+00  0.29560995571E+04  0.29560995571E+04  0.25500000920E-02 0. -1.
        2   -1    0    0  501    0  0.00000000000E+00  0.00000000000E+00 -0.87919920961E+03  0.87919920961E+03  0.25500000920E-02 0.  1.
    10030    2    1    2    0    0  0.00000000000E+00  0.00000000000E+00  0.20769003475E+04  0.38352987667E+04  0.32242831105E+04 0.  0.
        5    1    3    3  502    0  0.77917115996E+03 -0.26714194215E+03  0.26868928255E+04  0.28103180708E+04  0.46999998093E+01 0. -1.
       -5    1    3    3    0  502 -0.77917115996E+03  0.26714194215E+03 -0.60999247796E+03  0.10249806959E+04  0.46999998093E+01 0.  1.
</event>
<event>
 5   0  0.5177039E-07  0.3208323E+04  0.7818609E-02  0.8186622E-01
        1   -1    0    0  501    0  0.00000000000E+00  0.00000000000E+00  0.22270532606E+04  0.22270532607E+04  0.50400001928E-02 0.  1.
       -1   -1    0    0    0  501  0.00000000000E+00  0.00000000000E+00 -0.11554887103E+04  0.11554887104E+04  0.50400001928E-02 0. -1.
    10030    2    1    2    0    0  0.00000000000E+00  0.00000000000E+00  0.10715645503E+04  0.33825419710E+04  0.32083234875E+04 0.  0.
        3    1    3    3  502    0 -0.75842660827E+03  0.12898928715E+04 -0.73801583829E+02  0.14981592786E+04  0.10100000352E+00 0. -1.
       -3    1    3    3    0  502  0.75842660827E+03 -0.12898928715E+04  0.11453661341E+04  0.18843826924E+04  0.10100000352E+00 0.  1.
</event>
<event>
 5   0  0.1556396E-06  0.3208716E+04  0.7818609E-02  0.8186519E-01
        2   -1    0    0  501    0  0.00000000000E+00  0.00000000000E+00  0.13646754132E+04  0.13646754132E+04  0.25500000920E-02 0.  1.
       -2   -1    0    0    0  501  0.00000000000E+00  0.00000000000E+00 -0.18861367739E+04  0.18861367739E+04  0.25500000920E-02 0. -1.
    10030    2    1    2    0    0  0.00000000000E+00  0.00000000000E+00 -0.52146136073E+03  0.32508121871E+04  0.32087159309E+04 0.  0.
        3    1    3    3  502    0  0.70992576141E+03 -0.22443677707E+03 -0.17005005362E+04  0.18563589462E+04  0.10100000352E+00 0. -1.
       -3    1    3    3    0  502 -0.70992576141E+03  0.22443677707E+03  0.11790391754E+04  0.13944532409E+04  0.10100000352E+00 0.  1.
</event>
<event>
 5   0  0.5317728E-07  0.2802392E+04  0.7818609E-02  0.8302526E-01
       -1   -1    0    0    0  501  0.00000000000E+00  0.00000000000E+00  0.95862318241E+03  0.95862318242E+03  0.50400001928E-02 0. -1.
        1   -1    0    0  501    0  0.00000000000E+00  0.00000000000E+00 -0.20480931096E+04  0.20480931096E+04  0.50400001928E-02 0.  1.
    10030    2    1    2    0    0  0.00000000000E+00  0.00000000000E+00 -0.10894699272E+04  0.30067162920E+04  0.28023915034E+04 0.  0.
        2    1    3    3  502    0  0.57014045392E+03 -0.23646841063E+03 -0.18943749914E+04  0.19923940510E+04  0.25500000920E-02 0.  1.
       -2    1    3    3    0  502 -0.57014045392E+03  0.23646841063E+03  0.80490506416E+03  0.10143222411E+04  0.25500000920E-02 0. -1.
</event>
<event>
 5   0  0.1538349E-06  0.3113271E+04  0.7818609E-02  0.8212105E-01
       -2   -1    0    0    0  501  0.00000000000E+00  0.00000000000E+00  0.20750227012E+04  0.20750227012E+04  0.25500000920E-02 0. -1.
        2   -1    0    0  501    0  0.00000000000E+00  0.00000000000E+00 -0.11677534038E+04  0.11677534038E+04  0.25500000920E-02 0.  1.
    10030    2    1    2    0    0  0.00000000000E+00  0.00000000000E+00  0.90726929740E+03  0.32427761051E+04  0.31132714770E+04 0.  0.
        1    1    3    3  502    0  0.14084122292E+04  0.30754813235E+03  0.10653495537E+04  0.17925346671E+04  0.50400001928E-02 0.  1.
       -1    1    3    3    0  502 -0.14084122292E+04 -0.30754813235E+03 -0.15808025626E+03  0.14502414380E+04  0.50400001928E-02 0. -1.
</event>
<event>
 5   0  0.5317728E-07  0.3193478E+04  0.7818609E-02  0.8190542E-01
       -1   -1    0    0    0  501  0.00000000000E+00  0.00000000000E+00  0.12855096370E+04  0.12855096370E+04  0.50400001928E-02 0.  1.
        1   -1    0    0  501    0  0.00000000000E+00  0.00000000000E+00 -0.19833184732E+04  0.19833184732E+04  0.50400001928E-02 0. -1.
    10030    2    1    2    0    0  0.00000000000E+00  0.00000000000E+00 -0.69780883623E+03  0.32688281103E+04  0.31934777348E+04 0.  0.
        2    1    3    3  502    0  0.49491823935E+03  0.11615924443E+04  0.65156955483E+03  0.14208391729E+04  0.25500000920E-02 0.  1.
       -2    1    3    3    0  502 -0.49491823935E+03 -0.11615924443E+04 -0.13493783911E+04  0.18479889374E+04  0.25500000920E-02 0. -1.
</event>
<event>
 5   0  0.1508771E-06  0.3187057E+04  0.7818609E-02  0.8192244E-01
        2   -1    0    0  501    0  0.00000000000E+00  0.00000000000E+00  0.17185487062E+04  0.17185487062E+04  0.25500000920E-02 0. -1.
       -2   -1    0    0    0  501  0.00000000000E+00  0.00000000000E+00 -0.14776028309E+04  0.14776028309E+04  0.25500000920E-02 0.  1.
    10030    2    1    2    0    0  0.00000000000E+00  0.00000000000E+00  0.24094587529E+03  0.31961515372E+04  0.31870565941E+04 0.  0.
        4    1    3    3  502    0  0.78506745671E+03 -0.64172110242E+03  0.13532873066E+04  0.16910130194E+04  0.12699999809E+01 0. -1.
       -4    1    3    3    0  502 -0.78506745671E+03  0.64172110242E+03 -0.11123414313E+04  0.15051385177E+04  0.12699999809E+01 0.  1.
</event>
<event>
 5   0  0.5233813E-07  0.3203506E+04  0.7818609E-02  0.8187892E-01
        1   -1    0    0  501    0  0.00000000000E+00  0.00000000000E+00  0.85162391321E+03  0.85162391323E+03  0.50400001928E-02 0. -1.
       -1   -1    0    0    0  501  0.00000000000E+00  0.00000000000E+00 -0.30126128307E+04  0.30126128307E+04  0.50400001928E-02 0.  1.
    10030    2    1    2    0    0  0.00000000000E+00  0.00000000000E+00 -0.21609889175E+04  0.38642367439E+04  0.32035062840E+04 0.  0.
        4    1    3    3  502    0  0.19399724577E+03  0.20940468272E+03 -0.29816820833E+04  0.29953154944E+04  0.12699999809E+01 0.  1.
       -4    1    3    3    0  502 -0.19399724577E+03 -0.20940468272E+03  0.82069316581E+03  0.86892124949E+03  0.12699999809E+01 0. -1.
</event>
<event>
 5   0  0.5317728E-07  0.3207928E+04  0.7818609E-02  0.8186726E-01
       -1   -1    0    0    0  501  0.00000000000E+00  0.00000000000E+00  0.12078316058E+04  0.12078316058E+04  0.50400001928E-02 0.  1.
        1   -1    0    0  501    0  0.00000000000E+00  0.00000000000E+00 -0.21300164286E+04  0.21300164286E+04  0.50400001928E-02 0. -1.
    10030    2    1    2    0    0  0.00000000000E+00  0.00000000000E+00 -0.92218482283E+03  0.33378480345E+04  0.32079284053E+04 0.  0.
        2    1    3    3  502    0  0.15459935947E+04  0.32610513282E+03 -0.17375547031E+03  0.15895382084E+04  0.25500000920E-02 0. -1.
       -2    1    3    3    0  502 -0.15459935947E+04 -0.32610513282E+03 -0.74842935253E+03  0.17483098261E+04  0.25500000920E-02 0.  1.
</event>
<event>
 5   0  0.5281187E-07  0.3192442E+04  0.7818609E-02  0.8190816E-01
        1   -1    0    0  501    0  0.00000000000E+00  0.00000000000E+00  0.23694122482E+04  0.23694122482E+04  0.50400001928E-02 0.  1.
       -1   -1    0    0    0  501  0.00000000000E+00  0.00000000000E+00 -0.10753392272E+04  0.10753392272E+04  0.50400001928E-02 0. -1.
    10030    2    1    2    0    0  0.00000000000E+00  0.00000000000E+00  0.12940730210E+04  0.34447514754E+04  0.31924422851E+04 0.  0.
        5    1    3    3  502    0  0.69732710996E+03 -0.65146065439E+03 -0.73363443685E+03  0.12037058027E+04  0.46999998093E+01 0. -1.
       -5    1    3    3    0  502 -0.69732710996E+03  0.65146065439E+03  0.20277074578E+04  0.22410456727E+04  0.46999998093E+01 0.  1.
</event>
<event>
 5   0  0.5317728E-07  0.3200048E+04  0.7818609E-02  0.8188805E-01
       -1   -1    0    0    0  501  0.00000000000E+00  0.00000000000E+00  0.14489916400E+04  0.14489916401E+04  0.50400001928E-02 0. -1.
        1   -1    0    0  501    0  0.00000000000E+00  0.00000000000E+00 -0.17667986211E+04  0.17667986211E+04  0.50400001928E-02 0.  1.
    10030    2    1    2    0    0  0.00000000000E+00  0.00000000000E+00 -0.31780698104E+03  0.32157902612E+04  0.32000477694E+04 0.  0.
        2    1    3    3  502    0 -0.16307585816E+03 -0.12886818837E+04  0.77992026388E+03  0.15151139729E+04  0.25500000920E-02 0. -1.
       -2    1    3    3    0  502  0.16307585816E+03  0.12886818837E+04 -0.10977272449E+04  0.17006762882E+04  0.25500000920E-02 0.  1.
</event>
<event>
 5   0  0.5177039E-07  0.3199584E+04  0.7818609E-02  0.8188927E-01
        1   -1    0    0  501    0  0.00000000000E+00  0.00000000000E+00  0.21312181603E+04  0.21312181603E+04  0.50400001928E-02 0. -1.
       -1   -1    0    0    0  501  0.00000000000E+00  0.00000000000E+00 -0.12008783169E+04  0.12008783169E+04  0.50400001928E-02 0.  1.
    10030    2    1    2    0    0  0.00000000000E+00  0.00000000000E+00  0.93033984339E+03  0.33320964771E+04  0.31995835212E+04 0.  0.
        3    1    3    3  502    0  0.25391422266E+03  0.55016617820E+03  0.20070907121E+04  0.20965610873E+04  0.10100000352E+00 0. -1.
       -3    1    3    3    0  502 -0.25391422266E+03 -0.55016617820E+03 -0.10767508687E+04  0.12355353898E+04  0.10100000352E+00 0.  1.
</event>
<event>
 5   0  0.5281187E-07  0.3163893E+04  0.7818609E-02  0.8198418E-01
       -1   -1    0    0    0  501  0.00000000000E+00  0.00000000000E+00  0.15802632059E+04  0.15802632059E+04  0.50400001928E-02 0. -1.
        1   -1    0    0  501    0  0.00000000000E+00  0.00000000000E+00 -0.15836319587E+04  0.15836319587E+04  0.50400001928E-02 0.  1.
    10030    2    1    2    0    0  0.00000000000E+00  0.00000000000E+00 -0.33687528632E+01  0.31638951646E+04  0.31638933712E+04 0.  0.
        5    1    3    3  502    0 -0.67285274202E+03 -0.14257966909E+04  0.12833957868E+03  0.15818091395E+04  0.46999998093E+01 0. -1.
       -5    1    3    3    0  502  0.67285274202E+03  0.14257966909E+04 -0.13170833154E+03  0.15820860251E+04  0.46999998093E+01 0.  1.
</event>
<event>
 5   0  0.5281187E-07  0.3193858E+04  0.7818609E-02  0.8190441E-01
        1   -1    0    0  501    0  0.00000000000E+00  0.00000000000E+00  0.14446123721E+04  0.14446123722E+04  0.50400001928E-02 0. -1.
       -1   -1    0    0    0  501  0.00000000000E+00  0.00000000000E+00 -0.17653054957E+04  0.17653054957E+04  0.50400001928E-02 0.  1.
    10030    2    1    2    0    0  0.00000000000E+00  0.00000000000E+00 -0.32069312358E+03  0.32099178679E+04  0.31938579554E+04 0.  0.
        5    1    3    3  502    0 -0.90682688656E+03 -0.38694402591E+03 -0.14228875861E+04  0.17310955647E+04  0.46999998093E+01 0.  1.
       -5    1    3    3    0  502  0.90682688656E+03  0.38694402591E+03  0.11021944625E+04  0.14788223032E+04  0.46999998093E+01 0. -1.
</event>
<event>
 5   0  0.5281187E-07  0.3158829E+04  0.7818609E-02  0.8199776E-01
       -1   -1    0    0    0  501  0.00000000000E+00  0.00000000000E+00  0.11441350170E+04  0.11441350170E+04  0.50400001928E-02 0. -1.
        1   -1    0    0  501    0  0.00000000000E+00  0.00000000000E+00 -0.21802936717E+04  0.21802936717E+04  0.50400001928E-02 0.  1.
    10030    2    1    2    0    0  0.00000000000E+00  0.00000000000E+00 -0.10361586547E+04  0.33244286888E+04  0.31588291104E+04 0.  0.
        5    1    3    3  502    0 -0.79198261709E+03 -0.13658860280E+04 -0.56079194176E+03  0.16755270213E+04  0.46999998093E+01 0.  1.
       -5    1    3    3    0  502  0.79198261709E+03  0.13658860280E+04 -0.47536671298E+03  0.16489016675E+04  0.46999998093E+01 0. -1.
</event>
<event>
 5   0  0.1508771E-06  0.3213179E+04  0.7818609E-02  0.8185345E-01
        2   -1    0    0  501    0  0.00000000000E+00  0.00000000000E+00  0.20399528861E+04  0.20399528861E+04  0.25500000920E-02 0.  1.
       -2   -1    0    0    0  501  0.00000000000E+00  0.00000000000E+00 -0.12652888042E+04  0.12652888042E+04  0.25500000920E-02 0. -1.
    10030    2    1    2    0    0  0.00000000000E+00  0.00000000000E+00  0.77466408192E+03  0.33052416903E+04  0.32131788296E+04 0.  0.
        4    1    3    3  502    0 -0.10442863587E+04  0.34052399759E+03  0.15933739347E+04  0.19352862064E+04  0.12699999809E+01 0.  1.
       -4    1    3    3    0  502  0.10442863587E+04 -0.34052399759E+03 -0.81870985273E+03  0.13699554839E+04  0.12699999809E+01 0. -1.
</event>
<event>
 5   0  0.5233813E-07  0.3127758E+04  0.7818609E-02  0.8208161E-01
        1   -1    0    0  501    0  0.00000000000E+00  0.00000000000E+00  0.21594669668E+04  0.21594669668E+04  0.50400001928E-02 0.  1.
       -1   -1    0    0    0  501  0.00000000000E+00  0.00000000000E+00 -0.11325564592E+04  0.11325564592E+04  0.50400001928E-02 0. -1.
    10030    2    1    2    0    0  0.00000000000E+00  0.00000000000E+00  0.10269105076E+04  0.32920234260E+04  0.31277584700E+04 0.  0.
        4    1    3    3  502    0 -0.54681582765E+03 -0.14599127342E+04  0.64391620987E+03  0.16867075736E+04  0.12699999809E+01 0.  1.
       -4    1    3    3    0  502  0.54681582765E+03  0.14599127342E+04  0.38299429768E+03  0.16053158523E+04  0.12699999809E+01 0. -1.
</event>
<event>
 5   0  0.1556396E-06  0.3261620E+04  0.7818609E-02  0.8172730E-01
       -2   -1    0    0    0  501  0.00000000000E+00  0.00000000000E+00  0.15806792571E+04  0.15806792571E+04  0.25500000920E-02 0. -1.
        2   -1    0    0  501    0  0.00000000000E+00  0.00000000000E+00 -0.16825307247E+04  0.16825307247E+04  0.25500000920E-02 0.  1.
    10030    2    1    2    0    0  0.00000000000E+00  0.00000000000E+00 -0.10185146763E+03  0.32632099818E+04  0.32616200980E+04 0.  0.
        3    1    3    3  502    0 -0.47536118751E+02 -0.11676440997E+04 -0.11889726156E+04  0.16671257651E+04  0.10100000352E+00 0.  1.
       -3    1    3    3    0  502  0.47536118751E+02  0.11676440997E+04  0.10871211479E+04  0.15960842166E+04  0.10100000352E+00 0. -1.
</event>
<event>
 5   0  0.1538349E-06  0.3203284E+04  0.7818609E-02  0.8187950E-01
       -2   -1    0    0    0  501  0.00000000000E+00  0.00000000000E+00  0.19750698631E+04  0.19750698631E+04  0.25500000920E-02 0.  1.
        2   -1    0    0  501    0  0.00000000000E+00  0.00000000000E+00 -0.12988182669E+04  0.12988182669E+04  0.25500000920E-02 0. -1.
    10030    2    1    2    0    0  0.00000000000E+00  0.00000000000E+00  0.67625159617E+03  0.32738881300E+04  0.32032838254E+04 0.  0.
        1    1    3    3  502    0 -0.86152813377E+03 -0.39272397006E+03  0.16584171421E+04  0.19096623416E+04  0.50400001928E-02 0.  1.
       -1    1    3    3    0  502  0.86152813377E+03  0.39272397006E+03 -0.98216554591E+03  0.13642257883E+04  0.50400001928E-02 0. -1.
</event>
<event>
 5   0  0.5233813E-07  0.3187988E+04  0.7818609E-02  0.8191997E-01
        1   -1    0    0  501    0  0.00000000000E+00  0.00000000000E+00  0.16871347185E+04  0.16871347185E+04  0.50400001928E-02 0. -1.
       -1   -1    0    0    0  501  0.00000000000E+00  0.00000000000E+00 -0.15059951652E+04  0.15059951652E+04  0.50400001928E-02 0.  1.
    10030    2    1    2    0    0  0.00000000000E+00  0.00000000000E+00  0.18113955333E+03  0.31931298838E+04  0.31879879104E+04 0.  0.
        4    1    3    3  502    0  0.11198247129E+04 -0.10222220498E+04  0.58316562786E+03  0.16245088702E+04  0.12699999809E+01 0. -1.
       -4    1    3    3    0  502 -0.11198247129E+04  0.10222220498E+04 -0.40202607454E+03  0.15686210136E+04  0.12699999809E+01 0.  1.
</event>
<event>
 5   0  0.1538349E-06  0.3239054E+04  0.7818609E-02  0.8178579E-01
       -2   -1    0    0    0  501  0.00000000000E+00  0.00000000000E+00  0.12034327086E+04  0.12034327086E+04  0.25500000920E-02 0.  1.
        2   -1    0    0  501    0  0.00000000000E+00  0.00000000000E+00 -0.21794882192E+04  0.21794882192E+04  0.25500000920E-02 0. -1.
    10030    2    1    2    0    0  0.00000000000E+00  0.00000000000E+00 -0.97605551058E+03  0.33829209279E+04  0.32390538193E+04 0.  0.
        1    1    3    3  502    0 -0.73647309506E+03 -0.20329236587E+03  0.10033853345E+04  0.12611512738E+04  0.50400001928E-02 0.  1.
       -1    1    3    3    0  502  0.73647309506E+03  0.20329236587E+03 -0.19794408451E+04  0.21217696541E+04  0.50400001928E-02 0. -1.
</event>
<event>
 5   0  0.1538349E-06  0.3210736E+04  0.7818609E-02  0.8185988E-01
       -2   -1    0    0    0  501  0.00000000000E+00  0.00000000000E+00  0.21447992817E+04  0.21447992817E+04  0.25500000920E-02 0. -1.
        2   -1    0    0  501    0  0.00000000000E+00  0.00000000000E+00 -0.12016071201E+04  0.12016071202E+04  0.25500000920E-02 0.  1.
    10030    2    1    2    0    0  0.00000000000E+00  0.00000000000E+00  0.94319216151E+03  0.33464064018E+04  0.32107357961E+04 0.  0.
        1    1    3    3  502    0 -0.86921588568E+03  0.87031241572E+03 -0.60360841510E+03  0.13701543985E+04  0.50400001928E-02 0.  1.
       -1    1    3    3    0  502  0.86921588568E+03 -0.87031241572E+03  0.15468005766E+04  0.19762520033E+04  0.50400001928E-02 0. -1.
</event>
<event>
 5   0  0.5317728E-07  0.3218060E+04  0.7818609E-02  0.8184064E-01
        1   -1    0    0  501    0  0.00000000000E+00  0.00000000000E+00  0.24633378537E+04  0.24633378537E+04  0.50400001928E-02 0. -1.
       -1   -1    0    0    0  501  0.00000000000E+00  0.00000000000E+00 -0.10510035722E+04  0.10510035723E+04  0.50400001928E-02 0.  1.
    10030    2    1    2    0    0  0.00000000000E+00  0.00000000000E+00  0.14123342814E+04  0.35143414259E+04  0.32180595917E+04 0.  0.
        2    1    3    3  502    0  0.13282153309E+04 -0.81728565046E+03  0.27364034941E+03  0.15833479846E+04  0.25500000920E-02 0.  1.
       -2    1    3    3    0  502 -0.13282153309E+04  0.81728565046E+03  0.11386939320E+04  0.19309934413E+04  0.25500000920E-02 0. -1.
</event>
<event>
 5   0  0.1538349E-06  0.3211505E+04  0.7818609E-02  0.8185785E-01
       -2   -1    0    0    0  501  0.00000000000E+00  0.00000000000E+00  0.13270688704E+04  0.13270688704E+04  0.25500000920E-02 0. -1.
        2   -1    0    0  501    0  0.00000000000E+00  0.00000000000E+00 -0.19429593111E+04  0.19429593111E+04  0.25500000920E-02 0.  1.
    10030    2    1    2    0    0  0.00000000000E+00  0.00000000000E+00 -0.61589044069E+03  0.32700281815E+04  0.32115048299E+04 0.  0.
        1    1    3    3  502    0  0.77273751135E+03  0.10045191905E+04  0.69605508926E+03  0.14459165788E+04  0.50400001928E-02 0. -1.
       -1    1    3    3    0  502 -0.77273751135E+03 -0.10045191905E+04 -0.13119455299E+04  0.18241116027E+04  0.50400001928E-02 0.  1.
</event>
<event>
 5   0  0.5233813E-07  0.3194866E+04  0.7818609E-02  0.8190174E-01
       -1   -1    0    0    0  501  0.00000000000E+00  0.00000000000E+00  0.94934443105E+03  0.94934443107E+03  0.50400001928E-02 0. -1.
        1   -1    0    0  501    0  0.00000000000E+00  0.00000000000E+00 -0.26879511978E+04  0.26879511978E+04  0.50400001928E-02 0.  1.
    10030    2    1    2    0    0  0.00000000000E+00  0.00000000000E+00 -0.17386067667E+04  0.36372956288E+04  0.31948655687E+04 0.  0.
        4    1    3    3  502    0 -0.10585233664E+04  0.41715030547E+03  0.40727099788E+03  0.12084524704E+04  0.12699999809E+01 0. -1.
       -4    1    3    3    0  502  0.10585233664E+04 -0.41715030547E+03 -0.21458777646E+04  0.24288431584E+04  0.12699999809E+01 0.  1.
</event>
<event>
 5   0  0.5317728E-07  0.3177347E+04  0.7818609E-02  0.8194825E-01
       -1   -1    0    0    0  501  0.00000000000E+00  0.00000000000E+00  0.17717243922E+04  0.17717243922E+04  0.50400001928E-02 0. -1.
        1   -1    0    0  501    0  0.00000000000E+00  0.00000000000E+00 -0.14245352998E+04  0.14245352998E+04  0.50400001928E-02 0.  1.
    10030    2    1    2    0    0  0.00000000000E+00  0.00000000000E+00  0.34718909233E+03  0.31962596920E+04  0.31773472824E+04 0.  0.
        2    1    3    3  502    0  0.12119666475E+04  0.71688907357E+03 -0.56637264309E+03  0.15177519789E+04  0.25500000920E-02 0.  1.
       -2    1    3    3    0  502 -0.12119666475E+04 -0.71688907357E+03  0.91356173542E+03  0.16785077131E+04  0.25500000920E-02 0. -1.
</event>
<event>
 5   0  0.5370912E-07  0.3194024E+04  0.7818609E-02  0.8190397E-01
        1   -1    0    0  501    0  0.00000000000E+00  0.00000000000E+00  0.12445036908E+04  0.12445036909E+04  0.50400001928E-02 0.  1.
       -1   -1    0    0    0  501  0.00000000000E+00  0.00000000000E+00 -0.20493686404E+04  0.20493686404E+04  0.50400001928E-02 0. -1.
    10030    2    1    2    0    0  0.00000000000E+00  0.00000000000E+00 -0.80486494956E+03  0.32938723313E+04  0.31940236924E+04 0.  0.
        1    1    3    3  502    0  0.15355846953E+04  0.43677599896E+03 -0.36050176007E+03  0.16366903033E+04  0.50400001928E-02 0. -1.
       -1    1    3    3    0  502 -0.15355846953E+04 -0.43677599896E+03 -0.44436318948E+03  0.16571820280E+04  0.50400001928E-02 0.  1.
</event>
<event>
 5   0  0.1538349E-06  0.3167476E+04  0.7818609E-02  0.8197460E-01
        2   -1    0    0  501    0  0.00000000000E+00  0.00000000000E+00  0.18132393422E+04  0.18132393422E+04  0.25500000920E-02 0.  1.
       -2   -1    0    0    0  501  0.00000000000E+00  0.00000000000E+00 -0.13832847061E+04  0.13832847061E+04  0.25500000920E-02 0. -1.
    10030    2    1    2    0    0  0.00000000000E+00  0.00000000000E+00  0.42995463610E+03  0.31965240482E+04  0.31674761249E+04 0.  0.
        1    1    3    3  502    0  0.86659877769E+02 -0.14022069018E+04  0.95279919773E+03  0.16975041800E+04  0.50400001928E-02 0.  1.
       -1    1    3    3    0  502 -0.86659877769E+02  0.14022069018E+04 -0.52284456163E+03  0.14990198683E+04  0.50400001928E-02 0. -1.
</event>
<event>
 5   0  0.5370912E-07  0.3204897E+04  0.7818609E-02  0.8187525E-01
       -1   -1    0    0    0  501  0.00000000000E+00  0.00000000000E+00  0.10372892121E+04  0.10372892121E+04  0.50400001928E-02 0.  1.
        1   -1    0    0  501    0  0.00000000000E+00  0.00000000000E+00 -0.24755303493E+04  0.24755303493E+04  0.50400001928E-02 0. -1.
    10030    2    1    2    0    0  0.00000000000E+00  0.00000000000E+00 -0.14382411372E+04  0.35128195613E+04  0.32048968317E+04 0.  0.
        1    1    3    3  502    0 -0.94010059303E+03 -0.10953703734E+04  0.43592438472E+02  0.14441349247E+04  0.50400001928E-02 0.  1.
       -1    1    3    3    0  502  0.94010059303E+03  0.10953703734E+04 -0.14818335757E+04  0.20686846367E+04  0.50400001928E-02 0. -1.
</event>
<event>
 5   0  0.5233813E-07  0.3217436E+04  0.7818609E-02  0.8184227E-01
       -1   -1    0    0    0  501  0.00000000000E+00  0.00000000000E+00  0.15780486501E+04  0.15780486501E+04  0.50400001928E-02 0. -1.
        1   -1    0    0  501    0  0.00000000000E+00  0.00000000000E+00 -0.16399837778E+04  0.16399837778E+04  0.50400001928E-02 0.  1.
    10030    2    1    2    0    0  0.00000000000E+00  0.00000000000E+00 -0.61935127732E+02  0.32180324279E+04  0.32174363625E+04 0.  0.
        4    1    3    3  502    0  0.12975413810E+03 -0.35352085772E+03  0.15333424694E+04  0.15789090774E+04  0.12699999809E+01 0. -1.
       -4    1    3    3    0  502 -0.12975413810E+03  0.35352085772E+03 -0.15952775972E+04  0.16391233505E+04  0.12699999809E+01 0.  1.
</event>
<event>
 5   0  0.1493485E-06  0.3220580E+04  0.7818609E-02  0.8183403E-01
        2   -1    0    0  501    0  0.00000000000E+00  0.00000000000E+00  0.86656068440E+03  0.86656068440E+03  0.25500000920E-02 0. -1.
       -2   -1    0    0    0  501  0.00000000000E+00  0.00000000000E+00 -0.29923287658E+04  0.29923287658E+04  0.25500000920E-02 0.  1.
    10030    2    1    2    0    0  0.00000000000E+00  0.00000000000E+00 -0.21257680814E+04  0.38588894502E+04  0.32205803596E+04 0.  0.
        2    1    3    3  502    0  0.13943913665E+04 -0.67944074455E+03 -0.15811197268E+04  0.22149281250E+04  0.25500000920E-02 0.  1.
       -2    1    3    3    0  502 -0.13943913665E+04  0.67944074455E+03 -0.54464835454E+03  0.16439613251E+04  0.25500000920E-02 0. -1.
</event>
<event>
 5   0  0.1493485E-06  0.3177257E+04  0.7818609E-02  0.8194850E-01
        2   -1    0    0  501    0  0.00000000000E+00  0.00000000000E+00  0.18556235463E+04  0.18556235463E+04  0.25500000920E-02 0. -1.
       -2   -1    0    0    0  501  0.00000000000E+00  0.00000000000E+00 -0.13600495373E+04  0.13600495373E+04  0.25500000920E-02 0.  1.
    10030    2    1    2    0    0  0.00000000000E+00  0.00000000000E+00  0.49557400902E+03  0.32156730836E+04  0.31772566441E+04 0.  0.
        2    1    3    3  502    0 -0.46416914546E+03  0.55963334869E+03  0.16773445834E+04  0.18281486078E+04  0.25500000920E-02 0. -1.
       -2    1    3    3    0  502  0.46416914546E+03 -0.55963334869E+03 -0.11817705744E+04  0.13875244758E+04  0.25500000920E-02 0.  1.
</event>
<event>
 5   0  0.1572769E-06  0.3210523E+04  0.7818609E-02  0.8186044E-01
        2   -1    0    0  501    0  0.00000000000E+00  0.00000000000E+00  0.10143303840E+04  0.10143303840E+04  0.25500000920E-02 0.  1.
       -2   -1    0    0    0  501  0.00000000000E+00  0.00000000000E+00 -0.25404583894E+04  0.25404583894E+04  0.25500000920E-02 0. -1.
    10030    2    1    2    0    0  0.00000000000E+00  0.00000000000E+00 -0.15261280055E+04  0.35547887734E+04  0.32105227821E+04 0.  0.
        5    1    3    3  502    0 -0.58274763869E+02  0.14341289991E+04  0.32849230776E+02  0.14356960319E+04  0.46999998093E+01 0.  1.
       -5    1    3    3    0  502  0.58274763869E+02 -0.14341289991E+04 -0.15589772362E+04  0.21190927415E+04  0.46999998093E+01 0. -1.
</event>
<event>
 5   0  0.1538349E-06  0.3256183E+04  0.7818609E-02  0.8174135E-01
        2   -1    0    0  501    0  0.00000000000E+00  0.00000000000E+00  0.18974458499E+04  0.18974458499E+04  0.25500000920E-02 0.  1.
       -2   -1    0    0    0  501  0.00000000000E+00  0.00000000000E+00 -0.13969739354E+04  0.13969739354E+04  0.25500000920E-02 0. -1.
    10030    2    1    2    0    0  0.00000000000E+00  0.00000000000E+00  0.50047191450E+03  0.32944197854E+04  0.32561832849E+04 0.  0.
        1    1    3    3  502    0  0.13368507393E+04  0.88603530002E+03 -0.33149451843E+02  0.16041593868E+04  0.50400001928E-02 0.  1.
       -1    1    3    3    0  502 -0.13368507393E+04 -0.88603530002E+03  0.53362136634E+03  0.16902603985E+04  0.50400001928E-02 0. -1.
</event>
<event>
 5   0  0.5177039E-07  0.3207279E+04  0.7818609E-02  0.8186898E-01
       -1   -1    0    0    0  501  0.00000000000E+00  0.00000000000E+00  0.15937043496E+04  0.15937043497E+04  0.50400001928E-02 0. -1.
        1   -1    0    0  501    0  0.00000000000E+00  0.00000000000E+00 -0.16136363569E+04  0.16136363569E+04  0.50400001928E-02 0.  1.
    10030    2    1    2    0    0  0.00000000000E+00  0.00000000000E+00 -0.19932007290E+02  0.32073407066E+04  0.32072787723E+04 0.  0.
        3    1    3    3  502    0  0.58354562550E+03  0.13562113747E+04 -0.63593694034E+03  0.16075604474E+04  0.10100000352E+00 0.  1.
       -3    1    3    3    0  502 -0.58354562550E+03 -0.13562113747E+04  0.61600493306E+03  0.15997802592E+04  0.10100000352E+00 0. -1.
</event>
<event>
 5   0  0.1508771E-06  0.3214675E+04  0.7818609E-02  0.8184952E-01
        2   -1    0    0  501    0  0.00000000000E+00  0.00000000000E+00  0.13098879794E+04  0.13098879794E+04  0.25500000920E-02 0. -1.
       -2   -1    0    0    0  501  0.00000000000E+00  0.00000000000E+00 -0.19723317005E+04  0.19723317005E+04  0.25500000920E-02 0.  1.
    10030    2    1    2    0    0  0.00000000000E+00  0.00000000000E+00 -0.66244372117E+03  0.32822196799E+04  0.32146748425E+04 0.  0.
        4    1    3    3  502    0 -0.42469300152E+03 -0.12569450766E+04  0.59517757925E+03  0.14541365255E+04  0.12699999809E+01 0. -1.
       -4    1    3    3    0  502  0.42469300152E+03  0.12569450766E+04 -0.12576213004E+04  0.18280831544E+04  0.12699999809E+01 0.  1.
</event>
<event>
 5   0  0.1572769E-06  0.3224510E+04  0.7818609E-02  0.8182374E-01
       -2   -1    0    0    0  501  0.00000000000E+00  0.00000000000E+00  0.15066237923E+04  0.15066237923E+04  0.25500000920E-02 0.  1.
        2   -1    0    0  501    0  0.00000000000E+00  0.00000000000E+00 -0.17252916935E+04  0.17252916935E+04  0.25500000920E-02 0. -1.
    10030    2    1    2    0    0  0.00000000000E+00  0.00000000000E+00 -0.21866790124E+03  0.32319154858E+04  0.32245095838E+04 0.  0.
        5    1    3    3  502    0 -0.68728708933E+03  0.11030646264E+04  0.84691614822E+03  0.15512588969E+04  0.46999998093E+01 0.  1.
       -5    1    3    3    0  502  0.68728708933E+03 -0.11030646264E+04 -0.10655840495E+04  0.16806565888E+04  0.46999998093E+01 0. -1.
</event>
<event>
 5   0  0.1538349E-06  0.3181302E+04  0.7818609E-02  0.8193773E-01
        2   -1    0    0  501    0  0.00000000000E+00  0.00000000000E+00  0.20472500175E+04  0.20472500175E+04  0.25500000920E-02 0.  1.
       -2   -1    0    0    0  501  0.00000000000E+00  0.00000000000E+00 -0.12358872105E+04  0.12358872105E+04  0.25500000920E-02 0. -1.
    10030    2    1    2    0    0  0.00000000000E+00  0.00000000000E+00  0.81136280700E+03  0.32831372281E+04  0.31813016917E+04 0.  0.
        1    1    3    3  502    0 -0.13915120856E+04  0.75075065263E+03  0.22622520668E+03  0.15972195438E+04  0.50400001928E-02 0. -1.
       -1    1    3    3    0  502  0.13915120856E+04 -0.75075065263E+03  0.58513760032E+03  0.16859176843E+04  0.50400001928E-02 0.  1.
</event>
<event>
 5   0  0.5370912E-07  0.3295256E+04  0.7818609E-02  0.8164104E-01
        1   -1    0    0  501    0  0.00000000000E+00  0.00000000000E+00  0.15841427687E+04  0.15841427687E+04  0.50400001928E-02 0.  1.
       -1   -1    0    0    0  501  0.00000000000E+00  0.00000000000E+00 -0.17136570524E+04  0.17136570524E+04  0.50400001928E-02 0. -1.
    10030    2    1    2    0    0  0.00000000000E+00  0.00000000000E+00 -0.12951428365E+03  0.32977998211E+04  0.32952556366E+04 0.  0.
        1    1    3    3  502    0 -0.10739947145E+04  0.11314393967E+03  0.11805553217E+04  0.15999928330E+04  0.50400001928E-02 0.  1.
       -1    1    3    3    0  502  0.10739947145E+04 -0.11314393967E+03 -0.13100696054E+04  0.16978069881E+04  0.50400001928E-02 0. -1.
</event>
<event>
 5   0  0.5317728E-07  0.3196094E+04  0.7818609E-02  0.8189849E-01
       -1   -1    0    0    0  501  0.00000000000E+00  0.00000000000E+00  0.10583415064E+04  0.10583415064E+04  0.50400001928E-02 0. -1.
        1   -1    0    0  501    0  0.00000000000E+00  0.00000000000E+00 -0.24129775501E+04  0.24129775501E+04  0.50400001928E-02 0.  1.
    10030    2    1    2    0    0  0.00000000000E+00  0.00000000000E+00 -0.13546360437E+04  0.34713190565E+04  0.31960940507E+04 0.  0.
        2    1    3    3  502    0 -0.66888174846E+03  0.64679744406E+03  0.73379497065E+03  0.11849914709E+04  0.25500000920E-02 0. -1.
       -2    1    3    3    0  502  0.66888174846E+03 -0.64679744406E+03 -0.20884310144E+04  0.22863275856E+04  0.25500000920E-02 0.  1.
</event>
<event>
 5   0  0.5317728E-07  0.3196633E+04  0.7818609E-02  0.8189707E-01
       -1   -1    0    0    0  501  0.00000000000E+00  0.00000000000E+00  0.94708872386E+03  0.94708872388E+03  0.50400001928E-02 0.  1.
        1   -1    0    0  501    0  0.00000000000E+00  0.00000000000E+00 -0.26973357570E+04  0.26973357570E+04  0.50400001928E-02 0. -1.
    10030    2    1    2    0    0  0.00000000000E+00  0.00000000000E+00 -0.17502470331E+04  0.36444244809E+04  0.31966334040E+04 0.  0.
        2    1    3    3  502    0  0.81850182834E+03 -0.37026805236E+03 -0.23822640016E+04  0.25460214938E+04  0.25500000920E-02 0. -1.
       -2    1    3    3    0  502 -0.81850182834E+03  0.37026805236E+03  0.63201696846E+03  0.10984029871E+04  0.25500000920E-02 0.  1.
</event>
<event>
 5   0  0.1493485E-06  0.3138562E+04  0.7818609E-02  0.8205234E-01
        2   -1    0    0  501    0  0.00000000000E+00  0.00000000000E+00  0.28186629398E+04  0.28186629398E+04  0.25500000920E-02 0. -1.
       -2   -1    0    0    0  501  0.00000000000E+00  0.00000000000E+00 -0.87369202126E+03  0.87369202127E+03  0.25500000920E-02 0.  1.
    10030    2    1    2    0    0  0.00000000000E+00  0.00000000000E+00  0.19449709186E+04  0.36923549611E+04  0.31385622958E+04 0.  0.
        2    1    3    3  502    0 -0.11992765369E+03 -0.36170397464E+03  0.27634050603E+04  0.27895555084E+04  0.25500000920E-02 0. -1.
       -2    1    3    3    0  502  0.11992765369E+03  0.36170397464E+03 -0.81843414172E+03  0.90279945267E+03  0.25500000920E-02 0.  1.
</event>
<event>
 5   0  0.1508771E-06  0.3184439E+04  0.7818609E-02  0.8192939E-01
       -2   -1    0    0    0  501  0.00000000000E+00  0.00000000000E+00  0.12679030066E+04  0.12679030066E+04  0.25500000920E-02 0.  1.
        2   -1    0    0  501    0  0.00000000000E+00  0.00000000000E+00 -0.19994932256E+04  0.19994932256E+04  0.25500000920E-02 0. -1.
    10030    2    1    2    0    0  0.00000000000E+00  0.00000000000E+00 -0.73159021897E+03  0.32673962322E+04  0.31844393368E+04 0.  0.
        4    1    3    3  502    0 -0.57429876175E+03  0.31498353842E+03  0.11232615443E+04  0.13002891244E+04  0.12699999809E+01 0.  1.
       -4    1    3    3    0  502  0.57429876175E+03 -0.31498353842E+03 -0.18548517632E+04  0.19671071078E+04  0.12699999809E+01 0. -1.
</event>
<event>
 5   0  0.1572769E-06  0.3216920E+04  0.7818609E-02  0.8184363E-01
       -2   -1    0    0    0  501  0.00000000000E+00  0.00000000000E+00  0.12101402529E+04  0.12101402529E+04  0.25500000920E-02 0. -1.
        2   -1    0    0  501    0  0.00000000000E+00  0.00000000000E+00 -0.21378867330E+04  0.21378867330E+04  0.25500000920E-02 0.  1.
    10030    2    1    2    0    0  0.00000000000E+00  0.00000000000E+00 -0.92774648007E+03  0.33480269858E+04  0.32169195151E+04 0.  0.
        5    1    3    3  502    0  0.49504549353E+03  0.64710975512E+03 -0.19072251395E+04  0.20739698403E+04  0.46999998093E+01 0.  1.
       -5    1    3    3    0  502 -0.49504549353E+03 -0.64710975512E+03  0.97947865942E+03  0.12740571455E+04  0.46999998093E+01 0. -1.
</event>
<event>
 5   0  0.5370912E-07  0.3157586E+04  0.7818609E-02  0.8200109E-01
       -1   -1    0    0    0  501  0.00000000000E+00  0.00000000000E+00  0.15312613689E+04  0.15312613689E+04  0.50400001928E-02 0.  1.
        1   -1    0    0  501    0  0.00000000000E+00  0.00000000000E+00 -0.16278003149E+04  0.16278003149E+04  0.50400001928E-02 0. -1.
    10030    2    1    2    0    0  0.00000000000E+00  0.00000000000E+00 -0.96538945985E+02  0.31590616837E+04  0.31575862543E+04 0.  0.
        1    1    3    3  502    0  0.14369053712E+04  0.14906270860E+03  0.58895121231E+03  0.15600577769E+04  0.50400001928E-02 0.  1.
       -1    1    3    3    0  502 -0.14369053712E+04 -0.14906270860E+03 -0.68549015829E+03  0.15990039068E+04  0.50400001928E-02 0. -1.
</event>
<event>
 5   0  0.5233813E-07  0.3230593E+04  0.7818609E-02  0.8180784E-01
       -1   -1    0    0    0  501  0.00000000000E+00  0.00000000000E+00  0.15917594272E+04  0.15917594273E+04  0.50400001928E-02 0. -1.
        1   -1    0    0  501    0  0.00000000000E+00  0.00000000000E+00 -0.16391814663E+04  0.16391814663E+04  0.50400001928E-02 0.  1.
    10030    2    1    2    0    0  0.00000000000E+00  0.00000000000E+00 -0.47422039057E+02  0.32309408936E+04  0.32305928570E+04 0.  0.
        4    1    3    3  502    0  0.22521809344E+03 -0.12374180127E+04  0.98993376959E+03  0.16005927055E+04  0.12699999809E+01 0. -1.
       -4    1    3    3    0  502 -0.22521809344E+03  0.12374180127E+04 -0.10373558087E+04  0.16303481881E+04  0.12699999809E+01 0.  1.
</event>
<event>
 5   0  0.1493485E-06  0.3037714E+04  0.7818609E-02  0.8233043E-01
        2   -1    0    0  501    0  0.00000000000E+00  0.00000000000E+00  0.15011514592E+04  0.15011514592E+04  0.25500000920E-02 0.  1.
       -2   -1    0    0    0  501  0.00000000000E+00  0.00000000000E+00 -0.15367715758E+04  0.15367715758E+04  0.25500000920E-02 0. -1.
    10030    2    1    2    0    0  0.00000000000E+00  0.00000000000E+00 -0.35620116631E+02  0.30379230351E+04  0.30377142022E+04 0.  0.
        2    1    3    3  502    0 -0.38112685043E+03  0.67336409232E+03 -0.13249002992E+04  0.15342873524E+04  0.25500000920E-02 0. -1.
       -2    1    3    3    0  502  0.38112685043E+03 -0.67336409232E+03  0.12892801826E+04  0.15036356826E+04  0.25500000920E-02 0.  1.
</event>
<event>
 5   0  0.1538349E-06  0.3193715E+04  0.7818609E-02  0.8190479E-01
        2   -1    0    0  501    0  0.00000000000E+00  0.00000000000E+00  0.21423690239E+04  0.21423690239E+04  0.25500000920E-02 0. -1.
       -2   -1    0    0    0  501  0.00000000000E+00  0.00000000000E+00 -0.11902496100E+04  0.11902496100E+04  0.25500000920E-02 0.  1.
    10030    2    1    2    0    0  0.00000000000E+00  0.00000000000E+00  0.95211941393E+03  0.33326186339E+04  0.31937150124E+04 0.  0.
        1    1    3    3  502    0 -0.11424760334E+04  0.64331750161E+03  0.14272106963E+04  0.19380503776E+04  0.50400001928E-02 0. -1.
       -1    1    3    3    0  502  0.11424760334E+04 -0.64331750161E+03 -0.47509128235E+03  0.13945682562E+04  0.50400001928E-02 0.  1.
</event>
<event>
 5   0  0.1508771E-06  0.3219578E+04  0.7818609E-02  0.8183666E-01
        2   -1    0    0  501    0  0.00000000000E+00  0.00000000000E+00  0.17865168597E+04  0.17865168597E+04  0.25500000920E-02 0.  1.
       -2   -1    0    0    0  501  0.00000000000E+00  0.00000000000E+00 -0.14505432716E+04  0.14505432716E+04  0.25500000920E-02 0. -1.
    10030    2    1    2    0    0  0.00000000000E+00  0.00000000000E+00  0.33597358811E+03  0.32370601312E+04  0.32195776185E+04 0.  0.
        4    1    3    3  502    0  0.15283984093E+04 -0.10031721181E+03  0.66600783589E+03  0.16702195337E+04  0.12699999809E+01 0.  1.
       -4    1    3    3    0  502 -0.15283984093E+04  0.10031721181E+03 -0.33003424777E+03  0.15668405975E+04  0.12699999809E+01 0. -1.
</event>
<event>
 5   0  0.5317728E-07  0.3214698E+04  0.7818609E-02  0.8184946E-01
       -1   -1    0    0    0  501  0.00000000000E+00  0.00000000000E+00  0.91259434435E+03  0.91259434436E+03  0.50400001928E-02 0.  1.
        1   -1    0    0  501    0  0.00000000000E+00  0.00000000000E+00 -0.28310178328E+04  0.28310178328E+04  0.50400001928E-02 0. -1.
    10030    2    1    2    0    0  0.00000000000E+00  0.00000000000E+00 -0.19184234884E+04  0.37436121771E+04  0.32146980343E+04 0.  0.
        2    1    3    3  502    0 -0.11389381242E+04 -0.76646796377E+03 -0.19327738864E+04  0.23707104603E+04  0.25500000920E-02 0. -1.
       -2    1    3    3    0  502  0.11389381242E+04  0.76646796377E+03  0.14350398000E+02  0.13729017169E+04  0.25500000920E-02 0.  1.
</event>
<event>
 5   0  0.1572769E-06  0.3200683E+04  0.7818609E-02  0.8188637E-01
       -2   -1    0    0    0  501  0.00000000000E+00  0.00000000000E+00  0.14220584529E+04  0.14220584529E+04  0.25500000920E-02 0. -1.
        2   -1    0    0  501    0  0.00000000000E+00  0.00000000000E+00 -0.18009763984E+04  0.18009763984E+04  0.25500000920E-02 0.  1.
    10030    2    1    2    0    0  0.00000000000E+00  0.00000000000E+00 -0.37891794547E+03  0.32230348513E+04  0.32006834962E+04 0.  0.
        5    1    3    3  502    0 -0.91524319345E+02  0.42890056335E+03  0.13603597288E+04  0.14293120989E+04  0.46999998093E+01 0. -1.
       -5    1    3    3    0  502  0.91524319345E+02 -0.42890056335E+03 -0.17392776743E+04  0.17937227524E+04  0.46999998093E+01 0.  1.
</event>
<event>
 5   0  0.5233813E-07  0.3196867E+04  0.7818609E-02  0.8189645E-01
       -1   -1    0    0    0  501  0.00000000000E+00  0.00000000000E+00  0.22831739353E+04  0.22831739353E+04  0.50400001928E-02 0.  1.
        1   -1    0    0  501    0  0.00000000000E+00  0.00000000000E+00 -0.11190517240E+04  0.11190517240E+04  0.50400001928E-02 0. -1.
    10030    2    1    2    0    0  0.00000000000E+00  0.00000000000E+00  0.11641222113E+04  0.34022256594E+04  0.31968670467E+04 0.  0.
        4    1    3    3  502    0 -0.11785904687E+04 -0.40765467308E+03  0.16461550364E+04  0.20652084258E+04  0.12699999809E+01 0.  1.
       -4    1    3    3    0  502  0.11785904687E+04  0.40765467308E+03 -0.48203282503E+03  0.13370172335E+04  0.12699999809E+01 0. -1.
</event>
<event>
 5   0  0.5370912E-07  0.3154003E+04  0.7818609E-02  0.8201072E-01
       -1   -1    0    0    0  501  0.00000000000E+00  0.00000000000E+00  0.21145600569E+04  0.21145600569E+04  0.50400001928E-02 0. -1.
        1   -1    0    0  501    0  0.00000000000E+00  0.00000000000E+00 -0.11760999074E+04  0.11760999074E+04  0.50400001928E-02 0.  1.
    10030    2    1    2    0    0  0.00000000000E+00  0.00000000000E+00  0.93846014953E+03  0.32906599644E+04  0.31540030990E+04 0.  0.
        1    1    3    3  502    0  0.81251089254E+03  0.40328479386E+02 -0.94028010240E+03  0.12433531307E+04  0.50400001928E-02 0.  1.
       -1    1    3    3    0  502 -0.81251089254E+03 -0.40328479386E+02  0.18787402519E+04  0.20473068336E+04  0.50400001928E-02 0. -1.
</event>
<event>
 5   0  0.5370912E-07  0.3213757E+04  0.7818609E-02  0.8185193E-01
        1   -1    0    0  501    0  0.00000000000E+00  0.00000000000E+00  0.20376739961E+04  0.20376739961E+04  0.50400001928E-02 0.  1.
       -1   -1    0    0    0  501  0.00000000000E+00  0.00000000000E+00 -0.12671600267E+04  0.12671600267E+04  0.50400001928E-02 0. -1.
    10030    2    1    2    0    0  0.00000000000E+00  0.00000000000E+00  0.77051396941E+03  0.33048340228E+04  0.32137573246E+04 0.  0.
        1    1    3    3  502    0 -0.92517897307E+03  0.16082051441E+03  0.17261423332E+04  0.19650411509E+04  0.50400001928E-02 0.  1.
       -1    1    3    3    0  502  0.92517897307E+03 -0.16082051441E+03 -0.95562836380E+03  0.13397928720E+04  0.50400001928E-02 0. -1.
</event>
<event>
 5   0  0.5317728E-07  0.3198053E+04  0.7818609E-02  0.8189331E-01
        1   -1    0    0  501    0  0.00000000000E+00  0.00000000000E+00  0.16793231893E+04  0.16793231893E+04  0.50400001928E-02 0.  1.
       -1   -1    0    0    0  501  0.00000000000E+00  0.00000000000E+00 -0.15225695750E+04  0.15225695750E+04  0.50400001928E-02 0. -1.
    10030    2    1    2    0    0  0.00000000000E+00  0.00000000000E+00  0.15675361430E+03  0.32018927642E+04  0.31980534045E+04 0.  0.
        2    1    3    3  502    0 -0.51014007891E+03  0.14455794950E+03 -0.14319920148E+04  0.15270039396E+04  0.25500000920E-02 0. -1.
       -2    1    3    3    0  502  0.51014007891E+03 -0.14455794950E+03  0.15887456291E+04  0.16748888247E+04  0.25500000920E-02 0.  1.
</event>
<event>
 5   0  0.5177039E-07  0.3201383E+04  0.7818609E-02  0.8188452E-01
       -1   -1    0    0    0  501  0.00000000000E+00  0.00000000000E+00  0.13419539692E+04  0.13419539692E+04  0.50400001928E-02 0. -1.
        1   -1    0    0  501    0  0.00000000000E+00  0.00000000000E+00 -0.19093150468E+04  0.19093150468E+04  0.50400001928E-02 0.  1.
    10030    2    1    2    0    0  0.00000000000E+00  0.00000000000E+00 -0.56736107762E+03  0.32512690160E+04  0.32013827672E+04 0.  0.
        3    1    3    3  502    0 -0.12411992945E+04 -0.81259106284E+03  0.32679616915E+03  0.15191035747E+04  0.10100000352E+00 0. -1.
       -3    1    3    3    0  502  0.12411992945E+04  0.81259106284E+03 -0.89415724677E+03  0.17321654414E+04  0.10100000352E+00 0.  1.
</event>
<event>
 5   0  0.1538349E-06  0.3213653E+04  0.7818609E-02  0.8185221E-01
       -2   -1    0    0    0  501  0.00000000000E+00  0.00000000000E+00  0.11331449266E+04  0.11331449266E+04  0.25500000920E-02 0.  1.
        2   -1    0    0  501    0  0.00000000000E+00  0.00000000000E+00 -0.22785177121E+04  0.22785177121E+04  0.25500000920E-02 0. -1.
    10030    2    1    2    0    0  0.00000000000E+00  0.00000000000E+00 -0.11453727855E+04  0.34116626387E+04  0.32136526169E+04 0.  0.
        1    1    3    3  502    0 -0.11816546878E+04  0.96714370412E+03 -0.11037233214E+04  0.18841125009E+04  0.50400001928E-02 0. -1.
       -1    1    3    3    0  502  0.11816546878E+04 -0.96714370412E+03 -0.41649464177E+02  0.15275501378E+04  0.50400001928E-02 0.  1.
</event>
<event>
 5   0  0.5177039E-07  0.3269541E+04  0.7818609E-02  0.8170689E-01
       -1   -1    0    0    0  501  0.00000000000E+00  0.00000000000E+00  0.15964937171E+04  0.15964937171E+04  0.50400001928E-02 0.  1.
        1   -1    0    0  501    0  0.00000000000E+00  0.00000000000E+00 -0.16739645159E+04  0.16739645159E+04  0.50400001928E-02 0. -1.
    10030    2    1    2    0    0  0.00000000000E+00  0.00000000000E+00 -0.77470798768E+02  0.32704582330E+04  0.32695405379E+04 0.  0.
        3    1    3    3  502    0 -0.15768937544E+04 -0.98868633129E+02 -0.45850173304E+03  0.16451725650E+04  0.10100000352E+00 0. -1.
       -3    1    3    3    0  502  0.15768937544E+04  0.98868633129E+02  0.38103093427E+03  0.16252856680E+04  0.10100000352E+00 0.  1.
</event>
<event>
 5   0  0.1508771E-06  0.3195350E+04  0.7818609E-02  0.8190046E-01
       -2   -1    0    0    0  501  0.00000000000E+00  0.00000000000E+00  0.12947257262E+04  0.12947257262E+04  0.25500000920E-02 0. -1.
        2   -1    0    0  501    0  0.00000000000E+00  0.00000000000E+00 -0.19715101812E+04  0.19715101812E+04  0.25500000920E-02 0.  1.
    10030    2    1    2    0    0  0.00000000000E+00  0.00000000000E+00 -0.67678445500E+03  0.32662359074E+04  0.31953497155E+04 0.  0.
        4    1    3    3  502    0  0.24053465108E+03 -0.27864976059E+03 -0.19275716527E+04  0.19624058440E+04  0.12699999809E+01 0.  1.
       -4    1    3    3    0  502 -0.24053465108E+03  0.27864976059E+03  0.12507871977E+04  0.13038300634E+04  0.12699999809E+01 0. -1.
</event>
<event>
 5   0  0.1556396E-06  0.3202103E+04  0.7818609E-02  0.8188262E-01
        2   -1    0    0  501    0  0.00000000000E+00  0.00000000000E+00  0.21860370688E+04  0.21860370688E+04  0.25500000920E-02 0. -1.
       -2   -1    0    0    0  501  0.00000000000E+00  0.00000000000E+00 -0.11726083975E+04  0.11726083975E+04  0.25500000920E-02 0.  1.
    10030    2    1    2    0    0  0.00000000000E+00  0.00000000000E+00  0.10134286714E+04  0.33586454663E+04  0.32021026993E+04 0.  0.
        3    1    3    3  502    0  0.32230913445E+03  0.13398299391E+04  0.13616303328E+04  0.19372827923E+04  0.10100000352E+00 0. -1.
       -3    1    3    3    0  502 -0.32230913445E+03 -0.13398299391E+04 -0.34820166148E+03  0.14213626740E+04  0.10100000352E+00 0.  1.
</event>
<event>
 5   0  0.1493485E-06  0.3192363E+04  0.7818609E-02  0.8190837E-01
       -2   -1    0    0    0  501  0.00000000000E+00  0.00000000000E+00  0.24496388269E+04  0.24496388269E+04  0.25500000920E-02 0. -1.
        2   -1    0    0  501    0  0.00000000000E+00  0.00000000000E+00 -0.10400700174E+04  0.10400700174E+04  0.25500000920E-02 0.  1.
    10030    2    1    2    0    0  0.00000000000E+00  0.00000000000E+00  0.14095688095E+04  0.34897088443E+04  0.31923633235E+04 0.  0.
        2    1    3    3  502    0  0.38010197411E+03 -0.33200189208E+03  0.23601263813E+04  0.24134828159E+04  0.25500000920E-02 0. -1.
       -2    1    3    3    0  502 -0.38010197411E+03  0.33200189208E+03 -0.95055757174E+03  0.10762260284E+04  0.25500000920E-02 0.  1.
</event>
<event>
 5   0  0.5281187E-07  0.3182082E+04  0.7818609E-02  0.8193565E-01
        1   -1    0    0  501    0  0.00000000000E+00  0.00000000000E+00  0.20134937150E+04  0.20134937150E+04  0.50400001928E-02 0. -1.
       -1   -1    0    0    0  501  0.00000000000E+00  0.00000000000E+00 -0.12572232457E+04  0.12572232457E+04  0.50400001928E-02 0.  1.
    10030    2    1    2    0    0  0.00000000000E+00  0.00000000000E+00  0.75627046937E+03  0.32707169607E+04  0.31820817737E+04 0.  0.
        5    1    3    3  502    0  0.24239730268E+03 -0.57554777925E+03  0.18822404801E+04  0.19831447283E+04  0.46999998093E+01 0. -1.
       -5    1    3    3    0  502 -0.24239730268E+03  0.57554777925E+03 -0.11259700107E+04  0.12875722324E+04  0.46999998093E+01 0.  1.
</event>
<event>
 5   0  0.5370912E-07  0.3173080E+04  0.7818609E-02  0.8195963E-01
       -1   -1    0    0    0  501  0.00000000000E+00  0.00000000000E+00  0.15882561365E+04  0.15882561365E+04  0.50400001928E-02 0.  1.
        1   -1    0    0  501    0  0.00000000000E+00  0.00000000000E+00 -0.15848253089E+04  0.15848253089E+04  0.50400001928E-02 0. -1.
    10030    2    1    2    0    0  0.00000000000E+00  0.00000000000E+00  0.34308275912E+01  0.31730814453E+04  0.31730795906E+04 0.  0.
        1    1    3    3  502    0 -0.55662331344E+03 -0.14672383182E+04 -0.23171721108E+03  0.15862883286E+04  0.50400001928E-02 0. -1.
       -1    1    3    3    0  502  0.55662331344E+03  0.14672383182E+04  0.23514803867E+03  0.15867931168E+04  0.50400001928E-02 0.  1.
</event>
<event>
 5   0  0.1508771E-06  0.3330049E+04  0.7818609E-02  0.8155291E-01
       -2   -1    0    0    0  501  0.00000000000E+00  0.00000000000E+00  0.12504768801E+04  0.12504768801E+04  0.25500000920E-02 0. -1.
        2   -1    0    0  501    0  0.00000000000E+00  0.00000000000E+00 -0.22169993595E+04  0.22169993595E+04  0.25500000920E-02 0.  1.
    10030    2    1    2    0    0  0.00000000000E+00  0.00000000000E+00 -0.96652247943E+03  0.34674762396E+04  0.33300489139E+04 0.  0.
        4    1    3    3  502    0  0.11519727883E+03 -0.50378569015E+03 -0.21313745388E+04  0.21931323426E+04  0.12699999809E+01 0.  1.
       -4    1    3    3    0  502 -0.11519727883E+03  0.50378569015E+03  0.11648520594E+04  0.12743438970E+04  0.12699999809E+01 0. -1.
</event>
<event>
 5   0  0.1508771E-06  0.3208850E+04  0.7818609E-02  0.8186484E-01
        2   -1    0    0  501    0  0.00000000000E+00  0.00000000000E+00  0.14595657053E+04  0.14595657053E+04  0.25500000920E-02 0. -1.
       -2   -1    0    0    0  501  0.00000000000E+00  0.00000000000E+00 -0.17636611546E+04  0.17636611547E+04  0.25500000920E-02 0.  1.
    10030    2    1    2    0    0  0.00000000000E+00  0.00000000000E+00 -0.30409544936E+03  0.32232268599E+04  0.32088498482E+04 0.  0.
        4    1    3    3  502    0 -0.52511113767E+03  0.85565222348E+02 -0.16724723159E+04  0.17550579405E+04  0.12699999809E+01 0.  1.
       -4    1    3    3    0  502  0.52511113767E+03 -0.85565222348E+02  0.13683768665E+04  0.14681689194E+04  0.12699999809E+01 0. -1.
</event>
<event>
 5   0  0.1572769E-06  0.2839657E+04  0.7818609E-02  0.8291061E-01
        2   -1    0    0  501    0  0.00000000000E+00  0.00000000000E+00  0.17816052576E+04  0.17816052576E+04  0.25500000920E-02 0. -1.
       -2   -1    0    0    0  501  0.00000000000E+00  0.00000000000E+00 -0.11315152826E+04  0.11315152826E+04  0.25500000920E-02 0.  1.
    10030    2    1    2    0    0  0.00000000000E+00  0.00000000000E+00  0.65008997494E+03  0.29131205402E+04  0.28396574276E+04 0.  0.
        5    1    3    3  502    0  0.10927463424E+04  0.88356377407E+03  0.53305137659E+03  0.15029788327E+04  0.46999998093E+01 0. -1.
       -5    1    3    3    0  502 -0.10927463424E+04 -0.88356377407E+03  0.11703859834E+03  0.14101417075E+04  0.46999998093E+01 0.  1.
</event>
<event>
 5   0  0.1556396E-06  0.3184794E+04  0.7818609E-02  0.8192845E-01
        2   -1    0    0  501    0  0.00000000000E+00  0.00000000000E+00  0.27885585458E+04  0.27885585458E+04  0.25500000920E-02 0.  1.
       -2   -1    0    0    0  501  0.00000000000E+00  0.00000000000E+00 -0.90933317609E+03  0.90933317610E+03  0.25500000920E-02 0. -1.
    10030    2    1    2    0    0  0.00000000000E+00  0.00000000000E+00  0.18792253697E+04  0.36978917219E+04  0.31847943728E+04 0.  0.
        3    1    3    3  502    0 -0.12645868442E+04  0.54474132283E+03  0.18683585161E+04  0.23209236416E+04  0.10100000352E+00 0.  1.
       -3    1    3    3    0  502  0.12645868442E+04 -0.54474132283E+03  0.10866853630E+02  0.13769680803E+04  0.10100000352E+00 0. -1.
</event>
<event>
 5   0  0.1508771E-06  0.3199970E+04  0.7818609E-02  0.8188825E-01
       -2   -1    0    0    0  501  0.00000000000E+00  0.00000000000E+00  0.16358775037E+04  0.16358775037E+04  0.25500000920E-02 0.  1.
        2   -1    0    0  501    0  0.00000000000E+00  0.00000000000E+00 -0.15648797272E+04  0.15648797272E+04  0.25500000920E-02 0. -1.
    10030    2    1    2    0    0  0.00000000000E+00  0.00000000000E+00  0.70997776466E+02  0.32007572309E+04  0.31999697134E+04 0.  0.
        4    1    3    3  502    0 -0.22305044082E+03 -0.11222573764E+04  0.11541375712E+04  0.16251917623E+04  0.12699999809E+01 0.  1.
       -4    1    3    3    0  502  0.22305044082E+03  0.11222573764E+04 -0.10831397948E+04  0.15755654686E+04  0.12699999809E+01 0. -1.
</event>
<event>
 5   0  0.5281187E-07  0.3205346E+04  0.7818609E-02  0.8187407E-01
        1   -1    0    0  501    0  0.00000000000E+00  0.00000000000E+00  0.20240196743E+04  0.20240196743E+04  0.50400001928E-02 0. -1.
       -1   -1    0    0    0  501  0.00000000000E+00  0.00000000000E+00 -0.12690395543E+04  0.12690395543E+04  0.50400001928E-02 0.  1.
    10030    2    1    2    0    0  0.00000000000E+00  0.00000000000E+00  0.75498012004E+03  0.32930592286E+04  0.32053461750E+04 0.  0.
        5    1    3    3  502    0 -0.82926583117E+03  0.62744941086E+02 -0.10300070279E+04  0.13238411211E+04  0.46999998093E+01 0.  1.
       -5    1    3    3    0  502  0.82926583117E+03 -0.62744941086E+02  0.17849871480E+04  0.19692181075E+04  0.46999998093E+01 0. -1.
</event>
<event>
 5   0  0.5317728E-07  0.3189694E+04  0.7818609E-02  0.8191544E-01
        1   -1    0    0  501    0  0.00000000000E+00  0.00000000000E+00  0.16133615192E+04  0.16133615192E+04  0.50400001928E-02 0. -1.
       -1   -1    0    0    0  501  0.00000000000E+00  0.00000000000E+00 -0.15765451058E+04  0.15765451058E+04  0.50400001928E-02 0.  1.
    10030    2    1    2    0    0  0.00000000000E+00  0.00000000000E+00  0.36816413382E+02  0.31899066251E+04  0.31896941591E+04 0.  0.
        2    1    3    3  502    0  0.12209904382E+04  0.68913690128E+03  0.77859691141E+03  0.16037270557E+04  0.25500000920E-02 0. -1.
       -2    1    3    3    0  502 -0.12209904382E+04 -0.68913690128E+03 -0.74178049803E+03  0.15861795693E+04  0.25500000920E-02 0.  1.
</event>
<event>
 5   0  0.1508771E-06  0.3241236E+04  0.7818609E-02  0.8178011E-01
        2   -1    0    0  501    0  0.00000000000E+00  0.00000000000E+00  0.18477962502E+04  0.18477962502E+04  0.25500000920E-02 0. -1.
       -2   -1    0    0    0  501  0.00000000000E+00  0.00000000000E+00 -0.14213702578E+04  0.14213702578E+04  0.25500000920E-02 0.  1.
    10030    2    1    2    0    0  0.00000000000E+00  0.00000000000E+00  0.42642599234E+03  0.32691665080E+04  0.32412359572E+04 0.  0.
        4    1    3    3  502    0 -0.73265314634E+02 -0.51674044526E+03  0.17607134231E+04  0.18364372751E+04  0.12699999809E+01 0. -1.
       -4    1    3    3    0  502  0.73265314634E+02  0.51674044526E+03 -0.13342874308E+04  0.14327292329E+04  0.12699999809E+01 0.  1.
</event>
<event>
 5   0  0.1556396E-06  0.3191678E+04  0.7818609E-02  0.8191019E-01
       -2   -1    0    0    0  501  0.00000000000E+00  0.00000000000E+00  0.20106882873E+04  0.20106882873E+04  0.25500000920E-02 0. -1.
        2   -1    0    0  501    0  0.00000000000E+00  0.00000000000E+00 -0.12665819419E+04  0.12665819419E+04  0.25500000920E-02 0.  1.
    10030    2    1    2    0    0  0.00000000000E+00  0.00000000000E+00  0.74410634540E+03  0.32772702293E+04  0.31916776000E+04 0.  0.
        3    1    3    3  502    0  0.37791873810E+03 -0.13421367745E+04  0.11691094372E+04  0.18196072599E+04  0.10100000352E+00 0. -1.
       -3    1    3    3    0  502 -0.37791873810E+03  0.13421367745E+04 -0.42500309181E+03  0.14576629694E+04  0.10100000352E+00 0.  1.
</event>
<event>
 5   0  0.4995625E-07  0.3187997E+04  0.7818609E-02  0.8191994E-01
        3   -1    0    0  501    0  0.00000000000E+00  0.00000000000E+00  0.21772563847E+04  0.21772563870E+04  0.10100000352E+00 0.  1.
       -3   -1    0    0    0  501  0.00000000000E+00  0.00000000000E+00 -0.11669877242E+04  0.11669877286E+04  0.10100000352E+00 0. -1.
    10030    2    1    2    0    0  0.00000000000E+00  0.00000000000E+00  0.10102686605E+04  0.33442441157E+04  0.31879971673E+04 0.  0.
        4    1    3    3  502    0  0.29472958222E+03 -0.11065281476E+04  0.16683356151E+04  0.20235156054E+04  0.12699999809E+01 0.  1.
       -4    1    3    3    0  502 -0.29472958222E+03  0.11065281476E+04 -0.65806695463E+03  0.13207285102E+04  0.12699999809E+01 0. -1.
</event>
<event>
 5   0  0.1493485E-06  0.3192643E+04  0.7818609E-02  0.8190763E-01
       -2   -1    0    0    0  501  0.00000000000E+00  0.00000000000E+00  0.94534577734E+03  0.94534577734E+03  0.25500000920E-02 0.  1.
        2   -1    0    0  501    0  0.00000000000E+00  0.00000000000E+00 -0.26955665641E+04  0.26955665641E+04  0.25500000920E-02 0. -1.
    10030    2    1    2    0    0  0.00000000000E+00  0.00000000000E+00 -0.17502207867E+04  0.36409123414E+04  0.31926430862E+04 0.  0.
        2    1    3    3  502    0  0.64921916807E+03 -0.10300722060E+04 -0.20523883289E+04  0.23863847406E+04  0.25500000920E-02 0. -1.
       -2    1    3    3    0  502 -0.64921916807E+03  0.10300722060E+04  0.30216754215E+03  0.12545276008E+04  0.25500000920E-02 0.  1.
</event>
<event>
 5   0  0.1508771E-06  0.3169795E+04  0.7818609E-02  0.8196840E-01
        2   -1    0    0  501    0  0.00000000000E+00  0.00000000000E+00  0.22164766515E+04  0.22164766515E+04  0.25500000920E-02 0.  1.
       -2   -1    0    0    0  501  0.00000000000E+00  0.00000000000E+00 -0.11332852863E+04  0.11332852863E+04  0.25500000920E-02 0. -1.
    10030    2    1    2    0    0  0.00000000000E+00  0.00000000000E+00  0.10831913652E+04  0.33497619378E+04  0.31697951836E+04 0.  0.
        4    1    3    3  502    0 -0.18129551684E+03 -0.13632389754E+04  0.13741109280E+04  0.19440861668E+04  0.12699999809E+01 0.  1.
       -4    1    3    3    0  502  0.18129551684E+03  0.13632389754E+04 -0.29091956278E+03  0.14056757710E+04  0.12699999809E+01 0. -1.
</event>
<event>
 5   0  0.5370912E-07  0.3213984E+04  0.7818609E-02  0.8185134E-01
        1   -1    0    0  501    0  0.00000000000E+00  0.00000000000E+00  0.20254793933E+04  0.20254793933E+04  0.50400001928E-02 0.  1.
       -1   -1    0    0    0  501  0.00000000000E+00  0.00000000000E+00 -0.12749687642E+04  0.12749687642E+04  0.50400001928E-02 0. -1.
    10030    2    1    2    0    0  0.00000000000E+00  0.00000000000E+00  0.75051062909E+03  0.33004481576E+04  0.32139837953E+04 0.  0.
        1    1    3    3  502    0 -0.21817385597E+03 -0.12112295581E+04  0.14363722026E+04  0.18915184319E+04  0.50400001928E-02 0.  1.
       -1    1    3    3    0  502  0.21817385597E+03  0.12112295581E+04 -0.68586157350E+03  0.14089297257E+04  0.50400001928E-02 0. -1.
</event>
<event>
 5   0  0.1493485E-06  0.3202731E+04  0.7818609E-02  0.8188096E-01
       -2   -1    0    0    0  501  0.00000000000E+00  0.00000000000E+00  0.16947330547E+04  0.16947330547E+04  0.25500000920E-02 0.  1.
        2   -1    0    0  501    0  0.00000000000E+00  0.00000000000E+00 -0.15131420628E+04  0.15131420628E+04  0.25500000920E-02 0. -1.
    10030    2    1    2    0    0  0.00000000000E+00  0.00000000000E+00  0.18159099189E+03  0.32078751176E+04  0.32027312534E+04 0.  0.
        2    1    3    3  502    0  0.14516857022E+04  0.27320021146E+03 -0.52853581476E+03  0.15688785297E+04  0.25500000920E-02 0. -1.
       -2    1    3    3    0  502 -0.14516857022E+04 -0.27320021146E+03  0.71012680664E+03  0.16389965879E+04  0.25500000920E-02 0.  1.
</event>
<event>
 5   0  0.5281187E-07  0.3165405E+04  0.7818609E-02  0.8198014E-01
        1   -1    0    0  501    0  0.00000000000E+00  0.00000000000E+00  0.13111520841E+04  0.13111520841E+04  0.50400001928E-02 0. -1.
       -1   -1    0    0    0  501  0.00000000000E+00  0.00000000000E+00 -0.19104928064E+04  0.19104928064E+04  0.50400001928E-02 0.  1.
    10030    2    1    2    0    0  0.00000000000E+00  0.00000000000E+00 -0.59934072235E+03  0.32216448905E+04  0.31654046343E+04 0.  0.
        5    1    3    3  502    0  0.12893865790E+04  0.90887215439E+03 -0.42984191231E+03  0.16350389912E+04  0.46999998093E+01 0.  1.
       -5    1    3    3    0  502 -0.12893865790E+04 -0.90887215439E+03 -0.16949881004E+03  0.15866058993E+04  0.46999998093E+01 0. -1.
</event>
<event>
 5   0  0.5177039E-07  0.3204541E+04  0.7818609E-02  0.8187619E-01
        1   -1    0    0  501    0  0.00000000000E+00  0.00000000000E+00  0.17992921886E+04  0.17992921886E+04  0.50400001928E-02 0. -1.
       -1   -1    0    0    0  501  0.00000000000E+00  0.00000000000E+00 -0.14268224679E+04  0.14268224679E+04  0.50400001928E-02 0.  1.
    10030    2    1    2    0    0  0.00000000000E+00  0.00000000000E+00  0.37246972065E+03  0.32261146565E+04  0.32045408538E+04 0.  0.
        3    1    3    3  502    0  0.83746133958E+03 -0.75140678374E+03  0.13346674653E+04  0.17456491351E+04  0.10100000352E+00 0. -1.
       -3    1    3    3    0  502 -0.83746133958E+03  0.75140678374E+03 -0.96219774462E+03  0.14804655213E+04  0.10100000352E+00 0.  1.
</event>
<event>
 5   0  0.1572769E-06  0.3205142E+04  0.7818609E-02  0.8187461E-01
        2   -1    0    0  501    0  0.00000000000E+00  0.00000000000E+00  0.14769283265E+04  0.14769283265E+04  0.25500000920E-02 0. -1.
       -2   -1    0    0    0  501  0.00000000000E+00  0.00000000000E+00 -0.17389021441E+04  0.17389021441E+04  0.25500000920E-02 0.  1.
    10030    2    1    2    0    0  0.00000000000E+00  0.00000000000E+00 -0.26197381762E+03  0.32158304706E+04  0.32051420147E+04 0.  0.
        5    1    3    3  502    0  0.90496927301E+03 -0.12476446586E+04  0.30936753161E+03  0.15720422828E+04  0.46999998093E+01 0. -1.
       -5    1    3    3    0  502 -0.90496927301E+03  0.12476446586E+04 -0.57134134923E+03  0.16437881878E+04  0.46999998093E+01 0.  1.
</event>
<event>
 5   0  0.5281187E-07  0.3206513E+04  0.7818609E-02  0.8187099E-01
        1   -1    0    0  501    0  0.00000000000E+00  0.00000000000E+00  0.22403158422E+04  0.22403158422E+04  0.50400001928E-02 0.  1.
       -1   -1    0    0    0  501  0.00000000000E+00  0.00000000000E+00 -0.11473520936E+04  0.11473520936E+04  0.50400001928E-02 0. -1.
    10030    2    1    2    0    0  0.00000000000E+00  0.00000000000E+00  0.10929637486E+04  0.33876679357E+04  0.32065127923E+04 0.  0.
        5    1    3    3  502    0  0.51315573436E+03 -0.14538915943E+04  0.10109550610E+04  0.18436870128E+04  0.46999998093E+01 0.  1.
       -5    1    3    3    0  502 -0.51315573436E+03  0.14538915943E+04  0.82008687584E+02  0.15439809230E+04  0.46999998093E+01 0. -1.
</event>
<event>
 5   0  0.1556396E-06  0.3207321E+04  0.7818609E-02  0.8186886E-01
        2   -1    0    0  501    0  0.00000000000E+00  0.00000000000E+00  0.22722055887E+04  0.22722055887E+04  0.25500000920E-02 0. -1.
       -2   -1    0    0    0  501  0.00000000000E+00  0.00000000000E+00 -0.11318200226E+04  0.11318200226E+04  0.25500000920E-02 0.  1.
    10030    2    1    2    0    0  0.00000000000E+00  0.00000000000E+00  0.11403855661E+04  0.34040256113E+04  0.32073214873E+04 0.  0.
        3    1    3    3  502    0 -0.70203085989E+03  0.11332140105E+04  0.15163290580E+04  0.20189787380E+04  0.10100000352E+00 0. -1.
       -3    1    3    3    0  502  0.70203085989E+03 -0.11332140105E+04 -0.37594349190E+03  0.13850468733E+04  0.10100000352E+00 0.  1.
</event>
<event>
 5   0  0.5370912E-07  0.3183543E+04  0.7818609E-02  0.8193177E-01
        1   -1    0    0  501    0  0.00000000000E+00  0.00000000000E+00  0.30560329772E+04  0.30560329772E+04  0.50400001928E-02 0.  1.
       -1   -1    0    0    0  501  0.00000000000E+00  0.00000000000E+00 -0.82909348982E+03  0.82909348983E+03  0.50400001928E-02 0. -1.
    10030    2    1    2    0    0  0.00000000000E+00  0.00000000000E+00  0.22269394874E+04  0.38851264671E+04  0.31835433379E+04 0.  0.
        1    1    3    3  502    0 -0.13269081887E+04  0.87383972403E+03  0.99479877507E+03  0.18745414926E+04  0.50400001928E-02 0.  1.
       -1    1    3    3    0  502  0.13269081887E+04 -0.87383972403E+03  0.12321407124E+04  0.20105849745E+04  0.50400001928E-02 0. -1.
</event>
<event>
 5   0  0.5281187E-07  0.2811895E+04  0.7818609E-02  0.8299585E-01
        1   -1    0    0  501    0  0.00000000000E+00  0.00000000000E+00  0.14105854707E+04  0.14105854707E+04  0.50400001928E-02 0.  1.
       -1   -1    0    0    0  501  0.00000000000E+00  0.00000000000E+00 -0.14013244284E+04  0.14013244284E+04  0.50400001928E-02 0. -1.
    10030    2    1    2    0    0  0.00000000000E+00  0.00000000000E+00  0.92610422358E+01  0.28119098991E+04  0.28118946484E+04 0.  0.
        5    1    3    3  502    0  0.88050034508E+03 -0.10823155922E+04 -0.16851165987E+03  0.14053847047E+04  0.46999998093E+01 0. -1.
       -5    1    3    3    0  502 -0.88050034508E+03  0.10823155922E+04  0.17777270211E+03  0.14065251944E+04  0.46999998093E+01 0.  1.
</event>
<event>
 5   0  0.1556396E-06  0.3240039E+04  0.7818609E-02  0.8178322E-01
       -2   -1    0    0    0  501  0.00000000000E+00  0.00000000000E+00  0.21156509665E+04  0.21156509665E+04  0.25500000920E-02 0. -1.
        2   -1    0    0  501    0  0.00000000000E+00  0.00000000000E+00 -0.12404991737E+04  0.12404991737E+04  0.25500000920E-02 0.  1.
    10030    2    1    2    0    0  0.00000000000E+00  0.00000000000E+00  0.87515179277E+03  0.33561501402E+04  0.32400390588E+04 0.  0.
        3    1    3    3  502    0 -0.63004886227E+03  0.14457306100E+04  0.53666531452E+02  0.15779666259E+04  0.10100000352E+00 0.  1.
       -3    1    3    3    0  502  0.63004886227E+03 -0.14457306100E+04  0.82148526132E+03  0.17781835143E+04  0.10100000352E+00 0. -1.
</event>
<event>
 5   0  0.1572769E-06  0.3214421E+04  0.7818609E-02  0.8185019E-01
        2   -1    0    0  501    0  0.00000000000E+00  0.00000000000E+00  0.15522648956E+04  0.15522648956E+04  0.25500000920E-02 0. -1.
       -2   -1    0    0    0  501  0.00000000000E+00  0.00000000000E+00 -0.16641013361E+04  0.16641013361E+04  0.25500000920E-02 0.  1.
    10030    2    1    2    0    0  0.00000000000E+00  0.00000000000E+00 -0.11183644058E+03  0.32163662317E+04  0.32144213083E+04 0.  0.
        5    1    3    3  502    0  0.11680104174E+04  0.95622317156E+03  0.49622441828E+03  0.15889845349E+04  0.46999998093E+01 0. -1.
       -5    1    3    3    0  502 -0.11680104174E+04 -0.95622317156E+03 -0.60806085886E+03  0.16273816968E+04  0.46999998093E+01 0.  1.
</event>
<event>
 5   0  0.1572769E-06  0.3238962E+04  0.7818609E-02  0.8178603E-01
       -2   -1    0    0    0  501  0.00000000000E+00  0.00000000000E+00  0.23800262016E+04  0.23800262016E+04  0.25500000920E-02 0.  1.
        2   -1    0    0  501    0  0.00000000000E+00  0.00000000000E+00 -0.11019702535E+04  0.11019702535E+04  0.25500000920E-02 0. -1.
    10030    2    1    2    0    0  0.00000000000E+00  0.00000000000E+00  0.12780559480E+04  0.34819964551E+04  0.32389616094E+04 0.  0.
        5    1    3    3  502    0  0.13842729746E+04  0.24910118753E+03 -0.22397319104E+03  0.14242363393E+04  0.46999998093E+01 0. -1.
       -5    1    3    3    0  502 -0.13842729746E+04 -0.24910118753E+03  0.15020291391E+04  0.20577601158E+04  0.46999998093E+01 0.  1.
</event>
<event>
 5   0  0.5233813E-07  0.3200525E+04  0.7818609E-02  0.8188679E-01
        1   -1    0    0  501    0  0.00000000000E+00  0.00000000000E+00  0.17401989126E+04  0.17401989126E+04  0.50400001928E-02 0. -1.
       -1   -1    0    0    0  501  0.00000000000E+00  0.00000000000E+00 -0.14715786596E+04  0.14715786596E+04  0.50400001928E-02 0.  1.
    10030    2    1    2    0    0  0.00000000000E+00  0.00000000000E+00  0.26862025303E+03  0.32117775722E+04  0.32005246965E+04 0.  0.
        4    1    3    3  502    0 -0.30437889740E+03  0.12911048518E+04 -0.76395701451E+03  0.15307613088E+04  0.12699999809E+01 0.  1.
       -4    1    3    3    0  502  0.30437889740E+03 -0.12911048518E+04  0.10325772675E+04  0.16810162634E+04  0.12699999809E+01 0. -1.
</event>
<event>
 5   0  0.5281187E-07  0.3195813E+04  0.7818609E-02  0.8189924E-01
       -1   -1    0    0    0  501  0.00000000000E+00  0.00000000000E+00  0.10405905538E+04  0.10405905538E+04  0.50400001928E-02 0.  1.
        1   -1    0    0  501    0  0.00000000000E+00  0.00000000000E+00 -0.24537073926E+04  0.24537073926E+04  0.50400001928E-02 0. -1.
    10030    2    1    2    0    0  0.00000000000E+00  0.00000000000E+00 -0.14131168388E+04  0.34942979464E+04  0.31958127194E+04 0.  0.
        5    1    3    3  502    0  0.10408716054E+04 -0.42022848782E+03  0.53688028914E+03  0.12442942641E+04  0.46999998093E+01 0.  1.
       -5    1    3    3    0  502 -0.10408716054E+04  0.42022848782E+03 -0.19499971280E+04  0.22500036822E+04  0.46999998093E+01 0. -1.
</event>
<event>
 5   0  0.5233813E-07  0.3119794E+04  0.7818609E-02  0.8210326E-01
       -1   -1    0    0    0  501  0.00000000000E+00  0.00000000000E+00  0.19621533847E+04  0.19621533847E+04  0.50400001928E-02 0.  1.
        1   -1    0    0  501    0  0.00000000000E+00  0.00000000000E+00 -0.12401065402E+04  0.12401065402E+04  0.50400001928E-02 0. -1.
    10030    2    1    2    0    0  0.00000000000E+00  0.00000000000E+00  0.72204684453E+03  0.32022599249E+04  0.31197943811E+04 0.  0.
        4    1    3    3  502    0 -0.33897705229E+02 -0.15593030281E+04  0.33381531341E+03  0.15949950672E+04  0.12699999809E+01 0.  1.
       -4    1    3    3    0  502  0.33897705229E+02  0.15593030281E+04  0.38823153112E+03  0.16072648577E+04  0.12699999809E+01 0. -1.
</event>
<event>
 5   0  0.5177039E-07  0.3197703E+04  0.7818609E-02  0.8189424E-01
       -1   -1    0    0    0  501  0.00000000000E+00  0.00000000000E+00  0.19902067603E+04  0.19902067603E+04  0.50400001928E-02 0. -1.
        1   -1    0    0  501    0  0.00000000000E+00  0.00000000000E+00 -0.12844526266E+04  0.12844526266E+04  0.50400001928E-02 0.  1.
    10030    2    1    2    0    0  0.00000000000E+00  0.00000000000E+00  0.70575413365E+03  0.32746593869E+04  0.31977031137E+04 0.  0.
        3    1    3    3  502    0  0.15595001988E+03  0.15569401395E+04  0.16422980567E+02  0.15648171558E+04  0.10100000352E+00 0.  1.
       -3    1    3    3    0  502 -0.15595001988E+03 -0.15569401395E+04  0.68933115308E+03  0.17098422311E+04  0.10100000352E+00 0. -1.
</event>
<event>
 5   0  0.5233813E-07  0.3187368E+04  0.7818609E-02  0.8192161E-01
        1   -1    0    0  501    0  0.00000000000E+00  0.00000000000E+00  0.29667615200E+04  0.29667615200E+04  0.50400001928E-02 0.  1.
       -1   -1    0    0    0  501  0.00000000000E+00  0.00000000000E+00 -0.85609455091E+03  0.85609455093E+03  0.50400001928E-02 0. -1.
    10030    2    1    2    0    0  0.00000000000E+00  0.00000000000E+00  0.21106669691E+04  0.38228560709E+04  0.31873677988E+04 0.  0.
        4    1    3    3  502    0 -0.51856629266E+03 -0.89360483373E+03 -0.40001376604E+03  0.11079048807E+04  0.12699999809E+01 0. -1.
       -4    1    3    3    0  502  0.51856629266E+03  0.89360483373E+03  0.25106807351E+04  0.27149511902E+04  0.12699999809E+01 0.  1.
</event>
<event>
 5   0  0.1556396E-06  0.3186156E+04  0.7818609E-02  0.8192483E-01
       -2   -1    0    0    0  501  0.00000000000E+00  0.00000000000E+00  0.20120156493E+04  0.20120156493E+04  0.25500000920E-02 0.  1.
        2   -1    0    0  501    0  0.00000000000E+00  0.00000000000E+00 -0.12613708682E+04  0.12613708682E+04  0.25500000920E-02 0. -1.
    10030    2    1    2    0    0  0.00000000000E+00  0.00000000000E+00  0.75064478110E+03  0.32733865174E+04  0.31861562587E+04 0.  0.
        3    1    3    3  502    0  0.80310044568E+03 -0.53442505939E+03 -0.92718755318E+03  0.13380049473E+04  0.10100000352E+00 0. -1.
       -3    1    3    3    0  502 -0.80310044568E+03  0.53442505939E+03  0.16778323343E+04  0.19353815702E+04  0.10100000352E+00 0.  1.
</event>
<event>
 5   0  0.1572769E-06  0.3190577E+04  0.7818609E-02  0.8191310E-01
       -2   -1    0    0    0  501  0.00000000000E+00  0.00000000000E+00  0.15968049154E+04  0.15968049154E+04  0.25500000920E-02 0. -1.
        2   -1    0    0  501    0  0.00000000000E+00  0.00000000000E+00 -0.15937736833E+04  0.15937736833E+04  0.25500000920E-02 0.  1.
    10030    2    1    2    0    0  0.00000000000E+00  0.00000000000E+00  0.30312321279E+01  0.31905785987E+04  0.31905771587E+04 0.  0.
        5    1    3    3  502    0 -0.12887070303E+04 -0.91408900313E+03  0.22196762833E+03  0.15954987414E+04  0.46999998093E+01 0. -1.
       -5    1    3    3    0  502  0.12887070303E+04  0.91408900313E+03 -0.21893639620E+03  0.15950798573E+04  0.46999998093E+01 0.  1.
</event>
<event>
 5   0  0.1572769E-06  0.3241315E+04  0.7818609E-02  0.8177990E-01
       -2   -1    0    0    0  501  0.00000000000E+00  0.00000000000E+00  0.18864438465E+04  0.18864438465E+04  0.25500000920E-02 0. -1.
        2   -1    0    0  501    0  0.00000000000E+00  0.00000000000E+00 -0.13923184680E+04  0.13923184680E+04  0.25500000920E-02 0.  1.
    10030    2    1    2    0    0  0.00000000000E+00  0.00000000000E+00  0.49412537841E+03  0.32787623145E+04  0.32413149223E+04 0.  0.
        5    1    3    3  502    0 -0.39091422950E+03 -0.51337011838E+03 -0.12567687459E+04  0.14127464684E+04  0.46999998093E+01 0.  1.
       -5    1    3    3    0  502  0.39091422950E+03  0.51337011838E+03  0.17508941243E+04  0.18660158461E+04  0.46999998093E+01 0. -1.
</event>
<event>
 5   0  0.5370912E-07  0.3110457E+04  0.7818609E-02  0.8212874E-01
        1   -1    0    0  501    0  0.00000000000E+00  0.00000000000E+00  0.21060533209E+04  0.21060533209E+04  0.50400001928E-02 0. -1.
       -1   -1    0    0    0  501  0.00000000000E+00  0.00000000000E+00 -0.11484680566E+04  0.11484680566E+04  0.50400001928E-02 0.  1.
    10030    2    1    2    0    0  0.00000000000E+00  0.00000000000E+00  0.95758526430E+03  0.32545213776E+04  0.31104565354E+04 0.  0.
        1    1    3    3  502    0  0.15035965963E+04  0.39410855559E+03  0.42533122759E+03  0.16115306175E+04  0.50400001928E-02 0. -1.
       -1    1    3    3    0  502 -0.15035965963E+04 -0.39410855559E+03  0.53225403671E+03  0.16429907600E+04  0.50400001928E-02 0.  1.
</event>
<event>
 5   0  0.1538349E-06  0.3194388E+04  0.7818609E-02  0.8190301E-01
       -2   -1    0    0    0  501  0.00000000000E+00  0.00000000000E+00  0.12305066267E+04  0.12305066267E+04  0.25500000920E-02 0. -1.
        2   -1    0    0  501    0  0.00000000000E+00  0.00000000000E+00 -0.20731535467E+04  0.20731535467E+04  0.25500000920E-02 0.  1.
    10030    2    1    2    0    0  0.00000000000E+00  0.00000000000E+00 -0.84264692002E+03  0.33036601734E+04  0.31943883153E+04 0.  0.
        1    1    3    3  502    0 -0.45630360602E+03  0.45039372118E+03  0.10915780584E+04  0.12659423931E+04  0.50400001928E-02 0. -1.
       -1    1    3    3    0  502  0.45630360602E+03 -0.45039372118E+03 -0.19342249784E+04  0.20377177803E+04  0.50400001928E-02 0.  1.
</event>
<event>
 5   0  0.1538349E-06  0.3244703E+04  0.7818609E-02  0.8177110E-01
        2   -1    0    0  501    0  0.00000000000E+00  0.00000000000E+00  0.20499670369E+04  0.20499670369E+04  0.25500000920E-02 0.  1.
       -2   -1    0    0    0  501  0.00000000000E+00  0.00000000000E+00 -0.12839350864E+04  0.12839350864E+04  0.25500000920E-02 0. -1.
    10030    2    1    2    0    0  0.00000000000E+00  0.00000000000E+00  0.76603195044E+03  0.33339021233E+04  0.32447031326E+04 0.  0.
        1    1    3    3  502    0 -0.12628742782E+02  0.54105392304E+03  0.19544808007E+04  0.20280271283E+04  0.50400001928E-02 0.  1.
       -1    1    3    3    0  502  0.12628742782E+02 -0.54105392304E+03 -0.11884488503E+04  0.13058749950E+04  0.50400001928E-02 0. -1.
</event>
<event>
 5   0  0.5177039E-07  0.3203881E+04  0.7818609E-02  0.8187793E-01
        1   -1    0    0  501    0  0.00000000000E+00  0.00000000000E+00  0.21771597185E+04  0.21771597185E+04  0.50400001928E-02 0.  1.
       -1   -1    0    0    0  501  0.00000000000E+00  0.00000000000E+00 -0.11786978047E+04  0.11786978047E+04  0.50400001928E-02 0. -1.
    10030    2    1    2    0    0  0.00000000000E+00  0.00000000000E+00  0.99846191379E+03  0.33558575231E+04  0.32038810094E+04 0.  0.
        3    1    3    3  502    0 -0.63479590388E+02 -0.15273704435E+04  0.10008236148E+04  0.18271666722E+04  0.10100000352E+00 0. -1.
       -3    1    3    3    0  502  0.63479590388E+02  0.15273704435E+04 -0.23617009812E+01  0.15286908509E+04  0.10100000352E+00 0.  1.
</event>
<event>
 5   0  0.1508771E-06  0.3209289E+04  0.7818609E-02  0.8186368E-01
        2   -1    0    0  501    0  0.00000000000E+00  0.00000000000E+00  0.98148108900E+03  0.98148108901E+03  0.25500000920E-02 0. -1.
       -2   -1    0    0    0  501  0.00000000000E+00  0.00000000000E+00 -0.26234680595E+04  0.26234680595E+04  0.25500000920E-02 0.  1.
    10030    2    1    2    0    0  0.00000000000E+00  0.00000000000E+00 -0.16419869705E+04  0.36049491485E+04  0.32092891973E+04 0.  0.
        4    1    3    3  502    0 -0.14170435751E+04 -0.35394978142E+03 -0.15674418531E+04  0.21424678568E+04  0.12699999809E+01 0.  1.
       -4    1    3    3    0  502  0.14170435751E+04  0.35394978142E+03 -0.74545117385E+02  0.14624812918E+04  0.12699999809E+01 0. -1.
</event>
<event>
 5   0  0.5317728E-07  0.3190364E+04  0.7818609E-02  0.8191367E-01
        1   -1    0    0  501    0  0.00000000000E+00  0.00000000000E+00  0.27834792868E+04  0.27834792868E+04  0.50400001928E-02 0. -1.
       -1   -1    0    0    0  501  0.00000000000E+00  0.00000000000E+00 -0.91418147324E+03  0.91418147325E+03  0.50400001928E-02 0.  1.
    10030    2    1    2    0    0  0.00000000000E+00  0.00000000000E+00  0.18692978136E+04  0.36976607601E+04  0.31903637380E+04 0.  0.
        2    1    3    3  502    0  0.13550859915E+04 -0.19952291486E+03 -0.13005167618E+02  0.13697578517E+04  0.25500000920E-02 0. -1.
       -2    1    3    3    0  502 -0.13550859915E+04  0.19952291486E+03  0.18823029812E+04  0.23279029084E+04  0.25500000920E-02 0.  1.
</event>
<event>
 5   0  0.1493485E-06  0.3205729E+04  0.7818609E-02  0.8187306E-01
        2   -1    0    0  501    0  0.00000000000E+00  0.00000000000E+00  0.26356197353E+04  0.26356197353E+04  0.25500000920E-02 0. -1.
       -2   -1    0    0    0  501  0.00000000000E+00  0.00000000000E+00 -0.97478947885E+03  0.97478947886E+03  0.25500000920E-02 0.  1.
    10030    2    1    2    0    0  0.00000000000E+00  0.00000000000E+00  0.16608302564E+04  0.36104092142E+04  0.32057288645E+04 0.  0.
        2    1    3    3  502    0 -0.10268853489E+04 -0.56590706764E+03 -0.40044868384E+03  0.12389929287E+04  0.25500000920E-02 0.  1.
       -2    1    3    3    0  502  0.10268853489E+04  0.56590706764E+03  0.20612789403E+04  0.23714162854E+04  0.25500000920E-02 0. -1.
</event>
<event>
 5   0  0.5370912E-07  0.3178592E+04  0.7818609E-02  0.8194494E-01
       -1   -1    0    0    0  501  0.00000000000E+00  0.00000000000E+00  0.15977589491E+04  0.15977589491E+04  0.50400001928E-02 0. -1.
        1   -1    0    0  501    0  0.00000000000E+00  0.00000000000E+00 -0.15808779872E+04  0.15808779872E+04  0.50400001928E-02 0.  1.
    10030    2    1    2    0    0  0.00000000000E+00  0.00000000000E+00  0.16880961888E+02  0.31786369363E+04  0.31785921106E+04 0.  0.
        1    1    3    3  502    0 -0.66058092979E+02 -0.76593082884E+02  0.15945371781E+04  0.15977418390E+04  0.50400001928E-02 0. -1.
       -1    1    3    3    0  502  0.66058092979E+02  0.76593082884E+02 -0.15776562162E+04  0.15808950972E+04  0.50400001928E-02 0.  1.
</event>
<event>
 5   0  0.1493485E-06  0.3176049E+04  0.7818609E-02  0.8195171E-01
       -2   -1    0    0    0  501  0.00000000000E+00  0.00000000000E+00  0.13621342999E+04  0.13621342999E+04  0.25500000920E-02 0. -1.
        2   -1    0    0  501    0  0.00000000000E+00  0.00000000000E+00 -0.18513753697E+04  0.18513753697E+04  0.25500000920E-02 0.  1.
    10030    2    1    2    0    0  0.00000000000E+00  0.00000000000E+00 -0.48924106984E+03  0.32135096696E+04  0.31760490506E+04 0.  0.
        2    1    3    3  502    0 -0.52186457866E+03 -0.11190955710E+04 -0.12549492981E+04  0.17605724286E+04  0.25500000920E-02 0.  1.
       -2    1    3    3    0  502  0.52186457866E+03  0.11190955710E+04  0.76570822827E+03  0.14529372410E+04  0.25500000920E-02 0. -1.
</event>
<event>
 5   0  0.1572769E-06  0.3201295E+04  0.7818609E-02  0.8188475E-01
        2   -1    0    0  501    0  0.00000000000E+00  0.00000000000E+00  0.11684087458E+04  0.11684087458E+04  0.25500000920E-02 0.  1.
       -2   -1    0    0    0  501  0.00000000000E+00  0.00000000000E+00 -0.21927871847E+04  0.21927871847E+04  0.25500000920E-02 0. -1.
    10030    2    1    2    0    0  0.00000000000E+00  0.00000000000E+00 -0.10243784389E+04  0.33611959305E+04  0.32012945658E+04 0.  0.
        5    1    3    3  502    0  0.63936228257E+02 -0.15844663976E+04 -0.74084686391E+03  0.17502850545E+04  0.46999998093E+01 0. -1.
       -5    1    3    3    0  502 -0.63936228257E+02  0.15844663976E+04 -0.28353157499E+03  0.16109108760E+04  0.46999998093E+01 0.  1.
</event>
<event>
 5   0  0.1572769E-06  0.3203893E+04  0.7818609E-02  0.8187790E-01
       -2   -1    0    0    0  501  0.00000000000E+00  0.00000000000E+00  0.14753103824E+04  0.14753103824E+04  0.25500000920E-02 0. -1.
        2   -1    0    0  501    0  0.00000000000E+00  0.00000000000E+00 -0.17394523032E+04  0.17394523032E+04  0.25500000920E-02 0.  1.
    10030    2    1    2    0    0  0.00000000000E+00  0.00000000000E+00 -0.26414192076E+03  0.32147626856E+04  0.32038926590E+04 0.  0.
        5    1    3    3  502    0  0.83147982456E+03  0.10993183956E+04 -0.95114331221E+03  0.16746806633E+04  0.46999998093E+01 0.  1.
       -5    1    3    3    0  502 -0.83147982456E+03 -0.10993183956E+04  0.68700139145E+03  0.15400820223E+04  0.46999998093E+01 0. -1.
</event>
<event>
 5   0  0.1572769E-06  0.3186242E+04  0.7818609E-02  0.8192460E-01
       -2   -1    0    0    0  501  0.00000000000E+00  0.00000000000E+00  0.15729487496E+04  0.15729487496E+04  0.25500000920E-02 0. -1.
        2   -1    0    0  501    0  0.00000000000E+00  0.00000000000E+00 -0.16135514855E+04  0.16135514855E+04  0.25500000920E-02 0.  1.
    10030    2    1    2    0    0  0.00000000000E+00  0.00000000000E+00 -0.40602735875E+02  0.31865002351E+04  0.31862415423E+04 0.  0.
        5    1    3    3  502    0 -0.12907324894E+04  0.88441569318E+03 -0.32004260847E+03  0.15970694533E+04  0.46999998093E+01 0.  1.
       -5    1    3    3    0  502  0.12907324894E+04 -0.88441569318E+03  0.27943987259E+03  0.15894307817E+04  0.46999998093E+01 0. -1.
</event>
<event>
 5   0  0.5370912E-07  0.3321743E+04  0.7818609E-02  0.8157385E-01
       -1   -1    0    0    0  501  0.00000000000E+00  0.00000000000E+00  0.12320984628E+04  0.12320984628E+04  0.50400001928E-02 0.  1.
        1   -1    0    0  501    0  0.00000000000E+00  0.00000000000E+00 -0.22388585302E+04  0.22388585302E+04  0.50400001928E-02 0. -1.
    10030    2    1    2    0    0  0.00000000000E+00  0.00000000000E+00 -0.10067600674E+04  0.34709569930E+04  0.33217430084E+04 0.  0.
        1    1    3    3  502    0  0.11062824611E+04 -0.11489231282E+04 -0.98744882368E+03  0.18758839030E+04  0.50400001928E-02 0. -1.
       -1    1    3    3    0  502 -0.11062824611E+04  0.11489231282E+04 -0.19311243695E+02  0.15950730900E+04  0.50400001928E-02 0.  1.
</event>
<event>
 5   0  0.5177039E-07  0.3194313E+04  0.7818609E-02  0.8190321E-01
       -1   -1    0    0    0  501  0.00000000000E+00  0.00000000000E+00  0.14333245006E+04  0.14333245006E+04  0.50400001928E-02 0.  1.
        1   -1    0    0  501    0  0.00000000000E+00  0.00000000000E+00 -0.17797151707E+04  0.17797151707E+04  0.50400001928E-02 0. -1.
    10030    2    1    2    0    0  0.00000000000E+00  0.00000000000E+00 -0.34639067015E+03  0.32130396713E+04  0.31943132960E+04 0.  0.
        3    1    3    3  502    0 -0.53995351705E+03 -0.14351782125E+04  0.27621589206E+03  0.15580698095E+04  0.10100000352E+00 0.  1.
       -3    1    3    3    0  502  0.53995351705E+03  0.14351782125E+04 -0.62260656221E+03  0.16549698618E+04  0.10100000352E+00 0. -1.
</event>
<event>
 5   0  0.5177039E-07  0.3202765E+04  0.7818609E-02  0.8188087E-01
        1   -1    0    0  501    0  0.00000000000E+00  0.00000000000E+00  0.24556702319E+04  0.24556702319E+04  0.50400001928E-02 0.  1.
       -1   -1    0    0    0  501  0.00000000000E+00  0.00000000000E+00 -0.10442875593E+04  0.10442875593E+04  0.50400001928E-02 0. -1.
    10030    2    1    2    0    0  0.00000000000E+00  0.00000000000E+00  0.14113826727E+04  0.34999577912E+04  0.32027649760E+04 0.  0.
        3    1    3    3  502    0 -0.10196130780E+04  0.57574535485E+03  0.18994552264E+04  0.22313726066E+04  0.10100000352E+00 0.  1.
       -3    1    3    3    0  502  0.10196130780E+04 -0.57574535485E+03 -0.48807255371E+03  0.12685851845E+04  0.10100000352E+00 0. -1.
</event>
<event>
 5   0  0.1538349E-06  0.3027544E+04  0.7818609E-02  0.8235909E-01
       -2   -1    0    0    0  501  0.00000000000E+00  0.00000000000E+00  0.12247785435E+04  0.12247785435E+04  0.25500000920E-02 0. -1.
        2   -1    0    0  501    0  0.00000000000E+00  0.00000000000E+00 -0.18709549121E+04  0.18709549121E+04  0.25500000920E-02 0.  1.
    10030    2    1    2    0    0  0.00000000000E+00  0.00000000000E+00 -0.64617636856E+03  0.30957334556E+04  0.30275438442E+04 0.  0.
        1    1    3    3  502    0  0.57975659043E+03  0.72578519095E+03 -0.15452593325E+04  0.18029720609E+04  0.50400001928E-02 0.  1.
       -1    1    3    3    0  502 -0.57975659043E+03 -0.72578519095E+03  0.89908296397E+03  0.12927613947E+04  0.50400001928E-02 0. -1.
</event>
<event>
 5   0  0.5281187E-07  0.3203623E+04  0.7818609E-02  0.8187861E-01
       -1   -1    0    0    0  501  0.00000000000E+00  0.00000000000E+00  0.14108671944E+04  0.14108671944E+04  0.50400001928E-02 0. -1.
        1   -1    0    0  501    0  0.00000000000E+00  0.00000000000E+00 -0.18185979931E+04  0.18185979931E+04  0.50400001928E-02 0.  1.
    10030    2    1    2    0    0  0.00000000000E+00  0.00000000000E+00 -0.40773079865E+03  0.32294651875E+04  0.32036231041E+04 0.  0.
        5    1    3    3  502    0 -0.14689597984E+04 -0.13670205214E+03 -0.83279535941E+03  0.16941371081E+04  0.46999998093E+01 0.  1.
       -5    1    3    3    0  502  0.14689597984E+04  0.13670205214E+03  0.42506456076E+03  0.15353280794E+04  0.46999998093E+01 0. -1.
</event>
<event>
 5   0  0.1538349E-06  0.3100340E+04  0.7818609E-02  0.8215645E-01
       -2   -1    0    0    0  501  0.00000000000E+00  0.00000000000E+00  0.11941152499E+04  0.11941152499E+04  0.25500000920E-02 0.  1.
        2   -1    0    0  501    0  0.00000000000E+00  0.00000000000E+00 -0.20123907564E+04  0.20123907564E+04  0.25500000920E-02 0. -1.
    10030    2    1    2    0    0  0.00000000000E+00  0.00000000000E+00 -0.81827550654E+03  0.32065060063E+04  0.31003396530E+04 0.  0.
        1    1    3    3  502    0 -0.36324561043E+03 -0.10258662593E+04  0.73260216569E+03  0.13118898157E+04  0.50400001928E-02 0.  1.
       -1    1    3    3    0  502  0.36324561043E+03  0.10258662593E+04 -0.15508776722E+04  0.18946161906E+04  0.50400001928E-02 0. -1.
</event>
<event>
 5   0  0.1556396E-06  0.3197034E+04  0.7818609E-02  0.8189601E-01
        2   -1    0    0  501    0  0.00000000000E+00  0.00000000000E+00  0.28161292476E+04  0.28161292476E+04  0.25500000920E-02 0. -1.
       -2   -1    0    0    0  501  0.00000000000E+00  0.00000000000E+00 -0.90736463902E+03  0.90736463903E+03  0.25500000920E-02 0.  1.
    10030    2    1    2    0    0  0.00000000000E+00  0.00000000000E+00  0.19087646086E+04  0.37234938866E+04  0.31970336865E+04 0.  0.
        3    1    3    3  502    0 -0.11144667656E+04  0.11009333102E+04  0.58394031055E+03  0.16718482652E+04  0.10100000352E+00 0.  1.
       -3    1    3    3    0  502  0.11144667656E+04 -0.11009333102E+04  0.13248242980E+04  0.20516456215E+04  0.10100000352E+00 0. -1.
</event>
<event>
 5   0  0.1493485E-06  0.3201462E+04  0.7818609E-02  0.8188431E-01
        2   -1    0    0  501    0  0.00000000000E+00  0.00000000000E+00  0.22841995674E+04  0.22841995674E+04  0.25500000920E-02 0.  1.
       -2   -1    0    0    0  501  0.00000000000E+00  0.00000000000E+00 -0.11217672334E+04  0.11217672335E+04  0.25500000920E-02 0. -1.
    10030    2    1    2    0    0  0.00000000000E+00  0.00000000000E+00  0.11624323340E+04  0.34059668009E+04  0.32014623092E+04 0.  0.
        2    1    3    3  502    0 -0.41402042015E+03  0.21018699284E+03 -0.10485500632E+04  0.11467557348E+04  0.25500000920E-02 0. -1.
       -2    1    3    3    0  502  0.41402042015E+03 -0.21018699284E+03  0.22109823972E+04  0.22592110660E+04  0.25500000920E-02 0.  1.
</event>
<event>
 5   0  0.5317728E-07  0.3189307E+04  0.7818609E-02  0.8191647E-01
       -1   -1    0    0    0  501  0.00000000000E+00  0.00000000000E+00  0.14184190966E+04  0.14184190966E+04  0.50400001928E-02 0.  1.
        1   -1    0    0  501    0  0.00000000000E+00  0.00000000000E+00 -0.17927847614E+04  0.17927847614E+04  0.50400001928E-02 0. -1.
    10030    2    1    2    0    0  0.00000000000E+00  0.00000000000E+00 -0.37436566478E+03  0.32112038580E+04  0.31893072237E+04 0.  0.
        2    1    3    3  502    0 -0.97769511681E+03  0.99149125179E+03 -0.96967842434E+03  0.16968261226E+04  0.25500000920E-02 0. -1.
       -2    1    3    3    0  502  0.97769511681E+03 -0.99149125179E+03  0.59531275956E+03  0.15143777354E+04  0.25500000920E-02 0.  1.
</event>
<event>
 5   0  0.1572769E-06  0.3003956E+04  0.7818609E-02  0.8242602E-01
        2   -1    0    0  501    0  0.00000000000E+00  0.00000000000E+00  0.19877256366E+04  0.19877256366E+04  0.25500000920E-02 0. -1.
       -2   -1    0    0    0  501  0.00000000000E+00  0.00000000000E+00 -0.11349343825E+04  0.11349343825E+04  0.25500000920E-02 0.  1.
    10030    2    1    2    0    0  0.00000000000E+00  0.00000000000E+00  0.85279125410E+03  0.31226600192E+04  0.30039561702E+04 0.  0.
        5    1    3    3  502    0  0.52088140577E+03 -0.36694175320E+02 -0.10375335981E+04  0.11615343123E+04  0.46999998093E+01 0.  1.
       -5    1    3    3    0  502 -0.52088140577E+03  0.36694175320E+02  0.18903248522E+04  0.19611257069E+04  0.46999998093E+01 0. -1.
</event>
<event>
 5   0  0.4995625E-07  0.3195807E+04  0.7818609E-02  0.8189925E-01
        3   -1    0    0  501    0  0.00000000000E+00  0.00000000000E+00  0.27566457475E+04  0.27566457493E+04  0.10100000352E+00 0. -1.
       -3   -1    0    0    0  501  0.00000000000E+00  0.00000000000E+00 -0.92623256016E+03  0.92623256567E+03  0.10100000352E+00 0.  1.
    10030    2    1    2    0    0  0.00000000000E+00  0.00000000000E+00  0.18304131873E+04  0.36828783150E+04  0.31958066661E+04 0.  0.
        3    1    3    3  502    0 -0.28024331602E+03  0.80001450406E+03  0.24761731803E+04  0.26172491574E+04  0.10100000352E+00 0. -1.
       -3    1    3    3    0  502  0.28024331602E+03 -0.80001450406E+03 -0.64575999296E+03  0.10656291576E+04  0.10100000352E+00 0.  1.
</event>
<event>
 5   0  0.1572769E-06  0.3187004E+04  0.7818609E-02  0.8192258E-01
        2   -1    0    0  501    0  0.00000000000E+00  0.00000000000E+00  0.15415904263E+04  0.15415904263E+04  0.25500000920E-02 0.  1.
       -2   -1    0    0    0  501  0.00000000000E+00  0.00000000000E+00 -0.16471621072E+04  0.16471621072E+04  0.25500000920E-02 0. -1.
    10030    2    1    2    0    0  0.00000000000E+00  0.00000000000E+00 -0.10557168092E+03  0.31887525334E+04  0.31870044461E+04 0.  0.
        5    1    3    3  502    0  0.87233311055E+03  0.56421325767E+03  0.11561507090E+04  0.15543513785E+04  0.46999998093E+01 0.  1.
       -5    1    3    3    0  502 -0.87233311055E+03 -0.56421325767E+03 -0.12617223899E+04  0.16344011549E+04  0.46999998093E+01 0. -1.
</event>
<event>
 5   0  0.1538349E-06  0.3195181E+04  0.7818609E-02  0.8190091E-01
       -2   -1    0    0    0  501  0.00000000000E+00  0.00000000000E+00  0.98390472271E+03  0.98390472272E+03  0.25500000920E-02 0. -1.
        2   -1    0    0  501    0  0.00000000000E+00  0.00000000000E+00 -0.25940472686E+04  0.25940472686E+04  0.25500000920E-02 0.  1.
    10030    2    1    2    0    0  0.00000000000E+00  0.00000000000E+00 -0.16101425459E+04  0.35779519913E+04  0.31951809705E+04 0.  0.
        1    1    3    3  502    0  0.10139026927E+03 -0.57583013405E+03  0.85978951663E+03  0.10397587907E+04  0.50400001928E-02 0. -1.
       -1    1    3    3    0  502 -0.10139026927E+03  0.57583013405E+03 -0.24699320625E+04  0.25381932006E+04  0.50400001928E-02 0.  1.
</event>
<event>
 5   0  0.1508771E-06  0.3145521E+04  0.7818609E-02  0.8203355E-01
       -2   -1    0    0    0  501  0.00000000000E+00  0.00000000000E+00  0.21176170546E+04  0.21176170546E+04  0.25500000920E-02 0.  1.
        2   -1    0    0  501    0  0.00000000000E+00  0.00000000000E+00 -0.11680940082E+04  0.11680940082E+04  0.25500000920E-02 0. -1.
    10030    2    1    2    0    0  0.00000000000E+00  0.00000000000E+00  0.94952304638E+03  0.32857110628E+04  0.31455211290E+04 0.  0.
        4    1    3    3  502    0  0.36993583079E+03 -0.59420048553E+02 -0.11207939278E+04  0.11817630484E+04  0.12699999809E+01 0. -1.
       -4    1    3    3    0  502 -0.36993583079E+03  0.59420048553E+02  0.20703169742E+04  0.21039480145E+04  0.12699999809E+01 0.  1.
</event>
<event>
 5   0  0.5317728E-07  0.3197654E+04  0.7818609E-02  0.8189437E-01
        1   -1    0    0  501    0  0.00000000000E+00  0.00000000000E+00  0.12640486339E+04  0.12640486339E+04  0.50400001928E-02 0. -1.
       -1   -1    0    0    0  501  0.00000000000E+00  0.00000000000E+00 -0.20222698635E+04  0.20222698635E+04  0.50400001928E-02 0.  1.
    10030    2    1    2    0    0  0.00000000000E+00  0.00000000000E+00 -0.75822122964E+03  0.32863184975E+04  0.31976538014E+04 0.  0.
        2    1    3    3  502    0 -0.72194900438E+03  0.40182031040E+03 -0.17858512855E+04  0.19677232379E+04  0.25500000920E-02 0.  1.
       -2    1    3    3    0  502  0.72194900438E+03 -0.40182031040E+03  0.10276300559E+04  0.13185952596E+04  0.25500000920E-02 0. -1.
</event>
<event>
 5   0  0.5317728E-07  0.3223224E+04  0.7818609E-02  0.8182711E-01
       -1   -1    0    0    0  501  0.00000000000E+00  0.00000000000E+00  0.14016064392E+04  0.14016064392E+04  0.50400001928E-02 0.  1.
        1   -1    0    0  501    0  0.00000000000E+00  0.00000000000E+00 -0.18530831413E+04  0.18530831413E+04  0.50400001928E-02 0. -1.
    10030    2    1    2    0    0  0.00000000000E+00  0.00000000000E+00 -0.45147670211E+03  0.32546895805E+04  0.32232240153E+04 0.  0.
        2    1    3    3  502    0  0.11110414497E+04 -0.10774633978E+03 -0.13995280485E+04  0.17901679070E+04  0.25500000920E-02 0. -1.
       -2    1    3    3    0  502 -0.11110414497E+04  0.10774633978E+03  0.94805134635E+03  0.14645216735E+04  0.25500000920E-02 0.  1.
</event>
<event>
 5   0  0.1572769E-06  0.3230743E+04  0.7818609E-02  0.8180745E-01
       -2   -1    0    0    0  501  0.00000000000E+00  0.00000000000E+00  0.11332016771E+04  0.11332016771E+04  0.25500000920E-02 0.  1.
        2   -1    0    0  501    0  0.00000000000E+00  0.00000000000E+00 -0.23027015560E+04  0.23027015560E+04  0.25500000920E-02 0. -1.
    10030    2    1    2    0    0  0.00000000000E+00  0.00000000000E+00 -0.11694998789E+04  0.34359032332E+04  0.32307431128E+04 0.  0.
        5    1    3    3  502    0 -0.49246997708E+03 -0.15239837884E+04 -0.80871736965E+03  0.17941848120E+04  0.46999998093E+01 0. -1.
       -5    1    3    3    0  502  0.49246997708E+03  0.15239837884E+04 -0.36078250925E+03  0.16417184212E+04  0.46999998093E+01 0.  1.
</event>
<event>
 5   0  0.1556396E-06  0.3196774E+04  0.7818609E-02  0.8189670E-01
        2   -1    0    0  501    0  0.00000000000E+00  0.00000000000E+00  0.17177116769E+04  0.17177116769E+04  0.25500000920E-02 0. -1.
       -2   -1    0    0    0  501  0.00000000000E+00  0.00000000000E+00 -0.14873513381E+04  0.14873513381E+04  0.25500000920E-02 0.  1.
    10030    2    1    2    0    0  0.00000000000E+00  0.00000000000E+00  0.23036033881E+03  0.32050630151E+04  0.31967738495E+04 0.  0.
        3    1    3    3  502    0 -0.43253941110E+03 -0.93123589727E+03  0.13433259220E+04  0.16908031173E+04  0.10100000352E+00 0. -1.
       -3    1    3    3    0  502  0.43253941110E+03  0.93123589727E+03 -0.11129655832E+04  0.15142598978E+04  0.10100000352E+00 0.  1.
</event>
<event>
 5   0  0.5317728E-07  0.3197185E+04  0.7818609E-02  0.8189561E-01
        1   -1    0    0  501    0  0.00000000000E+00  0.00000000000E+00  0.23360754388E+04  0.23360754388E+04  0.50400001928E-02 0. -1.
       -1   -1    0    0    0  501  0.00000000000E+00  0.00000000000E+00 -0.10939276674E+04  0.10939276674E+04  0.50400001928E-02 0.  1.
    10030    2    1    2    0    0  0.00000000000E+00  0.00000000000E+00  0.12421477714E+04  0.34300031062E+04  0.31971847339E+04 0.  0.
        2    1    3    3  502    0  0.82353302531E+03 -0.16616515536E+03 -0.83799262463E+03  0.11866124648E+04  0.25500000920E-02 0.  1.
       -2    1    3    3    0  502 -0.82353302531E+03  0.16616515536E+03  0.20801403961E+04  0.22433906414E+04  0.25500000920E-02 0. -1.
</event>
<event>
 5   0  0.1493485E-06  0.3249239E+04  0.7818609E-02  0.8175933E-01
        2   -1    0    0  501    0  0.00000000000E+00  0.00000000000E+00  0.20044108766E+04  0.20044108766E+04  0.25500000920E-02 0. -1.
       -2   -1    0    0    0  501  0.00000000000E+00  0.00000000000E+00 -0.13167900665E+04  0.13167900665E+04  0.25500000920E-02 0.  1.
    10030    2    1    2    0    0  0.00000000000E+00  0.00000000000E+00  0.68762081011E+03  0.33212009430E+04  0.32492388840E+04 0.  0.
        2    1    3    3  502    0  0.75004123984E+03 -0.26625864112E+03 -0.11038666838E+04  0.13608736830E+04  0.25500000920E-02 0.  1.
       -2    1    3    3    0  502 -0.75004123984E+03  0.26625864112E+03  0.17914874939E+04  0.19603272600E+04  0.25500000920E-02 0. -1.
</event>
<event>
 5   0  0.5233813E-07  0.3183339E+04  0.7818609E-02  0.8193231E-01
       -1   -1    0    0    0  501  0.00000000000E+00  0.00000000000E+00  0.11981404054E+04  0.11981404054E+04  0.50400001928E-02 0. -1.
        1   -1    0    0  501    0  0.00000000000E+00  0.00000000000E+00 -0.21144532677E+04  0.21144532677E+04  0.50400001928E-02 0.  1.
    10030    2    1    2    0    0  0.00000000000E+00  0.00000000000E+00 -0.91631286230E+03  0.33125936732E+04  0.31833390617E+04 0.  0.
        4    1    3    3  502    0  0.73078094581E+03  0.13903206717E+04 -0.72625660442E+03  0.17304573469E+04  0.12699999809E+01 0. -1.
       -4    1    3    3    0  502 -0.73078094581E+03 -0.13903206717E+04 -0.19005625788E+03  0.15821363263E+04  0.12699999809E+01 0.  1.
</event>
<event>
 5   0  0.5177039E-07  0.3241568E+04  0.7818609E-02  0.8177925E-01
        1   -1    0    0  501    0  0.00000000000E+00  0.00000000000E+00  0.11838375615E+04  0.11838375615E+04  0.50400001928E-02 0. -1.
       -1   -1    0    0    0  501  0.00000000000E+00  0.00000000000E+00 -0.22190040512E+04  0.22190040512E+04  0.50400001928E-02 0.  1.
    10030    2    1    2    0    0  0.00000000000E+00  0.00000000000E+00 -0.10351664898E+04  0.34028416127E+04  0.32415677349E+04 0.  0.
        3    1    3    3  502    0 -0.78278000601E+02 -0.12113580574E+04  0.60982505799E+03  0.13584558882E+04  0.10100000352E+00 0. -1.
       -3    1    3    3    0  502  0.78278000601E+02  0.12113580574E+04 -0.16449915477E+04  0.20443857246E+04  0.10100000352E+00 0.  1.
</event>
<event>
 5   0  0.1538349E-06  0.3197644E+04  0.7818609E-02  0.8189440E-01
       -2   -1    0    0    0  501  0.00000000000E+00  0.00000000000E+00  0.94050661963E+03  0.94050661963E+03  0.25500000920E-02 0. -1.
        2   -1    0    0  501    0  0.00000000000E+00  0.00000000000E+00 -0.27179301108E+04  0.27179301108E+04  0.25500000920E-02 0.  1.
    10030    2    1    2    0    0  0.00000000000E+00  0.00000000000E+00 -0.17774234911E+04  0.36584367304E+04  0.31976436705E+04 0.  0.
        1    1    3    3  502    0 -0.18225182607E+03 -0.93928350253E+03  0.57679655087E+03  0.11172123734E+04  0.50400001928E-02 0. -1.
       -1    1    3    3    0  502  0.18225182607E+03  0.93928350253E+03 -0.23542200420E+04  0.25412243570E+04  0.50400001928E-02 0.  1.
</event>
<event>
 5   0  0.5317728E-07  0.2924380E+04  0.7818609E-02  0.8265660E-01
       -1   -1    0    0    0  501  0.00000000000E+00  0.00000000000E+00  0.17956523438E+04  0.17956523438E+04  0.50400001928E-02 0.  1.
        1   -1    0    0  501    0  0.00000000000E+00  0.00000000000E+00 -0.11906535559E+04  0.11906535559E+04  0.50400001928E-02 0. -1.
    10030    2    1    2    0    0  0.00000000000E+00  0.00000000000E+00  0.60499878787E+03  0.29863058997E+04  0.29243801725E+04 0.  0.
        2    1    3    3  502    0 -0.12726106955E+04 -0.19098465304E+03  0.10114533030E+04  0.16367806525E+04  0.25500000920E-02 0.  1.
       -2    1    3    3    0  502  0.12726106955E+04  0.19098465304E+03 -0.40645451513E+03  0.13495252472E+04  0.25500000920E-02 0. -1.
</event>
<event>
 5   0  0.1538349E-06  0.3203187E+04  0.7818609E-02  0.8187976E-01
        2   -1    0    0  501    0  0.00000000000E+00  0.00000000000E+00  0.15838645699E+04  0.15838645699E+04  0.25500000920E-02 0.  1.
       -2   -1    0    0    0  501  0.00000000000E+00  0.00000000000E+00 -0.16195212471E+04  0.16195212471E+04  0.25500000920E-02 0. -1.
    10030    2    1    2    0    0  0.00000000000E+00  0.00000000000E+00 -0.35656677187E+02  0.32033858170E+04  0.32031873648E+04 0.  0.
        1    1    3    3  502    0 -0.47683667190E+03  0.15233958390E+04  0.11254165515E+03  0.16002417687E+04  0.50400001928E-02 0.  1.
       -1    1    3    3    0  502  0.47683667190E+03 -0.15233958390E+04 -0.14819833233E+03  0.16031440483E+04  0.50400001928E-02 0. -1.
</event>
<event>
 5   0  0.1556396E-06  0.3192897E+04  0.7818609E-02  0.8190696E-01
        2   -1    0    0  501    0  0.00000000000E+00  0.00000000000E+00  0.15818134718E+04  0.15818134718E+04  0.25500000920E-02 0. -1.
       -2   -1    0    0    0  501  0.00000000000E+00  0.00000000000E+00 -0.16112187963E+04  0.16112187963E+04  0.25500000920E-02 0.  1.
    10030    2    1    2    0    0  0.00000000000E+00  0.00000000000E+00 -0.29405324417E+02  0.31930322681E+04  0.31928968652E+04 0.  0.
        3    1    3    3  502    0 -0.21451850749E+03  0.15781910335E+04  0.94583533399E+02  0.15955096939E+04  0.10100000352E+00 0.  1.
       -3    1    3    3    0  502  0.21451850749E+03 -0.15781910335E+04 -0.12398885782E+03  0.15975225743E+04  0.10100000352E+00 0. -1.
</event>
<event>
 5   0  0.5370912E-07  0.3219708E+04  0.7818609E-02  0.8183632E-01
       -1   -1    0    0    0  501  0.00000000000E+00  0.00000000000E+00  0.14807851457E+04  0.14807851457E+04  0.50400001928E-02 0. -1.
        1   -1    0    0  501    0  0.00000000000E+00  0.00000000000E+00 -0.17501731796E+04  0.17501731796E+04  0.50400001928E-02 0.  1.
    10030    2    1    2    0    0  0.00000000000E+00  0.00000000000E+00 -0.26938803386E+03  0.32309583254E+04  0.32197083389E+04 0.  0.
        1    1    3    3  502    0 -0.11591131324E+04 -0.92707648738E+03  0.49087520716E+03  0.15633209959E+04  0.50400001928E-02 0. -1.
       -1    1    3    3    0  502  0.11591131324E+04  0.92707648738E+03 -0.76026324102E+03  0.16676373295E+04  0.50400001928E-02 0.  1.
</event>
<event>
 5   0  0.5370912E-07  0.3182575E+04  0.7818609E-02  0.8193434E-01
        1   -1    0    0  501    0  0.00000000000E+00  0.00000000000E+00  0.26440860285E+04  0.26440860285E+04  0.50400001928E-02 0.  1.
       -1   -1    0    0    0  501  0.00000000000E+00  0.00000000000E+00 -0.95768285499E+03  0.95768285500E+03  0.50400001928E-02 0. -1.
    10030    2    1    2    0    0  0.00000000000E+00  0.00000000000E+00  0.16864031735E+04  0.36017688835E+04  0.31825749679E+04 0.  0.
        1    1    3    3  502    0  0.91040571474E+03 -0.47734034763E+02  0.23192459455E+04  0.24919909428E+04  0.50400001928E-02 0.  1.
       -1    1    3    3    0  502 -0.91040571474E+03  0.47734034763E+02 -0.63284277198E+03  0.11097779407E+04  0.50400001928E-02 0. -1.
</event>
<event>
 5   0  0.1538349E-06  0.3209825E+04  0.7818609E-02  0.8186227E-01
       -2   -1    0    0    0  501  0.00000000000E+00  0.00000000000E+00  0.12166397824E+04  0.12166397824E+04  0.25500000920E-02 0.  1.
        2   -1    0    0  501    0  0.00000000000E+00  0.00000000000E+00 -0.21170963839E+04  0.21170963839E+04  0.25500000920E-02 0. -1.
    10030    2    1    2    0    0  0.00000000000E+00  0.00000000000E+00 -0.90045660145E+03  0.33337361663E+04  0.32098247203E+04 0.  0.
        1    1    3    3  502    0  0.14506575449E+03 -0.13464562403E+04  0.44427142143E+03  0.14252598275E+04  0.50400001928E-02 0.  1.
       -1    1    3    3    0  502 -0.14506575449E+03  0.13464562403E+04 -0.13447280229E+04  0.19084763388E+04  0.50400001928E-02 0. -1.
</event>
<event>
 5   0  0.5317728E-07  0.3229804E+04  0.7818609E-02  0.8180990E-01
       -1   -1    0    0    0  501  0.00000000000E+00  0.00000000000E+00  0.10616851603E+04  0.10616851603E+04  0.50400001928E-02 0.  1.
        1   -1    0    0  501    0  0.00000000000E+00  0.00000000000E+00 -0.24563865310E+04  0.24563865310E+04  0.50400001928E-02 0. -1.
    10030    2    1    2    0    0  0.00000000000E+00  0.00000000000E+00 -0.13947013707E+04  0.35180716914E+04  0.32298044077E+04 0.  0.
        2    1    3    3  502    0  0.10582479789E+04 -0.60657172228E+03  0.45545240880E+03  0.13020195604E+04  0.25500000920E-02 0.  1.
       -2    1    3    3    0  502 -0.10582479789E+04  0.60657172228E+03 -0.18501537795E+04  0.22160521309E+04  0.25500000920E-02 0. -1.
</event>
<event>
 5   0  0.5370912E-07  0.3194969E+04  0.7818609E-02  0.8190147E-01
       -1   -1    0    0    0  501  0.00000000000E+00  0.00000000000E+00  0.11680075985E+04  0.11680075985E+04  0.50400001928E-02 0. -1.
        1   -1    0    0  501    0  0.00000000000E+00  0.00000000000E+00 -0.21848805178E+04  0.21848805178E+04  0.50400001928E-02 0.  1.
    10030    2    1    2    0    0  0.00000000000E+00  0.00000000000E+00 -0.10168729193E+04  0.33528881163E+04  0.31949691996E+04 0.  0.
        1    1    3    3  502    0  0.52211588515E+03 -0.49494100954E+03 -0.20052544898E+04  0.21304030533E+04  0.50400001928E-02 0.  1.
       -1    1    3    3    0  502 -0.52211588515E+03  0.49494100954E+03  0.98838157050E+03  0.12224850631E+04  0.50400001928E-02 0. -1.
</event>
<event>
 5   0  0.1556396E-06  0.3396821E+04  0.7818609E-02  0.8138687E-01
        2   -1    0    0  501    0  0.00000000000E+00  0.00000000000E+00  0.24464942168E+04  0.24464942168E+04  0.25500000920E-02 0. -1.
       -2   -1    0    0    0  501  0.00000000000E+00  0.00000000000E+00 -0.11790742634E+04  0.11790742634E+04  0.25500000920E-02 0.  1.
    10030    2    1    2    0    0  0.00000000000E+00  0.00000000000E+00  0.12674199534E+04  0.36255684803E+04  0.33968210825E+04 0.  0.
        3    1    3    3  502    0  0.14501678413E+04 -0.10351948196E+03  0.15708427813E+04  0.21403855038E+04  0.10100000352E+00 0. -1.
       -3    1    3    3    0  502 -0.14501678413E+04  0.10351948196E+03 -0.30342282787E+03  0.14851829765E+04  0.10100000352E+00 0.  1.
</event>
<event>
 5   0  0.5233813E-07  0.3193546E+04  0.7818609E-02  0.8190524E-01
        1   -1    0    0  501    0  0.00000000000E+00  0.00000000000E+00  0.26130106560E+04  0.26130106560E+04  0.50400001928E-02 0. -1.
       -1   -1    0    0    0  501  0.00000000000E+00  0.00000000000E+00 -0.97576511568E+03  0.97576511570E+03  0.50400001928E-02 0.  1.
    10030    2    1    2    0    0  0.00000000000E+00  0.00000000000E+00  0.16372455403E+04  0.35887757717E+04  0.31935463955E+04 0.  0.
        4    1    3    3  502    0  0.99503774379E+03  0.11525582905E+04  0.13589536451E+04  0.20408937618E+04  0.12699999809E+01 0.  1.
       -4    1    3    3    0  502 -0.99503774379E+03 -0.11525582905E+04  0.27829189524E+03  0.15478820099E+04  0.12699999809E+01 0. -1.
</event>
<event>
 5   0  0.5370912E-07  0.3202738E+04  0.7818609E-02  0.8188094E-01
       -1   -1    0    0    0  501  0.00000000000E+00  0.00000000000E+00  0.28818811426E+04  0.28818811426E+04  0.50400001928E-02 0. -1.
        1   -1    0    0  501    0  0.00000000000E+00  0.00000000000E+00 -0.88982951112E+03  0.88982951114E+03  0.50400001928E-02 0.  1.
    10030    2    1    2    0    0  0.00000000000E+00  0.00000000000E+00  0.19920516315E+04  0.37717106538E+04  0.32027381337E+04 0.  0.
        1    1    3    3  502    0 -0.92329473502E+03  0.18159078958E+03 -0.52990138660E+03  0.10799277115E+04  0.50400001928E-02 0.  1.
       -1    1    3    3    0  502  0.92329473502E+03 -0.18159078958E+03  0.25219530181E+04  0.26917829422E+04  0.50400001928E-02 0. -1.
</event>
<event>
 5   0  0.5370912E-07  0.3202309E+04  0.7818609E-02  0.8188208E-01
       -1   -1    0    0    0  501  0.00000000000E+00  0.00000000000E+00  0.18467680447E+04  0.18467680447E+04  0.50400001928E-02 0. -1.
        1   -1    0    0  501    0  0.00000000000E+00  0.00000000000E+00 -0.13882066611E+04  0.13882066611E+04  0.50400001928E-02 0.  1.
    10030    2    1    2    0    0  0.00000000000E+00  0.00000000000E+00  0.45856138360E+03  0.32349747058E+04  0.32023089802E+04 0.  0.
        1    1    3    3  502    0 -0.13217764908E+04 -0.48928279501E+03 -0.53820923080E+03  0.15086947740E+04  0.50400001928E-02 0.  1.
       -1    1    3    3    0  502  0.13217764908E+04  0.48928279501E+03  0.99677061440E+03  0.17262799318E+04  0.50400001928E-02 0. -1.
</event>
<event>
 5   0  0.1493485E-06  0.3191114E+04  0.7818609E-02  0.8191168E-01
       -2   -1    0    0    0  501  0.00000000000E+00  0.00000000000E+00  0.10148842550E+04  0.10148842550E+04  0.25500000920E-02 0.  1.
        2   -1    0    0  501    0  0.00000000000E+00  0.00000000000E+00 -0.25084647324E+04  0.25084647324E+04  0.25500000920E-02 0. -1.
    10030    2    1    2    0    0  0.00000000000E+00  0.00000000000E+00 -0.14935804774E+04  0.35233489874E+04  0.31911135117E+04 0.  0.
        2    1    3    3  502    0  0.61875735898E+03 -0.45332030483E+03 -0.22915387781E+04  0.24165077984E+04  0.25500000920E-02 0. -1.
       -2    1    3    3    0  502 -0.61875735898E+03  0.45332030483E+03  0.79795830070E+03  0.11068411890E+04  0.25500000920E-02 0.  1.
</event>
<event>
 5   0  0.1508771E-06  0.3197830E+04  0.7818609E-02  0.8189390E-01
       -2   -1    0    0    0  501  0.00000000000E+00  0.00000000000E+00  0.11745952006E+04  0.11745952006E+04  0.25500000920E-02 0. -1.
        2   -1    0    0  501    0  0.00000000000E+00  0.00000000000E+00 -0.21765195523E+04  0.21765195524E+04  0.25500000920E-02 0.  1.
    10030    2    1    2    0    0  0.00000000000E+00  0.00000000000E+00 -0.10019243517E+04  0.33511147530E+04  0.31978301520E+04 0.  0.
        4    1    3    3  502    0  0.15453151685E+04  0.23656968729E+03 -0.14937507485E+03  0.15704390191E+04  0.12699999809E+01 0.  1.
       -4    1    3    3    0  502 -0.15453151685E+04 -0.23656968729E+03 -0.85254927688E+03  0.17806757339E+04  0.12699999809E+01 0. -1.
</event>
<event>
 5   0  0.1556396E-06  0.3200714E+04  0.7818609E-02  0.8188629E-01
        2   -1    0    0  501    0  0.00000000000E+00  0.00000000000E+00  0.18342020610E+04  0.18342020610E+04  0.25500000920E-02 0.  1.
       -2   -1    0    0    0  501  0.00000000000E+00  0.00000000000E+00 -0.13963255959E+04  0.13963255959E+04  0.25500000920E-02 0. -1.
    10030    2    1    2    0    0  0.00000000000E+00  0.00000000000E+00  0.43787646507E+03  0.32305276569E+04  0.32007144739E+04 0.  0.
        3    1    3    3  502    0 -0.85813629624E+03 -0.12716489344E+04  0.67887386539E+03  0.16776050341E+04  0.10100000352E+00 0. -1.
       -3    1    3    3    0  502  0.85813629624E+03  0.12716489344E+04 -0.24099740032E+03  0.15529226228E+04  0.10100000352E+00 0.  1.
</event>
<event>
 5   0  0.5177039E-07  0.3251973E+04  0.7818609E-02  0.8175225E-01
       -1   -1    0    0    0  501  0.00000000000E+00  0.00000000000E+00  0.16306342886E+04  0.16306342886E+04  0.50400001928E-02 0. -1.
        1   -1    0    0  501    0  0.00000000000E+00  0.00000000000E+00 -0.16213518146E+04  0.16213518146E+04  0.50400001928E-02 0.  1.
    10030    2    1    2    0    0  0.00000000000E+00  0.00000000000E+00  0.92824739327E+01  0.32519861032E+04  0.32519728552E+04 0.  0.
        3    1    3    3  502    0  0.87481640064E+03 -0.90844437053E+03  0.10309284896E+04  0.16289224874E+04  0.10100000352E+00 0. -1.
       -3    1    3    3    0  502 -0.87481640064E+03  0.90844437053E+03 -0.10216460157E+04  0.16230636157E+04  0.10100000352E+00 0.  1.
</event>
<event>
 5   0  0.1556396E-06  0.3196894E+04  0.7818609E-02  0.8189638E-01
       -2   -1    0    0    0  501  0.00000000000E+00  0.00000000000E+00  0.12038039414E+04  0.12038039414E+04  0.25500000920E-02 0. -1.
        2   -1    0    0  501    0  0.00000000000E+00  0.00000000000E+00 -0.21224657864E+04  0.21224657864E+04  0.25500000920E-02 0.  1.
    10030    2    1    2    0    0  0.00000000000E+00  0.00000000000E+00 -0.91866184507E+03  0.33262697278E+04  0.31968939170E+04 0.  0.
        3    1    3    3  502    0 -0.86402724687E+03  0.42011479565E+03 -0.17885250170E+04  0.20302367526E+04  0.10100000352E+00 0.  1.
       -3    1    3    3    0  502  0.86402724687E+03 -0.42011479565E+03  0.86986317194E+03  0.12960329753E+04  0.10100000352E+00 0. -1.
</event>
<event>
 5   0  0.1493485E-06  0.3200644E+04  0.7818609E-02  0.8188647E-01
       -2   -1    0    0    0  501  0.00000000000E+00  0.00000000000E+00  0.11549788171E+04  0.11549788171E+04  0.25500000920E-02 0. -1.
        2   -1    0    0  501    0  0.00000000000E+00  0.00000000000E+00 -0.22173835270E+04  0.22173835270E+04  0.25500000920E-02 0.  1.
    10030    2    1    2    0    0  0.00000000000E+00  0.00000000000E+00 -0.10624047099E+04  0.33723623441E+04  0.32006443121E+04 0.  0.
        2    1    3    3  502    0  0.15790470561E+04  0.23401516126E+03 -0.41163128266E+03  0.16485123639E+04  0.25500000920E-02 0.  1.
       -2    1    3    3    0  502 -0.15790470561E+04 -0.23401516126E+03 -0.65077342719E+03  0.17238499803E+04  0.25500000920E-02 0. -1.
</event>
<event>
 5   0  0.5177039E-07  0.3082430E+04  0.7818609E-02  0.8220577E-01
        1   -1    0    0  501    0  0.00000000000E+00  0.00000000000E+00  0.20808446327E+04  0.20808446327E+04  0.50400001928E-02 0. -1.
       -1   -1    0    0    0  501  0.00000000000E+00  0.00000000000E+00 -0.11415282540E+04  0.11415282540E+04  0.50400001928E-02 0.  1.
    10030    2    1    2    0    0  0.00000000000E+00  0.00000000000E+00  0.93931637864E+03  0.32223728867E+04  0.30824295226E+04 0.  0.
        3    1    3    3  502    0 -0.96044380062E+01  0.47806110322E+03  0.20013421108E+04  0.20576697788E+04  0.10100000352E+00 0. -1.
       -3    1    3    3    0  502  0.96044380062E+01 -0.47806110322E+03 -0.10620257322E+04  0.11647031080E+04  0.10100000352E+00 0.  1.
</event>
<event>
 5   0  0.1572769E-06  0.3217326E+04  0.7818609E-02  0.8184256E-01
       -2   -1    0    0    0  501  0.00000000000E+00  0.00000000000E+00  0.13670916510E+04  0.13670916510E+04  0.25500000920E-02 0. -1.
        2   -1    0    0  501    0  0.00000000000E+00  0.00000000000E+00 -0.18929216247E+04  0.18929216247E+04  0.25500000920E-02 0.  1.
    10030    2    1    2    0    0  0.00000000000E+00  0.00000000000E+00 -0.52582997375E+03  0.32600132757E+04  0.32173264361E+04 0.  0.
        5    1    3    3  502    0  0.11828151142E+04 -0.10780752877E+04 -0.42779249203E+03  0.16566008652E+04  0.46999998093E+01 0. -1.
       -5    1    3    3    0  502 -0.11828151142E+04  0.10780752877E+04 -0.98037481723E+02  0.16034124105E+04  0.46999998093E+01 0.  1.
</event>
<event>
 5   0  0.4995625E-07  0.3217837E+04  0.7818609E-02  0.8184122E-01
        3   -1    0    0  501    0  0.00000000000E+00  0.00000000000E+00  0.15187949091E+04  0.15187949124E+04  0.10100000352E+00 0.  1.
       -3   -1    0    0    0  501  0.00000000000E+00  0.00000000000E+00 -0.17043897930E+04  0.17043897959E+04  0.10100000352E+00 0. -1.
    10030    2    1    2    0    0  0.00000000000E+00  0.00000000000E+00 -0.18559488387E+03  0.32231847084E+04  0.32178368827E+04 0.  0.
        2    1    3    3  502    0 -0.23528386619E+03 -0.13786323571E+04 -0.88950153382E+03  0.16574675419E+04  0.25500000920E-02 0. -1.
       -2    1    3    3    0  502  0.23528386619E+03  0.13786323571E+04  0.70390664995E+03  0.15657171665E+04  0.25500000920E-02 0.  1.
</event>
<event>
 5   0  0.1572769E-06  0.3221570E+04  0.7818609E-02  0.8183144E-01
       -2   -1    0    0    0  501  0.00000000000E+00  0.00000000000E+00  0.21912985797E+04  0.21912985797E+04  0.25500000920E-02 0.  1.
        2   -1    0    0  501    0  0.00000000000E+00  0.00000000000E+00 -0.11840595951E+04  0.11840595951E+04  0.25500000920E-02 0. -1.
    10030    2    1    2    0    0  0.00000000000E+00  0.00000000000E+00  0.10072389846E+04  0.33753581748E+04  0.32215698714E+04 0.  0.
        5    1    3    3  502    0  0.88185867294E+03  0.91944336457E+03 -0.52910873992E+03  0.13795031600E+04  0.46999998093E+01 0. -1.
       -5    1    3    3    0  502 -0.88185867294E+03 -0.91944336457E+03  0.15363477245E+04  0.19958550149E+04  0.46999998093E+01 0.  1.
</event>
<event>
 5   0  0.1538349E-06  0.3212145E+04  0.7818609E-02  0.8185617E-01
        2   -1    0    0  501    0  0.00000000000E+00  0.00000000000E+00  0.14168882659E+04  0.14168882659E+04  0.25500000920E-02 0.  1.
       -2   -1    0    0    0  501  0.00000000000E+00  0.00000000000E+00 -0.18205170459E+04  0.18205170459E+04  0.25500000920E-02 0. -1.
    10030    2    1    2    0    0  0.00000000000E+00  0.00000000000E+00 -0.40362877999E+03  0.32374053118E+04  0.32121452272E+04 0.  0.
        1    1    3    3  502    0  0.47118571524E+03  0.83086415301E+03 -0.15031373000E+04  0.17809472092E+04  0.50400001928E-02 0. -1.
       -1    1    3    3    0  502 -0.47118571524E+03 -0.83086415301E+03  0.10995085201E+04  0.14564581026E+04  0.50400001928E-02 0.  1.
</event>
<event>
 5   0  0.1508771E-06  0.3157744E+04  0.7818609E-02  0.8200067E-01
       -2   -1    0    0    0  501  0.00000000000E+00  0.00000000000E+00  0.12757461766E+04  0.12757461766E+04  0.25500000920E-02 0. -1.
        2   -1    0    0  501    0  0.00000000000E+00  0.00000000000E+00 -0.19540223259E+04  0.19540223259E+04  0.25500000920E-02 0.  1.
    10030    2    1    2    0    0  0.00000000000E+00  0.00000000000E+00 -0.67827614931E+03  0.32297685025E+04  0.31577438220E+04 0.  0.
        4    1    3    3  502    0  0.15218212098E+04 -0.12428462378E+03  0.71833157164E+02  0.15285771415E+04  0.12699999809E+01 0. -1.
       -4    1    3    3    0  502 -0.15218212098E+04  0.12428462378E+03 -0.75010930647E+03  0.17011913610E+04  0.12699999809E+01 0.  1.
</event>
<event>
 5   0  0.5177039E-07  0.3204995E+04  0.7818609E-02  0.8187499E-01
       -1   -1    0    0    0  501  0.00000000000E+00  0.00000000000E+00  0.15552940136E+04  0.15552940136E+04  0.50400001928E-02 0.  1.
        1   -1    0    0  501    0  0.00000000000E+00  0.00000000000E+00 -0.16511335501E+04  0.16511335501E+04  0.50400001928E-02 0. -1.
    10030    2    1    2    0    0  0.00000000000E+00  0.00000000000E+00 -0.95839536585E+02  0.32064275637E+04  0.32049949305E+04 0.  0.
        3    1    3    3  502    0 -0.16902520913E+03 -0.10615545186E+03 -0.16386492535E+04  0.16507603968E+04  0.10100000352E+00 0. -1.
       -3    1    3    3    0  502  0.16902520913E+03  0.10615545186E+03  0.15428097170E+04  0.15556671669E+04  0.10100000352E+00 0.  1.
</event>
<event>
 5   0  0.5233813E-07  0.3210927E+04  0.7818609E-02  0.8185937E-01
       -1   -1    0    0    0  501  0.00000000000E+00  0.00000000000E+00  0.11304009974E+04  0.11304009974E+04  0.50400001928E-02 0.  1.
        1   -1    0    0  501    0  0.00000000000E+00  0.00000000000E+00 -0.22801752465E+04  0.22801752465E+04  0.50400001928E-02 0. -1.
    10030    2    1    2    0    0  0.00000000000E+00  0.00000000000E+00 -0.11497742491E+04  0.34105762440E+04  0.32109265784E+04 0.  0.
        4    1    3    3  502    0  0.78239152063E+03  0.13157721274E+04 -0.10888299045E+04  0.18785486304E+04  0.12699999809E+01 0. -1.
       -4    1    3    3    0  502 -0.78239152063E+03 -0.13157721274E+04 -0.60944344566E+02  0.15320276136E+04  0.12699999809E+01 0.  1.
</event>
<event>
 5   0  0.1538349E-06  0.3193572E+04  0.7818609E-02  0.8190517E-01
        2   -1    0    0  501    0  0.00000000000E+00  0.00000000000E+00  0.19935545242E+04  0.19935545242E+04  0.25500000920E-02 0. -1.
       -2   -1    0    0    0  501  0.00000000000E+00  0.00000000000E+00 -0.12789843790E+04  0.12789843790E+04  0.25500000920E-02 0.  1.
    10030    2    1    2    0    0  0.00000000000E+00  0.00000000000E+00  0.71457014516E+03  0.32725389032E+04  0.31935717278E+04 0.  0.
        1    1    3    3  502    0  0.72773972193E+03 -0.19017662636E+02 -0.10990383891E+04  0.13182762059E+04  0.50400001928E-02 0.  1.
       -1    1    3    3    0  502 -0.72773972193E+03  0.19017662636E+02  0.18136085343E+04  0.19542626973E+04  0.50400001928E-02 0. -1.
</event>
<event>
 5   0  0.5370912E-07  0.2924542E+04  0.7818609E-02  0.8265613E-01
        1   -1    0    0  501    0  0.00000000000E+00  0.00000000000E+00  0.11743782005E+04  0.11743782005E+04  0.50400001928E-02 0.  1.
       -1   -1    0    0    0  501  0.00000000000E+00  0.00000000000E+00 -0.18207397493E+04  0.18207397494E+04  0.50400001928E-02 0. -1.
    10030    2    1    2    0    0  0.00000000000E+00  0.00000000000E+00 -0.64636154884E+03  0.29951179499E+04  0.29245424055E+04 0.  0.
        1    1    3    3  502    0 -0.60703018209E+03  0.14338354982E+03 -0.16776677112E+04  0.17898640824E+04  0.50400001928E-02 0. -1.
       -1    1    3    3    0  502  0.60703018209E+03 -0.14338354982E+03  0.10313061624E+04  0.12052538674E+04  0.50400001928E-02 0.  1.
</event>
<event>
 5   0  0.1508771E-06  0.3161589E+04  0.7818609E-02  0.8199036E-01
       -2   -1    0    0    0  501  0.00000000000E+00  0.00000000000E+00  0.12351035059E+04  0.12351035059E+04  0.25500000920E-02 0. -1.
        2   -1    0    0  501    0  0.00000000000E+00  0.00000000000E+00 -0.20232404236E+04  0.20232404236E+04  0.25500000920E-02 0.  1.
    10030    2    1    2    0    0  0.00000000000E+00  0.00000000000E+00 -0.78813691772E+03  0.32583439295E+04  0.31615890565E+04 0.  0.
        4    1    3    3  502    0  0.97136169766E+03  0.33231325925E+03 -0.16329093185E+04  0.19288260951E+04  0.12699999809E+01 0.  1.
       -4    1    3    3    0  502 -0.97136169766E+03 -0.33231325925E+03  0.84477240077E+03  0.13295178344E+04  0.12699999809E+01 0. -1.
</event>
<event>
 5   0  0.1572769E-06  0.3206271E+04  0.7818609E-02  0.8187163E-01
       -2   -1    0    0    0  501  0.00000000000E+00  0.00000000000E+00  0.12032204925E+04  0.12032204925E+04  0.25500000920E-02 0. -1.
        2   -1    0    0  501    0  0.00000000000E+00  0.00000000000E+00 -0.21359698005E+04  0.21359698005E+04  0.25500000920E-02 0.  1.
    10030    2    1    2    0    0  0.00000000000E+00  0.00000000000E+00 -0.93274930800E+03  0.33391902929E+04  0.32062705034E+04 0.  0.
        5    1    3    3  502    0 -0.10895263463E+04 -0.11753598491E+04 -0.42628046685E+03  0.16583954777E+04  0.46999998093E+01 0. -1.
       -5    1    3    3    0  502  0.10895263463E+04  0.11753598491E+04 -0.50646884115E+03  0.16807948153E+04  0.46999998093E+01 0.  1.
</event>
<event>
 5   0  0.1572769E-06  0.3194158E+04  0.7818609E-02  0.8190362E-01
        2   -1    0    0  501    0  0.00000000000E+00  0.00000000000E+00  0.22817411107E+04  0.22817411107E+04  0.25500000920E-02 0.  1.
       -2   -1    0    0    0  501  0.00000000000E+00  0.00000000000E+00 -0.11178574746E+04  0.11178574746E+04  0.25500000920E-02 0. -1.
    10030    2    1    2    0    0  0.00000000000E+00  0.00000000000E+00  0.11638836361E+04  0.33995985853E+04  0.31941580147E+04 0.  0.
        5    1    3    3  502    0 -0.11937443104E+04 -0.75273341711E+02  0.17082833966E+04  0.20854126229E+04  0.46999998093E+01 0.  1.
       -5    1    3    3    0  502  0.11937443104E+04  0.75273341711E+02 -0.54439976052E+03  0.13141859624E+04  0.46999998093E+01 0. -1.
</event>
<event>
 5   0  0.5233813E-07  0.2819315E+04  0.7818609E-02  0.8297297E-01
        1   -1    0    0  501    0  0.00000000000E+00  0.00000000000E+00  0.27201675032E+04  0.27201675032E+04  0.50400001928E-02 0. -1.
       -1   -1    0    0    0  501  0.00000000000E+00  0.00000000000E+00 -0.73051883349E+03  0.73051883351E+03  0.50400001928E-02 0.  1.
    10030    2    1    2    0    0  0.00000000000E+00  0.00000000000E+00  0.19896486697E+04  0.34506863367E+04  0.28193145205E+04 0.  0.
        4    1    3    3  502    0  0.10510630648E+04 -0.81096055843E+03  0.41458992201E+03  0.13907828766E+04  0.12699999809E+01 0.  1.
       -4    1    3    3    0  502 -0.10510630648E+04  0.81096055843E+03  0.15750587477E+04  0.20599034601E+04  0.12699999809E+01 0. -1.
</event>
<event>
 5   0  0.5233813E-07  0.3175708E+04  0.7818609E-02  0.8195262E-01
       -1   -1    0    0    0  501  0.00000000000E+00  0.00000000000E+00  0.21580240197E+04  0.21580240197E+04  0.50400001928E-02 0.  1.
        1   -1    0    0  501    0  0.00000000000E+00  0.00000000000E+00 -0.11683278753E+04  0.11683278753E+04  0.50400001928E-02 0. -1.
    10030    2    1    2    0    0  0.00000000000E+00  0.00000000000E+00  0.98969614433E+03  0.33263518950E+04  0.31757075544E+04 0.  0.
        4    1    3    3  502    0 -0.13842427512E+02 -0.11610831223E+04 -0.63956593751E+03  0.13256514742E+04  0.12699999809E+01 0. -1.
       -4    1    3    3    0  502  0.13842427512E+02  0.11610831223E+04  0.16292620818E+04  0.20007004208E+04  0.12699999809E+01 0.  1.
</event>
<event>
 5   0  0.5370912E-07  0.3184789E+04  0.7818609E-02  0.8192846E-01
        1   -1    0    0  501    0  0.00000000000E+00  0.00000000000E+00  0.24276829110E+04  0.24276829110E+04  0.50400001928E-02 0.  1.
       -1   -1    0    0    0  501  0.00000000000E+00  0.00000000000E+00 -0.10445021292E+04  0.10445021292E+04  0.50400001928E-02 0. -1.
    10030    2    1    2    0    0  0.00000000000E+00  0.00000000000E+00  0.13831807818E+04  0.34721850402E+04  0.31847888279E+04 0.  0.
        1    1    3    3  502    0 -0.44860816102E+03 -0.12180547134E+04 -0.31404229751E+03  0.13354883495E+04  0.50400001928E-02 0. -1.
       -1    1    3    3    0  502  0.44860816102E+03  0.12180547134E+04  0.16972230793E+04  0.21366966907E+04  0.50400001928E-02 0.  1.
</event>
<event>
 5   0  0.1572769E-06  0.2895386E+04  0.7818609E-02  0.8274252E-01
       -2   -1    0    0    0  501  0.00000000000E+00  0.00000000000E+00  0.15128787190E+04  0.15128787190E+04  0.25500000920E-02 0.  1.
        2   -1    0    0  501    0  0.00000000000E+00  0.00000000000E+00 -0.13853157216E+04  0.13853157216E+04  0.25500000920E-02 0. -1.
    10030    2    1    2    0    0  0.00000000000E+00  0.00000000000E+00  0.12756299732E+03  0.28981944406E+04  0.28953857597E+04 0.  0.
        5    1    3    3  502    0 -0.39690982825E+03 -0.98328272124E+03  0.10503390580E+04  0.14925202003E+04  0.46999998093E+01 0.  1.
       -5    1    3    3    0  502  0.39690982825E+03  0.98328272124E+03 -0.92277606066E+03  0.14056742403E+04  0.46999998093E+01 0. -1.
</event>
<event>
 5   0  0.1508771E-06  0.3189385E+04  0.7818609E-02  0.8191626E-01
        2   -1    0    0  501    0  0.00000000000E+00  0.00000000000E+00  0.16062459623E+04  0.16062459623E+04  0.25500000920E-02 0.  1.
       -2   -1    0    0    0  501  0.00000000000E+00  0.00000000000E+00 -0.15832221999E+04  0.15832221999E+04  0.25500000920E-02 0. -1.
    10030    2    1    2    0    0  0.00000000000E+00  0.00000000000E+00  0.23023762394E+02  0.31894681621E+04  0.31893850604E+04 0.  0.
        4    1    3    3  502    0  0.28863922211E+03  0.25302579932E+03  0.15593596911E+04  0.16059075051E+04  0.12699999809E+01 0.  1.
       -4    1    3    3    0  502 -0.28863922211E+03 -0.25302579932E+03 -0.15363359287E+04  0.15835606570E+04  0.12699999809E+01 0. -1.
</event>
<event>
 5   0  0.1538349E-06  0.3196871E+04  0.7818609E-02  0.8189644E-01
        2   -1    0    0  501    0  0.00000000000E+00  0.00000000000E+00  0.19168972874E+04  0.19168972875E+04  0.25500000920E-02 0. -1.
       -2   -1    0    0    0  501  0.00000000000E+00  0.00000000000E+00 -0.13328809795E+04  0.13328809795E+04  0.25500000920E-02 0.  1.
    10030    2    1    2    0    0  0.00000000000E+00  0.00000000000E+00  0.58401630792E+03  0.32497782670E+04  0.31968709290E+04 0.  0.
        1    1    3    3  502    0 -0.75200137066E+03  0.56863661332E+03  0.16041617335E+04  0.18606957104E+04  0.50400001928E-02 0. -1.
       -1    1    3    3    0  502  0.75200137066E+03 -0.56863661332E+03 -0.10201454256E+04  0.13890825565E+04  0.50400001928E-02 0.  1.
</event>
<event>
 5   0  0.1538349E-06  0.3182220E+04  0.7818609E-02  0.8193529E-01
        2   -1    0    0  501    0  0.00000000000E+00  0.00000000000E+00  0.86995070414E+03  0.86995070415E+03  0.25500000920E-02 0.  1.
       -2   -1    0    0    0  501  0.00000000000E+00  0.00000000000E+00 -0.29100862261E+04  0.29100862261E+04  0.25500000920E-02 0. -1.
    10030    2    1    2    0    0  0.00000000000E+00  0.00000000000E+00 -0.20401355219E+04  0.37800369302E+04  0.31822203327E+04 0.  0.
        1    1    3    3  502    0 -0.42602100986E+03 -0.38661123237E+03  0.74208356246E+03  0.93896227801E+03  0.50400001928E-02 0.  1.
       -1    1    3    3    0  502  0.42602100986E+03  0.38661123237E+03 -0.27822190844E+04  0.28410746522E+04  0.50400001928E-02 0. -1.
</event>
<event>
 5   0  0.5317728E-07  0.2911719E+04  0.7818609E-02  0.8269399E-01
       -1   -1    0    0    0  501  0.00000000000E+00  0.00000000000E+00  0.11737607897E+04  0.11737607898E+04  0.50400001928E-02 0. -1.
        1   -1    0    0  501    0  0.00000000000E+00  0.00000000000E+00 -0.18057570674E+04  0.18057570674E+04  0.50400001928E-02 0.  1.
    10030    2    1    2    0    0  0.00000000000E+00  0.00000000000E+00 -0.63199627765E+03  0.29795178572E+04  0.29117189710E+04 0.  0.
        2    1    3    3  502    0  0.10015729099E+04  0.42492401115E+03  0.67390400425E+03  0.12797872151E+04  0.25500000920E-02 0. -1.
       -2    1    3    3    0  502 -0.10015729099E+04 -0.42492401115E+03 -0.13059002819E+04  0.16997306420E+04  0.25500000920E-02 0.  1.
</event>
<event>
 5   0  0.5281187E-07  0.3192358E+04  0.7818609E-02  0.8190838E-01
       -1   -1    0    0    0  501  0.00000000000E+00  0.00000000000E+00  0.13028183657E+04  0.13028183657E+04  0.50400001928E-02 0.  1.
        1   -1    0    0  501    0  0.00000000000E+00  0.00000000000E+00 -0.19555968456E+04  0.19555968456E+04  0.50400001928E-02 0. -1.
    10030    2    1    2    0    0  0.00000000000E+00  0.00000000000E+00 -0.65277847999E+03  0.32584152113E+04  0.31923580541E+04 0.  0.
        5    1    3    3  502    0 -0.74970723657E+03  0.12997895938E+04  0.22916323157E+03  0.15179103417E+04  0.46999998093E+01 0.  1.
       -5    1    3    3    0  502  0.74970723657E+03 -0.12997895938E+04 -0.88194171155E+03  0.17405048696E+04  0.46999998093E+01 0. -1.
</event>
<event>
 5   0  0.1572769E-06  0.3193326E+04  0.7818609E-02  0.8190582E-01
       -2   -1    0    0    0  501  0.00000000000E+00  0.00000000000E+00  0.10309702564E+04  0.10309702564E+04  0.25500000920E-02 0.  1.
        2   -1    0    0  501    0  0.00000000000E+00  0.00000000000E+00 -0.24727510758E+04  0.24727510758E+04  0.25500000920E-02 0. -1.
    10030    2    1    2    0    0  0.00000000000E+00  0.00000000000E+00 -0.14417808194E+04  0.35037213322E+04  0.31933260470E+04 0.  0.
        5    1    3    3  502    0  0.16440027632E+03 -0.15531334758E+04 -0.35689122649E+03  0.16020750551E+04  0.46999998093E+01 0.  1.
       -5    1    3    3    0  502 -0.16440027632E+03  0.15531334758E+04 -0.10848895930E+04  0.19016462772E+04  0.46999998093E+01 0. -1.
</event>
<event>
 5   0  0.5233813E-07  0.3156999E+04  0.7818609E-02  0.8200267E-01
        1   -1    0    0  501    0  0.00000000000E+00  0.00000000000E+00  0.99509919970E+03  0.99509919971E+03  0.50400001928E-02 0.  1.
       -1   -1    0    0    0  501  0.00000000000E+00  0.00000000000E+00 -0.25039316794E+04  0.25039316794E+04  0.50400001928E-02 0. -1.
    10030    2    1    2    0    0  0.00000000000E+00  0.00000000000E+00 -0.15088324797E+04  0.34990308792E+04  0.31569988346E+04 0.  0.
        4    1    3    3  502    0 -0.50322140791E+02 -0.54209568351E+03 -0.23965790481E+04  0.24576396796E+04  0.12699999809E+01 0. -1.
       -4    1    3    3    0  502  0.50322140791E+02  0.54209568351E+03  0.88774656838E+03  0.10413911996E+04  0.12699999809E+01 0.  1.
</event>
<event>
 5   0  0.1493485E-06  0.2839242E+04  0.7818609E-02  0.8291188E-01
        2   -1    0    0  501    0  0.00000000000E+00  0.00000000000E+00  0.12595066608E+04  0.12595066608E+04  0.25500000920E-02 0. -1.
       -2   -1    0    0    0  501  0.00000000000E+00  0.00000000000E+00 -0.16000894371E+04  0.16000894371E+04  0.25500000920E-02 0.  1.
    10030    2    1    2    0    0  0.00000000000E+00  0.00000000000E+00 -0.34058277633E+03  0.28595960979E+04  0.28392416620E+04 0.  0.
        2    1    3    3  502    0  0.39275943906E+03 -0.12881924052E+04  0.28195288627E+03  0.13759349839E+04  0.25500000920E-02 0. -1.
       -2    1    3    3    0  502 -0.39275943906E+03  0.12881924052E+04 -0.62253566261E+03  0.14836611140E+04  0.25500000920E-02 0.  1.
</event>
<event>
 5   0  0.5370912E-07  0.3175248E+04  0.7818609E-02  0.8195385E-01
        1   -1    0    0  501    0  0.00000000000E+00  0.00000000000E+00  0.98648498085E+03  0.98648498087E+03  0.50400001928E-02 0.  1.
       -1   -1    0    0    0  501  0.00000000000E+00  0.00000000000E+00 -0.25550826175E+04  0.25550826175E+04  0.50400001928E-02 0. -1.
    10030    2    1    2    0    0  0.00000000000E+00  0.00000000000E+00 -0.15685976367E+04  0.35415675984E+04  0.31752484168E+04 0.  0.
        1    1    3    3  502    0 -0.35711405235E+03 -0.14022519291E+04 -0.55707336743E+02  0.14480829487E+04  0.50400001928E-02 0.  1.
       -1    1    3    3    0  502  0.35711405235E+03  0.14022519291E+04 -0.15128902999E+04  0.20934846497E+04  0.50400001928E-02 0. -1.
</event>
<event>
 5   0  0.1556396E-06  0.3173537E+04  0.7818609E-02  0.8195841E-01
        2   -1    0    0  501    0  0.00000000000E+00  0.00000000000E+00  0.79261128084E+03  0.79261128084E+03  0.25500000920E-02 0.  1.
       -2   -1    0    0    0  501  0.00000000000E+00  0.00000000000E+00 -0.31766317624E+04  0.31766317624E+04  0.25500000920E-02 0. -1.
    10030    2    1    2    0    0  0.00000000000E+00  0.00000000000E+00 -0.23840204815E+04  0.39692430432E+04  0.31735369353E+04 0.  0.
        3    1    3    3  502    0 -0.67372068400E+03 -0.95186120363E+03 -0.25378665537E+04  0.27929743940E+04  0.10100000352E+00 0. -1.
       -3    1    3    3    0  502  0.67372068400E+03  0.95186120363E+03  0.15384607214E+03  0.11762686492E+04  0.10100000352E+00 0.  1.
</event>
<event>
 5   0  0.1572769E-06  0.3134888E+04  0.7818609E-02  0.8206228E-01
        2   -1    0    0  501    0  0.00000000000E+00  0.00000000000E+00  0.19311606409E+04  0.19311606409E+04  0.25500000920E-02 0.  1.
       -2   -1    0    0    0  501  0.00000000000E+00  0.00000000000E+00 -0.12722303710E+04  0.12722303710E+04  0.25500000920E-02 0. -1.
    10030    2    1    2    0    0  0.00000000000E+00  0.00000000000E+00  0.65893026985E+03  0.32033910119E+04  0.31348883352E+04 0.  0.
        5    1    3    3  502    0 -0.40615779744E+03  0.81299460048E+03 -0.97552181951E+03  0.13332626475E+04  0.46999998093E+01 0. -1.
       -5    1    3    3    0  502  0.40615779744E+03 -0.81299460048E+03  0.16344520894E+04  0.18701283644E+04  0.46999998093E+01 0.  1.
</event>
<event>
 5   0  0.5370912E-07  0.3231808E+04  0.7818609E-02  0.8180467E-01
        1   -1    0    0  501    0  0.00000000000E+00  0.00000000000E+00  0.22752163870E+04  0.22752163870E+04  0.50400001928E-02 0.  1.
       -1   -1    0    0    0  501  0.00000000000E+00  0.00000000000E+00 -0.11476475385E+04  0.11476475385E+04  0.50400001928E-02 0. -1.
    10030    2    1    2    0    0  0.00000000000E+00  0.00000000000E+00  0.11275688485E+04  0.34228639255E+04  0.32318084634E+04 0.  0.
        1    1    3    3  502    0  0.16505627681E+03 -0.21642257529E+02  0.22661104933E+04  0.22722166995E+04  0.50400001928E-02 0.  1.
       -1    1    3    3    0  502 -0.16505627681E+03  0.21642257529E+02 -0.11385416447E+04  0.11506472260E+04  0.50400001928E-02 0. -1.
</event>
<event>
 5   0  0.5233813E-07  0.3201999E+04  0.7818609E-02  0.8188289E-01
       -1   -1    0    0    0  501  0.00000000000E+00  0.00000000000E+00  0.13442378842E+04  0.13442378843E+04  0.50400001928E-02 0. -1.
        1   -1    0    0  501    0  0.00000000000E+00  0.00000000000E+00 -0.19068051181E+04  0.19068051181E+04  0.50400001928E-02 0.  1.
    10030    2    1    2    0    0  0.00000000000E+00  0.00000000000E+00 -0.56256723381E+03  0.32510430023E+04  0.32019991740E+04 0.  0.
        4    1    3    3  502    0 -0.38701079951E+03  0.13030612892E+04 -0.11400830403E+04  0.17741299372E+04  0.12699999809E+01 0.  1.
       -4    1    3    3    0  502  0.38701079951E+03 -0.13030612892E+04  0.57751580647E+03  0.14769130651E+04  0.12699999809E+01 0. -1.
</event>
<event>
 5   0  0.5281187E-07  0.3140852E+04  0.7818609E-02  0.8204615E-01
       -1   -1    0    0    0  501  0.00000000000E+00  0.00000000000E+00  0.14146569656E+04  0.14146569656E+04  0.50400001928E-02 0.  1.
        1   -1    0    0  501    0  0.00000000000E+00  0.00000000000E+00 -0.17433473574E+04  0.17433473574E+04  0.50400001928E-02 0. -1.
    10030    2    1    2    0    0  0.00000000000E+00  0.00000000000E+00 -0.32869039177E+03  0.31580043231E+04  0.31408524211E+04 0.  0.
        5    1    3    3  502    0  0.38665060524E+03  0.68879886632E+03  0.12003707944E+04  0.14369602301E+04  0.46999998093E+01 0.  1.
       -5    1    3    3    0  502 -0.38665060524E+03 -0.68879886632E+03 -0.15290611862E+04  0.17210440930E+04  0.46999998093E+01 0. -1.
</event>
<event>
 5   0  0.5281187E-07  0.3227288E+04  0.7818609E-02  0.8181647E-01
       -1   -1    0    0    0  501  0.00000000000E+00  0.00000000000E+00  0.16491371404E+04  0.16491371404E+04  0.50400001928E-02 0.  1.
        1   -1    0    0  501    0  0.00000000000E+00  0.00000000000E+00 -0.15789148595E+04  0.15789148595E+04  0.50400001928E-02 0. -1.
    10030    2    1    2    0    0  0.00000000000E+00  0.00000000000E+00  0.70222280953E+02  0.32280519999E+04  0.32272881101E+04 0.  0.
        5    1    3    3  502    0  0.65023123430E+03  0.14502124350E+04 -0.24407547688E+03  0.16079526402E+04  0.46999998093E+01 0.  1.
       -5    1    3    3    0  502 -0.65023123430E+03 -0.14502124350E+04  0.31429775783E+03  0.16200993597E+04  0.46999998093E+01 0. -1.
</event>
<event>
 5   0  0.1572769E-06  0.3191987E+04  0.7818609E-02  0.8190937E-01
       -2   -1    0    0    0  501  0.00000000000E+00  0.00000000000E+00  0.10433020031E+04  0.10433020031E+04  0.25500000920E-02 0. -1.
        2   -1    0    0  501    0  0.00000000000E+00  0.00000000000E+00 -0.24414749545E+04  0.24414749545E+04  0.25500000920E-02 0.  1.
    10030    2    1    2    0    0  0.00000000000E+00  0.00000000000E+00 -0.13981729514E+04  0.34847769577E+04  0.31919872874E+04 0.  0.
        5    1    3    3  502    0 -0.18503079885E+03  0.11291439524E+04 -0.19137866586E+04  0.22297542300E+04  0.46999998093E+01 0.  1.
       -5    1    3    3    0  502  0.18503079885E+03 -0.11291439524E+04  0.51561370719E+03  0.12550227276E+04  0.46999998093E+01 0. -1.
</event>
<event>
 5   0  0.1572769E-06  0.3196404E+04  0.7818609E-02  0.8189768E-01
       -2   -1    0    0    0  501  0.00000000000E+00  0.00000000000E+00  0.12153614671E+04  0.12153614671E+04  0.25500000920E-02 0. -1.
        2   -1    0    0  501    0  0.00000000000E+00  0.00000000000E+00 -0.21016375035E+04  0.21016375035E+04  0.25500000920E-02 0.  1.
    10030    2    1    2    0    0  0.00000000000E+00  0.00000000000E+00 -0.88627603644E+03  0.33169989706E+04  0.31964037540E+04 0.  0.
        5    1    3    3  502    0 -0.15248769966E+04 -0.38261200277E+03 -0.74135695132E+03  0.17381812387E+04  0.46999998093E+01 0.  1.
       -5    1    3    3    0  502  0.15248769966E+04  0.38261200277E+03 -0.14491908512E+03  0.15788177319E+04  0.46999998093E+01 0. -1.
</event>
<event>
 5   0  0.1556396E-06  0.3240538E+04  0.7818609E-02  0.8178193E-01
       -2   -1    0    0    0  501  0.00000000000E+00  0.00000000000E+00  0.14094114356E+04  0.14094114356E+04  0.25500000920E-02 0. -1.
        2   -1    0    0  501    0  0.00000000000E+00  0.00000000000E+00 -0.18626720904E+04  0.18626720904E+04  0.25500000920E-02 0.  1.
    10030    2    1    2    0    0  0.00000000000E+00  0.00000000000E+00 -0.45326065485E+03  0.32720835260E+04  0.32405378226E+04 0.  0.
        3    1    3    3  502    0  0.25435332065E+03 -0.99159504775E+03 -0.14947682825E+04  0.18117087457E+04  0.10100000352E+00 0.  1.
       -3    1    3    3    0  502 -0.25435332065E+03  0.99159504775E+03  0.10415076277E+04  0.14603747804E+04  0.10100000352E+00 0. -1.
</event>
<event>
 5   0  0.1572769E-06  0.3182255E+04  0.7818609E-02  0.8193519E-01
       -2   -1    0    0    0  501  0.00000000000E+00  0.00000000000E+00  0.14657202796E+04  0.14657202796E+04  0.25500000920E-02 0.  1.
        2   -1    0    0  501    0  0.00000000000E+00  0.00000000000E+00 -0.17272642344E+04  0.17272642344E+04  0.25500000920E-02 0. -1.
    10030    2    1    2    0    0  0.00000000000E+00  0.00000000000E+00 -0.26154395483E+03  0.31929845140E+04  0.31822546828E+04 0.  0.
        5    1    3    3  502    0  0.11280621047E+04  0.29149707802E+03 -0.12180166030E+04  0.16855507094E+04  0.46999998093E+01 0. -1.
       -5    1    3    3    0  502 -0.11280621047E+04 -0.29149707802E+03  0.95647264816E+03  0.15074338046E+04  0.46999998093E+01 0.  1.
</event>
<event>
 5   0  0.5317728E-07  0.3199334E+04  0.7818609E-02  0.8188993E-01
       -1   -1    0    0    0  501  0.00000000000E+00  0.00000000000E+00  0.10435587421E+04  0.10435587421E+04  0.50400001928E-02 0. -1.
        1   -1    0    0  501    0  0.00000000000E+00  0.00000000000E+00 -0.24521232620E+04  0.24521232620E+04  0.50400001928E-02 0.  1.
    10030    2    1    2    0    0  0.00000000000E+00  0.00000000000E+00 -0.14085645198E+04  0.34956820041E+04  0.31993340975E+04 0.  0.
        2    1    3    3  502    0 -0.18253988562E+03  0.35435752834E+03  0.98842548076E+03  0.10657743658E+04  0.25500000920E-02 0. -1.
       -2    1    3    3    0  502  0.18253988562E+03 -0.35435752834E+03 -0.23969900006E+04  0.24299076383E+04  0.25500000920E-02 0.  1.
</event>
<event>
 5   0  0.1556396E-06  0.3197280E+04  0.7818609E-02  0.8189536E-01
        2   -1    0    0  501    0  0.00000000000E+00  0.00000000000E+00  0.21010078536E+04  0.21010078536E+04  0.25500000920E-02 0.  1.
       -2   -1    0    0    0  501  0.00000000000E+00  0.00000000000E+00 -0.12163925843E+04  0.12163925843E+04  0.25500000920E-02 0. -1.
    10030    2    1    2    0    0  0.00000000000E+00  0.00000000000E+00  0.88461526937E+03  0.33174004379E+04  0.31972803272E+04 0.  0.
        3    1    3    3  502    0 -0.33125270934E+03  0.21122114053E+03  0.20501411712E+04  0.20874437860E+04  0.10100000352E+00 0.  1.
       -3    1    3    3    0  502  0.33125270934E+03 -0.21122114053E+03 -0.11655259018E+04  0.12299566519E+04  0.10100000352E+00 0. -1.
</event>
<event>
 5   0  0.1493485E-06  0.3198039E+04  0.7818609E-02  0.8189335E-01
        2   -1    0    0  501    0  0.00000000000E+00  0.00000000000E+00  0.17699106560E+04  0.17699106560E+04  0.25500000920E-02 0. -1.
       -2   -1    0    0    0  501  0.00000000000E+00  0.00000000000E+00 -0.14446286600E+04  0.14446286600E+04  0.25500000920E-02 0.  1.
    10030    2    1    2    0    0  0.00000000000E+00  0.00000000000E+00  0.32528199597E+03  0.32145393160E+04  0.31980391863E+04 0.  0.
        2    1    3    3  502    0  0.93832673761E+01  0.15679670196E+04  0.47771486047E+03  0.16391522529E+04  0.25500000920E-02 0.  1.
       -2    1    3    3    0  502 -0.93832673761E+01 -0.15679670196E+04 -0.15243286451E+03  0.15753870631E+04  0.25500000920E-02 0. -1.
</event>
<event>
 5   0  0.1556396E-06  0.3285993E+04  0.7818609E-02  0.8166469E-01
       -2   -1    0    0    0  501  0.00000000000E+00  0.00000000000E+00  0.12333647455E+04  0.12333647455E+04  0.25500000920E-02 0.  1.
        2   -1    0    0  501    0  0.00000000000E+00  0.00000000000E+00 -0.21886774577E+04  0.21886774577E+04  0.25500000920E-02 0. -1.
    10030    2    1    2    0    0  0.00000000000E+00  0.00000000000E+00 -0.95531271221E+03  0.34220422032E+04  0.32859930710E+04 0.  0.
        3    1    3    3  502    0  0.69599116094E+03 -0.56001687520E+03 -0.19136654057E+04  0.21119038548E+04  0.10100000352E+00 0. -1.
       -3    1    3    3    0  502 -0.69599116094E+03  0.56001687520E+03  0.95835269353E+03  0.13101383484E+04  0.10100000352E+00 0.  1.
</event>
<event>
 5   0  0.5317728E-07  0.3187533E+04  0.7818609E-02  0.8192117E-01
       -1   -1    0    0    0  501  0.00000000000E+00  0.00000000000E+00  0.91570096313E+03  0.91570096314E+03  0.50400001928E-02 0. -1.
        1   -1    0    0  501    0  0.00000000000E+00  0.00000000000E+00 -0.27739315683E+04  0.27739315683E+04  0.50400001928E-02 0.  1.
    10030    2    1    2    0    0  0.00000000000E+00  0.00000000000E+00 -0.18582306051E+04  0.36896325314E+04  0.31875330955E+04 0.  0.
        2    1    3    3  502    0  0.67200760966E+03  0.11659230694E+04  0.59274392715E+02  0.13470279451E+04  0.25500000920E-02 0.  1.
       -2    1    3    3    0  502 -0.67200760966E+03 -0.11659230694E+04 -0.19175049979E+04  0.23426045863E+04  0.25500000920E-02 0. -1.
</event>
<event>
 5   0  0.1493485E-06  0.3201803E+04  0.7818609E-02  0.8188341E-01
       -2   -1    0    0    0  501  0.00000000000E+00  0.00000000000E+00  0.11812073129E+04  0.11812073129E+04  0.25500000920E-02 0. -1.
        2   -1    0    0  501    0  0.00000000000E+00  0.00000000000E+00 -0.21697164361E+04  0.21697164361E+04  0.25500000920E-02 0.  1.
    10030    2    1    2    0    0  0.00000000000E+00  0.00000000000E+00 -0.98850912319E+03  0.33509237490E+04  0.32018025681E+04 0.  0.
        2    1    3    3  502    0  0.12845594280E+04  0.51458053891E+03 -0.13367297508E+04  0.19239886907E+04  0.25500000920E-02 0.  1.
       -2    1    3    3    0  502 -0.12845594280E+04 -0.51458053891E+03  0.34822062759E+03  0.14269350583E+04  0.25500000920E-02 0. -1.
</event>
<event>
 5   0  0.5233813E-07  0.3180550E+04  0.7818609E-02  0.8193973E-01
       -1   -1    0    0    0  501  0.00000000000E+00  0.00000000000E+00  0.90524508123E+03  0.90524508125E+03  0.50400001928E-02 0. -1.
        1   -1    0    0  501    0  0.00000000000E+00  0.00000000000E+00 -0.27936910545E+04  0.27936910545E+04  0.50400001928E-02 0.  1.
    10030    2    1    2    0    0  0.00000000000E+00  0.00000000000E+00 -0.18884459732E+04  0.36989361357E+04  0.31805503207E+04 0.  0.
        4    1    3    3  502    0  0.56335847848E+03  0.11482505444E+04 -0.20433042543E+04  0.24105903793E+04  0.12699999809E+01 0.  1.
       -4    1    3    3    0  502 -0.56335847848E+03 -0.11482505444E+04  0.15485828106E+03  0.12883457565E+04  0.12699999809E+01 0. -1.
</event>
<event>
 5   0  0.5233813E-07  0.3163586E+04  0.7818609E-02  0.8198501E-01
        1   -1    0    0  501    0  0.00000000000E+00  0.00000000000E+00  0.18037004379E+04  0.18037004379E+04  0.50400001928E-02 0. -1.
       -1   -1    0    0    0  501  0.00000000000E+00  0.00000000000E+00 -0.13871868340E+04  0.13871868340E+04  0.50400001928E-02 0.  1.
    10030    2    1    2    0    0  0.00000000000E+00  0.00000000000E+00  0.41651360390E+03  0.31908872719E+04  0.31635862561E+04 0.  0.
        4    1    3    3  502    0 -0.66026969913E+03  0.61374787644E+03  0.15192525571E+04  0.17665708241E+04  0.12699999809E+01 0. -1.
       -4    1    3    3    0  502  0.66026969913E+03 -0.61374787644E+03 -0.11027389532E+04  0.14243164477E+04  0.12699999809E+01 0.  1.
</event>
<event>
 5   0  0.1508771E-06  0.3153242E+04  0.7818609E-02  0.8201276E-01
        2   -1    0    0  501    0  0.00000000000E+00  0.00000000000E+00  0.10139126925E+04  0.10139126925E+04  0.25500000920E-02 0. -1.
       -2   -1    0    0    0  501  0.00000000000E+00  0.00000000000E+00 -0.24516245939E+04  0.24516245939E+04  0.25500000920E-02 0.  1.
    10030    2    1    2    0    0  0.00000000000E+00  0.00000000000E+00 -0.14377119015E+04  0.34655372864E+04  0.31532416926E+04 0.  0.
        4    1    3    3  502    0 -0.10660855865E+04 -0.10312603319E+04 -0.13062978056E+04  0.19764746191E+04  0.12699999809E+01 0.  1.
       -4    1    3    3    0  502  0.10660855865E+04  0.10312603319E+04 -0.13141409584E+03  0.14890626674E+04  0.12699999809E+01 0. -1.
</event>
<event>
 5   0  0.5177039E-07  0.3223135E+04  0.7818609E-02  0.8182734E-01
        1   -1    0    0  501    0  0.00000000000E+00  0.00000000000E+00  0.18948898766E+04  0.18948898766E+04  0.50400001928E-02 0. -1.
       -1   -1    0    0    0  501  0.00000000000E+00  0.00000000000E+00 -0.13706071105E+04  0.13706071105E+04  0.50400001928E-02 0.  1.
    10030    2    1    2    0    0  0.00000000000E+00  0.00000000000E+00  0.52428276607E+03  0.32654969871E+04  0.32231348334E+04 0.  0.
        3    1    3    3  502    0  0.12936153394E+04 -0.84156201886E+03 -0.20816033458E+03  0.15572405123E+04  0.10100000352E+00 0.  1.
       -3    1    3    3    0  502 -0.12936153394E+04  0.84156201886E+03  0.73244310065E+03  0.17082564748E+04  0.10100000352E+00 0. -1.
</event>
<event>
 5   0  0.5317728E-07  0.3189884E+04  0.7818609E-02  0.8191494E-01
        1   -1    0    0  501    0  0.00000000000E+00  0.00000000000E+00  0.19167134756E+04  0.19167134756E+04  0.50400001928E-02 0.  1.
       -1   -1    0    0    0  501  0.00000000000E+00  0.00000000000E+00 -0.13271881787E+04  0.13271881787E+04  0.50400001928E-02 0. -1.
    10030    2    1    2    0    0  0.00000000000E+00  0.00000000000E+00  0.58952529691E+03  0.32439016543E+04  0.31898836761E+04 0.  0.
        2    1    3    3  502    0 -0.12304430182E+04 -0.79541850797E+03  0.93564004039E+03  0.17384196585E+04  0.25500000920E-02 0.  1.
       -2    1    3    3    0  502  0.12304430182E+04  0.79541850797E+03 -0.34611474347E+03  0.15054819958E+04  0.25500000920E-02 0. -1.
</event>
<event>
 5   0  0.1538349E-06  0.3220144E+04  0.7818609E-02  0.8183517E-01
       -2   -1    0    0    0  501  0.00000000000E+00  0.00000000000E+00  0.12008133849E+04  0.12008133849E+04  0.25500000920E-02 0. -1.
        2   -1    0    0  501    0  0.00000000000E+00  0.00000000000E+00 -0.21588135493E+04  0.21588135493E+04  0.25500000920E-02 0.  1.
    10030    2    1    2    0    0  0.00000000000E+00  0.00000000000E+00 -0.95800016447E+03  0.33596269342E+04  0.32201442238E+04 0.  0.
        1    1    3    3  502    0 -0.28783835482E+03  0.67530870750E+03  0.10160532327E+04  0.12534978822E+04  0.50400001928E-02 0. -1.
       -1    1    3    3    0  502  0.28783835482E+03 -0.67530870750E+03 -0.19740533972E+04  0.21061290520E+04  0.50400001928E-02 0.  1.
</event>
<event>
 5   0  0.1556396E-06  0.3215828E+04  0.7818609E-02  0.8184649E-01
       -2   -1    0    0    0  501  0.00000000000E+00  0.00000000000E+00  0.18446117482E+04  0.18446117482E+04  0.25500000920E-02 0. -1.
        2   -1    0    0  501    0  0.00000000000E+00  0.00000000000E+00 -0.14015891282E+04  0.14015891282E+04  0.25500000920E-02 0.  1.
    10030    2    1    2    0    0  0.00000000000E+00  0.00000000000E+00  0.44302261997E+03  0.32462008764E+04  0.32158282118E+04 0.  0.
        3    1    3    3  502    0  0.46055125388E+03 -0.14428067629E+04  0.76660114126E+03  0.16974911288E+04  0.10100000352E+00 0. -1.
       -3    1    3    3    0  502 -0.46055125388E+03  0.14428067629E+04 -0.32357852130E+03  0.15487097475E+04  0.10100000352E+00 0.  1.
</event>
<event>
 5   0  0.1493485E-06  0.3200261E+04  0.7818609E-02  0.8188748E-01
       -2   -1    0    0    0  501  0.00000000000E+00  0.00000000000E+00  0.13808849498E+04  0.13808849498E+04  0.25500000920E-02 0. -1.
        2   -1    0    0  501    0  0.00000000000E+00  0.00000000000E+00 -0.18541855928E+04  0.18541855928E+04  0.25500000920E-02 0.  1.
    10030    2    1    2    0    0  0.00000000000E+00  0.00000000000E+00 -0.47330064295E+03  0.32350705426E+04  0.32002606014E+04 0.  0.
        2    1    3    3  502    0  0.90894588897E+03 -0.56943210845E+03  0.96369196431E+03  0.14419215503E+04  0.25500000920E-02 0. -1.
       -2    1    3    3    0  502 -0.90894588897E+03  0.56943210845E+03 -0.14369926073E+04  0.17931489923E+04  0.25500000920E-02 0.  1.
</event>
<event>
 5   0  0.5370912E-07  0.3180662E+04  0.7818609E-02  0.8193943E-01
       -1   -1    0    0    0  501  0.00000000000E+00  0.00000000000E+00  0.10650462106E+04  0.10650462106E+04  0.50400001928E-02 0.  1.
        1   -1    0    0  501    0  0.00000000000E+00  0.00000000000E+00 -0.23746883154E+04  0.23746883154E+04  0.50400001928E-02 0. -1.
    10030    2    1    2    0    0  0.00000000000E+00  0.00000000000E+00 -0.13096421048E+04  0.34397345260E+04  0.31806620642E+04 0.  0.
        1    1    3    3  502    0  0.58142981095E+03 -0.51175389470E+03 -0.21569113345E+04  0.22917720608E+04  0.50400001928E-02 0. -1.
       -1    1    3    3    0  502 -0.58142981095E+03  0.51175389470E+03  0.84726922971E+03  0.11479624652E+04  0.50400001928E-02 0.  1.
</event>
<event>
 5   0  0.1508771E-06  0.3201018E+04  0.7818609E-02  0.8188548E-01
        2   -1    0    0  501    0  0.00000000000E+00  0.00000000000E+00  0.15125545883E+04  0.15125545883E+04  0.25500000920E-02 0.  1.
       -2   -1    0    0    0  501  0.00000000000E+00  0.00000000000E+00 -0.16935778646E+04  0.16935778647E+04  0.25500000920E-02 0. -1.
    10030    2    1    2    0    0  0.00000000000E+00  0.00000000000E+00 -0.18102327630E+03  0.32061324530E+04  0.32010179443E+04 0.  0.
        4    1    3    3  502    0 -0.12587314075E+04 -0.97492517478E+03 -0.25430734277E+03  0.16123143894E+04  0.12699999809E+01 0. -1.
       -4    1    3    3    0  502  0.12587314075E+04  0.97492517478E+03  0.73284066463E+02  0.15938180636E+04  0.12699999809E+01 0.  1.
</event>
<event>
 5   0  0.5177039E-07  0.3190002E+04  0.7818609E-02  0.8191463E-01
       -1   -1    0    0    0  501  0.00000000000E+00  0.00000000000E+00  0.15396372214E+04  0.15396372214E+04  0.50400001928E-02 0.  1.
        1   -1    0    0  501    0  0.00000000000E+00  0.00000000000E+00 -0.16523551450E+04  0.16523551450E+04  0.50400001928E-02 0. -1.
    10030    2    1    2    0    0  0.00000000000E+00  0.00000000000E+00 -0.11271792357E+03  0.31919923665E+04  0.31900015576E+04 0.  0.
        3    1    3    3  502    0  0.20660227993E+03  0.10347307112E+04 -0.12532138359E+04  0.16382603809E+04  0.10100000352E+00 0. -1.
       -3    1    3    3    0  502 -0.20660227993E+03 -0.10347307112E+04  0.11404959123E+04  0.15537319856E+04  0.10100000352E+00 0.  1.
</event>
<event>
 5   0  0.1556396E-06  0.2910217E+04  0.7818609E-02  0.8269844E-01
        2   -1    0    0  501    0  0.00000000000E+00  0.00000000000E+00  0.29127045780E+04  0.29127045780E+04  0.25500000920E-02 0.  1.
       -2   -1    0    0    0  501  0.00000000000E+00  0.00000000000E+00 -0.72693269569E+03  0.72693269569E+03  0.25500000920E-02 0. -1.
    10030    2    1    2    0    0  0.00000000000E+00  0.00000000000E+00  0.21857718823E+04  0.36396372737E+04  0.29102166178E+04 0.  0.
        3    1    3    3  502    0  0.10349476880E+03 -0.20583278559E+03  0.28897498423E+04  0.28989191889E+04  0.10100000352E+00 0.  1.
       -3    1    3    3    0  502 -0.10349476880E+03  0.20583278559E+03 -0.70397795996E+03  0.74071808477E+03  0.10100000352E+00 0. -1.
</event>
<event>
 5   0  0.1556396E-06  0.3206784E+04  0.7818609E-02  0.8187028E-01
       -2   -1    0    0    0  501  0.00000000000E+00  0.00000000000E+00  0.15023539362E+04  0.15023539362E+04  0.25500000920E-02 0. -1.
        2   -1    0    0  501    0  0.00000000000E+00  0.00000000000E+00 -0.17112251032E+04  0.17112251032E+04  0.25500000920E-02 0.  1.
    10030    2    1    2    0    0  0.00000000000E+00  0.00000000000E+00 -0.20887116704E+03  0.32135790394E+04  0.32067839151E+04 0.  0.
        3    1    3    3  502    0  0.10543487924E+04  0.11736195129E+04  0.18223284795E+03  0.15881570949E+04  0.10100000352E+00 0.  1.
       -3    1    3    3    0  502 -0.10543487924E+04 -0.11736195129E+04 -0.39110401499E+03  0.16254219445E+04  0.10100000352E+00 0. -1.
</event>
<event>
 5   0  0.5370912E-07  0.3205226E+04  0.7818609E-02  0.8187438E-01
        1   -1    0    0  501    0  0.00000000000E+00  0.00000000000E+00  0.24029271526E+04  0.24029271526E+04  0.50400001928E-02 0.  1.
       -1   -1    0    0    0  501  0.00000000000E+00  0.00000000000E+00 -0.10688498602E+04  0.10688498602E+04  0.50400001928E-02 0. -1.
    10030    2    1    2    0    0  0.00000000000E+00  0.00000000000E+00  0.13340772924E+04  0.34717770129E+04  0.32052259522E+04 0.  0.
        1    1    3    3  502    0  0.59735267674E+03  0.11017196236E+04 -0.41490459116E+03  0.13201371781E+04  0.50400001928E-02 0. -1.
       -1    1    3    3    0  502 -0.59735267674E+03 -0.11017196236E+04  0.17489818836E+04  0.21516398347E+04  0.50400001928E-02 0.  1.
</event>
<event>
 5   0  0.5370912E-07  0.3183276E+04  0.7818609E-02  0.8193248E-01
       -1   -1    0    0    0  501  0.00000000000E+00  0.00000000000E+00  0.11703000307E+04  0.11703000307E+04  0.50400001928E-02 0.  1.
        1   -1    0    0  501    0  0.00000000000E+00  0.00000000000E+00 -0.21646684393E+04  0.21646684393E+04  0.50400001928E-02 0. -1.
    10030    2    1    2    0    0  0.00000000000E+00  0.00000000000E+00 -0.99436840854E+03  0.33349684700E+04  0.31832760113E+04 0.  0.
        1    1    3    3  502    0 -0.14438391252E+04  0.40427125856E+03  0.62310403312E+02  0.15006629389E+04  0.50400001928E-02 0. -1.
       -1    1    3    3    0  502  0.14438391252E+04 -0.40427125856E+03 -0.10566788119E+04  0.18343055311E+04  0.50400001928E-02 0.  1.
</event>
<event>
 5   0  0.1538349E-06  0.3201042E+04  0.7818609E-02  0.8188542E-01
        2   -1    0    0  501    0  0.00000000000E+00  0.00000000000E+00  0.16552294864E+04  0.16552294864E+04  0.25500000920E-02 0. -1.
       -2   -1    0    0    0  501  0.00000000000E+00  0.00000000000E+00 -0.15476206890E+04  0.15476206890E+04  0.25500000920E-02 0.  1.
    10030    2    1    2    0    0  0.00000000000E+00  0.00000000000E+00  0.10760879737E+03  0.32028501753E+04  0.32010419542E+04 0.  0.
        1    1    3    3  502    0  0.12917162666E+04  0.37872890835E+03 -0.81253740907E+03  0.15723178879E+04  0.50400001928E-02 0.  1.
       -1    1    3    3    0  502 -0.12917162666E+04 -0.37872890835E+03  0.92014620645E+03  0.16305322875E+04  0.50400001928E-02 0. -1.
</event>
<event>
 5   0  0.5233813E-07  0.3183798E+04  0.7818609E-02  0.8193109E-01
        1   -1    0    0  501    0  0.00000000000E+00  0.00000000000E+00  0.22566013252E+04  0.22566013252E+04  0.50400001928E-02 0. -1.
       -1   -1    0    0    0  501  0.00000000000E+00  0.00000000000E+00 -0.11229908878E+04  0.11229908878E+04  0.50400001928E-02 0.  1.
    10030    2    1    2    0    0  0.00000000000E+00  0.00000000000E+00  0.11336104374E+04  0.33795922130E+04  0.31837981881E+04 0.  0.
        4    1    3    3  502    0  0.10556954864E+04 -0.58056743338E+03  0.16712670110E+04  0.20602637063E+04  0.12699999809E+01 0. -1.
       -4    1    3    3    0  502 -0.10556954864E+04  0.58056743338E+03 -0.53765657357E+03  0.13193285067E+04  0.12699999809E+01 0.  1.
</event>
<event>
 5   0  0.1572769E-06  0.3205125E+04  0.7818609E-02  0.8187465E-01
       -2   -1    0    0    0  501  0.00000000000E+00  0.00000000000E+00  0.16635344422E+04  0.16635344422E+04  0.25500000920E-02 0. -1.
        2   -1    0    0  501    0  0.00000000000E+00  0.00000000000E+00 -0.15438252541E+04  0.15438252541E+04  0.25500000920E-02 0.  1.
    10030    2    1    2    0    0  0.00000000000E+00  0.00000000000E+00  0.11970918811E+03  0.32073596963E+04  0.32051249479E+04 0.  0.
        5    1    3    3  502    0 -0.94644998715E+03  0.31053688962E+03 -0.11964025873E+04  0.15567922080E+04  0.46999998093E+01 0.  1.
       -5    1    3    3    0  502  0.94644998715E+03 -0.31053688962E+03  0.13161117754E+04  0.16505674883E+04  0.46999998093E+01 0. -1.
</event>
<event>
 5   0  0.5317728E-07  0.3189789E+04  0.7818609E-02  0.8191519E-01
        1   -1    0    0  501    0  0.00000000000E+00  0.00000000000E+00  0.13668841576E+04  0.13668841577E+04  0.50400001928E-02 0.  1.
       -1   -1    0    0    0  501  0.00000000000E+00  0.00000000000E+00 -0.18609395842E+04  0.18609395842E+04  0.50400001928E-02 0. -1.
    10030    2    1    2    0    0  0.00000000000E+00  0.00000000000E+00 -0.49405542658E+03  0.32278237419E+04  0.31897892319E+04 0.  0.
        2    1    3    3  502    0 -0.25891836640E+03 -0.15734686470E+04 -0.21758555774E+03  0.16094054115E+04  0.25500000920E-02 0.  1.
       -2    1    3    3    0  502  0.25891836640E+03  0.15734686470E+04 -0.27646986884E+03  0.16184183304E+04  0.25500000920E-02 0. -1.
</event>
<event>
 5   0  0.5281187E-07  0.3198555E+04  0.7818609E-02  0.8189199E-01
       -1   -1    0    0    0  501  0.00000000000E+00  0.00000000000E+00  0.12763856816E+04  0.12763856817E+04  0.50400001928E-02 0. -1.
        1   -1    0    0  501    0  0.00000000000E+00  0.00000000000E+00 -0.20038528250E+04  0.20038528250E+04  0.50400001928E-02 0.  1.
    10030    2    1    2    0    0  0.00000000000E+00  0.00000000000E+00 -0.72746714337E+03  0.32802385067E+04  0.31985553326E+04 0.  0.
        5    1    3    3  502    0 -0.83198408372E+03 -0.69320864724E+03  0.84315078223E+03  0.13724653277E+04  0.46999998093E+01 0. -1.
       -5    1    3    3    0  502  0.83198408372E+03  0.69320864724E+03 -0.15706179256E+04  0.19077731790E+04  0.46999998093E+01 0.  1.
</event>
<event>
 5   0  0.5370912E-07  0.3208343E+04  0.7818609E-02  0.8186617E-01
        1   -1    0    0  501    0  0.00000000000E+00  0.00000000000E+00  0.13992299213E+04  0.13992299213E+04  0.50400001928E-02 0.  1.
       -1   -1    0    0    0  501  0.00000000000E+00  0.00000000000E+00 -0.18391305428E+04  0.18391305428E+04  0.50400001928E-02 0. -1.
    10030    2    1    2    0    0  0.00000000000E+00  0.00000000000E+00 -0.43990062151E+03  0.32383604641E+04  0.32083431766E+04 0.  0.
        1    1    3    3  502    0  0.87394193637E+03  0.10059939085E+03  0.11340441512E+04  0.14352528985E+04  0.50400001928E-02 0.  1.
       -1    1    3    3    0  502 -0.87394193637E+03 -0.10059939085E+03 -0.15739447728E+04  0.18031075656E+04  0.50400001928E-02 0. -1.
</event>
<event>
 5   0  0.1572769E-06  0.2827759E+04  0.7818609E-02  0.8294702E-01
       -2   -1    0    0    0  501  0.00000000000E+00  0.00000000000E+00  0.10697477118E+04  0.10697477118E+04  0.25500000920E-02 0. -1.
        2   -1    0    0  501    0  0.00000000000E+00  0.00000000000E+00 -0.18687167016E+04  0.18687167016E+04  0.25500000920E-02 0.  1.
    10030    2    1    2    0    0  0.00000000000E+00  0.00000000000E+00 -0.79896898976E+03  0.29384644134E+04  0.28277591238E+04 0.  0.
        5    1    3    3  502    0 -0.51870174388E+03  0.16438744671E+03  0.95657913273E+03  0.11005182683E+04  0.46999998093E+01 0. -1.
       -5    1    3    3    0  502  0.51870174388E+03 -0.16438744671E+03 -0.17555481225E+04  0.18379461451E+04  0.46999998093E+01 0.  1.
</event>
<event>
 5   0  0.5317728E-07  0.3198676E+04  0.7818609E-02  0.8189167E-01
       -1   -1    0    0    0  501  0.00000000000E+00  0.00000000000E+00  0.13321411047E+04  0.13321411047E+04  0.50400001928E-02 0. -1.
        1   -1    0    0  501    0  0.00000000000E+00  0.00000000000E+00 -0.19201286421E+04  0.19201286422E+04  0.50400001928E-02 0.  1.
    10030    2    1    2    0    0  0.00000000000E+00  0.00000000000E+00 -0.58798753747E+03  0.32522697468E+04  0.31986761577E+04 0.  0.
        2    1    3    3  502    0 -0.11107764563E+04  0.67000591539E+03  0.65717491150E+03  0.14541702538E+04  0.25500000920E-02 0. -1.
       -2    1    3    3    0  502  0.11107764563E+04 -0.67000591539E+03 -0.12451624490E+04  0.17980994931E+04  0.25500000920E-02 0.  1.
</event>
<event>
 5   0  0.5177039E-07  0.3193719E+04  0.7818609E-02  0.8190478E-01
       -1   -1    0    0    0  501  0.00000000000E+00  0.00000000000E+00  0.24582098473E+04  0.24582098473E+04  0.50400001928E-02 0. -1.
        1   -1    0    0  501    0  0.00000000000E+00  0.00000000000E+00 -0.10373241086E+04  0.10373241086E+04  0.50400001928E-02 0.  1.
    10030    2    1    2    0    0  0.00000000000E+00  0.00000000000E+00  0.14208857387E+04  0.34955339559E+04  0.31937190475E+04 0.  0.
        3    1    3    3  502    0  0.13311019749E+04 -0.68286000555E+03  0.99253466629E+02  0.14993270209E+04  0.10100000352E+00 0.  1.
       -3    1    3    3    0  502 -0.13311019749E+04  0.68286000555E+03  0.13216322721E+04  0.19962069350E+04  0.10100000352E+00 0. -1.
</event>
<event>
 5   0  0.1556396E-06  0.3195402E+04  0.7818609E-02  0.8190033E-01
       -2   -1    0    0    0  501  0.00000000000E+00  0.00000000000E+00  0.22757119267E+04  0.22757119267E+04  0.25500000920E-02 0. -1.
        2   -1    0    0  501    0  0.00000000000E+00  0.00000000000E+00 -0.11216921712E+04  0.11216921712E+04  0.25500000920E-02 0.  1.
    10030    2    1    2    0    0  0.00000000000E+00  0.00000000000E+00  0.11540197554E+04  0.33974040979E+04  0.31954018540E+04 0.  0.
        3    1    3    3  502    0 -0.10344977465E+04 -0.31225193630E+03  0.18282496930E+04  0.21237193339E+04  0.10100000352E+00 0. -1.
       -3    1    3    3    0  502  0.10344977465E+04  0.31225193630E+03 -0.67422993753E+03  0.12736847640E+04  0.10100000352E+00 0.  1.
</event>
<event>
 5   0  0.1572769E-06  0.3112752E+04  0.7818609E-02  0.8212247E-01
        2   -1    0    0  501    0  0.00000000000E+00  0.00000000000E+00  0.20950198063E+04  0.20950198063E+04  0.25500000920E-02 0. -1.
       -2   -1    0    0    0  501  0.00000000000E+00  0.00000000000E+00 -0.11562213031E+04  0.11562213031E+04  0.25500000920E-02 0.  1.
    10030    2    1    2    0    0  0.00000000000E+00  0.00000000000E+00  0.93879850319E+03  0.32512411094E+04  0.31127521780E+04 0.  0.
        5    1    3    3  502    0 -0.54336351406E+03 -0.11993825679E+04 -0.39729025605E+03  0.13753632575E+04  0.46999998093E+01 0.  1.
       -5    1    3    3    0  502  0.54336351406E+03  0.11993825679E+04  0.13360887592E+04  0.18758778519E+04  0.46999998093E+01 0. -1.
</event>
<event>
 5   0  0.1538349E-06  0.3133744E+04  0.7818609E-02  0.8206538E-01
       -2   -1    0    0    0  501  0.00000000000E+00  0.00000000000E+00  0.15353109233E+04  0.15353109233E+04  0.25500000920E-02 0.  1.
        2   -1    0    0  501    0  0.00000000000E+00  0.00000000000E+00 -0.15990823000E+04  0.15990823000E+04  0.25500000920E-02 0. -1.
    10030    2    1    2    0    0  0.00000000000E+00  0.00000000000E+00 -0.63771376619E+02  0.31343932233E+04  0.31337444200E+04 0.  0.
        1    1    3    3  502    0  0.12492817887E+04  0.27083793458E+03  0.87440915977E+03  0.15487574223E+04  0.50400001928E-02 0.  1.
       -1    1    3    3    0  502 -0.12492817887E+04 -0.27083793458E+03 -0.93818053638E+03  0.15856358010E+04  0.50400001928E-02 0. -1.
</event>
<event>
 5   0  0.5233813E-07  0.3194325E+04  0.7818609E-02  0.8190317E-01
       -1   -1    0    0    0  501  0.00000000000E+00  0.00000000000E+00  0.11975997550E+04  0.11975997550E+04  0.50400001928E-02 0. -1.
        1   -1    0    0  501    0  0.00000000000E+00  0.00000000000E+00 -0.21300345221E+04  0.21300345221E+04  0.50400001928E-02 0.  1.
    10030    2    1    2    0    0  0.00000000000E+00  0.00000000000E+00 -0.93243476714E+03  0.33276342771E+04  0.31943254824E+04 0.  0.
        4    1    3    3  502    0  0.26798125988E+03 -0.67211197175E+03 -0.19494998680E+04  0.20794469953E+04  0.12699999809E+01 0.  1.
       -4    1    3    3    0  502 -0.26798125988E+03  0.67211197175E+03  0.10170651008E+04  0.12481872818E+04  0.12699999809E+01 0. -1.
</event>
<event>
 5   0  0.5177039E-07  0.3186083E+04  0.7818609E-02  0.8192502E-01
       -1   -1    0    0    0  501  0.00000000000E+00  0.00000000000E+00  0.82855603246E+03  0.82855603248E+03  0.50400001928E-02 0.  1.
        1   -1    0    0  501    0  0.00000000000E+00  0.00000000000E+00 -0.30628955817E+04  0.30628955817E+04  0.50400001928E-02 0. -1.
    10030    2    1    2    0    0  0.00000000000E+00  0.00000000000E+00 -0.22343395493E+04  0.38914516142E+04  0.31860826173E+04 0.  0.
        3    1    3    3  502    0  0.39326538641E+03 -0.63126096458E+02  0.76675874858E+03  0.86403793721E+03  0.10100000352E+00 0.  1.
       -3    1    3    3    0  502 -0.39326538641E+03  0.63126096458E+02 -0.30010982979E+04  0.30274136770E+04  0.10100000352E+00 0. -1.
</event>
<event>
 5   0  0.5370912E-07  0.3202523E+04  0.7818609E-02  0.8188151E-01
        1   -1    0    0  501    0  0.00000000000E+00  0.00000000000E+00  0.10487482098E+04  0.10487482098E+04  0.50400001928E-02 0.  1.
       -1   -1    0    0    0  501  0.00000000000E+00  0.00000000000E+00 -0.24448560230E+04  0.24448560230E+04  0.50400001928E-02 0. -1.
    10030    2    1    2    0    0  0.00000000000E+00  0.00000000000E+00 -0.13961078131E+04  0.34936042328E+04  0.32025229913E+04 0.  0.
        1    1    3    3  502    0 -0.11468403187E+04 -0.12556488449E+03 -0.19093996444E+04  0.22308779121E+04  0.50400001928E-02 0. -1.
       -1    1    3    3    0  502  0.11468403187E+04  0.12556488449E+03  0.51329183126E+03  0.12627263207E+04  0.50400001928E-02 0.  1.
</event>
<event>
 5   0  0.1493485E-06  0.3204575E+04  0.7818609E-02  0.8187610E-01
       -2   -1    0    0    0  501  0.00000000000E+00  0.00000000000E+00  0.11758347547E+04  0.11758347547E+04  0.25500000920E-02 0.  1.
        2   -1    0    0  501    0  0.00000000000E+00  0.00000000000E+00 -0.21834061375E+04  0.21834061375E+04  0.25500000920E-02 0. -1.
    10030    2    1    2    0    0  0.00000000000E+00  0.00000000000E+00 -0.10075713827E+04  0.33592408922E+04  0.32045747426E+04 0.  0.
        2    1    3    3  502    0  0.15938927072E+04 -0.72132265387E+02 -0.65794752206E+03  0.17258597763E+04  0.25500000920E-02 0.  1.
       -2    1    3    3    0  502 -0.15938927072E+04  0.72132265387E+02 -0.34962386066E+03  0.16333811159E+04  0.25500000920E-02 0. -1.
</event>
<event>
 5   0  0.5177039E-07  0.3163172E+04  0.7818609E-02  0.8198611E-01
        1   -1    0    0  501    0  0.00000000000E+00  0.00000000000E+00  0.15120892276E+04  0.15120892276E+04  0.50400001928E-02 0.  1.
       -1   -1    0    0    0  501  0.00000000000E+00  0.00000000000E+00 -0.16542773906E+04  0.16542773906E+04  0.50400001928E-02 0. -1.
    10030    2    1    2    0    0  0.00000000000E+00  0.00000000000E+00 -0.14218816303E+03  0.31663666182E+04  0.31631724719E+04 0.  0.
        3    1    3    3  502    0  0.11497648177E+04 -0.93824475225E+03  0.47640672155E+03  0.15585973584E+04  0.10100000352E+00 0.  1.
       -3    1    3    3    0  502 -0.11497648177E+04  0.93824475225E+03 -0.61859488458E+03  0.16077692598E+04  0.10100000352E+00 0. -1.
</event>
<event>
 5   0  0.5317728E-07  0.3193824E+04  0.7818609E-02  0.8190450E-01
       -1   -1    0    0    0  501  0.00000000000E+00  0.00000000000E+00  0.15375537417E+04  0.15375537417E+04  0.50400001928E-02 0.  1.
        1   -1    0    0  501    0  0.00000000000E+00  0.00000000000E+00 -0.16585615649E+04  0.16585615650E+04  0.50400001928E-02 0. -1.
    10030    2    1    2    0    0  0.00000000000E+00  0.00000000000E+00 -0.12100782321E+03  0.31961153067E+04  0.31938237522E+04 0.  0.
        2    1    3    3  502    0 -0.15877582063E+04 -0.10706782407E+03 -0.19359519781E+03  0.16030966101E+04  0.25500000920E-02 0.  1.
       -2    1    3    3    0  502  0.15877582063E+04  0.10706782407E+03  0.72587374603E+02  0.15930186966E+04  0.25500000920E-02 0. -1.
</event>
<event>
 5   0  0.5233813E-07  0.3180136E+04  0.7818609E-02  0.8194083E-01
        1   -1    0    0  501    0  0.00000000000E+00  0.00000000000E+00  0.10199560973E+04  0.10199560973E+04  0.50400001928E-02 0. -1.
       -1   -1    0    0    0  501  0.00000000000E+00  0.00000000000E+00 -0.24788487900E+04  0.24788487900E+04  0.50400001928E-02 0.  1.
    10030    2    1    2    0    0  0.00000000000E+00  0.00000000000E+00 -0.14588926927E+04  0.34988048873E+04  0.31801364358E+04 0.  0.
        4    1    3    3  502    0  0.11249130984E+02  0.77957289619E+03  0.79522425383E+03  0.11136622783E+04  0.12699999809E+01 0. -1.
       -4    1    3    3    0  502 -0.11249130984E+02 -0.77957289619E+03 -0.22541169466E+04  0.23851426090E+04  0.12699999809E+01 0.  1.
</event>
<event>
 5   0  0.1538349E-06  0.3189475E+04  0.7818609E-02  0.8191602E-01
       -2   -1    0    0    0  501  0.00000000000E+00  0.00000000000E+00  0.13017332352E+04  0.13017332352E+04  0.25500000920E-02 0.  1.
        2   -1    0    0  501    0  0.00000000000E+00  0.00000000000E+00 -0.19536930035E+04  0.19536930035E+04  0.25500000920E-02 0. -1.
    10030    2    1    2    0    0  0.00000000000E+00  0.00000000000E+00 -0.65195976822E+03  0.32554262387E+04  0.31894746364E+04 0.  0.
        1    1    3    3  502    0  0.15875520690E+04  0.67383685251E+02 -0.18781092885E+03  0.16000422113E+04  0.50400001928E-02 0.  1.
       -1    1    3    3    0  502 -0.15875520690E+04 -0.67383685251E+02 -0.46414883937E+03  0.16553840274E+04  0.50400001928E-02 0. -1.
</event>
<event>
 5   0  0.1556396E-06  0.3211141E+04  0.7818609E-02  0.8185881E-01
        2   -1    0    0  501    0  0.00000000000E+00  0.00000000000E+00  0.17881123780E+04  0.17881123780E+04  0.25500000920E-02 0. -1.
       -2   -1    0    0    0  501  0.00000000000E+00  0.00000000000E+00 -0.14416633398E+04  0.14416633398E+04  0.25500000920E-02 0.  1.
    10030    2    1    2    0    0  0.00000000000E+00  0.00000000000E+00  0.34644903817E+03  0.32297757179E+04  0.32111406465E+04 0.  0.
        3    1    3    3  502    0  0.68301426671E+03  0.12476271842E+04 -0.57592943562E+03  0.15345282025E+04  0.10100000352E+00 0.  1.
       -3    1    3    3    0  502 -0.68301426671E+03 -0.12476271842E+04  0.92237847379E+03  0.16952475154E+04  0.10100000352E+00 0. -1.
</event>
<event>
 5   0  0.5317728E-07  0.3146852E+04  0.7818609E-02  0.8202996E-01
       -1   -1    0    0    0  501  0.00000000000E+00  0.00000000000E+00  0.13842262390E+04  0.13842262390E+04  0.50400001928E-02 0. -1.
        1   -1    0    0  501    0  0.00000000000E+00  0.00000000000E+00 -0.17884856027E+04  0.17884856027E+04  0.50400001928E-02 0.  1.
    10030    2    1    2    0    0  0.00000000000E+00  0.00000000000E+00 -0.40425936372E+03  0.31727118418E+04  0.31468515691E+04 0.  0.
        2    1    3    3  502    0  0.23257436770E+03  0.15507916333E+04 -0.72139265407E+02  0.15697928526E+04  0.25500000920E-02 0. -1.
       -2    1    3    3    0  502 -0.23257436770E+03 -0.15507916333E+04 -0.33212009831E+03  0.16029189892E+04  0.25500000920E-02 0.  1.
</event>
<event>
 5   0  0.5281187E-07  0.3207073E+04  0.7818609E-02  0.8186952E-01
        1   -1    0    0  501    0  0.00000000000E+00  0.00000000000E+00  0.28403826352E+04  0.28403826352E+04  0.50400001928E-02 0. -1.
       -1   -1    0    0    0  501  0.00000000000E+00  0.00000000000E+00 -0.90527539671E+03  0.90527539673E+03  0.50400001928E-02 0.  1.
    10030    2    1    2    0    0  0.00000000000E+00  0.00000000000E+00  0.19351072385E+04  0.37456580320E+04  0.32070725074E+04 0.  0.
        5    1    3    3  502    0  0.46400373216E+03 -0.15514472696E+03 -0.81596546164E+03  0.95141530067E+03  0.46999998093E+01 0.  1.
       -5    1    3    3    0  502 -0.46400373216E+03  0.15514472696E+03  0.27510727002E+04  0.27942427313E+04  0.46999998093E+01 0. -1.
</event>
<event>
 5   0  0.1572769E-06  0.3241929E+04  0.7818609E-02  0.8177831E-01
       -2   -1    0    0    0  501  0.00000000000E+00  0.00000000000E+00  0.95054969998E+03  0.95054969999E+03  0.25500000920E-02 0.  1.
        2   -1    0    0  501    0  0.00000000000E+00  0.00000000000E+00 -0.27642173741E+04  0.27642173741E+04  0.25500000920E-02 0. -1.
    10030    2    1    2    0    0  0.00000000000E+00  0.00000000000E+00 -0.18136676741E+04  0.37147670741E+04  0.32419290527E+04 0.  0.
        5    1    3    3  502    0 -0.12286372330E+04  0.96854699980E+03 -0.42086451512E+03  0.16201178264E+04  0.46999998093E+01 0.  1.
       -5    1    3    3    0  502  0.12286372330E+04 -0.96854699980E+03 -0.13928031590E+04  0.20946492477E+04  0.46999998093E+01 0. -1.
</event>
<event>
 5   0  0.1538349E-06  0.3178961E+04  0.7818609E-02  0.8194396E-01
        2   -1    0    0  501    0  0.00000000000E+00  0.00000000000E+00  0.17341412843E+04  0.17341412843E+04  0.25500000920E-02 0. -1.
       -2   -1    0    0    0  501  0.00000000000E+00  0.00000000000E+00 -0.14568870343E+04  0.14568870343E+04  0.25500000920E-02 0.  1.
    10030    2    1    2    0    0  0.00000000000E+00  0.00000000000E+00  0.27725425000E+03  0.31910283186E+04  0.31789608068E+04 0.  0.
        1    1    3    3  502    0  0.36489020376E+03  0.61965437247E+03 -0.12842627420E+04  0.14718855909E+04  0.50400001928E-02 0.  1.
       -1    1    3    3    0  502 -0.36489020376E+03 -0.61965437247E+03  0.15615169920E+04  0.17191427277E+04  0.50400001928E-02 0. -1.
</event>
<event>
 5   0  0.5281187E-07  0.3187830E+04  0.7818609E-02  0.8192039E-01
       -1   -1    0    0    0  501  0.00000000000E+00  0.00000000000E+00  0.13573430756E+04  0.13573430756E+04  0.50400001928E-02 0. -1.
        1   -1    0    0  501    0  0.00000000000E+00  0.00000000000E+00 -0.18717192524E+04  0.18717192524E+04  0.50400001928E-02 0.  1.
    10030    2    1    2    0    0  0.00000000000E+00  0.00000000000E+00 -0.51437617679E+03  0.32290623280E+04  0.31878300875E+04 0.  0.
        5    1    3    3  502    0 -0.12722568574E+03 -0.39274662401E+03  0.13022395243E+04  0.13661208418E+04  0.46999998093E+01 0. -1.
       -5    1    3    3    0  502  0.12722568574E+03  0.39274662401E+03 -0.18166157011E+04  0.18629414862E+04  0.46999998093E+01 0.  1.
</event>
<event>
 5   0  0.5233813E-07  0.3233964E+04  0.7818609E-02  0.8179905E-01
       -1   -1    0    0    0  501  0.00000000000E+00  0.00000000000E+00  0.17379245892E+04  0.17379245892E+04  0.50400001928E-02 0. -1.
        1   -1    0    0  501    0  0.00000000000E+00  0.00000000000E+00 -0.15044554161E+04  0.15044554161E+04  0.50400001928E-02 0.  1.
    10030    2    1    2    0    0  0.00000000000E+00  0.00000000000E+00  0.23346917306E+03  0.32423800053E+04  0.32339635502E+04 0.  0.
        4    1    3    3  502    0 -0.12176722554E+04  0.83822352337E+03 -0.54016829812E+03  0.15738893861E+04  0.12699999809E+01 0.  1.
       -4    1    3    3    0  502  0.12176722554E+04 -0.83822352337E+03  0.77363747118E+03  0.16684906192E+04  0.12699999809E+01 0. -1.
</event>
<event>
 5   0  0.1508771E-06  0.3274460E+04  0.7818609E-02  0.8169425E-01
       -2   -1    0    0    0  501  0.00000000000E+00  0.00000000000E+00  0.13274370101E+04  0.13274370101E+04  0.25500000920E-02 0.  1.
        2   -1    0    0  501    0  0.00000000000E+00  0.00000000000E+00 -0.20193214102E+04  0.20193214102E+04  0.25500000920E-02 0. -1.
    10030    2    1    2    0    0  0.00000000000E+00  0.00000000000E+00 -0.69188440012E+03  0.33467584203E+04  0.32744599403E+04 0.  0.
        4    1    3    3  502    0  0.55619792274E+03 -0.45089672512E+03  0.11589310975E+04  0.13622726921E+04  0.12699999809E+01 0.  1.
       -4    1    3    3    0  502 -0.55619792274E+03  0.45089672512E+03 -0.18508154976E+04  0.19844857281E+04  0.12699999809E+01 0. -1.
</event>
<event>
 5   0  0.1538349E-06  0.3088966E+04  0.7818609E-02  0.8218773E-01
        2   -1    0    0  501    0  0.00000000000E+00  0.00000000000E+00  0.24687623536E+04  0.24687623536E+04  0.25500000920E-02 0.  1.
       -2   -1    0    0    0  501  0.00000000000E+00  0.00000000000E+00 -0.96624444719E+03  0.96624444719E+03  0.25500000920E-02 0. -1.
    10030    2    1    2    0    0  0.00000000000E+00  0.00000000000E+00  0.15025179064E+04  0.34350068008E+04  0.30889661155E+04 0.  0.
        1    1    3    3  502    0 -0.39439479064E+03 -0.41772983936E+03 -0.84300702561E+03  0.10201501433E+04  0.50400001928E-02 0. -1.
       -1    1    3    3    0  502  0.39439479064E+03  0.41772983936E+03  0.23455249320E+04  0.24148566575E+04  0.50400001928E-02 0.  1.
</event>
<event>
 5   0  0.1572769E-06  0.3192580E+04  0.7818609E-02  0.8190780E-01
        2   -1    0    0  501    0  0.00000000000E+00  0.00000000000E+00  0.19566660216E+04  0.19566660216E+04  0.25500000920E-02 0.  1.
       -2   -1    0    0    0  501  0.00000000000E+00  0.00000000000E+00 -0.13022873004E+04  0.13022873004E+04  0.25500000920E-02 0. -1.
    10030    2    1    2    0    0  0.00000000000E+00  0.00000000000E+00  0.65437872112E+03  0.32589533220E+04  0.31925797162E+04 0.  0.
        5    1    3    3  502    0  0.36655152317E+03 -0.65950074187E+03  0.17631393449E+04  0.19178069995E+04  0.46999998093E+01 0.  1.
       -5    1    3    3    0  502 -0.36655152317E+03  0.65950074187E+03 -0.11087606238E+04  0.13411463225E+04  0.46999998093E+01 0. -1.
</event>
<event>
 5   0  0.1572769E-06  0.3207214E+04  0.7818609E-02  0.8186915E-01
       -2   -1    0    0    0  501  0.00000000000E+00  0.00000000000E+00  0.89736794784E+03  0.89736794784E+03  0.25500000920E-02 0.  1.
        2   -1    0    0  501    0  0.00000000000E+00  0.00000000000E+00 -0.28656640702E+04  0.28656640702E+04  0.25500000920E-02 0. -1.
    10030    2    1    2    0    0  0.00000000000E+00  0.00000000000E+00 -0.19682961223E+04  0.37630320180E+04  0.32072137976E+04 0.  0.
        5    1    3    3  502    0  0.56202907118E+03 -0.39493784139E+03  0.71599943886E+03  0.99223478162E+03  0.46999998093E+01 0.  1.
       -5    1    3    3    0  502 -0.56202907118E+03  0.39493784139E+03 -0.26842955612E+04  0.27707972364E+04  0.46999998093E+01 0. -1.
</event>
<event>
 5   0  0.1572769E-06  0.3180733E+04  0.7818609E-02  0.8193924E-01
       -2   -1    0    0    0  501  0.00000000000E+00  0.00000000000E+00  0.83995211720E+03  0.83995211720E+03  0.25500000920E-02 0.  1.
        2   -1    0    0  501    0  0.00000000000E+00  0.00000000000E+00 -0.30112011844E+04  0.30112011844E+04  0.25500000920E-02 0. -1.
    10030    2    1    2    0    0  0.00000000000E+00  0.00000000000E+00 -0.21712490672E+04  0.38511533016E+04  0.31807325007E+04 0.  0.
        5    1    3    3  502    0 -0.55267436741E+03 -0.14180105032E+04 -0.52677587459E+03  0.16105022992E+04  0.46999998093E+01 0.  1.
       -5    1    3    3    0  502  0.55267436741E+03  0.14180105032E+04 -0.16444731926E+04  0.22406510025E+04  0.46999998093E+01 0. -1.
</event>
<event>
 5   0  0.5281187E-07  0.3192523E+04  0.7818609E-02  0.8190795E-01
       -1   -1    0    0    0  501  0.00000000000E+00  0.00000000000E+00  0.14462225865E+04  0.14462225865E+04  0.50400001928E-02 0.  1.
        1   -1    0    0  501    0  0.00000000000E+00  0.00000000000E+00 -0.17618662392E+04  0.17618662392E+04  0.50400001928E-02 0. -1.
    10030    2    1    2    0    0  0.00000000000E+00  0.00000000000E+00 -0.31564365267E+03  0.32080888258E+04  0.31925229832E+04 0.  0.
        5    1    3    3  502    0  0.33326106592E+03  0.81466664829E+03 -0.14959616529E+04  0.17357039041E+04  0.46999998093E+01 0. -1.
       -5    1    3    3    0  502 -0.33326106592E+03 -0.81466664829E+03  0.11803180002E+04  0.14723849216E+04  0.46999998093E+01 0.  1.
</event>
<event>
 5   0  0.1538349E-06  0.3236903E+04  0.7818609E-02  0.8179139E-01
       -2   -1    0    0    0  501  0.00000000000E+00  0.00000000000E+00  0.15541571357E+04  0.15541571357E+04  0.25500000920E-02 0.  1.
        2   -1    0    0  501    0  0.00000000000E+00  0.00000000000E+00 -0.16854056212E+04  0.16854056212E+04  0.25500000920E-02 0. -1.
    10030    2    1    2    0    0  0.00000000000E+00  0.00000000000E+00 -0.13124848550E+03  0.32395627570E+04  0.32369029475E+04 0.  0.
        1    1    3    3  502    0  0.14627056317E+03  0.34868954612E+03 -0.16405773099E+04  0.16835894354E+04  0.50400001928E-02 0. -1.
       -1    1    3    3    0  502 -0.14627056317E+03 -0.34868954612E+03  0.15093288244E+04  0.15559733216E+04  0.50400001928E-02 0.  1.
</event>
<event>
 5   0  0.5317728E-07  0.3191483E+04  0.7818609E-02  0.8191070E-01
        1   -1    0    0  501    0  0.00000000000E+00  0.00000000000E+00  0.19970638237E+04  0.19970638237E+04  0.50400001928E-02 0. -1.
       -1   -1    0    0    0  501  0.00000000000E+00  0.00000000000E+00 -0.12750672797E+04  0.12750672797E+04  0.50400001928E-02 0.  1.
    10030    2    1    2    0    0  0.00000000000E+00  0.00000000000E+00  0.72199654408E+03  0.32721311034E+04  0.31914828761E+04 0.  0.
        2    1    3    3  502    0  0.96861500388E+03 -0.81956667882E+03  0.13531746012E+04  0.18549895062E+04  0.25500000920E-02 0. -1.
       -2    1    3    3    0  502 -0.96861500388E+03  0.81956667882E+03 -0.63117805711E+03  0.14171415972E+04  0.25500000920E-02 0.  1.
</event>
<event>
 5   0  0.5317728E-07  0.2929424E+04  0.7818609E-02  0.8264177E-01
        1   -1    0    0  501    0  0.00000000000E+00  0.00000000000E+00  0.21545994366E+04  0.21545994366E+04  0.50400001928E-02 0.  1.
       -1   -1    0    0    0  501  0.00000000000E+00  0.00000000000E+00 -0.99572136669E+03  0.99572136670E+03  0.50400001928E-02 0. -1.
    10030    2    1    2    0    0  0.00000000000E+00  0.00000000000E+00  0.11588780699E+04  0.31503208033E+04  0.29294236264E+04 0.  0.
        2    1    3    3  502    0 -0.77370432146E+03 -0.12036832515E+04  0.91593804818E+03  0.16989450418E+04  0.25500000920E-02 0.  1.
       -2    1    3    3    0  502  0.77370432146E+03  0.12036832515E+04  0.24294002169E+03  0.14513757615E+04  0.25500000920E-02 0. -1.
</event>
<event>
 5   0  0.5177039E-07  0.3144804E+04  0.7818609E-02  0.8203548E-01
        1   -1    0    0  501    0  0.00000000000E+00  0.00000000000E+00  0.17942760867E+04  0.17942760867E+04  0.50400001928E-02 0.  1.
       -1   -1    0    0    0  501  0.00000000000E+00  0.00000000000E+00 -0.13779644277E+04  0.13779644277E+04  0.50400001928E-02 0. -1.
    10030    2    1    2    0    0  0.00000000000E+00  0.00000000000E+00  0.41631165904E+03  0.31722405144E+04  0.31448043634E+04 0.  0.
        3    1    3    3  502    0  0.82945987766E+03  0.13338403135E+04  0.28169549688E+03  0.15957712975E+04  0.10100000352E+00 0. -1.
       -3    1    3    3    0  502 -0.82945987766E+03 -0.13338403135E+04  0.13461616216E+03  0.15764692170E+04  0.10100000352E+00 0.  1.
</event>
<event>
 5   0  0.1538349E-06  0.3145637E+04  0.7818609E-02  0.8203324E-01
       -2   -1    0    0    0  501  0.00000000000E+00  0.00000000000E+00  0.95150762182E+03  0.95150762182E+03  0.25500000920E-02 0. -1.
        2   -1    0    0  501    0  0.00000000000E+00  0.00000000000E+00 -0.25998299199E+04  0.25998299199E+04  0.25500000920E-02 0.  1.
    10030    2    1    2    0    0  0.00000000000E+00  0.00000000000E+00 -0.16483222980E+04  0.35513375417E+04  0.31456369684E+04 0.  0.
        1    1    3    3  502    0 -0.40628802507E+03 -0.10910736069E+04 -0.20180175942E+04  0.23297868112E+04  0.50400001928E-02 0.  1.
       -1    1    3    3    0  502  0.40628802507E+03  0.10910736069E+04  0.36969529620E+03  0.12215507305E+04  0.50400001928E-02 0. -1.
</event>
<event>
 5   0  0.5233813E-07  0.3194986E+04  0.7818609E-02  0.8190143E-01
        1   -1    0    0  501    0  0.00000000000E+00  0.00000000000E+00  0.18624901759E+04  0.18624901759E+04  0.50400001928E-02 0. -1.
       -1   -1    0    0    0  501  0.00000000000E+00  0.00000000000E+00 -0.13701996117E+04  0.13701996117E+04  0.50400001928E-02 0.  1.
    10030    2    1    2    0    0  0.00000000000E+00  0.00000000000E+00  0.49229056424E+03  0.32326897877E+04  0.31949856437E+04 0.  0.
        4    1    3    3  502    0  0.92720978492E+03  0.53371262918E+03  0.14464904210E+04  0.17991396018E+04  0.12699999809E+01 0. -1.
       -4    1    3    3    0  502 -0.92720978492E+03 -0.53371262918E+03 -0.95419985678E+03  0.14335501859E+04  0.12699999809E+01 0.  1.
</event>
<event>
 5   0  0.5233813E-07  0.3217427E+04  0.7818609E-02  0.8184230E-01
        1   -1    0    0  501    0  0.00000000000E+00  0.00000000000E+00  0.19275637467E+04  0.19275637467E+04  0.50400001928E-02 0.  1.
       -1   -1    0    0    0  501  0.00000000000E+00  0.00000000000E+00 -0.13426061737E+04  0.13426061737E+04  0.50400001928E-02 0. -1.
    10030    2    1    2    0    0  0.00000000000E+00  0.00000000000E+00  0.58495757299E+03  0.32701699205E+04  0.32174269139E+04 0.  0.
        4    1    3    3  502    0 -0.77198627706E+03  0.32892843637E+03  0.16874945009E+04  0.18846209252E+04  0.12699999809E+01 0.  1.
       -4    1    3    3    0  502  0.77198627706E+03 -0.32892843637E+03 -0.11025369279E+04  0.13855489953E+04  0.12699999809E+01 0. -1.
</event>
<event>
 5   0  0.5281187E-07  0.3190681E+04  0.7818609E-02  0.8191283E-01
       -1   -1    0    0    0  501  0.00000000000E+00  0.00000000000E+00  0.12679644563E+04  0.12679644563E+04  0.50400001928E-02 0.  1.
        1   -1    0    0  501    0  0.00000000000E+00  0.00000000000E+00 -0.20072421725E+04  0.20072421725E+04  0.50400001928E-02 0. -1.
    10030    2    1    2    0    0  0.00000000000E+00  0.00000000000E+00 -0.73927771625E+03  0.32752066289E+04  0.31906812627E+04 0.  0.
        5    1    3    3  502    0 -0.11513879062E+04  0.99828066089E+03  0.11491642407E+03  0.15282297808E+04  0.46999998093E+01 0. -1.
       -5    1    3    3    0  502  0.11513879062E+04 -0.99828066089E+03 -0.85419414031E+03  0.17469768481E+04  0.46999998093E+01 0.  1.
</event>
<event>
 5   0  0.1493485E-06  0.3202252E+04  0.7818609E-02  0.8188223E-01
        2   -1    0    0  501    0  0.00000000000E+00  0.00000000000E+00  0.16915571552E+04  0.16915571552E+04  0.25500000920E-02 0. -1.
       -2   -1    0    0    0  501  0.00000000000E+00  0.00000000000E+00 -0.15155297694E+04  0.15155297694E+04  0.25500000920E-02 0.  1.
    10030    2    1    2    0    0  0.00000000000E+00  0.00000000000E+00  0.17602738575E+03  0.32070869246E+04  0.32022524731E+04 0.  0.
        2    1    3    3  502    0  0.14920348499E+04 -0.24066337876E+03  0.61750683430E+03  0.16326057533E+04  0.25500000920E-02 0. -1.
       -2    1    3    3    0  502 -0.14920348499E+04  0.24066337876E+03 -0.44147944855E+03  0.15744811713E+04  0.25500000920E-02 0.  1.
</event>
<event>
 5   0  0.1508771E-06  0.3243551E+04  0.7818609E-02  0.8177409E-01
       -2   -1    0    0    0  501  0.00000000000E+00  0.00000000000E+00  0.16090873960E+04  0.16090873960E+04  0.25500000920E-02 0.  1.
        2   -1    0    0  501    0  0.00000000000E+00  0.00000000000E+00 -0.16345637046E+04  0.16345637046E+04  0.25500000920E-02 0. -1.
    10030    2    1    2    0    0  0.00000000000E+00  0.00000000000E+00 -0.25476308600E+02  0.32436511006E+04  0.32435510510E+04 0.  0.
        4    1    3    3  502    0 -0.10222697027E+04  0.66878187678E+03 -0.10794714363E+04  0.16302038948E+04  0.12699999809E+01 0. -1.
       -4    1    3    3    0  502  0.10222697027E+04 -0.66878187678E+03  0.10539951277E+04  0.16134472058E+04  0.12699999809E+01 0.  1.
</event>
<event>
 5   0  0.1572769E-06  0.3192403E+04  0.7818609E-02  0.8190826E-01
       -2   -1    0    0    0  501  0.00000000000E+00  0.00000000000E+00  0.25326933228E+04  0.25326933228E+04  0.25500000920E-02 0. -1.
        2   -1    0    0  501    0  0.00000000000E+00  0.00000000000E+00 -0.10059879957E+04  0.10059879957E+04  0.25500000920E-02 0.  1.
    10030    2    1    2    0    0  0.00000000000E+00  0.00000000000E+00  0.15267053270E+04  0.35386813185E+04  0.31924029066E+04 0.  0.
        5    1    3    3  502    0 -0.10685328678E+03  0.10494730623E+04  0.20912166385E+04  0.23422255341E+04  0.46999998093E+01 0. -1.
       -5    1    3    3    0  502  0.10685328678E+03 -0.10494730623E+04 -0.56451131143E+03  0.11964557844E+04  0.46999998093E+01 0.  1.
</event>
<event>
 5   0  0.1556396E-06  0.3214498E+04  0.7818609E-02  0.8184999E-01
        2   -1    0    0  501    0  0.00000000000E+00  0.00000000000E+00  0.14353041204E+04  0.14353041204E+04  0.25500000920E-02 0.  1.
       -2   -1    0    0    0  501  0.00000000000E+00  0.00000000000E+00 -0.17997925613E+04  0.17997925613E+04  0.25500000920E-02 0. -1.
    10030    2    1    2    0    0  0.00000000000E+00  0.00000000000E+00 -0.36448844089E+03  0.32350966818E+04  0.32144982061E+04 0.  0.
        3    1    3    3  502    0 -0.44408601795E+03  0.11046338410E+04  0.90440676858E+03  0.14951187001E+04  0.10100000352E+00 0.  1.
       -3    1    3    3    0  502  0.44408601795E+03 -0.11046338410E+04 -0.12688952095E+04  0.17399779817E+04  0.10100000352E+00 0. -1.
</event>
<event>
 5   0  0.1572769E-06  0.3130076E+04  0.7818609E-02  0.8207532E-01
       -2   -1    0    0    0  501  0.00000000000E+00  0.00000000000E+00  0.24663063777E+04  0.24663063777E+04  0.25500000920E-02 0.  1.
        2   -1    0    0  501    0  0.00000000000E+00  0.00000000000E+00 -0.99312203410E+03  0.99312203410E+03  0.25500000920E-02 0. -1.
    10030    2    1    2    0    0  0.00000000000E+00  0.00000000000E+00  0.14731843436E+04  0.34594284118E+04  0.31300755304E+04 0.  0.
        5    1    3    3  502    0  0.39115812782E+03  0.67281341864E+03  0.22372698389E+04  0.23687720446E+04  0.46999998093E+01 0.  1.
       -5    1    3    3    0  502 -0.39115812782E+03 -0.67281341864E+03 -0.76408549528E+03  0.10906563672E+04  0.46999998093E+01 0. -1.
</event>
<event>
 5   0  0.1493485E-06  0.3208194E+04  0.7818609E-02  0.8186656E-01
        2   -1    0    0  501    0  0.00000000000E+00  0.00000000000E+00  0.97567645807E+03  0.97567645807E+03  0.25500000920E-02 0.  1.
       -2   -1    0    0    0  501  0.00000000000E+00  0.00000000000E+00 -0.26372755879E+04  0.26372755879E+04  0.25500000920E-02 0. -1.
    10030    2    1    2    0    0  0.00000000000E+00  0.00000000000E+00 -0.16615991298E+04  0.36129520460E+04  0.32081943236E+04 0.  0.
        2    1    3    3  502    0 -0.35527312661E+03 -0.18669532357E+02 -0.25922867207E+04  0.26165851769E+04  0.25500000920E-02 0. -1.
       -2    1    3    3    0  502  0.35527312661E+03  0.18669532357E+02  0.93068759086E+03  0.99636686904E+03  0.25500000920E-02 0.  1.
</event>
<event>
 5   0  0.5370912E-07  0.3195866E+04  0.7818609E-02  0.8189910E-01
       -1   -1    0    0    0  501  0.00000000000E+00  0.00000000000E+00  0.11513926557E+04  0.11513926557E+04  0.50400001928E-02 0.  1.
        1   -1    0    0  501    0  0.00000000000E+00  0.00000000000E+00 -0.22176538261E+04  0.22176538261E+04  0.50400001928E-02 0. -1.
    10030    2    1    2    0    0  0.00000000000E+00  0.00000000000E+00 -0.10662611704E+04  0.33690464818E+04  0.31958662852E+04 0.  0.
        1    1    3    3  502    0 -0.90866241897E+03 -0.12911871609E+04 -0.79255240601E+03  0.17666270100E+04  0.50400001928E-02 0. -1.
       -1    1    3    3    0  502  0.90866241897E+03  0.12911871609E+04 -0.27370876436E+03  0.16024194718E+04  0.50400001928E-02 0.  1.
</event>
<event>
 5   0  0.5233813E-07  0.3194019E+04  0.7818609E-02  0.8190399E-01
       -1   -1    0    0    0  501  0.00000000000E+00  0.00000000000E+00  0.17250314365E+04  0.17250314365E+04  0.50400001928E-02 0. -1.
        1   -1    0    0  501    0  0.00000000000E+00  0.00000000000E+00 -0.14784886906E+04  0.14784886906E+04  0.50400001928E-02 0.  1.
    10030    2    1    2    0    0  0.00000000000E+00  0.00000000000E+00  0.24654274591E+03  0.32035201272E+04  0.31940190794E+04 0.  0.
        4    1    3    3  502    0 -0.14602186909E+04 -0.44687321986E+03 -0.34556274273E+03  0.15656786139E+04  0.12699999809E+01 0.  1.
       -4    1    3    3    0  502  0.14602186909E+04  0.44687321986E+03  0.59210548864E+03  0.16378415133E+04  0.12699999809E+01 0. -1.
</event>
<event>
 5   0  0.1508771E-06  0.3199630E+04  0.7818609E-02  0.8188915E-01
        2   -1    0    0  501    0  0.00000000000E+00  0.00000000000E+00  0.19031758347E+04  0.19031758347E+04  0.25500000920E-02 0. -1.
       -2   -1    0    0    0  501  0.00000000000E+00  0.00000000000E+00 -0.13448091989E+04  0.13448091989E+04  0.25500000920E-02 0.  1.
    10030    2    1    2    0    0  0.00000000000E+00  0.00000000000E+00  0.55836663581E+03  0.32479850336E+04  0.31996302096E+04 0.  0.
        4    1    3    3  502    0  0.10228349733E+04 -0.11097591960E+04 -0.25954404195E+03  0.15313789793E+04  0.12699999809E+01 0.  1.
       -4    1    3    3    0  502 -0.10228349733E+04  0.11097591960E+04  0.81791067776E+03  0.17166060542E+04  0.12699999809E+01 0. -1.
</event>
<event>
 5   0  0.1508771E-06  0.3349973E+04  0.7818609E-02  0.8150295E-01
       -2   -1    0    0    0  501  0.00000000000E+00  0.00000000000E+00  0.16235881349E+04  0.16235881349E+04  0.25500000920E-02 0.  1.
        2   -1    0    0  501    0  0.00000000000E+00  0.00000000000E+00 -0.17280117769E+04  0.17280117769E+04  0.25500000920E-02 0. -1.
    10030    2    1    2    0    0  0.00000000000E+00  0.00000000000E+00 -0.10442364196E+03  0.33515999118E+04  0.33499727867E+04 0.  0.
        4    1    3    3  502    0 -0.22513238387E+03 -0.16592751987E+04 -0.10972511662E+02  0.16745150893E+04  0.12699999809E+01 0. -1.
       -4    1    3    3    0  502  0.22513238387E+03  0.16592751987E+04 -0.93451130302E+02  0.16770848225E+04  0.12699999809E+01 0.  1.
</event>
<event>
 5   0  0.5317728E-07  0.3229633E+04  0.7818609E-02  0.8181035E-01
        1   -1    0    0  501    0  0.00000000000E+00  0.00000000000E+00  0.12790643287E+04  0.12790643288E+04  0.50400001928E-02 0. -1.
       -1   -1    0    0    0  501  0.00000000000E+00  0.00000000000E+00 -0.20387025390E+04  0.20387025390E+04  0.50400001928E-02 0.  1.
    10030    2    1    2    0    0  0.00000000000E+00  0.00000000000E+00 -0.75963821026E+03  0.33177668678E+04  0.32296326073E+04 0.  0.
        2    1    3    3  502    0 -0.62601605555E+03 -0.14001745732E+04 -0.89882568205E+03  0.17777155408E+04  0.25500000920E-02 0. -1.
       -2    1    3    3    0  502  0.62601605555E+03  0.14001745732E+04  0.13918747179E+03  0.15400513269E+04  0.25500000920E-02 0.  1.
</event>
<event>
 5   0  0.5317728E-07  0.3240841E+04  0.7818609E-02  0.8178114E-01
       -1   -1    0    0    0  501  0.00000000000E+00  0.00000000000E+00  0.11535935388E+04  0.11535935388E+04  0.50400001928E-02 0.  1.
        1   -1    0    0  501    0  0.00000000000E+00  0.00000000000E+00 -0.22761589286E+04  0.22761589286E+04  0.50400001928E-02 0. -1.
    10030    2    1    2    0    0  0.00000000000E+00  0.00000000000E+00 -0.11225653898E+04  0.34297524673E+04  0.32408407756E+04 0.  0.
        2    1    3    3  502    0  0.85510487781E+03  0.80911584374E+03 -0.17396930824E+04  0.21005724985E+04  0.25500000920E-02 0. -1.
       -2    1    3    3    0  502 -0.85510487781E+03 -0.80911584374E+03  0.61712769255E+03  0.13291799688E+04  0.25500000920E-02 0.  1.
</event>
<event>
 5   0  0.1493485E-06  0.3239679E+04  0.7818609E-02  0.8178416E-01
        2   -1    0    0  501    0  0.00000000000E+00  0.00000000000E+00  0.80057685596E+03  0.80057685597E+03  0.25500000920E-02 0.  1.
       -2   -1    0    0    0  501  0.00000000000E+00  0.00000000000E+00 -0.32774862282E+04  0.32774862282E+04  0.25500000920E-02 0. -1.
    10030    2    1    2    0    0  0.00000000000E+00  0.00000000000E+00 -0.24769093722E+04  0.40780630842E+04  0.32396787619E+04 0.  0.
        2    1    3    3  502    0  0.68911515364E+03  0.88019531263E+03  0.23720371039E+03  0.11427550409E+04  0.25500000920E-02 0.  1.
       -2    1    3    3    0  502 -0.68911515364E+03 -0.88019531263E+03 -0.27141130826E+04  0.29353080432E+04  0.25500000920E-02 0. -1.
</event>
<event>
 5   0  0.1556396E-06  0.3217960E+04  0.7818609E-02  0.8184090E-01
        2   -1    0    0  501    0  0.00000000000E+00  0.00000000000E+00  0.20357648202E+04  0.20357648202E+04  0.25500000920E-02 0. -1.
       -2   -1    0    0    0  501  0.00000000000E+00  0.00000000000E+00 -0.12716677139E+04  0.12716677139E+04  0.25500000920E-02 0.  1.
    10030    2    1    2    0    0  0.00000000000E+00  0.00000000000E+00  0.76409710631E+03  0.33074325340E+04  0.32179598474E+04 0.  0.
        3    1    3    3  502    0  0.13658035716E+04  0.82081342324E+03  0.61109515001E+03  0.17066315843E+04  0.10100000352E+00 0. -1.
       -3    1    3    3    0  502 -0.13658035716E+04 -0.82081342324E+03  0.15300195630E+03  0.16008009498E+04  0.10100000352E+00 0.  1.
</event>
<event>
 5   0  0.1493485E-06  0.3154141E+04  0.7818609E-02  0.8201035E-01
       -2   -1    0    0    0  501  0.00000000000E+00  0.00000000000E+00  0.13159344848E+04  0.13159344848E+04  0.25500000920E-02 0.  1.
        2   -1    0    0  501    0  0.00000000000E+00  0.00000000000E+00 -0.18900266361E+04  0.18900266361E+04  0.25500000920E-02 0. -1.
    10030    2    1    2    0    0  0.00000000000E+00  0.00000000000E+00 -0.57409215129E+03  0.32059611208E+04  0.31541409148E+04 0.  0.
        2    1    3    3  502    0 -0.13039452062E+04 -0.37759930067E+03 -0.11029145996E+04  0.17490783135E+04  0.25500000920E-02 0. -1.
       -2    1    3    3    0  502  0.13039452062E+04  0.37759930067E+03  0.52882244832E+03  0.14568828074E+04  0.25500000920E-02 0.  1.
</event>
<event>
 5   0  0.1538349E-06  0.3202621E+04  0.7818609E-02  0.8188125E-01
        2   -1    0    0  501    0  0.00000000000E+00  0.00000000000E+00  0.23855636814E+04  0.23855636814E+04  0.25500000920E-02 0. -1.
       -2   -1    0    0    0  501  0.00000000000E+00  0.00000000000E+00 -0.10748799884E+04  0.10748799884E+04  0.25500000920E-02 0.  1.
    10030    2    1    2    0    0  0.00000000000E+00  0.00000000000E+00  0.13106836930E+04  0.34604436698E+04  0.32026205908E+04 0.  0.
        1    1    3    3  502    0 -0.68914683738E+03  0.30394391382E+03 -0.87153249802E+03  0.11519002393E+04  0.50400001928E-02 0.  1.
       -1    1    3    3    0  502  0.68914683738E+03 -0.30394391382E+03  0.21822161910E+04  0.23085434305E+04  0.50400001928E-02 0. -1.
</event>
<event>
 5   0  0.5281187E-07  0.3208483E+04  0.7818609E-02  0.8186580E-01
       -1   -1    0    0    0  501  0.00000000000E+00  0.00000000000E+00  0.16946662646E+04  0.16946662646E+04  0.50400001928E-02 0. -1.
        1   -1    0    0  501    0  0.00000000000E+00  0.00000000000E+00 -0.15186418018E+04  0.15186418018E+04  0.50400001928E-02 0.  1.
    10030    2    1    2    0    0  0.00000000000E+00  0.00000000000E+00  0.17602446276E+03  0.32133080664E+04  0.32084831491E+04 0.  0.
        5    1    3    3  502    0 -0.97240335069E+03 -0.66614515472E+03 -0.10018573610E+04  0.15469511645E+04  0.46999998093E+01 0. -1.
       -5    1    3    3    0  502  0.97240335069E+03  0.66614515472E+03  0.11778818238E+04  0.16663569019E+04  0.46999998093E+01 0.  1.
</event>
<event>
 5   0  0.1572769E-06  0.3213783E+04  0.7818609E-02  0.8185187E-01
        2   -1    0    0  501    0  0.00000000000E+00  0.00000000000E+00  0.19625806856E+04  0.19625806856E+04  0.25500000920E-02 0. -1.
       -2   -1    0    0    0  501  0.00000000000E+00  0.00000000000E+00 -0.13156659702E+04  0.13156659702E+04  0.25500000920E-02 0.  1.
    10030    2    1    2    0    0  0.00000000000E+00  0.00000000000E+00  0.64691471540E+03  0.32782466557E+04  0.32137832047E+04 0.  0.
        5    1    3    3  502    0 -0.11631265021E+04 -0.68228114065E+02 -0.80533775255E+03  0.14163718866E+04  0.46999998093E+01 0.  1.
       -5    1    3    3    0  502  0.11631265021E+04  0.68228114065E+02  0.14522524680E+04  0.18618747692E+04  0.46999998093E+01 0. -1.
</event>
<event>
 5   0  0.1508771E-06  0.3200865E+04  0.7818609E-02  0.8188589E-01
        2   -1    0    0  501    0  0.00000000000E+00  0.00000000000E+00  0.22721723921E+04  0.22721723921E+04  0.25500000920E-02 0. -1.
       -2   -1    0    0    0  501  0.00000000000E+00  0.00000000000E+00 -0.11272843414E+04  0.11272843414E+04  0.25500000920E-02 0.  1.
    10030    2    1    2    0    0  0.00000000000E+00  0.00000000000E+00  0.11448880507E+04  0.33994567335E+04  0.32008651071E+04 0.  0.
        4    1    3    3  502    0 -0.63881701523E+03 -0.57238591688E+03  0.20074485716E+04  0.21830172233E+04  0.12699999809E+01 0. -1.
       -4    1    3    3    0  502  0.63881701523E+03  0.57238591688E+03 -0.86256052088E+03  0.12164395102E+04  0.12699999809E+01 0.  1.
</event>
<event>
 5   0  0.1493485E-06  0.3226027E+04  0.7818609E-02  0.8181977E-01
       -2   -1    0    0    0  501  0.00000000000E+00  0.00000000000E+00  0.12975033616E+04  0.12975033616E+04  0.25500000920E-02 0. -1.
        2   -1    0    0  501    0  0.00000000000E+00  0.00000000000E+00 -0.20052449755E+04  0.20052449755E+04  0.25500000920E-02 0.  1.
    10030    2    1    2    0    0  0.00000000000E+00  0.00000000000E+00 -0.70774161392E+03  0.33027483371E+04  0.32260267181E+04 0.  0.
        2    1    3    3  502    0 -0.91763809707E+03 -0.55302740228E+03  0.88058841730E+03  0.13868435188E+04  0.25500000920E-02 0. -1.
       -2    1    3    3    0  502  0.91763809707E+03  0.55302740228E+03 -0.15883300312E+04  0.19159048183E+04  0.25500000920E-02 0.  1.
</event>
<event>
 5   0  0.5177039E-07  0.3198848E+04  0.7818609E-02  0.8189122E-01
       -1   -1    0    0    0  501  0.00000000000E+00  0.00000000000E+00  0.12547363442E+04  0.12547363442E+04  0.50400001928E-02 0. -1.
        1   -1    0    0  501    0  0.00000000000E+00  0.00000000000E+00 -0.20388004119E+04  0.20388004119E+04  0.50400001928E-02 0.  1.
    10030    2    1    2    0    0  0.00000000000E+00  0.00000000000E+00 -0.78406406767E+03  0.32935367561E+04  0.31988479023E+04 0.  0.
        3    1    3    3  502    0 -0.84789727168E+02  0.14541703644E+04 -0.10721582391E+04  0.18086801946E+04  0.10100000352E+00 0.  1.
       -3    1    3    3    0  502  0.84789727168E+02 -0.14541703644E+04  0.28809417138E+03  0.14848565615E+04  0.10100000352E+00 0. -1.
</event>
<event>
 5   0  0.5281187E-07  0.3326620E+04  0.7818609E-02  0.8156155E-01
        1   -1    0    0  501    0  0.00000000000E+00  0.00000000000E+00  0.15104842560E+04  0.15104842560E+04  0.50400001928E-02 0. -1.
       -1   -1    0    0    0  501  0.00000000000E+00  0.00000000000E+00 -0.18315979843E+04  0.18315979843E+04  0.50400001928E-02 0.  1.
    10030    2    1    2    0    0  0.00000000000E+00  0.00000000000E+00 -0.32111372828E+03  0.33420822403E+04  0.33266198573E+04 0.  0.
        5    1    3    3  502    0  0.10674462739E+03 -0.15502595409E+04 -0.75650777648E+03  0.17283012369E+04  0.46999998093E+01 0.  1.
       -5    1    3    3    0  502 -0.10674462739E+03  0.15502595409E+04  0.43539404820E+03  0.16137810034E+04  0.46999998093E+01 0. -1.
</event>
<event>
 5   0  0.1538349E-06  0.3273120E+04  0.7818609E-02  0.8169769E-01
       -2   -1    0    0    0  501  0.00000000000E+00  0.00000000000E+00  0.18644446218E+04  0.18644446218E+04  0.25500000920E-02 0. -1.
        2   -1    0    0  501    0  0.00000000000E+00  0.00000000000E+00 -0.14365286671E+04  0.14365286671E+04  0.25500000920E-02 0.  1.
    10030    2    1    2    0    0  0.00000000000E+00  0.00000000000E+00  0.42791595473E+03  0.33009732888E+04  0.32731197029E+04 0.  0.
        1    1    3    3  502    0  0.43727652057E+03  0.15213079598E+04 -0.20519825663E+03  0.15961500520E+04  0.50400001928E-02 0.  1.
       -1    1    3    3    0  502 -0.43727652057E+03 -0.15213079598E+04  0.63311421136E+03  0.17048232368E+04  0.50400001928E-02 0. -1.
</event>
<event>
 5   0  0.1572769E-06  0.3190266E+04  0.7818609E-02  0.8191393E-01
        2   -1    0    0  501    0  0.00000000000E+00  0.00000000000E+00  0.23325946768E+04  0.23325946768E+04  0.25500000920E-02 0.  1.
       -2   -1    0    0    0  501  0.00000000000E+00  0.00000000000E+00 -0.10908239122E+04  0.10908239122E+04  0.25500000920E-02 0. -1.
    10030    2    1    2    0    0  0.00000000000E+00  0.00000000000E+00  0.12417707647E+04  0.34234185890E+04  0.31902664784E+04 0.  0.
        5    1    3    3  502    0 -0.21753607786E+03  0.13225770105E+04 -0.30712678135E+03  0.13750930309E+04  0.46999998093E+01 0. -1.
       -5    1    3    3    0  502  0.21753607786E+03 -0.13225770105E+04  0.15488975460E+04  0.20483255581E+04  0.46999998093E+01 0.  1.
</event>
<event>
 5   0  0.1572769E-06  0.3237222E+04  0.7818609E-02  0.8179056E-01
       -2   -1    0    0    0  501  0.00000000000E+00  0.00000000000E+00  0.14948241183E+04  0.14948241183E+04  0.25500000920E-02 0. -1.
        2   -1    0    0  501    0  0.00000000000E+00  0.00000000000E+00 -0.17526485500E+04  0.17526485500E+04  0.25500000920E-02 0.  1.
    10030    2    1    2    0    0  0.00000000000E+00  0.00000000000E+00 -0.25782443173E+03  0.32474726682E+04  0.32372218480E+04 0.  0.
        5    1    3    3  502    0 -0.74345312274E+03 -0.12896176843E+04 -0.76656871465E+03  0.16743613713E+04  0.46999998093E+01 0. -1.
       -5    1    3    3    0  502  0.74345312274E+03  0.12896176843E+04  0.50874428293E+03  0.15731112970E+04  0.46999998093E+01 0.  1.
</event>
<event>
 5   0  0.5233813E-07  0.3201860E+04  0.7818609E-02  0.8188326E-01
       -1   -1    0    0    0  501  0.00000000000E+00  0.00000000000E+00  0.26323995633E+04  0.26323995633E+04  0.50400001928E-02 0. -1.
        1   -1    0    0  501    0  0.00000000000E+00  0.00000000000E+00 -0.97362765731E+03  0.97362765733E+03  0.50400001928E-02 0.  1.
    10030    2    1    2    0    0  0.00000000000E+00  0.00000000000E+00  0.16587719060E+04  0.36060272207E+04  0.32018600969E+04 0.  0.
        4    1    3    3  502    0 -0.11515369138E+04 -0.10599337350E+04  0.44999788050E+03  0.16284951617E+04  0.12699999809E+01 0.  1.
       -4    1    3    3    0  502  0.11515369138E+04  0.10599337350E+04  0.12087740255E+04  0.19775320589E+04  0.12699999809E+01 0. -1.
</event>
<event>
 5   0  0.5233813E-07  0.3174056E+04  0.7818609E-02  0.8195703E-01
        1   -1    0    0  501    0  0.00000000000E+00  0.00000000000E+00  0.13288592596E+04  0.13288592596E+04  0.50400001928E-02 0. -1.
       -1   -1    0    0    0  501  0.00000000000E+00  0.00000000000E+00 -0.18953537299E+04  0.18953537299E+04  0.50400001928E-02 0.  1.
    10030    2    1    2    0    0  0.00000000000E+00  0.00000000000E+00 -0.56649447024E+03  0.32242129895E+04  0.31740563034E+04 0.  0.
        4    1    3    3  502    0  0.70220696545E+03  0.34795369851E+03  0.11185928826E+04  0.13658030783E+04  0.12699999809E+01 0. -1.
       -4    1    3    3    0  502 -0.70220696545E+03 -0.34795369851E+03 -0.16850873529E+04  0.18584099113E+04  0.12699999809E+01 0.  1.
</event>
<event>
 5   0  0.5317728E-07  0.3206153E+04  0.7818609E-02  0.8187194E-01
        1   -1    0    0  501    0  0.00000000000E+00  0.00000000000E+00  0.17797548131E+04  0.17797548131E+04  0.50400001928E-02 0. -1.
       -1   -1    0    0    0  501  0.00000000000E+00  0.00000000000E+00 -0.14439368729E+04  0.14439368729E+04  0.50400001928E-02 0.  1.
    10030    2    1    2    0    0  0.00000000000E+00  0.00000000000E+00  0.33581794016E+03  0.32236916860E+04  0.32061525849E+04 0.  0.
        2    1    3    3  502    0  0.11209074501E+04  0.74011133421E+03 -0.71189508391E+03  0.15201950234E+04  0.25500000920E-02 0.  1.
       -2    1    3    3    0  502 -0.11209074501E+04 -0.74011133421E+03  0.10477130241E+04  0.17034966626E+04  0.25500000920E-02 0. -1.
</event>
<event>
 5   0  0.1538349E-06  0.3199728E+04  0.7818609E-02  0.8188889E-01
       -2   -1    0    0    0  501  0.00000000000E+00  0.00000000000E+00  0.12820667713E+04  0.12820667713E+04  0.25500000920E-02 0.  1.
        2   -1    0    0  501    0  0.00000000000E+00  0.00000000000E+00 -0.19964365570E+04  0.19964365570E+04  0.25500000920E-02 0. -1.
    10030    2    1    2    0    0  0.00000000000E+00  0.00000000000E+00 -0.71436978564E+03  0.32785033283E+04  0.31997280952E+04 0.  0.
        1    1    3    3  502    0  0.12989715174E+04 -0.47436962263E+03  0.46711575867E+03  0.14596405975E+04  0.50400001928E-02 0.  1.
       -1    1    3    3    0  502 -0.12989715174E+04  0.47436962263E+03 -0.11814855443E+04  0.18188627308E+04  0.50400001928E-02 0. -1.
</event>
<event>
 5   0  0.1572769E-06  0.2858854E+04  0.7818609E-02  0.8285226E-01
       -2   -1    0    0    0  501  0.00000000000E+00  0.00000000000E+00  0.13928859649E+04  0.13928859649E+04  0.25500000920E-02 0.  1.
        2   -1    0    0  501    0  0.00000000000E+00  0.00000000000E+00 -0.14669265970E+04  0.14669265970E+04  0.25500000920E-02 0. -1.
    10030    2    1    2    0    0  0.00000000000E+00  0.00000000000E+00 -0.74040632143E+02  0.28598125619E+04  0.28588539442E+04 0.  0.
        5    1    3    3  502    0  0.75188572952E+03 -0.55075729399E+03 -0.11211612058E+04  0.14579747208E+04  0.46999998093E+01 0. -1.
       -5    1    3    3    0  502 -0.75188572952E+03  0.55075729399E+03  0.10471205736E+04  0.14018378411E+04  0.46999998093E+01 0.  1.
</event>
<event>
 5   0  0.1556396E-06  0.3210035E+04  0.7818609E-02  0.8186172E-01
        2   -1    0    0  501    0  0.00000000000E+00  0.00000000000E+00  0.17317405516E+04  0.17317405516E+04  0.25500000920E-02 0.  1.
       -2   -1    0    0    0  501  0.00000000000E+00  0.00000000000E+00 -0.14875675514E+04  0.14875675514E+04  0.25500000920E-02 0. -1.
    10030    2    1    2    0    0  0.00000000000E+00  0.00000000000E+00  0.24417300022E+03  0.32193081030E+04  0.32100349232E+04 0.  0.
        3    1    3    3  502    0 -0.22891758448E+03  0.10919771930E+04 -0.10350505856E+04  0.15218893440E+04  0.10100000352E+00 0. -1.
       -3    1    3    3    0  502  0.22891758448E+03 -0.10919771930E+04  0.12792235858E+04  0.16974187590E+04  0.10100000352E+00 0.  1.
</event>
<event>
 5   0  0.5233813E-07  0.3214783E+04  0.7818609E-02  0.8184924E-01
        1   -1    0    0  501    0  0.00000000000E+00  0.00000000000E+00  0.10059676189E+04  0.10059676189E+04  0.50400001928E-02 0.  1.
       -1   -1    0    0    0  501  0.00000000000E+00  0.00000000000E+00 -0.25683805770E+04  0.25683805770E+04  0.50400001928E-02 0. -1.
    10030    2    1    2    0    0  0.00000000000E+00  0.00000000000E+00 -0.15624129582E+04  0.35743481959E+04  0.32147831612E+04 0.  0.
        4    1    3    3  502    0 -0.15264952981E+04 -0.47993045304E+03 -0.95050307067E+03  0.18611767340E+04  0.12699999809E+01 0.  1.
       -4    1    3    3    0  502  0.15264952981E+04  0.47993045304E+03 -0.61190988750E+03  0.17131714620E+04  0.12699999809E+01 0. -1.
</event>
<event>
 5   0  0.1538349E-06  0.3164518E+04  0.7818609E-02  0.8198251E-01
        2   -1    0    0  501    0  0.00000000000E+00  0.00000000000E+00  0.17155785071E+04  0.17155785071E+04  0.25500000920E-02 0.  1.
       -2   -1    0    0    0  501  0.00000000000E+00  0.00000000000E+00 -0.14593002240E+04  0.14593002240E+04  0.25500000920E-02 0. -1.
    10030    2    1    2    0    0  0.00000000000E+00  0.00000000000E+00  0.25627828313E+03  0.31748787311E+04  0.31645183518E+04 0.  0.
        1    1    3    3  502    0  0.61186212616E+03  0.65856960287E+03 -0.11782201720E+04  0.14819891892E+04  0.50400001928E-02 0. -1.
       -1    1    3    3    0  502 -0.61186212616E+03 -0.65856960287E+03  0.14344984551E+04  0.16928895419E+04  0.50400001928E-02 0.  1.
</event>
<event>
 5   0  0.5233813E-07  0.3195379E+04  0.7818609E-02  0.8190039E-01
        1   -1    0    0  501    0  0.00000000000E+00  0.00000000000E+00  0.18357033544E+04  0.18357033544E+04  0.50400001928E-02 0. -1.
       -1   -1    0    0    0  501  0.00000000000E+00  0.00000000000E+00 -0.13905357216E+04  0.13905357216E+04  0.50400001928E-02 0.  1.
    10030    2    1    2    0    0  0.00000000000E+00  0.00000000000E+00  0.44516763282E+03  0.32262390760E+04  0.31953785932E+04 0.  0.
        4    1    3    3  502    0 -0.96670978613E+03 -0.11640691064E+04 -0.29522871810E+03  0.15416699725E+04  0.12699999809E+01 0.  1.
       -4    1    3    3    0  502  0.96670978613E+03  0.11640691064E+04  0.74039635092E+03  0.16845691035E+04  0.12699999809E+01 0. -1.
</event>
<event>
 5   0  0.1556396E-06  0.3204689E+04  0.7818609E-02  0.8187580E-01
       -2   -1    0    0    0  501  0.00000000000E+00  0.00000000000E+00  0.16751375361E+04  0.16751375361E+04  0.25500000920E-02 0.  1.
        2   -1    0    0  501    0  0.00000000000E+00  0.00000000000E+00 -0.15327143724E+04  0.15327143725E+04  0.25500000920E-02 0. -1.
    10030    2    1    2    0    0  0.00000000000E+00  0.00000000000E+00  0.14242316364E+03  0.32078519085E+04  0.32046886759E+04 0.  0.
        3    1    3    3  502    0  0.20589584987E+03  0.15592333019E+04 -0.23553138894E+03  0.15903070886E+04  0.10100000352E+00 0.  1.
       -3    1    3    3    0  502 -0.20589584987E+03 -0.15592333019E+04  0.37795455258E+03  0.16175448200E+04  0.10100000352E+00 0. -1.
</event>
<event>
 5   0  0.1508771E-06  0.3206028E+04  0.7818609E-02  0.8187227E-01
       -2   -1    0    0    0  501  0.00000000000E+00  0.00000000000E+00  0.16509235380E+04  0.16509235380E+04  0.25500000920E-02 0.  1.
        2   -1    0    0  501    0  0.00000000000E+00  0.00000000000E+00 -0.15564950758E+04  0.15564950758E+04  0.25500000920E-02 0. -1.
    10030    2    1    2    0    0  0.00000000000E+00  0.00000000000E+00  0.94428462237E+02  0.32074186138E+04  0.32060282952E+04 0.  0.
        4    1    3    3  502    0  0.14750170651E+04  0.12628474120E+03  0.66232195207E+03  0.16218184729E+04  0.12699999809E+01 0.  1.
       -4    1    3    3    0  502 -0.14750170651E+04 -0.12628474120E+03 -0.56789348983E+03  0.15856001409E+04  0.12699999809E+01 0. -1.
</event>
<event>
 5   0  0.5370912E-07  0.3176585E+04  0.7818609E-02  0.8195029E-01
        1   -1    0    0  501    0  0.00000000000E+00  0.00000000000E+00  0.13314121746E+04  0.13314121747E+04  0.50400001928E-02 0.  1.
       -1   -1    0    0    0  501  0.00000000000E+00  0.00000000000E+00 -0.18947343038E+04  0.18947343038E+04  0.50400001928E-02 0. -1.
    10030    2    1    2    0    0  0.00000000000E+00  0.00000000000E+00 -0.56332212919E+03  0.32261464785E+04  0.31765845305E+04 0.  0.
        1    1    3    3  502    0  0.21660170253E+03  0.40896884284E+03  0.12614196824E+04  0.13436336655E+04  0.50400001928E-02 0.  1.
       -1    1    3    3    0  502 -0.21660170253E+03 -0.40896884284E+03 -0.18247418116E+04  0.18825128130E+04  0.50400001928E-02 0. -1.
</event>
<event>
 5   0  0.1538349E-06  0.3259430E+04  0.7818609E-02  0.8173296E-01
       -2   -1    0    0    0  501  0.00000000000E+00  0.00000000000E+00  0.12049446995E+04  0.12049446995E+04  0.25500000920E-02 0.  1.
        2   -1    0    0  501    0  0.00000000000E+00  0.00000000000E+00 -0.22042261713E+04  0.22042261713E+04  0.25500000920E-02 0. -1.
    10030    2    1    2    0    0  0.00000000000E+00  0.00000000000E+00 -0.99928147180E+03  0.34091708708E+04  0.32594297916E+04 0.  0.
        1    1    3    3  502    0  0.11607962687E+04 -0.98168010435E+03  0.11455623107E+03  0.15245546677E+04  0.50400001928E-02 0. -1.
       -1    1    3    3    0  502 -0.11607962687E+04  0.98168010435E+03 -0.11138377029E+04  0.18846162031E+04  0.50400001928E-02 0.  1.
</event>
<event>
 5   0  0.5281187E-07  0.3198923E+04  0.7818609E-02  0.8189102E-01
        1   -1    0    0  501    0  0.00000000000E+00  0.00000000000E+00  0.15467975395E+04  0.15467975395E+04  0.50400001928E-02 0.  1.
       -1   -1    0    0    0  501  0.00000000000E+00  0.00000000000E+00 -0.16539184002E+04  0.16539184002E+04  0.50400001928E-02 0. -1.
    10030    2    1    2    0    0  0.00000000000E+00  0.00000000000E+00 -0.10712086069E+03  0.32007159396E+04  0.31989228886E+04 0.  0.
        5    1    3    3  502    0 -0.15678647682E+04  0.31577957203E+03 -0.71959657544E+02  0.16009737511E+04  0.46999998093E+01 0. -1.
       -5    1    3    3    0  502  0.15678647682E+04 -0.31577957203E+03 -0.35161203150E+02  0.15997421885E+04  0.46999998093E+01 0.  1.
</event>
<event>
 5   0  0.5281187E-07  0.2909615E+04  0.7818609E-02  0.8270023E-01
        1   -1    0    0  501    0  0.00000000000E+00  0.00000000000E+00  0.22282323073E+04  0.22282323073E+04  0.50400001928E-02 0. -1.
       -1   -1    0    0    0  501  0.00000000000E+00  0.00000000000E+00 -0.94984016022E+03  0.94984016023E+03  0.50400001928E-02 0.  1.
    10030    2    1    2    0    0  0.00000000000E+00  0.00000000000E+00  0.12783921471E+04  0.31780724676E+04  0.29096147730E+04 0.  0.
        5    1    3    3  502    0 -0.42590451817E+03  0.11574713059E+04  0.14819468230E+04  0.19280360367E+04  0.46999998093E+01 0. -1.
       -5    1    3    3    0  502  0.42590451817E+03 -0.11574713059E+04 -0.20355467590E+03  0.12500364309E+04  0.46999998093E+01 0.  1.
</event>
<event>
 5   0  0.5233813E-07  0.3196681E+04  0.7818609E-02  0.8189694E-01
       -1   -1    0    0    0  501  0.00000000000E+00  0.00000000000E+00  0.14327304787E+04  0.14327304787E+04  0.50400001928E-02 0. -1.
        1   -1    0    0  501    0  0.00000000000E+00  0.00000000000E+00 -0.17830932387E+04  0.17830932387E+04  0.50400001928E-02 0.  1.
    10030    2    1    2    0    0  0.00000000000E+00  0.00000000000E+00 -0.35036276004E+03  0.32158237174E+04  0.31966807969E+04 0.  0.
        4    1    3    3  502    0 -0.78746235894E+03 -0.86357176548E+03 -0.12720488709E+04  0.17274151509E+04  0.12699999809E+01 0.  1.
       -4    1    3    3    0  502  0.78746235894E+03  0.86357176548E+03  0.92168611081E+03  0.14884085664E+04  0.12699999809E+01 0. -1.
</event>
<event>
 5   0  0.5177039E-07  0.3214223E+04  0.7818609E-02  0.8185071E-01
       -1   -1    0    0    0  501  0.00000000000E+00  0.00000000000E+00  0.15318006649E+04  0.15318006649E+04  0.50400001928E-02 0. -1.
        1   -1    0    0  501    0  0.00000000000E+00  0.00000000000E+00 -0.16861253895E+04  0.16861253895E+04  0.50400001928E-02 0.  1.
    10030    2    1    2    0    0  0.00000000000E+00  0.00000000000E+00 -0.15432472461E+03  0.32179260544E+04  0.32142233853E+04 0.  0.
        3    1    3    3  502    0 -0.11391923595E+04  0.11212682001E+04  0.89782163497E+02  0.16009567313E+04  0.10100000352E+00 0. -1.
       -3    1    3    3    0  502  0.11391923595E+04 -0.11212682001E+04 -0.24410688811E+03  0.16169693230E+04  0.10100000352E+00 0.  1.
</event>
<event>
 5   0  0.5177039E-07  0.3153517E+04  0.7818609E-02  0.8201202E-01
        1   -1    0    0  501    0  0.00000000000E+00  0.00000000000E+00  0.23377060329E+04  0.23377060329E+04  0.50400001928E-02 0.  1.
       -1   -1    0    0    0  501  0.00000000000E+00  0.00000000000E+00 -0.10635073997E+04  0.10635073997E+04  0.50400001928E-02 0. -1.
    10030    2    1    2    0    0  0.00000000000E+00  0.00000000000E+00  0.12741986332E+04  0.34012134325E+04  0.31535171883E+04 0.  0.
        3    1    3    3  502    0  0.47135910042E+03  0.27348241390E+03 -0.95870989839E+03  0.11027677506E+04  0.10100000352E+00 0. -1.
       -3    1    3    3    0  502 -0.47135910042E+03 -0.27348241390E+03  0.22329085316E+04  0.22984456820E+04  0.10100000352E+00 0.  1.
</event>
<event>
 5   0  0.5233813E-07  0.2804541E+04  0.7818609E-02  0.8301860E-01
       -1   -1    0    0    0  501  0.00000000000E+00  0.00000000000E+00  0.21544610182E+04  0.21544610182E+04  0.50400001928E-02 0. -1.
        1   -1    0    0  501    0  0.00000000000E+00  0.00000000000E+00 -0.91269366730E+03  0.91269366731E+03  0.50400001928E-02 0.  1.
    10030    2    1    2    0    0  0.00000000000E+00  0.00000000000E+00  0.12417673509E+04  0.30671546855E+04  0.28045412657E+04 0.  0.
        4    1    3    3  502    0  0.65388310883E+02  0.12664881630E+04 -0.33559605291E+02  0.12686196271E+04  0.12699999809E+01 0.  1.
       -4    1    3    3    0  502 -0.65388310883E+02 -0.12664881630E+04  0.12753269562E+04  0.17985350584E+04  0.12699999809E+01 0. -1.
</event>
<event>
 5   0  0.5177039E-07  0.3212791E+04  0.7818609E-02  0.8185447E-01
       -1   -1    0    0    0  501  0.00000000000E+00  0.00000000000E+00  0.11216804612E+04  0.11216804612E+04  0.50400001928E-02 0.  1.
        1   -1    0    0  501    0  0.00000000000E+00  0.00000000000E+00 -0.23005719854E+04  0.23005719854E+04  0.50400001928E-02 0. -1.
    10030    2    1    2    0    0  0.00000000000E+00  0.00000000000E+00 -0.11788915242E+04  0.34222524465E+04  0.32127910891E+04 0.  0.
        3    1    3    3  502    0  0.30637914480E+03  0.38172303203E+03 -0.22192047958E+04  0.22725427585E+04  0.10100000352E+00 0. -1.
       -3    1    3    3    0  502 -0.30637914480E+03 -0.38172303203E+03  0.10403132716E+04  0.11497096880E+04  0.10100000352E+00 0.  1.
</event>
<event>
 5   0  0.5370912E-07  0.3006409E+04  0.7818609E-02  0.8241903E-01
       -1   -1    0    0    0  501  0.00000000000E+00  0.00000000000E+00  0.13133182425E+04  0.13133182425E+04  0.50400001928E-02 0.  1.
        1   -1    0    0  501    0  0.00000000000E+00  0.00000000000E+00 -0.17205457074E+04  0.17205457074E+04  0.50400001928E-02 0. -1.
    10030    2    1    2    0    0  0.00000000000E+00  0.00000000000E+00 -0.40722746487E+03  0.30338639500E+04  0.30064091968E+04 0.  0.
        1    1    3    3  502    0  0.13306429440E+04  0.18415366902E+03  0.47715849766E+03  0.14255537346E+04  0.50400001928E-02 0.  1.
       -1    1    3    3    0  502 -0.13306429440E+04 -0.18415366902E+03 -0.88438596253E+03  0.16083102154E+04  0.50400001928E-02 0. -1.
</event>
<event>
 5   0  0.5281187E-07  0.2935842E+04  0.7818609E-02  0.8262293E-01
        1   -1    0    0  501    0  0.00000000000E+00  0.00000000000E+00  0.11868415374E+04  0.11868415374E+04  0.50400001928E-02 0.  1.
       -1   -1    0    0    0  501  0.00000000000E+00  0.00000000000E+00 -0.18155687806E+04  0.18155687806E+04  0.50400001928E-02 0. -1.
    10030    2    1    2    0    0  0.00000000000E+00  0.00000000000E+00 -0.62872724322E+03  0.30024103179E+04  0.29358422592E+04 0.  0.
        5    1    3    3  502    0 -0.36516238911E+03 -0.13978671156E+04 -0.48873149173E+02  0.14456094625E+04  0.46999998093E+01 0.  1.
       -5    1    3    3    0  502  0.36516238911E+03  0.13978671156E+04 -0.57985409404E+03  0.15568008555E+04  0.46999998093E+01 0. -1.
</event>
<event>
 5   0  0.1556396E-06  0.3147894E+04  0.7818609E-02  0.8202715E-01
       -2   -1    0    0    0  501  0.00000000000E+00  0.00000000000E+00  0.13266410616E+04  0.13266410616E+04  0.25500000920E-02 0. -1.
        2   -1    0    0  501    0  0.00000000000E+00  0.00000000000E+00 -0.18673541633E+04  0.18673541633E+04  0.25500000920E-02 0.  1.
    10030    2    1    2    0    0  0.00000000000E+00  0.00000000000E+00 -0.54071310173E+03  0.31939952248E+04  0.31478937145E+04 0.  0.
        3    1    3    3  502    0  0.16807305091E+03  0.11235261626E+04 -0.13756908829E+04  0.17841202326E+04  0.10100000352E+00 0.  1.
       -3    1    3    3    0  502 -0.16807305091E+03 -0.11235261626E+04  0.83497778122E+03  0.14098749923E+04  0.10100000352E+00 0. -1.
</event>
<event>
 5   0  0.1493485E-06  0.2986323E+04  0.7818609E-02  0.8247647E-01
        2   -1    0    0  501    0  0.00000000000E+00  0.00000000000E+00  0.24332885401E+04  0.24332885401E+04  0.25500000920E-02 0.  1.
       -2   -1    0    0    0  501  0.00000000000E+00  0.00000000000E+00 -0.91626283806E+03  0.91626283807E+03  0.25500000920E-02 0. -1.
    10030    2    1    2    0    0  0.00000000000E+00  0.00000000000E+00  0.15170257020E+04  0.33495513782E+04  0.29863234008E+04 0.  0.
        2    1    3    3  502    0 -0.11819791290E+04 -0.88733323206E+03  0.52032295704E+03  0.15668984989E+04  0.25500000920E-02 0.  1.
       -2    1    3    3    0  502  0.11819791290E+04  0.88733323206E+03  0.99670274499E+03  0.17826528793E+04  0.25500000920E-02 0. -1.
</event>
<event>
 5   0  0.5281187E-07  0.3166790E+04  0.7818609E-02  0.8197643E-01
        1   -1    0    0  501    0  0.00000000000E+00  0.00000000000E+00  0.17726459049E+04  0.17726459049E+04  0.50400001928E-02 0. -1.
       -1   -1    0    0    0  501  0.00000000000E+00  0.00000000000E+00 -0.14143486844E+04  0.14143486844E+04  0.50400001928E-02 0.  1.
    10030    2    1    2    0    0  0.00000000000E+00  0.00000000000E+00  0.35829722050E+03  0.31869945893E+04  0.31667897963E+04 0.  0.
        5    1    3    3  502    0 -0.81394240958E+03 -0.73975324562E+03 -0.96714460672E+03  0.14646255121E+04  0.46999998093E+01 0.  1.
       -5    1    3    3    0  502  0.81394240958E+03  0.73975324562E+03  0.13254418272E+04  0.17223690771E+04  0.46999998093E+01 0. -1.
</event>
<event>
 5   0  0.1556396E-06  0.3191618E+04  0.7818609E-02  0.8191034E-01
       -2   -1    0    0    0  501  0.00000000000E+00  0.00000000000E+00  0.13250885449E+04  0.13250885449E+04  0.25500000920E-02 0.  1.
        2   -1    0    0  501    0  0.00000000000E+00  0.00000000000E+00 -0.19218387792E+04  0.19218387792E+04  0.25500000920E-02 0. -1.
    10030    2    1    2    0    0  0.00000000000E+00  0.00000000000E+00 -0.59675023433E+03  0.32469273241E+04  0.31916181171E+04 0.  0.
        3    1    3    3  502    0 -0.10771084315E+04  0.50575072259E+03  0.78337685059E+03  0.14246493136E+04  0.10100000352E+00 0.  1.
       -3    1    3    3    0  502  0.10771084315E+04 -0.50575072259E+03 -0.13801270849E+04  0.18222780104E+04  0.10100000352E+00 0. -1.
</event>
<event>
 5   0  0.1538349E-06  0.3183648E+04  0.7818609E-02  0.8193149E-01
       -2   -1    0    0    0  501  0.00000000000E+00  0.00000000000E+00  0.17209557647E+04  0.17209557647E+04  0.25500000920E-02 0.  1.
        2   -1    0    0  501    0  0.00000000000E+00  0.00000000000E+00 -0.14723812020E+04  0.14723812020E+04  0.25500000920E-02 0. -1.
    10030    2    1    2    0    0  0.00000000000E+00  0.00000000000E+00  0.24857456268E+03  0.31933369667E+04  0.31836475417E+04 0.  0.
        1    1    3    3  502    0 -0.17889973239E+03  0.84853337868E+03  0.14632240852E+04  0.17008935100E+04  0.50400001928E-02 0.  1.
       -1    1    3    3    0  502  0.17889973239E+03 -0.84853337868E+03 -0.12146495225E+04  0.14924434567E+04  0.50400001928E-02 0. -1.
</event>
<event>
 5   0  0.1508771E-06  0.3196484E+04  0.7818609E-02  0.8189746E-01
        2   -1    0    0  501    0  0.00000000000E+00  0.00000000000E+00  0.19715337445E+04  0.19715337445E+04  0.25500000920E-02 0.  1.
       -2   -1    0    0    0  501  0.00000000000E+00  0.00000000000E+00 -0.12956293693E+04  0.12956293693E+04  0.25500000920E-02 0. -1.
    10030    2    1    2    0    0  0.00000000000E+00  0.00000000000E+00  0.67590437518E+03  0.32671631139E+04  0.31964837069E+04 0.  0.
        4    1    3    3  502    0 -0.12716634117E+04 -0.33914940743E+03  0.12647686271E+04  0.18253195463E+04  0.12699999809E+01 0.  1.
       -4    1    3    3    0  502  0.12716634117E+04  0.33914940743E+03 -0.58886425189E+03  0.14418435676E+04  0.12699999809E+01 0. -1.
</event>
<event>
 5   0  0.1493485E-06  0.3213468E+04  0.7818609E-02  0.8185269E-01
        2   -1    0    0  501    0  0.00000000000E+00  0.00000000000E+00  0.18783015986E+04  0.18783015986E+04  0.25500000920E-02 0. -1.
       -2   -1    0    0    0  501  0.00000000000E+00  0.00000000000E+00 -0.13744303381E+04  0.13744303381E+04  0.25500000920E-02 0.  1.
    10030    2    1    2    0    0  0.00000000000E+00  0.00000000000E+00  0.50387126049E+03  0.32527319368E+04  0.32134683452E+04 0.  0.
        2    1    3    3  502    0  0.37728681941E+03  0.14423033604E+04 -0.35456009836E+03  0.15324154759E+04  0.25500000920E-02 0.  1.
       -2    1    3    3    0  502 -0.37728681941E+03 -0.14423033604E+04  0.85843135885E+03  0.17203164608E+04  0.25500000920E-02 0. -1.
</event>
<event>
 5   0  0.5281187E-07  0.3205513E+04  0.7818609E-02  0.8187363E-01
       -1   -1    0    0    0  501  0.00000000000E+00  0.00000000000E+00  0.15221327788E+04  0.15221327788E+04  0.50400001928E-02 0.  1.
        1   -1    0    0  501    0  0.00000000000E+00  0.00000000000E+00 -0.16876508426E+04  0.16876508426E+04  0.50400001928E-02 0. -1.
    10030    2    1    2    0    0  0.00000000000E+00  0.00000000000E+00 -0.16551806379E+03  0.32097836214E+04  0.32055131675E+04 0.  0.
        5    1    3    3  502    0 -0.22928018294E+02 -0.40484799354E+03  0.14699127246E+04  0.15248255966E+04  0.46999998093E+01 0.  1.
       -5    1    3    3    0  502  0.22928018294E+02  0.40484799354E+03 -0.16354307884E+04  0.16849580249E+04  0.46999998093E+01 0. -1.
</event>
<event>
 5   0  0.1493485E-06  0.2980115E+04  0.7818609E-02  0.8249432E-01
       -2   -1    0    0    0  501  0.00000000000E+00  0.00000000000E+00  0.23358522047E+04  0.23358522047E+04  0.25500000920E-02 0. -1.
        2   -1    0    0  501    0  0.00000000000E+00  0.00000000000E+00 -0.95051895666E+03  0.95051895666E+03  0.25500000920E-02 0.  1.
    10030    2    1    2    0    0  0.00000000000E+00  0.00000000000E+00  0.13853332480E+04  0.32863711614E+04  0.29801153001E+04 0.  0.
        2    1    3    3  502    0  0.10711781778E+04  0.10074706981E+04  0.95790867245E+03  0.17549954191E+04  0.25500000920E-02 0.  1.
       -2    1    3    3    0  502 -0.10711781778E+04 -0.10074706981E+04  0.42742457559E+03  0.15313757423E+04  0.25500000920E-02 0. -1.
</event>
<event>
 5   0  0.5281187E-07  0.3200922E+04  0.7818609E-02  0.8188574E-01
       -1   -1    0    0    0  501  0.00000000000E+00  0.00000000000E+00  0.16969405757E+04  0.16969405757E+04  0.50400001928E-02 0. -1.
        1   -1    0    0  501    0  0.00000000000E+00  0.00000000000E+00 -0.15094664177E+04  0.15094664177E+04  0.50400001928E-02 0.  1.
    10030    2    1    2    0    0  0.00000000000E+00  0.00000000000E+00  0.18747415801E+03  0.32064069934E+04  0.32009216247E+04 0.  0.
        5    1    3    3  502    0 -0.11393240669E+04 -0.23999335370E+03 -0.10062323900E+04  0.15388898115E+04  0.46999998093E+01 0.  1.
       -5    1    3    3    0  502  0.11393240669E+04  0.23999335370E+03  0.11937065480E+04  0.16675171819E+04  0.46999998093E+01 0. -1.
</event>
<event>
 5   0  0.5233813E-07  0.3102326E+04  0.7818609E-02  0.8215100E-01
       -1   -1    0    0    0  501  0.00000000000E+00  0.00000000000E+00  0.82530235885E+03  0.82530235886E+03  0.50400001928E-02 0. -1.
        1   -1    0    0  501    0  0.00000000000E+00  0.00000000000E+00 -0.29154241961E+04  0.29154241961E+04  0.50400001928E-02 0.  1.
    10030    2    1    2    0    0  0.00000000000E+00  0.00000000000E+00 -0.20901218373E+04  0.37407265550E+04  0.31023258798E+04 0.  0.
        4    1    3    3  502    0  0.11414109263E+04 -0.62167026891E+03 -0.20659326751E+04  0.24407728811E+04  0.12699999809E+01 0. -1.
       -4    1    3    3    0  502 -0.11414109263E+04  0.62167026891E+03 -0.24189162136E+02  0.12999536739E+04  0.12699999809E+01 0.  1.
</event>
<event>
 5   0  0.5317728E-07  0.3304599E+04  0.7818609E-02  0.8161726E-01
       -1   -1    0    0    0  501  0.00000000000E+00  0.00000000000E+00  0.14772200939E+04  0.14772200939E+04  0.50400001928E-02 0.  1.
        1   -1    0    0  501    0  0.00000000000E+00  0.00000000000E+00 -0.18481289966E+04  0.18481289966E+04  0.50400001928E-02 0. -1.
    10030    2    1    2    0    0  0.00000000000E+00  0.00000000000E+00 -0.37090890272E+03  0.33253490906E+04  0.33045987896E+04 0.  0.
        2    1    3    3  502    0  0.47670699503E+03 -0.36757012729E+03 -0.17338614896E+04  0.18353836173E+04  0.25500000920E-02 0. -1.
       -2    1    3    3    0  502 -0.47670699503E+03  0.36757012729E+03  0.13629525868E+04  0.14899654733E+04  0.25500000920E-02 0.  1.
</event>
<event>
 5   0  0.5233813E-07  0.3188472E+04  0.7818609E-02  0.8191868E-01
       -1   -1    0    0    0  501  0.00000000000E+00  0.00000000000E+00  0.15888447087E+04  0.15888447087E+04  0.50400001928E-02 0.  1.
        1   -1    0    0  501    0  0.00000000000E+00  0.00000000000E+00 -0.15996450946E+04  0.15996450946E+04  0.50400001928E-02 0. -1.
    10030    2    1    2    0    0  0.00000000000E+00  0.00000000000E+00 -0.10800385867E+02  0.31884898033E+04  0.31884715112E+04 0.  0.
        4    1    3    3  502    0  0.10163859712E+04 -0.86901898730E+03  0.86256307400E+03  0.15913048458E+04  0.12699999809E+01 0.  1.
       -4    1    3    3    0  502 -0.10163859712E+04  0.86901898730E+03 -0.87336345987E+03  0.15971849576E+04  0.12699999809E+01 0. -1.
</event>
<event>
 5   0  0.1538349E-06  0.3199938E+04  0.7818609E-02  0.8188834E-01
       -2   -1    0    0    0  501  0.00000000000E+00  0.00000000000E+00  0.14817720297E+04  0.14817720297E+04  0.25500000920E-02 0.  1.
        2   -1    0    0  501    0  0.00000000000E+00  0.00000000000E+00 -0.17275941245E+04  0.17275941245E+04  0.25500000920E-02 0. -1.
    10030    2    1    2    0    0  0.00000000000E+00  0.00000000000E+00 -0.24582209475E+03  0.32093661542E+04  0.31999379072E+04 0.  0.
        1    1    3    3  502    0 -0.13235934433E+03 -0.15931357146E+04 -0.18868056225E+03  0.16097207073E+04  0.50400001928E-02 0. -1.
       -1    1    3    3    0  502  0.13235934433E+03  0.15931357146E+04 -0.57141532497E+02  0.15996454469E+04  0.50400001928E-02 0.  1.
</event>
<event>
 5   0  0.1508771E-06  0.3224032E+04  0.7818609E-02  0.8182499E-01
       -2   -1    0    0    0  501  0.00000000000E+00  0.00000000000E+00  0.10998194837E+04  0.10998194837E+04  0.25500000920E-02 0.  1.
        2   -1    0    0  501    0  0.00000000000E+00  0.00000000000E+00 -0.23627467216E+04  0.23627467216E+04  0.25500000920E-02 0. -1.
    10030    2    1    2    0    0  0.00000000000E+00  0.00000000000E+00 -0.12629272379E+04  0.34625662053E+04  0.32240315628E+04 0.  0.
        4    1    3    3  502    0 -0.50063101491E+03  0.14668304367E+04 -0.15554058032E+03  0.15576961925E+04  0.12699999809E+01 0.  1.
       -4    1    3    3    0  502  0.50063101491E+03 -0.14668304367E+04 -0.11073866575E+04  0.19048700127E+04  0.12699999809E+01 0. -1.
</event>
<event>
 5   0  0.5177039E-07  0.3143314E+04  0.7818609E-02  0.8203950E-01
       -1   -1    0    0    0  501  0.00000000000E+00  0.00000000000E+00  0.18902598519E+04  0.18902598519E+04  0.50400001928E-02 0.  1.
        1   -1    0    0  501    0  0.00000000000E+00  0.00000000000E+00 -0.13067547653E+04  0.13067547653E+04  0.50400001928E-02 0. -1.
    10030    2    1    2    0    0  0.00000000000E+00  0.00000000000E+00  0.58350508655E+03  0.31970146172E+04  0.31433142186E+04 0.  0.
        3    1    3    3  502    0  0.98263632041E+03  0.31065050450E+03  0.14986281210E+04  0.18187809460E+04  0.10100000352E+00 0.  1.
       -3    1    3    3    0  502 -0.98263632041E+03 -0.31065050450E+03 -0.91512303446E+03  0.13782336712E+04  0.10100000352E+00 0. -1.
</event>
<event>
 5   0  0.1556396E-06  0.3200265E+04  0.7818609E-02  0.8188747E-01
       -2   -1    0    0    0  501  0.00000000000E+00  0.00000000000E+00  0.13703576341E+04  0.13703576341E+04  0.25500000920E-02 0.  1.
        2   -1    0    0  501    0  0.00000000000E+00  0.00000000000E+00 -0.18684348236E+04  0.18684348236E+04  0.25500000920E-02 0. -1.
    10030    2    1    2    0    0  0.00000000000E+00  0.00000000000E+00 -0.49807718952E+03  0.32387924577E+04  0.32002649417E+04 0.  0.
        3    1    3    3  502    0 -0.11807434196E+03 -0.74356161561E+03 -0.16779853054E+04  0.18391465743E+04  0.10100000352E+00 0. -1.
       -3    1    3    3    0  502  0.11807434196E+03  0.74356161561E+03  0.11799081159E+04  0.13996458833E+04  0.10100000352E+00 0.  1.
</event>
<event>
 5   0  0.5177039E-07  0.3155115E+04  0.7818609E-02  0.8200773E-01
        1   -1    0    0  501    0  0.00000000000E+00  0.00000000000E+00  0.15178352574E+04  0.15178352574E+04  0.50400001928E-02 0. -1.
       -1   -1    0    0    0  501  0.00000000000E+00  0.00000000000E+00 -0.16396295822E+04  0.16396295822E+04  0.50400001928E-02 0.  1.
    10030    2    1    2    0    0  0.00000000000E+00  0.00000000000E+00 -0.12179432482E+03  0.31574648395E+04  0.31551149512E+04 0.  0.
        3    1    3    3  502    0  0.10485011301E+04  0.80778240961E+03 -0.91991898681E+03  0.16118678586E+04  0.10100000352E+00 0.  1.
       -3    1    3    3    0  502 -0.10485011301E+04 -0.80778240961E+03  0.79812466199E+03  0.15455969809E+04  0.10100000352E+00 0. -1.
</event>
<event>
 5   0  0.5317728E-07  0.3200510E+04  0.7818609E-02  0.8188683E-01
       -1   -1    0    0    0  501  0.00000000000E+00  0.00000000000E+00  0.18713107628E+04  0.18713107628E+04  0.50400001928E-02 0. -1.
        1   -1    0    0  501    0  0.00000000000E+00  0.00000000000E+00 -0.13684607847E+04  0.13684607847E+04  0.50400001928E-02 0.  1.
    10030    2    1    2    0    0  0.00000000000E+00  0.00000000000E+00  0.50284997814E+03  0.32397715475E+04  0.32005095812E+04 0.  0.
        2    1    3    3  502    0 -0.62937794289E+03  0.97967065143E+03 -0.85974045209E+03  0.14474200583E+04  0.25500000920E-02 0.  1.
       -2    1    3    3    0  502  0.62937794289E+03 -0.97967065143E+03  0.13625904302E+04  0.17923514892E+04  0.25500000920E-02 0. -1.
</event>
<event>
 5   0  0.1493485E-06  0.3200556E+04  0.7818609E-02  0.8188670E-01
       -2   -1    0    0    0  501  0.00000000000E+00  0.00000000000E+00  0.11382585219E+04  0.11382585219E+04  0.25500000920E-02 0.  1.
        2   -1    0    0  501    0  0.00000000000E+00  0.00000000000E+00 -0.22498318697E+04  0.22498318697E+04  0.25500000920E-02 0. -1.
    10030    2    1    2    0    0  0.00000000000E+00  0.00000000000E+00 -0.11115733478E+04  0.33880903916E+04  0.32005563882E+04 0.  0.
        2    1    3    3  502    0 -0.35400207731E+03 -0.61365321760E+03  0.96321393602E+03  0.11956875966E+04  0.25500000920E-02 0.  1.
       -2    1    3    3    0  502  0.35400207731E+03  0.61365321760E+03 -0.20747872839E+04  0.21924027950E+04  0.25500000920E-02 0. -1.
</event>
<event>
 5   0  0.5281187E-07  0.3195654E+04  0.7818609E-02  0.8189966E-01
        1   -1    0    0  501    0  0.00000000000E+00  0.00000000000E+00  0.15676904816E+04  0.15676904816E+04  0.50400001928E-02 0. -1.
       -1   -1    0    0    0  501  0.00000000000E+00  0.00000000000E+00 -0.16285425115E+04  0.16285425115E+04  0.50400001928E-02 0.  1.
    10030    2    1    2    0    0  0.00000000000E+00  0.00000000000E+00 -0.60852029961E+02  0.31962329931E+04  0.31956536697E+04 0.  0.
        5    1    3    3  502    0  0.62869480286E+03  0.13030469117E+04 -0.70866405140E+03  0.16110292477E+04  0.46999998093E+01 0.  1.
       -5    1    3    3    0  502 -0.62869480286E+03 -0.13030469117E+04  0.64781202144E+03  0.15852037454E+04  0.46999998093E+01 0. -1.
</event>
<event>
 5   0  0.5370912E-07  0.3203942E+04  0.7818609E-02  0.8187777E-01
       -1   -1    0    0    0  501  0.00000000000E+00  0.00000000000E+00  0.11099362935E+04  0.11099362935E+04  0.50400001928E-02 0. -1.
        1   -1    0    0  501    0  0.00000000000E+00  0.00000000000E+00 -0.23121243002E+04  0.23121243002E+04  0.50400001928E-02 0.  1.
    10030    2    1    2    0    0  0.00000000000E+00  0.00000000000E+00 -0.12021880067E+04  0.34220605936E+04  0.32039417446E+04 0.  0.
        1    1    3    3  502    0 -0.10172765916E+04 -0.74783210323E+03 -0.16542246906E+04  0.20810006837E+04  0.50400001928E-02 0.  1.
       -1    1    3    3    0  502  0.10172765916E+04  0.74783210323E+03  0.45203668388E+03  0.13410599099E+04  0.50400001928E-02 0. -1.
</event>
<event>
 5   0  0.1508771E-06  0.3174636E+04  0.7818609E-02  0.8195548E-01
        2   -1    0    0  501    0  0.00000000000E+00  0.00000000000E+00  0.18558335323E+04  0.18558335323E+04  0.25500000920E-02 0. -1.
       -2   -1    0    0    0  501  0.00000000000E+00  0.00000000000E+00 -0.13576528559E+04  0.13576528559E+04  0.25500000920E-02 0.  1.
    10030    2    1    2    0    0  0.00000000000E+00  0.00000000000E+00  0.49818067639E+03  0.32134863882E+04  0.31746355352E+04 0.  0.
        4    1    3    3  502    0 -0.45501550358E+03  0.52114801885E+03  0.16951888953E+04  0.18309291001E+04  0.12699999809E+01 0. -1.
       -4    1    3    3    0  502  0.45501550358E+03 -0.52114801885E+03 -0.11970082189E+04  0.13825572881E+04  0.12699999809E+01 0.  1.
</event>
<event>
 5   0  0.5370912E-07  0.3215304E+04  0.7818609E-02  0.8184787E-01
        1   -1    0    0  501    0  0.00000000000E+00  0.00000000000E+00  0.10785751970E+04  0.10785751970E+04  0.50400001928E-02 0. -1.
       -1   -1    0    0    0  501  0.00000000000E+00  0.00000000000E+00 -0.23962580089E+04  0.23962580089E+04  0.50400001928E-02 0.  1.
    10030    2    1    2    0    0  0.00000000000E+00  0.00000000000E+00 -0.13176828120E+04  0.34748332059E+04  0.32153036896E+04 0.  0.
        1    1    3    3  502    0 -0.70319594162E+03 -0.22545233261E+03  0.88444025088E+03  0.11521926245E+04  0.50400001928E-02 0. -1.
       -1    1    3    3    0  502  0.70319594162E+03  0.22545233261E+03 -0.22021230628E+04  0.23226405814E+04  0.50400001928E-02 0.  1.
</event>
<event>
 5   0  0.1508771E-06  0.3198888E+04  0.7818609E-02  0.8189111E-01
       -2   -1    0    0    0  501  0.00000000000E+00  0.00000000000E+00  0.10831535094E+04  0.10831535094E+04  0.25500000920E-02 0.  1.
        2   -1    0    0  501    0  0.00000000000E+00  0.00000000000E+00 -0.23618267202E+04  0.23618267202E+04  0.25500000920E-02 0. -1.
    10030    2    1    2    0    0  0.00000000000E+00  0.00000000000E+00 -0.12786732108E+04  0.34449802297E+04  0.31988878696E+04 0.  0.
        4    1    3    3  502    0 -0.10796579987E+04 -0.84164296373E+03  0.25145818745E+03  0.13918538377E+04  0.12699999809E+01 0.  1.
       -4    1    3    3    0  502  0.10796579987E+04  0.84164296373E+03 -0.15301313983E+04  0.20531263920E+04  0.12699999809E+01 0. -1.
</event>
<event>
 5   0  0.1572769E-06  0.3303277E+04  0.7818609E-02  0.8162062E-01
        2   -1    0    0  501    0  0.00000000000E+00  0.00000000000E+00  0.20977226347E+04  0.20977226347E+04  0.25500000920E-02 0.  1.
       -2   -1    0    0    0  501  0.00000000000E+00  0.00000000000E+00 -0.13004149220E+04  0.13004149220E+04  0.25500000920E-02 0. -1.
    10030    2    1    2    0    0  0.00000000000E+00  0.00000000000E+00  0.79730771262E+03  0.33981375567E+04  0.33032770495E+04 0.  0.
        5    1    3    3  502    0 -0.11324805798E+04 -0.11480112381E+03 -0.83245713411E+03  0.14102122293E+04  0.46999998093E+01 0. -1.
       -5    1    3    3    0  502  0.11324805798E+04  0.11480112381E+03  0.16297648467E+04  0.19879253274E+04  0.46999998093E+01 0.  1.
</event>
<event>
 5   0  0.5233813E-07  0.3166728E+04  0.7818609E-02  0.8197660E-01
       -1   -1    0    0    0  501  0.00000000000E+00  0.00000000000E+00  0.13283890727E+04  0.13283890727E+04  0.50400001928E-02 0. -1.
        1   -1    0    0  501    0  0.00000000000E+00  0.00000000000E+00 -0.18872790912E+04  0.18872790912E+04  0.50400001928E-02 0.  1.
    10030    2    1    2    0    0  0.00000000000E+00  0.00000000000E+00 -0.55889001849E+03  0.32156681639E+04  0.31667275992E+04 0.  0.
        4    1    3    3  502    0  0.29395855944E+03  0.79054699463E+03  0.10812880960E+04  0.13713357520E+04  0.12699999809E+01 0. -1.
       -4    1    3    3    0  502 -0.29395855944E+03 -0.79054699463E+03 -0.16401781145E+04  0.18443324118E+04  0.12699999809E+01 0.  1.
</event>
<event>
 5   0  0.1572769E-06  0.3199283E+04  0.7818609E-02  0.8189006E-01
       -2   -1    0    0    0  501  0.00000000000E+00  0.00000000000E+00  0.14681660222E+04  0.14681660222E+04  0.25500000920E-02 0.  1.
        2   -1    0    0  501    0  0.00000000000E+00  0.00000000000E+00 -0.17428912269E+04  0.17428912269E+04  0.25500000920E-02 0. -1.
    10030    2    1    2    0    0  0.00000000000E+00  0.00000000000E+00 -0.27472520475E+03  0.32110572491E+04  0.31992834696E+04 0.  0.
        5    1    3    3  502    0 -0.82174793415E+03 -0.12768516646E+03 -0.15088680590E+04  0.17228691415E+04  0.46999998093E+01 0. -1.
       -5    1    3    3    0  502  0.82174793415E+03  0.12768516646E+03  0.12341428543E+04  0.14881881077E+04  0.46999998093E+01 0.  1.
</event>
<event>
 5   0  0.5317728E-07  0.3205931E+04  0.7818609E-02  0.8187252E-01
        1   -1    0    0  501    0  0.00000000000E+00  0.00000000000E+00  0.19420478197E+04  0.19420478197E+04  0.50400001928E-02 0. -1.
       -1   -1    0    0    0  501  0.00000000000E+00  0.00000000000E+00 -0.13230874922E+04  0.13230874922E+04  0.50400001928E-02 0.  1.
    10030    2    1    2    0    0  0.00000000000E+00  0.00000000000E+00  0.61896032747E+03  0.32651353119E+04  0.32059314900E+04 0.  0.
        2    1    3    3  502    0  0.54799227196E+03 -0.13879010427E+04 -0.28694016462E+03  0.15195063319E+04  0.25500000920E-02 0.  1.
       -2    1    3    3    0  502 -0.54799227196E+03  0.13879010427E+04  0.90590049208E+03  0.17456289801E+04  0.25500000920E-02 0. -1.
</event>
<event>
 5   0  0.1493485E-06  0.3204630E+04  0.7818609E-02  0.8187595E-01
       -2   -1    0    0    0  501  0.00000000000E+00  0.00000000000E+00  0.13255429171E+04  0.13255429171E+04  0.25500000920E-02 0. -1.
        2   -1    0    0  501    0  0.00000000000E+00  0.00000000000E+00 -0.19368769502E+04  0.19368769502E+04  0.25500000920E-02 0.  1.
    10030    2    1    2    0    0  0.00000000000E+00  0.00000000000E+00 -0.61133403311E+03  0.32624198674E+04  0.32046301020E+04 0.  0.
        2    1    3    3  502    0  0.81990122785E+03  0.97974798011E+03  0.67886604978E+03  0.14467215494E+04  0.25500000920E-02 0. -1.
       -2    1    3    3    0  502 -0.81990122785E+03 -0.97974798011E+03 -0.12902000829E+04  0.18156983180E+04  0.25500000920E-02 0.  1.
</event>
<event>
 5   0  0.5281187E-07  0.3194412E+04  0.7818609E-02  0.8190294E-01
       -1   -1    0    0    0  501  0.00000000000E+00  0.00000000000E+00  0.16694080037E+04  0.16694080037E+04  0.50400001928E-02 0. -1.
        1   -1    0    0  501    0  0.00000000000E+00  0.00000000000E+00 -0.15281270540E+04  0.15281270540E+04  0.50400001928E-02 0.  1.
    10030    2    1    2    0    0  0.00000000000E+00  0.00000000000E+00  0.14128094971E+03  0.31975350578E+04  0.31944123307E+04 0.  0.
        5    1    3    3  502    0 -0.79080180956E+03  0.71837436141E+03 -0.11177927513E+04  0.15462574010E+04  0.46999998093E+01 0.  1.
       -5    1    3    3    0  502  0.79080180956E+03 -0.71837436141E+03  0.12590737010E+04  0.16512776568E+04  0.46999998093E+01 0. -1.
</event>
</LesHouchesEvents>
