<LesHouchesEvents version="3.0">
<header>
<!--
#*********************************************************************
#                                                                    *
#                        MadGraph5_aMC@NLO                           *
#                                                                    *
#                           Going Beyond                             *
#                                                                    *
#                   http://madgraph.hep.uiuc.edu                     *
#                   http://madgraph.phys.ucl.ac.be                   *
#                   http://amcatnlo.cern.ch                          *
#                                                                    *
#                     The MadGraph5_aMC@NLO team                     *
#                                                                    *
#....................................................................*
#                                                                    *
# This file contains all the information necessary to reproduce      *
# the events generated:                                              *
#                                                                    *
# 1. software version                                                *
# 2. proc_card          : code generation info including model       *
# 3. param_card         : model primary parameters in the LH format  *
# 4. run_card           : running parameters (collider and cuts)     *
# 5. pythia_card        : present only if pythia has been run        *
# 6. pgs_card           : present only if pgs has been run           *
# 7. delphes_cards      : present only if delphes has been run       *
#                                                                    *
#                                                                    *
#*********************************************************************
-->
<MGVersion>
#5.2.2.3
</MGVersion>
<MG5ProcCard>
#************************************************************
#*                     MadGraph5_aMC@NLO                    *
#*                                                          *
#*                *                       *                 *
#*                  *        * *        *                   *
#*                    * * * * 5 * * * *                     *
#*                  *        * *        *                   *
#*                *                       *                 *
#*                                                          *
#*                                                          *
#*         VERSION 2.2.3                 2015-02-10         *
#*                                                          *
#*    The MadGraph5_aMC@NLO Development Team - Find us at   *
#*    https://server06.fynu.ucl.ac.be/projects/madgraph     *
#*                                                          *
#************************************************************
#*                                                          *
#*               Command File for MadGraph5_aMC@NLO         *
#*                                                          *
#*     run as ./bin/mg5_aMC  filename                       *
#*                                                          *
#************************************************************
set group_subprocesses Auto
set ignore_six_quark_processes False
set loop_optimized_output True
set gauge unitary
set complex_mass_scheme False
import model sm
define p = g u c d s u~ c~ d~ s~
define j = g u c d s u~ c~ d~ s~
define l+ = e+ mu+
define l- = e- mu-
define vl = ve vm vt
define vl~ = ve~ vm~ vt~
import model Zprime_UFO
generate p p > zph, zph > j j
add process p p > zph, zph > b b~
output Dijet_signal
</MG5ProcCard>
<MGProcCard>
#*********************************************************************
#                        MadGraph/MadEvent                           *
#                   http://madgraph.hep.uiuc.edu                     *
#                                                                    *
#                          proc_card.dat                             *
#*********************************************************************
#                                                                    *
#            This Files is generated by MADGRAPH 5                   *
#                                                                    *
# WARNING: This Files is generated for MADEVENT (compatibility issue)*
#          This files is NOT a valid MG4 proc_card.dat               *
#          Running this in MG4 will NEVER reproduce the result of MG5*
#                                                                    *
#*********************************************************************
#*********************************************************************
# Process(es) requested : mg2 input                                  *
#*********************************************************************
# Begin PROCESS # This is TAG. Do not modify this line
p p > zph , zph > j j           #Process
# Be carefull the coupling are here in MG5 convention
          
end_coup           # End the couplings input

done               # this tells MG there are no more procs
# End PROCESS  # This is TAG. Do not modify this line
#*********************************************************************
# Model information                                                  *
#*********************************************************************
# Begin MODEL  # This is TAG. Do not modify this line
Zprime_UFO
# End   MODEL  # This is TAG. Do not modify this line
#*********************************************************************
# Start multiparticle definitions                                    *
#*********************************************************************
# Begin MULTIPARTICLES # This is TAG. Do not modify this line

# End  MULTIPARTICLES # This is TAG. Do not modify this line
</MGProcCard>
<MGRunCard>
#*********************************************************************
#                       MadGraph5_aMC@NLO                            *
#                                                                    *
#                     run_card.dat MadEvent                          *
#                                                                    *
#  This file is used to set the parameters of the run.               *
#                                                                    *
#  Some notation/conventions:                                        *
#                                                                    *
#   Lines starting with a '# ' are info or comments                  *
#                                                                    *
#   mind the format:   value    = variable     ! comment             *
#*********************************************************************
#
#*******************                                                 
# Running parameters
#*******************                                                 
#                                                                    
#*********************************************************************
# Tag name for the run (one word)                                    *
#*********************************************************************
  tag_1     = run_tag ! name of the run 
#*********************************************************************
# Run to generate the grid pack                                      *
#*********************************************************************
  .false.     = gridpack  !True = setting up the grid pack
#*********************************************************************
# Number of events and rnd seed                                      *
# Warning: Do not generate more than 1M events in a single run       *
# If you want to run Pythia, avoid more than 50k events in a run.    *
#*********************************************************************
  2000 = nevents ! Number of unweighted events requested 
 2829 = iseed   ! rnd seed (0=assigned automatically=default))
#*********************************************************************
# Collider type and energy                                           *
# lpp: 0=No PDF, 1=proton, -1=antiproton, 2=photon from proton,      *
#                                         3=photon from electron     *
#*********************************************************************
        1     = lpp1    ! beam 1 type 
        1     = lpp2    ! beam 2 type
     4000     = ebeam1  ! beam 1 total energy in GeV
     4000     = ebeam2  ! beam 2 total energy in GeV
#*********************************************************************
# Beam polarization from -100 (left-handed) to 100 (right-handed)    *
#*********************************************************************
        0     = polbeam1 ! beam polarization for beam 1
        0     = polbeam2 ! beam polarization for beam 2
#*********************************************************************
# PDF CHOICE: this automatically fixes also alpha_s and its evol.    *
#*********************************************************************
 'nn23lo1'    = pdlabel     ! PDF set                                     
 230000    = lhaid     ! if pdlabel=lhapdf, this is the lhapdf number
#*********************************************************************
# Renormalization and factorization scales                           *
#*********************************************************************
 F        = fixed_ren_scale  ! if .true. use fixed ren scale
 F        = fixed_fac_scale  ! if .true. use fixed fac scale
 91.1880  = scale            ! fixed ren scale
 91.1880  = dsqrt_q2fact1    ! fixed fact scale for pdf1
 91.1880  = dsqrt_q2fact2    ! fixed fact scale for pdf2
 1        = scalefact        ! scale factor for event-by-event scales
#*********************************************************************
# Matching - Warning! ickkw > 1 is still beta
#*********************************************************************
 0        = ickkw            ! 0 no matching, 1 MLM, 2 CKKW matching
 1        = highestmult      ! for ickkw=2, highest mult group
 1        = ktscheme         ! for ickkw=1, 1 Durham kT, 2 Pythia pTE
 1        = alpsfact         ! scale factor for QCD emission vx
 F        = chcluster        ! cluster only according to channel diag
 T        = pdfwgt           ! for ickkw=1, perform pdf reweighting
 5        = asrwgtflavor     ! highest quark flavor for a_s reweight
 T        = clusinfo         ! include clustering tag in output
 3.0      = lhe_version       ! Change the way clustering information pass to shower.        
#*********************************************************************
#**********************************************************
#
#**********************************************************
# Automatic ptj and mjj cuts if xqcut > 0
# (turn off for VBF and single top processes)
#**********************************************************
   T  = auto_ptj_mjj  ! Automatic setting of ptj and mjj
#**********************************************************
#                                                                    
#**********************************
# BW cutoff (M+/-bwcutoff*Gamma)
#**********************************
  15  = bwcutoff      ! (M+/-bwcutoff*Gamma)
#**********************************************************
# Apply pt/E/eta/dr/mij cuts on decay products or not
# (note that etmiss/ptll/ptheavy/ht/sorted cuts always apply)
#**********************************************************
   T  = cut_decays    ! Cut decay products 
#*************************************************************
# Number of helicities to sum per event (0 = all helicities)
# 0 gives more stable result, but longer run time (needed for
# long decay chains e.g.).
# Use >=2 if most helicities contribute, e.g. pure QCD.
#*************************************************************
   0  = nhel          ! Number of helicities used per event
#*******************                                                 
# Standard Cuts
#*******************                                                 
#                                                                    
#*********************************************************************
# Minimum and maximum pt's (for max, -1 means no cut)                *
#*********************************************************************
 20  = ptj       ! minimum pt for the jets 
  0  = ptb       ! minimum pt for the b 
 10  = pta       ! minimum pt for the photons 
 10  = ptl       ! minimum pt for the charged leptons 
  0  = misset    ! minimum missing Et (sum of neutrino's momenta)
  0  = ptheavy   ! minimum pt for one heavy final state
 1.0 = ptonium   ! minimum pt for the quarkonium states
 -1  = ptjmax    ! maximum pt for the jets
 -1  = ptbmax    ! maximum pt for the b
 -1  = ptamax    ! maximum pt for the photons
 -1  = ptlmax    ! maximum pt for the charged leptons
 -1  = missetmax ! maximum missing Et (sum of neutrino's momenta)
#*********************************************************************
# Minimum and maximum E's (in the center of mass frame)              *
#*********************************************************************
  0  = ej     ! minimum E for the jets 
  0  = eb     ! minimum E for the b 
  0  = ea     ! minimum E for the photons 
  0  = el     ! minimum E for the charged leptons 
 -1   = ejmax ! maximum E for the jets
 -1   = ebmax ! maximum E for the b
 -1   = eamax ! maximum E for the photons
 -1   = elmax ! maximum E for the charged leptons
#*********************************************************************
# Maximum and minimum absolute rapidity (for max, -1 means no cut)   *
#*********************************************************************
   5  = etaj    ! max rap for the jets 
  -1  = etab    ! max rap for the b
 2.5  = etaa    ! max rap for the photons 
 2.5  = etal    ! max rap for the charged leptons 
 0.6  = etaonium ! max rap for the quarkonium states
   0  = etajmin ! min rap for the jets
   0  = etabmin ! min rap for the b
   0  = etaamin ! min rap for the photons
   0  = etalmin ! main rap for the charged leptons
#*********************************************************************
# Minimum and maximum DeltaR distance                                *
#*********************************************************************
 0.4 = drjj    ! min distance between jets 
 0   = drbb    ! min distance between b's 
 0.4 = drll    ! min distance between leptons 
 0.4 = draa    ! min distance between gammas 
 0   = drbj    ! min distance between b and jet 
 0.4 = draj    ! min distance between gamma and jet 
 0.4 = drjl    ! min distance between jet and lepton 
 0   = drab    ! min distance between gamma and b 
 0   = drbl    ! min distance between b and lepton 
 0.4 = dral    ! min distance between gamma and lepton 
 -1  = drjjmax ! max distance between jets
 -1  = drbbmax ! max distance between b's
 -1  = drllmax ! max distance between leptons
 -1  = draamax ! max distance between gammas
 -1  = drbjmax ! max distance between b and jet
 -1  = drajmax ! max distance between gamma and jet
 -1  = drjlmax ! max distance between jet and lepton
 -1  = drabmax ! max distance between gamma and b
 -1  = drblmax ! max distance between b and lepton
 -1  = dralmax ! maxdistance between gamma and lepton
#*********************************************************************
# Minimum and maximum invariant mass for pairs                       *
# WARNING: for four lepton final state mmll cut require to have      *
#          different lepton masses for each flavor!                  *           
#*********************************************************************
 0   = mmjj    ! min invariant mass of a jet pair 
 0   = mmbb    ! min invariant mass of a b pair 
 0   = mmaa    ! min invariant mass of gamma gamma pair
 0   = mmll    ! min invariant mass of l+l- (same flavour) lepton pair
 -1  = mmjjmax ! max invariant mass of a jet pair
 -1  = mmbbmax ! max invariant mass of a b pair
 -1  = mmaamax ! max invariant mass of gamma gamma pair
 -1  = mmllmax ! max invariant mass of l+l- (same flavour) lepton pair
#*********************************************************************
# Minimum and maximum invariant mass for all letpons                 *
#*********************************************************************
 0   = mmnl    ! min invariant mass for all letpons (l+- and vl) 
 -1  = mmnlmax ! max invariant mass for all letpons (l+- and vl) 
#*********************************************************************
# Minimum and maximum pt for 4-momenta sum of leptons                *
#*********************************************************************
 0   = ptllmin  ! Minimum pt for 4-momenta sum of leptons(l and vl)
 -1  = ptllmax  ! Maximum pt for 4-momenta sum of leptons(l and vl)
#*********************************************************************
# Inclusive cuts                                                     *
#*********************************************************************
 0  = xptj ! minimum pt for at least one jet  
 0  = xptb ! minimum pt for at least one b 
 0  = xpta ! minimum pt for at least one photon 
 0  = xptl ! minimum pt for at least one charged lepton 
#*********************************************************************
# Control the pt's of the jets sorted by pt                          *
#*********************************************************************
 0   = ptj1min ! minimum pt for the leading jet in pt
 0   = ptj2min ! minimum pt for the second jet in pt
 0   = ptj3min ! minimum pt for the third jet in pt
 0   = ptj4min ! minimum pt for the fourth jet in pt
 -1  = ptj1max ! maximum pt for the leading jet in pt 
 -1  = ptj2max ! maximum pt for the second jet in pt
 -1  = ptj3max ! maximum pt for the third jet in pt
 -1  = ptj4max ! maximum pt for the fourth jet in pt
 0   = cutuse  ! reject event if fails any (0) / all (1) jet pt cuts
#*********************************************************************
# Control the pt's of leptons sorted by pt                           *
#*********************************************************************
 0   = ptl1min ! minimum pt for the leading lepton in pt
 0   = ptl2min ! minimum pt for the second lepton in pt
 0   = ptl3min ! minimum pt for the third lepton in pt
 0   = ptl4min ! minimum pt for the fourth lepton in pt
 -1  = ptl1max ! maximum pt for the leading lepton in pt 
 -1  = ptl2max ! maximum pt for the second lepton in pt
 -1  = ptl3max ! maximum pt for the third lepton in pt
 -1  = ptl4max ! maximum pt for the fourth lepton in pt
#*********************************************************************
# Control the Ht(k)=Sum of k leading jets                            *
#*********************************************************************
 0   = htjmin ! minimum jet HT=Sum(jet pt)
 -1  = htjmax ! maximum jet HT=Sum(jet pt)
 0   = ihtmin  !inclusive Ht for all partons (including b)
 -1  = ihtmax  !inclusive Ht for all partons (including b)
 0   = ht2min ! minimum Ht for the two leading jets
 0   = ht3min ! minimum Ht for the three leading jets
 0   = ht4min ! minimum Ht for the four leading jets
 -1  = ht2max ! maximum Ht for the two leading jets
 -1  = ht3max ! maximum Ht for the three leading jets
 -1  = ht4max ! maximum Ht for the four leading jets
#***********************************************************************
# Photon-isolation cuts, according to hep-ph/9801442                   *
# When ptgmin=0, all the other parameters are ignored                  *
# When ptgmin>0, pta and draj are not going to be used                 *
#***********************************************************************
   0 = ptgmin ! Min photon transverse momentum
 0.4 = R0gamma ! Radius of isolation code
 1.0 = xn ! n parameter of eq.(3.4) in hep-ph/9801442
 1.0 = epsgamma ! epsilon_gamma parameter of eq.(3.4) in hep-ph/9801442
 .true. = isoEM ! isolate photons from EM energy (photons and leptons)
#*********************************************************************
# WBF cuts                                                           *
#*********************************************************************
 0   = xetamin ! minimum rapidity for two jets in the WBF case  
 0   = deltaeta ! minimum rapidity for two jets in the WBF case 
#*********************************************************************
# KT DURHAM CUT                                                      *
#*********************************************************************
 -1    =  ktdurham        
 0.4  =  dparameter 
#*********************************************************************
# maximal pdg code for quark to be considered as a light jet         *
# (otherwise b cuts are applied)                                     *
#*********************************************************************
 4 = maxjetflavor    ! Maximum jet pdg code
#*********************************************************************
# Jet measure cuts                                                   *
#*********************************************************************
 0   = xqcut   ! minimum kt jet measure between partons
#*********************************************************************
#
#*********************************************************************
# Store info for systematics studies                                 *
# WARNING: If use_syst is T, matched Pythia output is                *
#          meaningful ONLY if plotted taking matchscale              *
#          reweighting into account!                                 *
#*********************************************************************
   F  = use_syst      ! Enable systematics studies
#
#**************************************
# Parameter of the systematics study
#  will be used by SysCalc (if installed)
#**************************************                                  
#
0.5 1 2 = sys_scalefact  # factorization/renormalization scale factor
0.5 1 2 = sys_alpsfact  # \alpha_s emission scale factors
30 50 = sys_matchscale # variation of merging scale
# PDF sets and number of members (0 or none for all members).
CT10nlo.LHgrid = sys_pdf # matching scales
# MSTW2008nlo68cl.LHgrid 1  = sys_pdf
</MGRunCard>
<slha>
######################################################################
## PARAM_CARD AUTOMATICALY GENERATED BY MG5 FOLLOWING UFO MODEL   ####
######################################################################
##                                                                  ##
##  Width set on Auto will be computed following the information    ##
##        present in the decay.py files of the model.               ##
##        See  arXiv:1402.1178 for more details.                    ##
##                                                                  ##
######################################################################

###################################
## INFORMATION FOR CKMBLOCK
###################################
Block ckmblock 
    1 2.277360e-01 # cabi 

###################################
## INFORMATION FOR FRBLOCK
###################################
Block frblock 
    1 1.600000e+00 # gz 

###################################
## INFORMATION FOR MASS
###################################
Block mass 
    1 5.040000e-03 # MD 
    2 2.550000e-03 # MU 
    3 1.010000e-01 # MS 
    4 1.270000e+00 # MC 
    5 4.700000e+00 # MB 
    6 1.720000e+02 # MT 
   11 5.110000e-04 # Me 
   13 1.056600e-01 # MM 
   15 1.777000e+00 # MTA 
   23 9.118760e+01 # MZ 
   25 1.200000e+02 # MH 
  10030 1.200000e+03 # MZph 
  10031 3.000000e+02 # MZpl 
## Dependent parameters, given by model restrictions.
## Those values should be edited following the 
## analytical expression. MG5 ignores those values 
## but they are important for interfacing the output of MG5
## to external program such as Pythia.
  12 0.000000 # ve : 0.0 
  14 0.000000 # vm : 0.0 
  16 0.000000 # vt : 0.0 
  21 0.000000 # g : 0.0 
  22 0.000000 # a : 0.0 
  24 79.824360 # w+ : cmath.sqrt(MZ__exp__2/2. + cmath.sqrt(MZ__exp__4/4. - (aEW*cmath.pi*MZ__exp__2)/(Gf*sqrt__2))) 

###################################
## INFORMATION FOR SMINPUTS
###################################
Block sminputs 
    1 1.279000e+02 # aEWM1 
    2 1.166370e-05 # Gf 
    3 1.184000e-01 # aS 

###################################
## INFORMATION FOR YUKAWA
###################################
Block yukawa 
    1 5.040000e-03 # ymdo 
    2 2.550000e-03 # ymup 
    3 1.010000e-01 # yms 
    4 1.270000e+00 # ymc 
    5 4.700000e+00 # ymb 
    6 1.720000e+02 # ymt 
   11 5.110000e-04 # yme 
   13 1.056600e-01 # ymm 
   15 1.777000e+00 # ymtau 

###################################
## INFORMATION FOR DECAY
###################################
DECAY   6 1.508336e+00 # WT 
DECAY  23 2.495200e+00 # WZ 
DECAY  24 2.085000e+00 # WW 
DECAY  25 5.753088e-03 # WH 
## Dependent parameters, given by model restrictions.
## Those values should be edited following the 
## analytical expression. MG5 ignores those values 
## but they are important for interfacing the output of MG5
## to external program such as Pythia.
DECAY  1 0.000000 # d : 0.0 
DECAY  2 0.000000 # u : 0.0 
DECAY  3 0.000000 # s : 0.0 
DECAY  4 0.000000 # c : 0.0 
DECAY  5 0.000000 # b : 0.0 
DECAY  11 0.000000 # e- : 0.0 
DECAY  12 0.000000 # ve : 0.0 
DECAY  13 0.000000 # mu- : 0.0 
DECAY  14 0.000000 # vm : 0.0 
DECAY  15 0.000000 # ta- : 0.0 
DECAY  16 0.000000 # vt : 0.0 
DECAY  21 0.000000 # g : 0.0 
DECAY  22 0.000000 # a : 0.0 
DECAY  10030 0.308725 # zph : (gz__exp__2*MZph*(5 + cmath.sqrt(1 - (4*MT__exp__2)/MZph__exp__2)))/(144.*cmath.pi) 
DECAY  10031 0.132629 # zpl : (5*gz__exp__2*MZpl)/(144.*cmath.pi) 
#===========================================================
# QUANTUM NUMBERS OF NEW STATE(S) (NON SM PDG CODE)
#===========================================================

Block QNUMBERS 10030  # zph 
        1 0  # 3 times electric charge
        2 3  # number of spin states (2S+1)
        3 1  # colour rep (1: singlet, 3: triplet, 8: octet)
        4 0  # Particle/Antiparticle distinction (0=own anti)
Block QNUMBERS 10031  # zpl 
        1 0  # 3 times electric charge
        2 3  # number of spin states (2S+1)
        3 1  # colour rep (1: singlet, 3: triplet, 8: octet)
        4 0  # Particle/Antiparticle distinction (0=own anti)
</slha>
## END BANNER##
<MGGenerationInfo>
#  Number of Events        :         4049
#  Integrated weight (pb)  :  0.20301E+01
#  Max wgt                 :  0.66590E-03
#  Average wgt             :  0.50138E-03
</MGGenerationInfo>
</header>
<init>
     2212     2212  0.40000000000E+04  0.40000000000E+04 0 0  247000  247000 2   1
  0.20309461270E+01  0.37552645076E-02  0.66589940000E-03   0
</init>
<event>
 5   0  0.6349142E-03  0.1470729E+04  0.7818609E-02  0.8904154E-01
        2   -1    0    0  501    0  0.00000000000E+00  0.00000000000E+00  0.11136351220E+04  0.11136351220E+04  0.25500000920E-02 0.  1.
       -2   -1    0    0    0  501  0.00000000000E+00  0.00000000000E+00 -0.48558191528E+03  0.48558191528E+03  0.25500000920E-02 0. -1.
    10030    2    1    2    0    0  0.00000000000E+00  0.00000000000E+00  0.62805320671E+03  0.15992170373E+04  0.14707291735E+04 0.  0.
        1    1    3    3  502    0  0.22078405237E+03  0.40076625396E+03  0.93999468566E+03  0.10454421061E+04  0.50400001928E-02 0.  1.
       -1    1    3    3    0  502 -0.22078405237E+03 -0.40076625396E+03 -0.31194147895E+03  0.55377493118E+03  0.50400001928E-02 0. -1.
</event>
<event>
 5   0  0.6349142E-03  0.1227004E+04  0.7818609E-02  0.9089543E-01
        2   -1    0    0  501    0  0.00000000000E+00  0.00000000000E+00  0.25843490125E+03  0.25843490126E+03  0.25500000920E-02 0.  1.
       -2   -1    0    0    0  501  0.00000000000E+00  0.00000000000E+00 -0.14563998211E+04  0.14563998211E+04  0.25500000920E-02 0. -1.
    10030    2    1    2    0    0  0.00000000000E+00  0.00000000000E+00 -0.11979649199E+04  0.17148347224E+04  0.12270037392E+04 0.  0.
        1    1    3    3  502    0  0.26935102657E+02 -0.46741094506E+03 -0.11530763820E+04  0.12445013596E+04  0.50400001928E-02 0. -1.
       -1    1    3    3    0  502 -0.26935102657E+02  0.46741094506E+03 -0.44888537906E+02  0.47033336282E+03  0.50400001928E-02 0.  1.
</event>
<event>
 5   0  0.6493047E-03  0.1290353E+04  0.7818609E-02  0.9037251E-01
       -2   -1    0    0    0  501  0.00000000000E+00  0.00000000000E+00  0.20686811898E+03  0.20686811899E+03  0.25500000920E-02 0.  1.
        2   -1    0    0  501    0  0.00000000000E+00  0.00000000000E+00 -0.20121638057E+04  0.20121638057E+04  0.25500000920E-02 0. -1.
    10030    2    1    2    0    0  0.00000000000E+00  0.00000000000E+00 -0.18052956867E+04  0.22190319247E+04  0.12903527294E+04 0.  0.
        3    1    3    3  502    0  0.53387498398E+03 -0.29950690262E+03 -0.12530875559E+04  0.13946165481E+04  0.10100000352E+00 0. -1.
       -3    1    3    3    0  502 -0.53387498398E+03  0.29950690262E+03 -0.55220813081E+03  0.82441537660E+03  0.10100000352E+00 0.  1.
</event>
<event>
 5   0  0.6349142E-03  0.1201942E+04  0.7818609E-02  0.9111158E-01
       -2   -1    0    0    0  501  0.00000000000E+00  0.00000000000E+00  0.64167406525E+03  0.64167406525E+03  0.25500000920E-02 0. -1.
        2   -1    0    0  501    0  0.00000000000E+00  0.00000000000E+00 -0.56285020580E+03  0.56285020580E+03  0.25500000920E-02 0.  1.
    10030    2    1    2    0    0  0.00000000000E+00  0.00000000000E+00  0.78823859452E+02  0.12045242711E+04  0.12019423941E+04 0.  0.
        1    1    3    3  502    0 -0.29078840801E+03 -0.48469367543E+03 -0.16518470157E+03  0.58887336745E+03  0.50400001928E-02 0. -1.
       -1    1    3    3    0  502  0.29078840801E+03  0.48469367543E+03  0.24400856102E+03  0.61565090360E+03  0.50400001928E-02 0.  1.
</event>
<event>
 5   0  0.6493047E-03  0.1228829E+04  0.7818609E-02  0.9087990E-01
        2   -1    0    0  501    0  0.00000000000E+00  0.00000000000E+00  0.93011221089E+03  0.93011221089E+03  0.25500000920E-02 0.  1.
       -2   -1    0    0    0  501  0.00000000000E+00  0.00000000000E+00 -0.40587074490E+03  0.40587074491E+03  0.25500000920E-02 0. -1.
    10030    2    1    2    0    0  0.00000000000E+00  0.00000000000E+00  0.52424146598E+03  0.13359829558E+04  0.12288292573E+04 0.  0.
        3    1    3    3  502    0 -0.56996796391E+03 -0.22928386113E+03  0.25297552580E+03  0.66440288659E+03  0.10100000352E+00 0. -1.
       -3    1    3    3    0  502  0.56996796391E+03  0.22928386113E+03  0.27126594018E+03  0.67158006921E+03  0.10100000352E+00 0.  1.
</event>
<event>
 5   0  0.3701879E-03  0.1190218E+04  0.7818609E-02  0.9121462E-01
       -1   -1    0    0    0  501  0.00000000000E+00  0.00000000000E+00  0.41931626152E+03  0.41931626155E+03  0.50400001928E-02 0.  1.
        1   -1    0    0  501    0  0.00000000000E+00  0.00000000000E+00 -0.84459990267E+03  0.84459990269E+03  0.50400001928E-02 0. -1.
    10030    2    1    2    0    0  0.00000000000E+00  0.00000000000E+00 -0.42528364115E+03  0.12639161642E+04  0.11902175830E+04 0.  0.
        1    1    3    3  502    0 -0.25406020140E+03 -0.53482493449E+03 -0.14919106592E+03  0.61060811546E+03  0.50400001928E-02 0.  1.
       -1    1    3    3    0  502  0.25406020140E+03  0.53482493449E+03 -0.27609257522E+03  0.65330804878E+03  0.50400001928E-02 0. -1.
</event>
<event>
 5   0  0.3772254E-03  0.1184828E+04  0.7818609E-02  0.9126241E-01
        1   -1    0    0  501    0  0.00000000000E+00  0.00000000000E+00  0.14230522454E+04  0.14230522454E+04  0.50400001928E-02 0.  1.
       -1   -1    0    0    0  501  0.00000000000E+00  0.00000000000E+00 -0.24662103805E+03  0.24662103810E+03  0.50400001928E-02 0. -1.
    10030    2    1    2    0    0  0.00000000000E+00  0.00000000000E+00  0.11764312073E+04  0.16696732835E+04  0.11848284635E+04 0.  0.
        3    1    3    3  502    0  0.17801451151E+03  0.36565643108E+03 -0.18826984163E+02  0.40712191962E+03  0.10100000352E+00 0. -1.
       -3    1    3    3    0  502 -0.17801451151E+03 -0.36565643108E+03  0.11952581915E+04  0.12625513639E+04  0.10100000352E+00 0.  1.
</event>
<event>
 5   0  0.6349142E-03  0.1205483E+04  0.7818609E-02  0.9108070E-01
       -2   -1    0    0    0  501  0.00000000000E+00  0.00000000000E+00  0.25171742936E+03  0.25171742937E+03  0.25500000920E-02 0. -1.
        2   -1    0    0  501    0  0.00000000000E+00  0.00000000000E+00 -0.14432752405E+04  0.14432752405E+04  0.25500000920E-02 0.  1.
    10030    2    1    2    0    0  0.00000000000E+00  0.00000000000E+00 -0.11915578111E+04  0.16949926699E+04  0.12054833610E+04 0.  0.
        1    1    3    3  502    0 -0.27521532399E+03  0.11734904588E+02 -0.13495896783E+04  0.13774155082E+04  0.50400001928E-02 0.  1.
       -1    1    3    3    0  502  0.27521532399E+03 -0.11734904588E+02  0.15803186714E+03  0.31757716165E+03  0.50400001928E-02 0. -1.
</event>
<event>
 5   0  0.2537625E-03  0.8806389E+03  0.7818609E-02  0.9450113E-01
       -4   -1    0    0    0  501  0.00000000000E+00  0.00000000000E+00  0.46415609220E+03  0.46415782965E+03  0.12699999809E+01 0. -1.
        4   -1    0    0  501    0  0.00000000000E+00  0.00000000000E+00 -0.41770341913E+03  0.41770534980E+03  0.12699999809E+01 0.  1.
    10030    2    1    2    0    0  0.00000000000E+00  0.00000000000E+00  0.46452673072E+02  0.88186317945E+03  0.88063886834E+03 0.  0.
        5    1    3    3  502    0  0.36633290875E+03  0.20895851033E+03 -0.10342342454E+03  0.43426023743E+03  0.46999998093E+01 0.  1.
       -5    1    3    3    0  502 -0.36633290875E+03 -0.20895851033E+03  0.14987609761E+03  0.44760294202E+03  0.46999998093E+01 0. -1.
</event>
<event>
 5   0  0.6349142E-03  0.1135044E+04  0.7818609E-02  0.9171693E-01
        2   -1    0    0  501    0  0.00000000000E+00  0.00000000000E+00  0.20009570829E+04  0.20009570829E+04  0.25500000920E-02 0.  1.
       -2   -1    0    0    0  501  0.00000000000E+00  0.00000000000E+00 -0.16096362690E+03  0.16096362692E+03  0.25500000920E-02 0. -1.
    10030    2    1    2    0    0  0.00000000000E+00  0.00000000000E+00  0.18399934560E+04  0.21619207098E+04  0.11350441566E+04 0.  0.
        1    1    3    3  502    0  0.16650489840E+03  0.11745435072E+03  0.19288810064E+04  0.19396137096E+04  0.50400001928E-02 0.  1.
       -1    1    3    3    0  502 -0.16650489840E+03 -0.11745435072E+03 -0.88887550397E+02  0.22230700020E+03  0.50400001928E-02 0. -1.
</event>
<event>
 5   0  0.2537625E-03  0.1262104E+04  0.7818609E-02  0.9060169E-01
        4   -1    0    0  501    0  0.00000000000E+00  0.00000000000E+00  0.51427950537E+03  0.51428107349E+03  0.12699999809E+01 0.  1.
       -4   -1    0    0    0  501  0.00000000000E+00  0.00000000000E+00 -0.77433505989E+03  0.77433610136E+03  0.12699999809E+01 0. -1.
    10030    2    1    2    0    0  0.00000000000E+00  0.00000000000E+00 -0.26005555452E+03  0.12886171748E+04  0.12621035345E+04 0.  0.
        2    1    3    3  502    0 -0.16390849481E+03  0.52502690854E+03  0.18583683573E+03  0.58056401791E+03  0.25500000920E-02 0.  1.
       -2    1    3    3    0  502  0.16390849481E+03 -0.52502690854E+03 -0.44589239025E+03  0.70805315694E+03  0.25500000920E-02 0. -1.
</event>
<event>
 5   0  0.6640844E-03  0.1342060E+04  0.7818609E-02  0.8996861E-01
       -2   -1    0    0    0  501  0.00000000000E+00  0.00000000000E+00  0.37876510384E+03  0.37876510385E+03  0.25500000920E-02 0.  1.
        2   -1    0    0  501    0  0.00000000000E+00  0.00000000000E+00 -0.11888132363E+04  0.11888132363E+04  0.25500000920E-02 0. -1.
    10030    2    1    2    0    0  0.00000000000E+00  0.00000000000E+00 -0.81004813250E+03  0.15675783402E+04  0.13420595649E+04 0.  0.
        5    1    3    3  502    0  0.39707563965E+03  0.40741176304E+03 -0.82063187465E+03  0.99855504202E+03  0.46999998093E+01 0. -1.
       -5    1    3    3    0  502 -0.39707563965E+03 -0.40741176304E+03  0.10583742155E+02  0.56902329817E+03  0.46999998093E+01 0.  1.
</event>
<event>
 5   0  0.3731281E-03  0.1093877E+04  0.7818609E-02  0.9211180E-01
        1   -1    0    0  501    0  0.00000000000E+00  0.00000000000E+00  0.59950886873E+03  0.59950886875E+03  0.50400001928E-02 0. -1.
       -1   -1    0    0    0  501  0.00000000000E+00  0.00000000000E+00 -0.49897810044E+03  0.49897810046E+03  0.50400001928E-02 0.  1.
    10030    2    1    2    0    0  0.00000000000E+00  0.00000000000E+00  0.10053076829E+03  0.10984869692E+04  0.10938771349E+04 0.  0.
        5    1    3    3  502    0 -0.17744557081E+03 -0.27776345586E+03  0.48854505635E+03  0.58935373936E+03  0.46999998093E+01 0. -1.
       -5    1    3    3    0  502  0.17744557081E+03  0.27776345586E+03 -0.38801428806E+03  0.50913322986E+03  0.46999998093E+01 0.  1.
</event>
<event>
 5   0  0.2537625E-03  0.1210783E+04  0.7818609E-02  0.9103470E-01
       -3   -1    0    0    0  501  0.00000000000E+00  0.00000000000E+00  0.59191838401E+03  0.59191839263E+03  0.10100000352E+00 0.  1.
        3   -1    0    0  501    0  0.00000000000E+00  0.00000000000E+00 -0.61917118853E+03  0.61917119677E+03  0.10100000352E+00 0. -1.
    10030    2    1    2    0    0  0.00000000000E+00  0.00000000000E+00 -0.27252804519E+02  0.12110895894E+04  0.12107829195E+04 0.  0.
        4    1    3    3  502    0 -0.15356694715E+03  0.89590108574E+02 -0.59246806950E+03  0.61857030408E+03  0.12699999809E+01 0. -1.
       -4    1    3    3    0  502  0.15356694715E+03 -0.89590108574E+02  0.56521526498E+03  0.59251928532E+03  0.12699999809E+01 0.  1.
</event>
<event>
 5   0  0.3701879E-03  0.1229000E+04  0.7818609E-02  0.9087845E-01
        1   -1    0    0  501    0  0.00000000000E+00  0.00000000000E+00  0.61487177901E+03  0.61487177903E+03  0.50400001928E-02 0. -1.
       -1   -1    0    0    0  501  0.00000000000E+00  0.00000000000E+00 -0.61412818657E+03  0.61412818659E+03  0.50400001928E-02 0.  1.
    10030    2    1    2    0    0  0.00000000000E+00  0.00000000000E+00  0.74359244626E+00  0.12289999656E+04  0.12289997407E+04 0.  0.
        1    1    3    3  502    0 -0.58122003916E+03 -0.79453940141E+02 -0.18260481526E+03  0.61438927489E+03  0.50400001928E-02 0.  1.
       -1    1    3    3    0  502  0.58122003916E+03  0.79453940141E+02  0.18334840770E+03  0.61461069073E+03  0.50400001928E-02 0. -1.
</event>
<event>
 5   0  0.3772254E-03  0.1205589E+04  0.7818609E-02  0.9107979E-01
        1   -1    0    0  501    0  0.00000000000E+00  0.00000000000E+00  0.13446414592E+04  0.13446414592E+04  0.50400001928E-02 0. -1.
       -1   -1    0    0    0  501  0.00000000000E+00  0.00000000000E+00 -0.27022897885E+03  0.27022897890E+03  0.50400001928E-02 0.  1.
    10030    2    1    2    0    0  0.00000000000E+00  0.00000000000E+00  0.10744124803E+04  0.16148704381E+04  0.12055887997E+04 0.  0.
        3    1    3    3  502    0  0.26357562560E+03  0.73637813402E+02 -0.18221975708E+03  0.32878364930E+03  0.10100000352E+00 0.  1.
       -3    1    3    3    0  502 -0.26357562560E+03 -0.73637813402E+02  0.12566322374E+04  0.12860867888E+04  0.10100000352E+00 0. -1.
</event>
<event>
 5   0  0.3772254E-03  0.1101491E+04  0.7818609E-02  0.9203740E-01
        1   -1    0    0  501    0  0.00000000000E+00  0.00000000000E+00  0.57771573783E+03  0.57771573785E+03  0.50400001928E-02 0.  1.
       -1   -1    0    0    0  501  0.00000000000E+00  0.00000000000E+00 -0.52503449509E+03  0.52503449511E+03  0.50400001928E-02 0. -1.
    10030    2    1    2    0    0  0.00000000000E+00  0.00000000000E+00  0.52681242741E+02  0.11027502330E+04  0.11014911543E+04 0.  0.
        3    1    3    3  502    0  0.65119386350E+02 -0.32421549315E+03 -0.41457676593E+03  0.53031134772E+03  0.10100000352E+00 0. -1.
       -3    1    3    3    0  502 -0.65119386350E+02  0.32421549315E+03  0.46725800867E+03  0.57243888525E+03  0.10100000352E+00 0.  1.
</event>
<event>
 5   0  0.6349142E-03  0.1261824E+04  0.7818609E-02  0.9060400E-01
        2   -1    0    0  501    0  0.00000000000E+00  0.00000000000E+00  0.96680252822E+03  0.96680252823E+03  0.25500000920E-02 0.  1.
       -2   -1    0    0    0  501  0.00000000000E+00  0.00000000000E+00 -0.41171767009E+03  0.41171767010E+03  0.25500000920E-02 0. -1.
    10030    2    1    2    0    0  0.00000000000E+00  0.00000000000E+00  0.55508485813E+03  0.13785201983E+04  0.12618235762E+04 0.  0.
        1    1    3    3  502    0  0.13923196284E+03  0.36870565715E+03  0.81577197108E+03  0.90598747779E+03  0.50400001928E-02 0.  1.
       -1    1    3    3    0  502 -0.13923196284E+03 -0.36870565715E+03 -0.26068711295E+03  0.47253272053E+03  0.50400001928E-02 0. -1.
</event>
<event>
 5   0  0.3944074E-03  0.1167540E+04  0.7818609E-02  0.9141753E-01
       -1   -1    0    0    0  501  0.00000000000E+00  0.00000000000E+00  0.47679305756E+03  0.47679305759E+03  0.50400001928E-02 0.  1.
        1   -1    0    0  501    0  0.00000000000E+00  0.00000000000E+00 -0.71474925599E+03  0.71474925601E+03  0.50400001928E-02 0. -1.
    10030    2    1    2    0    0  0.00000000000E+00  0.00000000000E+00 -0.23795619843E+03  0.11915423136E+04  0.11675401204E+04 0.  0.
        4    1    3    3  502    0 -0.32829177087E+03 -0.36747419470E+03 -0.43841941090E+03  0.65956498039E+03  0.12699999809E+01 0. -1.
       -4    1    3    3    0  502  0.32829177087E+03  0.36747419470E+03  0.20046321247E+03  0.53197733321E+03  0.12699999809E+01 0.  1.
</event>
<event>
 5   0  0.3701879E-03  0.1204202E+04  0.7818609E-02  0.9109186E-01
       -1   -1    0    0    0  501  0.00000000000E+00  0.00000000000E+00  0.32773910271E+03  0.32773910275E+03  0.50400001928E-02 0.  1.
        1   -1    0    0  501    0  0.00000000000E+00  0.00000000000E+00 -0.11061413274E+04  0.11061413274E+04  0.50400001928E-02 0. -1.
    10030    2    1    2    0    0  0.00000000000E+00  0.00000000000E+00 -0.77840222472E+03  0.14338804302E+04  0.12042022524E+04 0.  0.
        1    1    3    3  502    0  0.35179851275E+03 -0.23685105365E+03  0.11970931833E+03  0.44067100666E+03  0.50400001928E-02 0.  1.
       -1    1    3    3    0  502 -0.35179851275E+03  0.23685105365E+03 -0.89811154305E+03  0.99320942353E+03  0.50400001928E-02 0. -1.
</event>
<event>
 5   0  0.6585930E-03  0.1202741E+04  0.7818609E-02  0.9110461E-01
       -2   -1    0    0    0  501  0.00000000000E+00  0.00000000000E+00  0.61599958490E+03  0.61599958490E+03  0.25500000920E-02 0.  1.
        2   -1    0    0  501    0  0.00000000000E+00  0.00000000000E+00 -0.58708845429E+03  0.58708845430E+03  0.25500000920E-02 0. -1.
    10030    2    1    2    0    0  0.00000000000E+00  0.00000000000E+00  0.28911130605E+02  0.12030880392E+04  0.12027406107E+04 0.  0.
        2    1    3    3  502    0 -0.29186559374E+03 -0.15270758137E+03  0.51773221068E+03  0.61363814435E+03  0.25500000920E-02 0.  1.
       -2    1    3    3    0  502  0.29186559374E+03  0.15270758137E+03 -0.48882108007E+03  0.58944989486E+03  0.25500000920E-02 0. -1.
</event>
<event>
 5   0  0.3772254E-03  0.1210917E+04  0.7818609E-02  0.9103354E-01
       -1   -1    0    0    0  501  0.00000000000E+00  0.00000000000E+00  0.57007221083E+03  0.57007221085E+03  0.50400001928E-02 0. -1.
        1   -1    0    0  501    0  0.00000000000E+00  0.00000000000E+00 -0.64304112436E+03  0.64304112438E+03  0.50400001928E-02 0.  1.
    10030    2    1    2    0    0  0.00000000000E+00  0.00000000000E+00 -0.72968913525E+02  0.12131133352E+04  0.12109168022E+04 0.  0.
        3    1    3    3  502    0  0.14033243103E+03  0.19735550062E+03 -0.59241219957E+03  0.63999578844E+03  0.10100000352E+00 0.  1.
       -3    1    3    3    0  502 -0.14033243103E+03 -0.19735550062E+03  0.51944328604E+03  0.57311754679E+03  0.10100000352E+00 0. -1.
</event>
<event>
 5   0  0.2537625E-03  0.1206214E+04  0.7818609E-02  0.9107435E-01
        3   -1    0    0  501    0  0.00000000000E+00  0.00000000000E+00  0.41692125191E+03  0.41692126414E+03  0.10100000352E+00 0.  1.
       -3   -1    0    0    0  501  0.00000000000E+00  0.00000000000E+00 -0.87243818504E+03  0.87243819089E+03  0.10100000352E+00 0. -1.
    10030    2    1    2    0    0  0.00000000000E+00  0.00000000000E+00 -0.45551693314E+03  0.12893594550E+04  0.12062139644E+04 0.  0.
        1    1    3    3  502    0 -0.64385691454E+02 -0.14367322429E+03  0.39456733784E+03  0.42481866338E+03  0.50400001928E-02 0.  1.
       -1    1    3    3    0  502  0.64385691454E+02  0.14367322429E+03 -0.85008427097E+03  0.86454079165E+03  0.50400001928E-02 0. -1.
</event>
<event>
 5   0  0.6493047E-03  0.1159120E+04  0.7818609E-02  0.9149411E-01
       -2   -1    0    0    0  501  0.00000000000E+00  0.00000000000E+00  0.29389802047E+03  0.29389802048E+03  0.25500000920E-02 0.  1.
        2   -1    0    0  501    0  0.00000000000E+00  0.00000000000E+00 -0.11428779680E+04  0.11428779680E+04  0.25500000920E-02 0. -1.
    10030    2    1    2    0    0  0.00000000000E+00  0.00000000000E+00 -0.84897994754E+03  0.14367759885E+04  0.11591196184E+04 0.  0.
        3    1    3    3  502    0 -0.69119620302E+01  0.26286649675E+03 -0.10646776565E+04  0.10966700018E+04  0.10100000352E+00 0. -1.
       -3    1    3    3    0  502  0.69119620302E+01 -0.26286649675E+03  0.21569770898E+03  0.34010598670E+03  0.10100000352E+00 0.  1.
</event>
<event>
 5   0  0.3701879E-03  0.1220674E+04  0.7818609E-02  0.9094950E-01
        1   -1    0    0  501    0  0.00000000000E+00  0.00000000000E+00  0.11413207916E+04  0.11413207916E+04  0.50400001928E-02 0.  1.
       -1   -1    0    0    0  501  0.00000000000E+00  0.00000000000E+00 -0.32638630046E+03  0.32638630050E+03  0.50400001928E-02 0. -1.
    10030    2    1    2    0    0  0.00000000000E+00  0.00000000000E+00  0.81493449115E+03  0.14677070921E+04  0.12206743560E+04 0.  0.
        1    1    3    3  502    0  0.13158065631E+03  0.38691801967E+03 -0.13758421089E+03  0.43121739086E+03  0.50400001928E-02 0. -1.
       -1    1    3    3    0  502 -0.13158065631E+03 -0.38691801967E+03  0.95251870204E+03  0.10364897013E+04  0.50400001928E-02 0.  1.
</event>
<event>
 5   0  0.6585930E-03  0.1239446E+04  0.7818609E-02  0.9079014E-01
        2   -1    0    0  501    0  0.00000000000E+00  0.00000000000E+00  0.63569446250E+03  0.63569446250E+03  0.25500000920E-02 0. -1.
       -2   -1    0    0    0  501  0.00000000000E+00  0.00000000000E+00 -0.60415251958E+03  0.60415251958E+03  0.25500000920E-02 0.  1.
    10030    2    1    2    0    0  0.00000000000E+00  0.00000000000E+00  0.31541942922E+02  0.12398469821E+04  0.12394457006E+04 0.  0.
        2    1    3    3  502    0  0.68412433589E+02  0.91849906154E+02  0.62501638487E+03  0.63542281018E+03  0.25500000920E-02 0. -1.
       -2    1    3    3    0  502 -0.68412433589E+02 -0.91849906154E+02 -0.59347444195E+03  0.60442417191E+03  0.25500000920E-02 0.  1.
</event>
<event>
 5   0  0.3648616E-03  0.1198204E+04  0.7818609E-02  0.9114430E-01
       -1   -1    0    0    0  501  0.00000000000E+00  0.00000000000E+00  0.47188118307E+03  0.47188118309E+03  0.50400001928E-02 0. -1.
        1   -1    0    0  501    0  0.00000000000E+00  0.00000000000E+00 -0.76062169224E+03  0.76062169226E+03  0.50400001928E-02 0.  1.
    10030    2    1    2    0    0  0.00000000000E+00  0.00000000000E+00 -0.28874050917E+03  0.12325028753E+04  0.11982037623E+04 0.  0.
        2    1    3    3  502    0  0.36765790643E+03 -0.46453450292E+03 -0.23613392659E+03  0.63774906653E+03  0.25500000920E-02 0. -1.
       -2    1    3    3    0  502 -0.36765790643E+03  0.46453450292E+03 -0.52606582582E+02  0.59475380882E+03  0.25500000920E-02 0.  1.
</event>
<event>
 5   0  0.6493047E-03  0.1133951E+04  0.7818609E-02  0.9172718E-01
        2   -1    0    0  501    0  0.00000000000E+00  0.00000000000E+00  0.14667294444E+04  0.14667294444E+04  0.25500000920E-02 0. -1.
       -2   -1    0    0    0  501  0.00000000000E+00  0.00000000000E+00 -0.21916880697E+03  0.21916880698E+03  0.25500000920E-02 0.  1.
    10030    2    1    2    0    0  0.00000000000E+00  0.00000000000E+00  0.12475606374E+04  0.16858982514E+04  0.11339512203E+04 0.  0.
        3    1    3    3  502    0  0.30219621313E+03  0.10215863126E+03 -0.73093876589E+02  0.32726390294E+03  0.10100000352E+00 0.  1.
       -3    1    3    3    0  502 -0.30219621313E+03 -0.10215863126E+03  0.13206545140E+04  0.13586343484E+04  0.10100000352E+00 0. -1.
</event>
<event>
 5   0  0.6640844E-03  0.1192007E+04  0.7818609E-02  0.9119882E-01
       -2   -1    0    0    0  501  0.00000000000E+00  0.00000000000E+00  0.23878278769E+03  0.23878278771E+03  0.25500000920E-02 0.  1.
        2   -1    0    0  501    0  0.00000000000E+00  0.00000000000E+00 -0.14876286235E+04  0.14876286235E+04  0.25500000920E-02 0. -1.
    10030    2    1    2    0    0  0.00000000000E+00  0.00000000000E+00 -0.12488458358E+04  0.17264114112E+04  0.11920068956E+04 0.  0.
        5    1    3    3  502    0  0.51818428372E+03  0.29441240668E+03 -0.62138396110E+03  0.86100739499E+03  0.46999998093E+01 0. -1.
       -5    1    3    3    0  502 -0.51818428372E+03 -0.29441240668E+03 -0.62746187473E+03  0.86540401625E+03  0.46999998093E+01 0.  1.
</event>
<event>
 5   0  0.3648616E-03  0.1123128E+04  0.7818609E-02  0.9182938E-01
        1   -1    0    0  501    0  0.00000000000E+00  0.00000000000E+00  0.37633954221E+03  0.37633954224E+03  0.50400001928E-02 0. -1.
       -1   -1    0    0    0  501  0.00000000000E+00  0.00000000000E+00 -0.83795176920E+03  0.83795176922E+03  0.50400001928E-02 0.  1.
    10030    2    1    2    0    0  0.00000000000E+00  0.00000000000E+00 -0.46161222699E+03  0.12142913115E+04  0.11231284615E+04 0.  0.
        2    1    3    3  502    0 -0.18035854868E+03  0.11781904899E+03  0.32988576322E+03  0.39399892280E+03  0.25500000920E-02 0. -1.
       -2    1    3    3    0  502  0.18035854868E+03 -0.11781904899E+03 -0.79149799021E+03  0.82029238867E+03  0.25500000920E-02 0.  1.
</event>
<event>
 5   0  0.6493047E-03  0.1236650E+04  0.7818609E-02  0.9081368E-01
       -2   -1    0    0    0  501  0.00000000000E+00  0.00000000000E+00  0.56059383189E+03  0.56059383190E+03  0.25500000920E-02 0.  1.
        2   -1    0    0  501    0  0.00000000000E+00  0.00000000000E+00 -0.68200147737E+03  0.68200147737E+03  0.25500000920E-02 0. -1.
    10030    2    1    2    0    0  0.00000000000E+00  0.00000000000E+00 -0.12140764548E+03  0.12425953093E+04  0.12366500258E+04 0.  0.
        3    1    3    3  502    0 -0.22485797630E+03  0.54962610991E+03 -0.23379878082E+03  0.63820987951E+03  0.10100000352E+00 0. -1.
       -3    1    3    3    0  502  0.22485797630E+03 -0.54962610991E+03  0.11239113534E+03  0.60438542976E+03  0.10100000352E+00 0.  1.
</event>
<event>
 5   0  0.6349142E-03  0.1323092E+04  0.7818609E-02  0.9011451E-01
        2   -1    0    0  501    0  0.00000000000E+00  0.00000000000E+00  0.15963807279E+04  0.15963807279E+04  0.25500000920E-02 0. -1.
       -2   -1    0    0    0  501  0.00000000000E+00  0.00000000000E+00 -0.27414700829E+03  0.27414700830E+03  0.25500000920E-02 0.  1.
    10030    2    1    2    0    0  0.00000000000E+00  0.00000000000E+00  0.13222337196E+04  0.18705277362E+04  0.13230918345E+04 0.  0.
        1    1    3    3  502    0 -0.15276443439E+03  0.36375444439E+03  0.14118576977E+04  0.14659455743E+04  0.50400001928E-02 0. -1.
       -1    1    3    3    0  502  0.15276443439E+03 -0.36375444439E+03 -0.89623978121E+02  0.40458216187E+03  0.50400001928E-02 0.  1.
</event>
<event>
 5   0  0.3772254E-03  0.1194325E+04  0.7818609E-02  0.9117838E-01
        1   -1    0    0  501    0  0.00000000000E+00  0.00000000000E+00  0.12957206637E+04  0.12957206637E+04  0.50400001928E-02 0.  1.
       -1   -1    0    0    0  501  0.00000000000E+00  0.00000000000E+00 -0.27521602474E+03  0.27521602479E+03  0.50400001928E-02 0. -1.
    10030    2    1    2    0    0  0.00000000000E+00  0.00000000000E+00  0.10205046389E+04  0.15709366885E+04  0.11943250651E+04 0.  0.
        3    1    3    3  502    0  0.54279471301E+03  0.35097453925E+02  0.83443658638E+03  0.99606343103E+03  0.10100000352E+00 0.  1.
       -3    1    3    3    0  502 -0.54279471301E+03 -0.35097453925E+02  0.18606805256E+03  0.57487325745E+03  0.10100000352E+00 0. -1.
</event>
<event>
 5   0  0.6493047E-03  0.1214015E+04  0.7818609E-02  0.9100677E-01
       -2   -1    0    0    0  501  0.00000000000E+00  0.00000000000E+00  0.21777622565E+03  0.21777622567E+03  0.25500000920E-02 0.  1.
        2   -1    0    0  501    0  0.00000000000E+00  0.00000000000E+00 -0.16919128399E+04  0.16919128399E+04  0.25500000920E-02 0. -1.
    10030    2    1    2    0    0  0.00000000000E+00  0.00000000000E+00 -0.14741366143E+04  0.19096890656E+04  0.12140154734E+04 0.  0.
        3    1    3    3  502    0 -0.10801175796E+03  0.57776974769E+03 -0.49864078833E+03  0.77079638504E+03  0.10100000352E+00 0.  1.
       -3    1    3    3    0  502  0.10801175796E+03 -0.57776974769E+03 -0.97549582595E+03  0.11388926806E+04  0.10100000352E+00 0. -1.
</event>
<event>
 5   0  0.3944074E-03  0.1198022E+04  0.7818609E-02  0.9114590E-01
       -1   -1    0    0    0  501  0.00000000000E+00  0.00000000000E+00  0.91919502530E+03  0.91919502531E+03  0.50400001928E-02 0.  1.
        1   -1    0    0  501    0  0.00000000000E+00  0.00000000000E+00 -0.39035677639E+03  0.39035677642E+03  0.50400001928E-02 0. -1.
    10030    2    1    2    0    0  0.00000000000E+00  0.00000000000E+00  0.52883824891E+03  0.13095518017E+04  0.11980217143E+04 0.  0.
        4    1    3    3  502    0 -0.75908887164E+02  0.18884557143E+03  0.88023794856E+03  0.90346293116E+03  0.12699999809E+01 0.  1.
       -4    1    3    3    0  502  0.75908887164E+02 -0.18884557143E+03 -0.35139969965E+03  0.40608887058E+03  0.12699999809E+01 0. -1.
</event>
<event>
 5   0  0.3701879E-03  0.1198207E+04  0.7818609E-02  0.9114427E-01
       -1   -1    0    0    0  501  0.00000000000E+00  0.00000000000E+00  0.71711029547E+03  0.71711029549E+03  0.50400001928E-02 0.  1.
        1   -1    0    0  501    0  0.00000000000E+00  0.00000000000E+00 -0.50051588428E+03  0.50051588431E+03  0.50400001928E-02 0. -1.
    10030    2    1    2    0    0  0.00000000000E+00  0.00000000000E+00  0.21659441119E+03  0.12176261798E+04  0.11982071502E+04 0.  0.
        1    1    3    3  502    0  0.47904360058E+03 -0.33059412000E+03 -0.35953511757E+02  0.58315340903E+03  0.50400001928E-02 0.  1.
       -1    1    3    3    0  502 -0.47904360058E+03  0.33059412000E+03  0.25254792294E+03  0.63447277077E+03  0.50400001928E-02 0. -1.
</event>
<event>
 5   0  0.3772254E-03  0.1214967E+04  0.7818609E-02  0.9099856E-01
        1   -1    0    0  501    0  0.00000000000E+00  0.00000000000E+00  0.41035537466E+03  0.41035537469E+03  0.50400001928E-02 0.  1.
       -1   -1    0    0    0  501  0.00000000000E+00  0.00000000000E+00 -0.89930890873E+03  0.89930890874E+03  0.50400001928E-02 0. -1.
    10030    2    1    2    0    0  0.00000000000E+00  0.00000000000E+00 -0.48895353407E+03  0.13096642834E+04  0.12149670682E+04 0.  0.
        3    1    3    3  502    0  0.16962453773E+03  0.41529749448E+03  0.19707412635E+03  0.48998236111E+03  0.10100000352E+00 0.  1.
       -3    1    3    3    0  502 -0.16962453773E+03 -0.41529749448E+03 -0.68602766042E+03  0.81968192232E+03  0.10100000352E+00 0. -1.
</event>
<event>
 5   0  0.6658994E-03  0.1208512E+04  0.7818609E-02  0.9105438E-01
        2   -1    0    0  501    0  0.00000000000E+00  0.00000000000E+00  0.37656951804E+03  0.37656951805E+03  0.25500000920E-02 0. -1.
       -2   -1    0    0    0  501  0.00000000000E+00  0.00000000000E+00 -0.96960999834E+03  0.96960999834E+03  0.25500000920E-02 0.  1.
    10030    2    1    2    0    0  0.00000000000E+00  0.00000000000E+00 -0.59304048029E+03  0.13461795164E+04  0.12085124241E+04 0.  0.
        4    1    3    3  502    0 -0.26742479431E+03  0.54109742845E+03 -0.32844723711E+03  0.68715474833E+03  0.12699999809E+01 0. -1.
       -4    1    3    3    0  502  0.26742479431E+03 -0.54109742845E+03 -0.26459324319E+03  0.65902476807E+03  0.12699999809E+01 0.  1.
</event>
<event>
 5   0  0.6658994E-03  0.1194161E+04  0.7818609E-02  0.9117983E-01
       -2   -1    0    0    0  501  0.00000000000E+00  0.00000000000E+00  0.93658765412E+03  0.93658765412E+03  0.25500000920E-02 0.  1.
        2   -1    0    0  501    0  0.00000000000E+00  0.00000000000E+00 -0.38064259468E+03  0.38064259469E+03  0.25500000920E-02 0. -1.
    10030    2    1    2    0    0  0.00000000000E+00  0.00000000000E+00  0.55594505943E+03  0.13172302488E+04  0.11941610525E+04 0.  0.
        4    1    3    3  502    0 -0.48705458696E+03  0.28795353364E+03  0.48831909051E+03  0.74739317315E+03  0.12699999809E+01 0.  1.
       -4    1    3    3    0  502  0.48705458696E+03 -0.28795353364E+03  0.67625968923E+02  0.56983707566E+03  0.12699999809E+01 0. -1.
</event>
<event>
 5   0  0.2537625E-03  0.1129119E+04  0.7818609E-02  0.9177266E-01
        4   -1    0    0  501    0  0.00000000000E+00  0.00000000000E+00  0.57768790542E+03  0.57768930141E+03  0.12699999809E+01 0. -1.
       -4   -1    0    0    0  501  0.00000000000E+00  0.00000000000E+00 -0.55172695787E+03  0.55172841956E+03  0.12699999809E+01 0.  1.
    10030    2    1    2    0    0  0.00000000000E+00  0.00000000000E+00  0.25960947546E+02  0.11294177210E+04  0.11291193106E+04 0.  0.
        4    1    3    3  502    0  0.52208817539E+03  0.16468380410E+03  0.15096320065E+03  0.56788054999E+03  0.12699999809E+01 0.  1.
       -4    1    3    3    0  502 -0.52208817539E+03 -0.16468380410E+03 -0.12500225310E+03  0.56153717098E+03  0.12699999809E+01 0. -1.
</event>
<event>
 5   0  0.3772254E-03  0.1206967E+04  0.7818609E-02  0.9106780E-01
        1   -1    0    0  501    0  0.00000000000E+00  0.00000000000E+00  0.14385165750E+04  0.14385165750E+04  0.50400001928E-02 0. -1.
       -1   -1    0    0    0  501  0.00000000000E+00  0.00000000000E+00 -0.25317206254E+03  0.25317206259E+03  0.50400001928E-02 0.  1.
    10030    2    1    2    0    0  0.00000000000E+00  0.00000000000E+00  0.11853445125E+04  0.16916886376E+04  0.12069667905E+04 0.  0.
        3    1    3    3  502    0 -0.46971819122E+03 -0.13412979737E+03  0.10893349226E+04  0.11938494735E+04  0.10100000352E+00 0. -1.
       -3    1    3    3    0  502  0.46971819122E+03  0.13412979737E+03  0.96009589873E+02  0.49783916405E+03  0.10100000352E+00 0.  1.
</event>
<event>
 5   0  0.3731281E-03  0.7474182E+03  0.7818609E-02  0.9639410E-01
       -1   -1    0    0    0  501  0.00000000000E+00  0.00000000000E+00  0.32916234106E+03  0.32916234110E+03  0.50400001928E-02 0.  1.
        1   -1    0    0  501    0  0.00000000000E+00  0.00000000000E+00 -0.42428451127E+03  0.42428451129E+03  0.50400001928E-02 0. -1.
    10030    2    1    2    0    0  0.00000000000E+00  0.00000000000E+00 -0.95122170206E+02  0.75344685239E+03  0.74741817754E+03 0.  0.
        5    1    3    3  502    0 -0.29962956714E+03  0.12581575616E+03  0.13839611249E+03  0.35324645215E+03  0.46999998093E+01 0.  1.
       -5    1    3    3    0  502  0.29962956714E+03 -0.12581575616E+03 -0.23351828270E+03  0.40020040025E+03  0.46999998093E+01 0. -1.
</event>
<event>
 5   0  0.6585930E-03  0.1310844E+04  0.7818609E-02  0.9021010E-01
        2   -1    0    0  501    0  0.00000000000E+00  0.00000000000E+00  0.15509706750E+04  0.15509706750E+04  0.25500000920E-02 0. -1.
       -2   -1    0    0    0  501  0.00000000000E+00  0.00000000000E+00 -0.27697352628E+03  0.27697352629E+03  0.25500000920E-02 0.  1.
    10030    2    1    2    0    0  0.00000000000E+00  0.00000000000E+00  0.12739971487E+04  0.18279442012E+04  0.13108437237E+04 0.  0.
        2    1    3    3  502    0 -0.28769637935E+03 -0.33914013979E+02  0.14568508465E+04  0.14853732716E+04  0.25500000920E-02 0. -1.
       -2    1    3    3    0  502  0.28769637935E+03  0.33914013979E+02 -0.18285369781E+03  0.34257092966E+03  0.25500000920E-02 0.  1.
</event>
<event>
 5   0  0.6493047E-03  0.1192307E+04  0.7818609E-02  0.9119617E-01
       -2   -1    0    0    0  501  0.00000000000E+00  0.00000000000E+00  0.25501940385E+03  0.25501940386E+03  0.25500000920E-02 0.  1.
        2   -1    0    0  501    0  0.00000000000E+00  0.00000000000E+00 -0.13936147460E+04  0.13936147460E+04  0.25500000920E-02 0. -1.
    10030    2    1    2    0    0  0.00000000000E+00  0.00000000000E+00 -0.11385953422E+04  0.16486341499E+04  0.11923066749E+04 0.  0.
        3    1    3    3  502    0  0.38890429435E+03 -0.12474817485E+03 -0.11697738745E+04  0.12390236418E+04  0.10100000352E+00 0. -1.
       -3    1    3    3    0  502 -0.38890429435E+03  0.12474817485E+03  0.31178532284E+02  0.40961050813E+03  0.10100000352E+00 0.  1.
</event>
<event>
 5   0  0.6349142E-03  0.1198289E+04  0.7818609E-02  0.9114356E-01
        2   -1    0    0  501    0  0.00000000000E+00  0.00000000000E+00  0.66629808747E+03  0.66629808747E+03  0.25500000920E-02 0.  1.
       -2   -1    0    0    0  501  0.00000000000E+00  0.00000000000E+00 -0.53875904052E+03  0.53875904052E+03  0.25500000920E-02 0. -1.
    10030    2    1    2    0    0  0.00000000000E+00  0.00000000000E+00  0.12753904695E+03  0.12050571280E+04  0.11982889774E+04 0.  0.
        1    1    3    3  502    0 -0.43487663899E+03 -0.31705594091E+03  0.32856636620E+03  0.63055373905E+03  0.50400001928E-02 0.  1.
       -1    1    3    3    0  502  0.43487663899E+03  0.31705594091E+03 -0.20102731925E+03  0.57450338895E+03  0.50400001928E-02 0. -1.
</event>
<event>
 5   0  0.6585930E-03  0.1200401E+04  0.7818609E-02  0.9112505E-01
        2   -1    0    0  501    0  0.00000000000E+00  0.00000000000E+00  0.10501575506E+04  0.10501575506E+04  0.25500000920E-02 0. -1.
       -2   -1    0    0    0  501  0.00000000000E+00  0.00000000000E+00 -0.34303506013E+03  0.34303506014E+03  0.25500000920E-02 0.  1.
    10030    2    1    2    0    0  0.00000000000E+00  0.00000000000E+00  0.70712249048E+03  0.13931926107E+04  0.12004013638E+04 0.  0.
        2    1    3    3  502    0 -0.59432561990E+03  0.39694824262E+02  0.43918088706E+03  0.74005302047E+03  0.25500000920E-02 0. -1.
       -2    1    3    3    0  502  0.59432561990E+03 -0.39694824262E+02  0.26794160341E+03  0.65313959028E+03  0.25500000920E-02 0.  1.
</event>
<event>
 5   0  0.6493047E-03  0.1115059E+04  0.7818609E-02  0.9190638E-01
       -2   -1    0    0    0  501  0.00000000000E+00  0.00000000000E+00  0.26725059721E+03  0.26725059722E+03  0.25500000920E-02 0.  1.
        2   -1    0    0  501    0  0.00000000000E+00  0.00000000000E+00 -0.11630996264E+04  0.11630996264E+04  0.25500000920E-02 0. -1.
    10030    2    1    2    0    0  0.00000000000E+00  0.00000000000E+00 -0.89584902917E+03  0.14303502236E+04  0.11150588680E+04 0.  0.
        3    1    3    3  502    0  0.27131942879E+03 -0.39011293696E+03 -0.82199018373E+03  0.94945784971E+03  0.10100000352E+00 0. -1.
       -3    1    3    3    0  502 -0.27131942879E+03  0.39011293696E+03 -0.73858845442E+02  0.48089237390E+03  0.10100000352E+00 0.  1.
</event>
<event>
 5   0  0.3772254E-03  0.1184367E+04  0.7818609E-02  0.9126651E-01
        1   -1    0    0  501    0  0.00000000000E+00  0.00000000000E+00  0.58121943105E+03  0.58121943108E+03  0.50400001928E-02 0. -1.
       -1   -1    0    0    0  501  0.00000000000E+00  0.00000000000E+00 -0.60335439021E+03  0.60335439023E+03  0.50400001928E-02 0.  1.
    10030    2    1    2    0    0  0.00000000000E+00  0.00000000000E+00 -0.22134959156E+02  0.11845738213E+04  0.11843669962E+04 0.  0.
        3    1    3    3  502    0  0.36160205669E+03 -0.41993896843E+03  0.19771882603E+03  0.58838552750E+03  0.10100000352E+00 0. -1.
       -3    1    3    3    0  502 -0.36160205669E+03  0.41993896843E+03 -0.21985378518E+03  0.59618829380E+03  0.10100000352E+00 0.  1.
</event>
<event>
 5   0  0.6640844E-03  0.1214530E+04  0.7818609E-02  0.9100233E-01
       -2   -1    0    0    0  501  0.00000000000E+00  0.00000000000E+00  0.18713015915E+03  0.18713015917E+03  0.25500000920E-02 0.  1.
        2   -1    0    0  501    0  0.00000000000E+00  0.00000000000E+00 -0.19706651228E+04  0.19706651228E+04  0.25500000920E-02 0. -1.
    10030    2    1    2    0    0  0.00000000000E+00  0.00000000000E+00 -0.17835349636E+04  0.21577952820E+04  0.12145301611E+04 0.  0.
        5    1    3    3  502    0  0.40393508481E+03 -0.38498419360E+03 -0.46621466805E+03  0.72715513391E+03  0.46999998093E+01 0. -1.
       -5    1    3    3    0  502 -0.40393508481E+03  0.38498419360E+03 -0.13173202956E+04  0.14306401481E+04  0.46999998093E+01 0.  1.
</event>
<event>
 5   0  0.3731281E-03  0.1225284E+04  0.7818609E-02  0.9091009E-01
        1   -1    0    0  501    0  0.00000000000E+00  0.00000000000E+00  0.91499802038E+03  0.91499802039E+03  0.50400001928E-02 0. -1.
       -1   -1    0    0    0  501  0.00000000000E+00  0.00000000000E+00 -0.41019809448E+03  0.41019809451E+03  0.50400001928E-02 0.  1.
    10030    2    1    2    0    0  0.00000000000E+00  0.00000000000E+00  0.50479992590E+03  0.13251961149E+04  0.12252843661E+04 0.  0.
        5    1    3    3  502    0 -0.13176959143E+03 -0.56939493712E+03  0.53753596945E+02  0.58692875107E+03  0.46999998093E+01 0. -1.
       -5    1    3    3    0  502  0.13176959143E+03  0.56939493712E+03  0.45104632896E+03  0.73826736384E+03  0.46999998093E+01 0.  1.
</event>
<event>
 5   0  0.3772254E-03  0.1188404E+04  0.7818609E-02  0.9123068E-01
       -1   -1    0    0    0  501  0.00000000000E+00  0.00000000000E+00  0.25514039931E+03  0.25514039936E+03  0.50400001928E-02 0. -1.
        1   -1    0    0  501    0  0.00000000000E+00  0.00000000000E+00 -0.13838492507E+04  0.13838492508E+04  0.50400001928E-02 0.  1.
    10030    2    1    2    0    0  0.00000000000E+00  0.00000000000E+00 -0.11287088514E+04  0.16389896501E+04  0.11884037201E+04 0.  0.
        3    1    3    3  502    0 -0.27963936885E+02 -0.31558778977E+03  0.12893294250E+03  0.34205459897E+03  0.10100000352E+00 0. -1.
       -3    1    3    3    0  502  0.27963936885E+02  0.31558778977E+03 -0.12576417939E+04  0.12969350511E+04  0.10100000352E+00 0.  1.
</event>
<event>
 5   0  0.6493047E-03  0.1148068E+04  0.7818609E-02  0.9159568E-01
       -2   -1    0    0    0  501  0.00000000000E+00  0.00000000000E+00  0.40056249536E+03  0.40056249537E+03  0.25500000920E-02 0.  1.
        2   -1    0    0  501    0  0.00000000000E+00  0.00000000000E+00 -0.82263084418E+03  0.82263084419E+03  0.25500000920E-02 0. -1.
    10030    2    1    2    0    0  0.00000000000E+00  0.00000000000E+00 -0.42206834882E+03  0.12231933396E+04  0.11480680532E+04 0.  0.
        3    1    3    3  502    0 -0.32286860646E+03 -0.23375647946E+03 -0.65113651190E+03  0.76345595554E+03  0.10100000352E+00 0. -1.
       -3    1    3    3    0  502  0.32286860646E+03  0.23375647946E+03  0.22906816308E+03  0.45973738402E+03  0.10100000352E+00 0.  1.
</event>
<event>
 5   0  0.3701879E-03  0.1112701E+04  0.7818609E-02  0.9192901E-01
        1   -1    0    0  501    0  0.00000000000E+00  0.00000000000E+00  0.17653668948E+04  0.17653668948E+04  0.50400001928E-02 0.  1.
       -1   -1    0    0    0  501  0.00000000000E+00  0.00000000000E+00 -0.17533216604E+03  0.17533216612E+03  0.50400001928E-02 0. -1.
    10030    2    1    2    0    0  0.00000000000E+00  0.00000000000E+00  0.15900347287E+04  0.19406990609E+04  0.11127005017E+04 0.  0.
        1    1    3    3  502    0 -0.24638816074E+03  0.49835563834E+03  0.75760442193E+03  0.93969672138E+03  0.50400001928E-02 0. -1.
       -1    1    3    3    0  502  0.24638816074E+03 -0.49835563834E+03  0.83243030679E+03  0.10010023395E+04  0.50400001928E-02 0.  1.
</event>
<event>
 5   0  0.3772254E-03  0.8983350E+03  0.7818609E-02  0.9427665E-01
       -1   -1    0    0    0  501  0.00000000000E+00  0.00000000000E+00  0.42959261747E+03  0.42959261750E+03  0.50400001928E-02 0. -1.
        1   -1    0    0  501    0  0.00000000000E+00  0.00000000000E+00 -0.46963430516E+03  0.46963430519E+03  0.50400001928E-02 0.  1.
    10030    2    1    2    0    0  0.00000000000E+00  0.00000000000E+00 -0.40041687689E+02  0.89922692269E+03  0.89833497190E+03 0.  0.
        3    1    3    3  502    0  0.38634871021E+03  0.16447678082E+03  0.13961628676E+03  0.44250497742E+03  0.10100000352E+00 0. -1.
       -3    1    3    3    0  502 -0.38634871021E+03 -0.16447678082E+03 -0.17965797445E+03  0.45672194527E+03  0.10100000352E+00 0.  1.
</event>
<event>
 5   0  0.3648616E-03  0.1173565E+04  0.7818609E-02  0.9136315E-01
       -1   -1    0    0    0  501  0.00000000000E+00  0.00000000000E+00  0.58373273336E+03  0.58373273338E+03  0.50400001928E-02 0.  1.
        1   -1    0    0  501    0  0.00000000000E+00  0.00000000000E+00 -0.58984814791E+03  0.58984814794E+03  0.50400001928E-02 0. -1.
    10030    2    1    2    0    0  0.00000000000E+00  0.00000000000E+00 -0.61154145572E+01  0.11735808813E+04  0.11735649478E+04 0.  0.
        2    1    3    3  502    0  0.20268048611E+03  0.52188466199E+03  0.17264525249E+03  0.58587486981E+03  0.25500000920E-02 0. -1.
       -2    1    3    3    0  502 -0.20268048611E+03 -0.52188466199E+03 -0.17876066704E+03  0.58770601150E+03  0.25500000920E-02 0.  1.
</event>
<event>
 5   0  0.3731281E-03  0.1136068E+04  0.7818609E-02  0.9170733E-01
       -1   -1    0    0    0  501  0.00000000000E+00  0.00000000000E+00  0.47850320964E+03  0.47850320967E+03  0.50400001928E-02 0.  1.
        1   -1    0    0  501    0  0.00000000000E+00  0.00000000000E+00 -0.67431708454E+03  0.67431708456E+03  0.50400001928E-02 0. -1.
    10030    2    1    2    0    0  0.00000000000E+00  0.00000000000E+00 -0.19581387490E+03  0.11528202942E+04  0.11360684650E+04 0.  0.
        5    1    3    3  502    0 -0.55748837633E+03 -0.26408760855E+02 -0.20505793892E+03  0.59461042768E+03  0.46999998093E+01 0. -1.
       -5    1    3    3    0  502  0.55748837633E+03  0.26408760855E+02  0.92440640184E+01  0.55820986655E+03  0.46999998093E+01 0.  1.
</event>
<event>
 5   0  0.6658994E-03  0.9698225E+03  0.7818609E-02  0.9342277E-01
       -2   -1    0    0    0  501  0.00000000000E+00  0.00000000000E+00  0.12281973708E+03  0.12281973711E+03  0.25500000920E-02 0.  1.
        2   -1    0    0  501    0  0.00000000000E+00  0.00000000000E+00 -0.19145045119E+04  0.19145045119E+04  0.25500000920E-02 0. -1.
    10030    2    1    2    0    0  0.00000000000E+00  0.00000000000E+00 -0.17916847748E+04  0.20373242490E+04  0.96982254215E+03 0.  0.
        4    1    3    3  502    0  0.37914380965E+03 -0.11281387898E+03 -0.14850193498E+04  0.15368022260E+04  0.12699999809E+01 0. -1.
       -4    1    3    3    0  502 -0.37914380965E+03  0.11281387898E+03 -0.30666542498E+03  0.50052202296E+03  0.12699999809E+01 0.  1.
</event>
<event>
 5   0  0.6349142E-03  0.1174332E+04  0.7818609E-02  0.9135625E-01
        2   -1    0    0  501    0  0.00000000000E+00  0.00000000000E+00  0.14833907389E+04  0.14833907389E+04  0.25500000920E-02 0. -1.
       -2   -1    0    0    0  501  0.00000000000E+00  0.00000000000E+00 -0.23241624914E+03  0.23241624915E+03  0.25500000920E-02 0.  1.
    10030    2    1    2    0    0  0.00000000000E+00  0.00000000000E+00  0.12509744898E+04  0.17158069881E+04  0.11743323406E+04 0.  0.
        1    1    3    3  502    0 -0.30922541105E+03 -0.98075350698E+02  0.13405642611E+04  0.13792576508E+04  0.50400001928E-02 0. -1.
       -1    1    3    3    0  502  0.30922541105E+03  0.98075350698E+02 -0.89589771302E+02  0.33654933725E+03  0.50400001928E-02 0.  1.
</event>
<event>
 5   0  0.3944074E-03  0.1212995E+04  0.7818609E-02  0.9101558E-01
        1   -1    0    0  501    0  0.00000000000E+00  0.00000000000E+00  0.15756166314E+04  0.15756166314E+04  0.50400001928E-02 0. -1.
       -1   -1    0    0    0  501  0.00000000000E+00  0.00000000000E+00 -0.23345718619E+03  0.23345718624E+03  0.50400001928E-02 0.  1.
    10030    2    1    2    0    0  0.00000000000E+00  0.00000000000E+00  0.13421594452E+04  0.18090738176E+04  0.12129946831E+04 0.  0.
        4    1    3    3  502    0  0.20345549273E+03 -0.30338332013E+03 -0.50987939474E+02  0.36883188491E+03  0.12699999809E+01 0.  1.
       -4    1    3    3    0  502 -0.20345549273E+03  0.30338332013E+03  0.13931473847E+04  0.14402419327E+04  0.12699999809E+01 0. -1.
</event>
<event>
 5   0  0.6585930E-03  0.1184972E+04  0.7818609E-02  0.9126113E-01
        2   -1    0    0  501    0  0.00000000000E+00  0.00000000000E+00  0.55613683368E+03  0.55613683368E+03  0.25500000920E-02 0.  1.
       -2   -1    0    0    0  501  0.00000000000E+00  0.00000000000E+00 -0.63121092111E+03  0.63121092111E+03  0.25500000920E-02 0. -1.
    10030    2    1    2    0    0  0.00000000000E+00  0.00000000000E+00 -0.75074087432E+02  0.11873477548E+04  0.11849719711E+04 0.  0.
        2    1    3    3  502    0 -0.50002615656E+03 -0.19346648629E+03 -0.29020169026E+03  0.60964945632E+03  0.25500000920E-02 0. -1.
       -2    1    3    3    0  502  0.50002615656E+03  0.19346648629E+03  0.21512760283E+03  0.57769829847E+03  0.25500000920E-02 0.  1.
</event>
<event>
 5   0  0.3731281E-03  0.1268681E+04  0.7818609E-02  0.9054777E-01
        1   -1    0    0  501    0  0.00000000000E+00  0.00000000000E+00  0.64123714220E+03  0.64123714222E+03  0.50400001928E-02 0.  1.
       -1   -1    0    0    0  501  0.00000000000E+00  0.00000000000E+00 -0.62751806321E+03  0.62751806323E+03  0.50400001928E-02 0. -1.
    10030    2    1    2    0    0  0.00000000000E+00  0.00000000000E+00  0.13719078986E+02  0.12687552054E+04  0.12686810309E+04 0.  0.
        5    1    3    3  502    0 -0.38157496662E+03  0.20273998717E+03  0.47128182640E+03  0.63939941151E+03  0.46999998093E+01 0.  1.
       -5    1    3    3    0  502  0.38157496662E+03 -0.20273998717E+03 -0.45756274741E+03  0.62935579394E+03  0.46999998093E+01 0. -1.
</event>
<event>
 5   0  0.6585930E-03  0.1164905E+04  0.7818609E-02  0.9144142E-01
       -2   -1    0    0    0  501  0.00000000000E+00  0.00000000000E+00  0.53355693244E+03  0.53355693245E+03  0.25500000920E-02 0. -1.
        2   -1    0    0  501    0  0.00000000000E+00  0.00000000000E+00 -0.63582845219E+03  0.63582845220E+03  0.25500000920E-02 0.  1.
    10030    2    1    2    0    0  0.00000000000E+00  0.00000000000E+00 -0.10227151975E+03  0.11693853846E+04  0.11649045944E+04 0.  0.
        2    1    3    3  502    0  0.43823013581E+03  0.11848029824E+03  0.31518905425E+03  0.55265484068E+03  0.25500000920E-02 0. -1.
       -2    1    3    3    0  502 -0.43823013581E+03 -0.11848029824E+03 -0.41746057400E+03  0.61673054396E+03  0.25500000920E-02 0.  1.
</event>
<event>
 5   0  0.3648616E-03  0.1180863E+04  0.7818609E-02  0.9129774E-01
        1   -1    0    0  501    0  0.00000000000E+00  0.00000000000E+00  0.41547911411E+03  0.41547911414E+03  0.50400001928E-02 0. -1.
       -1   -1    0    0    0  501  0.00000000000E+00  0.00000000000E+00 -0.83905370043E+03  0.83905370044E+03  0.50400001928E-02 0.  1.
    10030    2    1    2    0    0  0.00000000000E+00  0.00000000000E+00 -0.42357458632E+03  0.12545328146E+04  0.11808628848E+04 0.  0.
        2    1    3    3  502    0  0.49780028447E+03 -0.29599957466E+03 -0.33379264562E+03  0.66845972332E+03  0.25500000920E-02 0. -1.
       -2    1    3    3    0  502 -0.49780028447E+03  0.29599957466E+03 -0.89781940694E+02  0.58607309127E+03  0.25500000920E-02 0.  1.
</event>
<event>
 5   0  0.3648616E-03  0.1311753E+04  0.7818609E-02  0.9020297E-01
        1   -1    0    0  501    0  0.00000000000E+00  0.00000000000E+00  0.11435309729E+04  0.11435309729E+04  0.50400001928E-02 0.  1.
       -1   -1    0    0    0  501  0.00000000000E+00  0.00000000000E+00 -0.37618042964E+03  0.37618042967E+03  0.50400001928E-02 0. -1.
    10030    2    1    2    0    0  0.00000000000E+00  0.00000000000E+00  0.76735054327E+03  0.15197114026E+04  0.13117529840E+04 0.  0.
        2    1    3    3  502    0 -0.12866426997E+03  0.63641271963E+03  0.49110292312E+03  0.81409933373E+03  0.25500000920E-02 0. -1.
       -2    1    3    3    0  502  0.12866426997E+03 -0.63641271963E+03  0.27624762015E+03  0.70561206886E+03  0.25500000920E-02 0.  1.
</event>
<event>
 5   0  0.3648616E-03  0.1200688E+04  0.7818609E-02  0.9112255E-01
        1   -1    0    0  501    0  0.00000000000E+00  0.00000000000E+00  0.77710736208E+03  0.77710736210E+03  0.50400001928E-02 0. -1.
       -1   -1    0    0    0  501  0.00000000000E+00  0.00000000000E+00 -0.46378742744E+03  0.46378742747E+03  0.50400001928E-02 0.  1.
    10030    2    1    2    0    0  0.00000000000E+00  0.00000000000E+00  0.31331993464E+03  0.12408947896E+04  0.12006875103E+04 0.  0.
        2    1    3    3  502    0  0.20659011534E+03  0.11844864509E+03 -0.41288701722E+03  0.47663953495E+03  0.25500000920E-02 0.  1.
       -2    1    3    3    0  502 -0.20659011534E+03 -0.11844864509E+03  0.72620695186E+03  0.76425525462E+03  0.25500000920E-02 0. -1.
</event>
<event>
 5   0  0.6585930E-03  0.1213192E+04  0.7818609E-02  0.9101387E-01
        2   -1    0    0  501    0  0.00000000000E+00  0.00000000000E+00  0.70151201651E+03  0.70151201652E+03  0.25500000920E-02 0.  1.
       -2   -1    0    0    0  501  0.00000000000E+00  0.00000000000E+00 -0.52452257759E+03  0.52452257760E+03  0.25500000920E-02 0. -1.
    10030    2    1    2    0    0  0.00000000000E+00  0.00000000000E+00  0.17698943892E+03  0.12260345941E+04  0.12131923032E+04 0.  0.
        2    1    3    3  502    0  0.64201682605E+02  0.39800642535E+03 -0.36954465518E+03  0.54689507481E+03  0.25500000920E-02 0. -1.
       -2    1    3    3    0  502 -0.64201682605E+02 -0.39800642535E+03  0.54653409409E+03  0.67913951931E+03  0.25500000920E-02 0.  1.
</event>
<event>
 5   0  0.3731281E-03  0.1194774E+04  0.7818609E-02  0.9117443E-01
        1   -1    0    0  501    0  0.00000000000E+00  0.00000000000E+00  0.91982157094E+03  0.91982157095E+03  0.50400001928E-02 0.  1.
       -1   -1    0    0    0  501  0.00000000000E+00  0.00000000000E+00 -0.38797898803E+03  0.38797898806E+03  0.50400001928E-02 0. -1.
    10030    2    1    2    0    0  0.00000000000E+00  0.00000000000E+00  0.53184258292E+03  0.13078005590E+04  0.11947743591E+04 0.  0.
        5    1    3    3  502    0  0.99819530357E+02  0.33726971119E+03  0.79443827790E+03  0.86883201145E+03  0.46999998093E+01 0.  1.
       -5    1    3    3    0  502 -0.99819530357E+02 -0.33726971119E+03 -0.26259569498E+03  0.43896854756E+03  0.46999998093E+01 0. -1.
</event>
<event>
 5   0  0.6640844E-03  0.1043964E+04  0.7818609E-02  0.9261598E-01
        2   -1    0    0  501    0  0.00000000000E+00  0.00000000000E+00  0.12037237546E+04  0.12037237546E+04  0.25500000920E-02 0. -1.
       -2   -1    0    0    0  501  0.00000000000E+00  0.00000000000E+00 -0.22635209711E+03  0.22635209712E+03  0.25500000920E-02 0.  1.
    10030    2    1    2    0    0  0.00000000000E+00  0.00000000000E+00  0.97737165744E+03  0.14300758517E+04  0.10439643599E+04 0.  0.
        5    1    3    3  502    0 -0.47017227443E+02  0.17010901906E+03  0.11615820809E+04  0.11749224309E+04  0.46999998093E+01 0. -1.
       -5    1    3    3    0  502  0.47017227443E+02 -0.17010901906E+03 -0.18421042342E+03  0.25515342078E+03  0.46999998093E+01 0.  1.
</event>
<event>
 5   0  0.6640844E-03  0.1196574E+04  0.7818609E-02  0.9115861E-01
        2   -1    0    0  501    0  0.00000000000E+00  0.00000000000E+00  0.76239417542E+03  0.76239417543E+03  0.25500000920E-02 0.  1.
       -2   -1    0    0    0  501  0.00000000000E+00  0.00000000000E+00 -0.46950432599E+03  0.46950432599E+03  0.25500000920E-02 0. -1.
    10030    2    1    2    0    0  0.00000000000E+00  0.00000000000E+00  0.29288984943E+03  0.12318985014E+04  0.11965740486E+04 0.  0.
        5    1    3    3  502    0  0.29527459523E+03  0.22096094709E+01 -0.38923600953E+03  0.48858850792E+03  0.46999998093E+01 0. -1.
       -5    1    3    3    0  502 -0.29527459523E+03 -0.22096094709E+01  0.68212585897E+03  0.74330999350E+03  0.46999998093E+01 0.  1.
</event>
<event>
 5   0  0.6658994E-03  0.1208873E+04  0.7818609E-02  0.9105125E-01
       -2   -1    0    0    0  501  0.00000000000E+00  0.00000000000E+00  0.13595559077E+03  0.13595559079E+03  0.25500000920E-02 0.  1.
        2   -1    0    0  501    0  0.00000000000E+00  0.00000000000E+00 -0.26872263128E+04  0.26872263128E+04  0.25500000920E-02 0. -1.
    10030    2    1    2    0    0  0.00000000000E+00  0.00000000000E+00 -0.25512707221E+04  0.28231819036E+04  0.12088729312E+04 0.  0.
        4    1    3    3  502    0  0.19659544691E+03  0.33868733619E+03 -0.23508834288E+04  0.23832778668E+04  0.12699999809E+01 0. -1.
       -4    1    3    3    0  502 -0.19659544691E+03 -0.33868733619E+03 -0.20038729324E+03  0.43990403685E+03  0.12699999809E+01 0.  1.
</event>
<event>
 5   0  0.3944074E-03  0.1213163E+04  0.7818609E-02  0.9101412E-01
        1   -1    0    0  501    0  0.00000000000E+00  0.00000000000E+00  0.74167814638E+03  0.74167814639E+03  0.50400001928E-02 0.  1.
       -1   -1    0    0    0  501  0.00000000000E+00  0.00000000000E+00 -0.49609298337E+03  0.49609298339E+03  0.50400001928E-02 0. -1.
    10030    2    1    2    0    0  0.00000000000E+00  0.00000000000E+00  0.24558516301E+03  0.12377711298E+04  0.12131633433E+04 0.  0.
        4    1    3    3  502    0 -0.41450031574E+03 -0.15924933237E+03  0.54441665152E+03  0.70253965366E+03  0.12699999809E+01 0.  1.
       -4    1    3    3    0  502  0.41450031574E+03  0.15924933237E+03 -0.29883148851E+03  0.53523147613E+03  0.12699999809E+01 0. -1.
</event>
<event>
 5   0  0.3648616E-03  0.1194086E+04  0.7818609E-02  0.9118049E-01
        1   -1    0    0  501    0  0.00000000000E+00  0.00000000000E+00  0.98300347037E+03  0.98300347038E+03  0.50400001928E-02 0. -1.
       -1   -1    0    0    0  501  0.00000000000E+00  0.00000000000E+00 -0.36262364984E+03  0.36262364987E+03  0.50400001928E-02 0.  1.
    10030    2    1    2    0    0  0.00000000000E+00  0.00000000000E+00  0.62037982054E+03  0.13456271203E+04  0.11940859370E+04 0.  0.
        2    1    3    3  502    0  0.13654226091E+03 -0.18472709429E+03 -0.31083085561E+03  0.38650188769E+03  0.25500000920E-02 0.  1.
       -2    1    3    3    0  502 -0.13654226091E+03  0.18472709429E+03  0.93121067614E+03  0.95912523257E+03  0.25500000920E-02 0. -1.
</event>
<event>
 5   0  0.2537625E-03  0.1209748E+04  0.7818609E-02  0.9104366E-01
        3   -1    0    0  501    0  0.00000000000E+00  0.00000000000E+00  0.99062374864E+03  0.99062375379E+03  0.10100000352E+00 0. -1.
       -3   -1    0    0    0  501  0.00000000000E+00  0.00000000000E+00 -0.36933567275E+03  0.36933568656E+03  0.10100000352E+00 0.  1.
    10030    2    1    2    0    0  0.00000000000E+00  0.00000000000E+00  0.62128807590E+03  0.13599594403E+04  0.12097482408E+04 0.  0.
        3    1    3    3  502    0  0.72594931593E+00 -0.38224008868E+03 -0.21635509820E+03  0.43922380527E+03  0.10100000352E+00 0.  1.
       -3    1    3    3    0  502 -0.72594931593E+00  0.38224008868E+03  0.83764317410E+03  0.92073563508E+03  0.10100000352E+00 0. -1.
</event>
<event>
 5   0  0.6585930E-03  0.1222812E+04  0.7818609E-02  0.9093120E-01
        2   -1    0    0  501    0  0.00000000000E+00  0.00000000000E+00  0.75164907184E+03  0.75164907184E+03  0.25500000920E-02 0. -1.
       -2   -1    0    0    0  501  0.00000000000E+00  0.00000000000E+00 -0.49732944609E+03  0.49732944609E+03  0.25500000920E-02 0.  1.
    10030    2    1    2    0    0  0.00000000000E+00  0.00000000000E+00  0.25431962575E+03  0.12489785179E+04  0.12228118687E+04 0.  0.
        2    1    3    3  502    0  0.32295008200E+03  0.41339693775E+03 -0.19360401028E+03  0.55917465644E+03  0.25500000920E-02 0.  1.
       -2    1    3    3    0  502 -0.32295008200E+03 -0.41339693775E+03  0.44792363603E+03  0.68980386149E+03  0.25500000920E-02 0. -1.
</event>
<event>
 5   0  0.3648616E-03  0.1220132E+04  0.7818609E-02  0.9095416E-01
        1   -1    0    0  501    0  0.00000000000E+00  0.00000000000E+00  0.11209227907E+04  0.11209227907E+04  0.50400001928E-02 0.  1.
       -1   -1    0    0    0  501  0.00000000000E+00  0.00000000000E+00 -0.33203024843E+03  0.33203024847E+03  0.50400001928E-02 0. -1.
    10030    2    1    2    0    0  0.00000000000E+00  0.00000000000E+00  0.78889254222E+03  0.14529530391E+04  0.12201315875E+04 0.  0.
        2    1    3    3  502    0 -0.69323245703E+02  0.13666210887E+03 -0.30873881793E+03  0.34467651805E+03  0.25500000920E-02 0. -1.
       -2    1    3    3    0  502  0.69323245703E+02 -0.13666210887E+03  0.10976313601E+04  0.11082765211E+04  0.25500000920E-02 0.  1.
</event>
<event>
 5   0  0.6493047E-03  0.1225451E+04  0.7818609E-02  0.9090867E-01
       -2   -1    0    0    0  501  0.00000000000E+00  0.00000000000E+00  0.29516474739E+03  0.29516474740E+03  0.25500000920E-02 0.  1.
        2   -1    0    0  501    0  0.00000000000E+00  0.00000000000E+00 -0.12719419829E+04  0.12719419829E+04  0.25500000920E-02 0. -1.
    10030    2    1    2    0    0  0.00000000000E+00  0.00000000000E+00 -0.97677723554E+03  0.15671067303E+04  0.12254508299E+04 0.  0.
        3    1    3    3  502    0 -0.19114319519E+03 -0.25164256700E+03 -0.11596950339E+04  0.12019784875E+04  0.10100000352E+00 0. -1.
       -3    1    3    3    0  502  0.19114319519E+03  0.25164256700E+03  0.18291779831E+03  0.36512824287E+03  0.10100000352E+00 0.  1.
</event>
<event>
 5   0  0.6640844E-03  0.1110097E+04  0.7818609E-02  0.9195406E-01
       -2   -1    0    0    0  501  0.00000000000E+00  0.00000000000E+00  0.57518670626E+03  0.57518670627E+03  0.25500000920E-02 0.  1.
        2   -1    0    0  501    0  0.00000000000E+00  0.00000000000E+00 -0.53561516930E+03  0.53561516931E+03  0.25500000920E-02 0. -1.
    10030    2    1    2    0    0  0.00000000000E+00  0.00000000000E+00  0.39571536959E+02  0.11108018756E+04  0.11100967977E+04 0.  0.
        5    1    3    3  502    0 -0.85360983480E+01 -0.97167941306E+02 -0.52695138936E+03  0.53592381039E+03  0.46999998093E+01 0. -1.
       -5    1    3    3    0  502  0.85360983480E+01  0.97167941306E+02  0.56652292632E+03  0.57487806519E+03  0.46999998093E+01 0.  1.
</event>
<event>
 5   0  0.3731281E-03  0.1193804E+04  0.7818609E-02  0.9118297E-01
        1   -1    0    0  501    0  0.00000000000E+00  0.00000000000E+00  0.35881888239E+03  0.35881888242E+03  0.50400001928E-02 0. -1.
       -1   -1    0    0    0  501  0.00000000000E+00  0.00000000000E+00 -0.99295847090E+03  0.99295847091E+03  0.50400001928E-02 0.  1.
    10030    2    1    2    0    0  0.00000000000E+00  0.00000000000E+00 -0.63413958851E+03  0.13517773533E+04  0.11938044209E+04 0.  0.
        5    1    3    3  502    0 -0.40954511663E+03  0.29056245968E+03  0.48299110076E+02  0.50448849299E+03  0.46999998093E+01 0. -1.
       -5    1    3    3    0  502  0.40954511663E+03 -0.29056245968E+03 -0.68243869858E+03  0.84728886034E+03  0.46999998093E+01 0.  1.
</event>
<event>
 5   0  0.3772254E-03  0.1194206E+04  0.7818609E-02  0.9117943E-01
       -1   -1    0    0    0  501  0.00000000000E+00  0.00000000000E+00  0.36970184091E+03  0.36970184094E+03  0.50400001928E-02 0. -1.
        1   -1    0    0  501    0  0.00000000000E+00  0.00000000000E+00 -0.96437720655E+03  0.96437720656E+03  0.50400001928E-02 0.  1.
    10030    2    1    2    0    0  0.00000000000E+00  0.00000000000E+00 -0.59467536564E+03  0.13340790475E+04  0.11942060603E+04 0.  0.
        3    1    3    3  502    0  0.17198091618E+03  0.57069433013E+03 -0.33703206724E+03  0.68473358215E+03  0.10100000352E+00 0.  1.
       -3    1    3    3    0  502 -0.17198091618E+03 -0.57069433013E+03 -0.25764329840E+03  0.64934546536E+03  0.10100000352E+00 0. -1.
</event>
<event>
 5   0  0.6493047E-03  0.1192452E+04  0.7818609E-02  0.9119489E-01
        2   -1    0    0  501    0  0.00000000000E+00  0.00000000000E+00  0.61492370805E+03  0.61492370806E+03  0.25500000920E-02 0. -1.
       -2   -1    0    0    0  501  0.00000000000E+00  0.00000000000E+00 -0.57809672844E+03  0.57809672845E+03  0.25500000920E-02 0.  1.
    10030    2    1    2    0    0  0.00000000000E+00  0.00000000000E+00  0.36826979612E+02  0.11930204365E+04  0.11924519007E+04 0.  0.
        3    1    3    3  502    0 -0.12012077194E+03  0.11418022729E+03  0.59141620301E+03  0.61419806214E+03  0.10100000352E+00 0. -1.
       -3    1    3    3    0  502  0.12012077194E+03 -0.11418022729E+03 -0.55458922340E+03  0.57882237436E+03  0.10100000352E+00 0.  1.
</event>
<event>
 5   0  0.6349142E-03  0.1214442E+04  0.7818609E-02  0.9100308E-01
        2   -1    0    0  501    0  0.00000000000E+00  0.00000000000E+00  0.62506833001E+03  0.62506833001E+03  0.25500000920E-02 0. -1.
       -2   -1    0    0    0  501  0.00000000000E+00  0.00000000000E+00 -0.58988367820E+03  0.58988367821E+03  0.25500000920E-02 0.  1.
    10030    2    1    2    0    0  0.00000000000E+00  0.00000000000E+00  0.35184651807E+02  0.12149520082E+04  0.12144424328E+04 0.  0.
        1    1    3    3  502    0 -0.57432931536E+03 -0.55920677802E+02 -0.17152752199E+03  0.60199914910E+03  0.50400001928E-02 0.  1.
       -1    1    3    3    0  502  0.57432931536E+03  0.55920677802E+02  0.20671217380E+03  0.61295285912E+03  0.50400001928E-02 0. -1.
</event>
<event>
 5   0  0.6349142E-03  0.1199871E+04  0.7818609E-02  0.9112969E-01
        2   -1    0    0  501    0  0.00000000000E+00  0.00000000000E+00  0.13356666867E+04  0.13356666867E+04  0.25500000920E-02 0. -1.
       -2   -1    0    0    0  501  0.00000000000E+00  0.00000000000E+00 -0.26947050291E+03  0.26947050292E+03  0.25500000920E-02 0.  1.
    10030    2    1    2    0    0  0.00000000000E+00  0.00000000000E+00  0.10661961838E+04  0.16051371896E+04  0.11998712828E+04 0.  0.
        1    1    3    3  502    0  0.23539359140E+03 -0.16435481495E+02 -0.20478480237E+03  0.31243732689E+03  0.50400001928E-02 0.  1.
       -1    1    3    3    0  502 -0.23539359140E+03  0.16435481495E+02  0.12709809861E+04  0.12926998627E+04  0.50400001928E-02 0. -1.
</event>
<event>
 5   0  0.6585930E-03  0.1296934E+04  0.7818609E-02  0.9032000E-01
        2   -1    0    0  501    0  0.00000000000E+00  0.00000000000E+00  0.11665608909E+04  0.11665608909E+04  0.25500000920E-02 0. -1.
       -2   -1    0    0    0  501  0.00000000000E+00  0.00000000000E+00 -0.36046953174E+03  0.36046953175E+03  0.25500000920E-02 0.  1.
    10030    2    1    2    0    0  0.00000000000E+00  0.00000000000E+00  0.80609135914E+03  0.15270304226E+04  0.12969343208E+04 0.  0.
        2    1    3    3  502    0 -0.21612798450E+02 -0.48435809031E+03  0.91007277008E+03  0.10311655151E+04  0.25500000920E-02 0. -1.
       -2    1    3    3    0  502  0.21612798450E+02  0.48435809031E+03 -0.10398141093E+03  0.49586490754E+03  0.25500000920E-02 0.  1.
</event>
<event>
 5   0  0.3701879E-03  0.1229505E+04  0.7818609E-02  0.9087416E-01
       -1   -1    0    0    0  501  0.00000000000E+00  0.00000000000E+00  0.75408960596E+03  0.75408960598E+03  0.50400001928E-02 0. -1.
        1   -1    0    0  501    0  0.00000000000E+00  0.00000000000E+00 -0.50116122064E+03  0.50116122067E+03  0.50400001928E-02 0.  1.
    10030    2    1    2    0    0  0.00000000000E+00  0.00000000000E+00  0.25292838532E+03  0.12552508266E+04  0.12295047254E+04 0.  0.
        1    1    3    3  502    0 -0.96111759329E+02  0.30004346940E+03  0.66539774853E+03  0.73621852570E+03  0.50400001928E-02 0. -1.
       -1    1    3    3    0  502  0.96111759329E+02 -0.30004346940E+03 -0.41246936321E+03  0.51903230094E+03  0.50400001928E-02 0.  1.
</event>
<event>
 5   0  0.6349142E-03  0.1212321E+04  0.7818609E-02  0.9102140E-01
       -2   -1    0    0    0  501  0.00000000000E+00  0.00000000000E+00  0.37707856871E+03  0.37707856872E+03  0.25500000920E-02 0. -1.
        2   -1    0    0  501    0  0.00000000000E+00  0.00000000000E+00 -0.97441387577E+03  0.97441387577E+03  0.25500000920E-02 0.  1.
    10030    2    1    2    0    0  0.00000000000E+00  0.00000000000E+00 -0.59733530706E+03  0.13514924445E+04  0.12123210624E+04 0.  0.
        1    1    3    3  502    0 -0.23304988048E+03  0.25198752233E+03 -0.85564330519E+03  0.92191942378E+03  0.50400001928E-02 0.  1.
       -1    1    3    3    0  502  0.23304988048E+03 -0.25198752233E+03  0.25830799813E+03  0.42957302071E+03  0.50400001928E-02 0. -1.
</event>
<event>
 5   0  0.6658994E-03  0.1185804E+04  0.7818609E-02  0.9125374E-01
        2   -1    0    0  501    0  0.00000000000E+00  0.00000000000E+00  0.18961355661E+04  0.18961355661E+04  0.25500000920E-02 0.  1.
       -2   -1    0    0    0  501  0.00000000000E+00  0.00000000000E+00 -0.18539433117E+03  0.18539433119E+03  0.25500000920E-02 0. -1.
    10030    2    1    2    0    0  0.00000000000E+00  0.00000000000E+00  0.17107412350E+04  0.20815298973E+04  0.11858040059E+04 0.  0.
        4    1    3    3  502    0 -0.16136535087E+03  0.99455857565E+01 -0.14595231822E+03  0.21781042957E+03  0.12699999809E+01 0. -1.
       -4    1    3    3    0  502  0.16136535087E+03 -0.99455857565E+01  0.18566935532E+04  0.18637194677E+04  0.12699999809E+01 0.  1.
</event>
<event>
 5   0  0.6493047E-03  0.1235384E+04  0.7818609E-02  0.9082436E-01
       -2   -1    0    0    0  501  0.00000000000E+00  0.00000000000E+00  0.98543274766E+03  0.98543274766E+03  0.25500000920E-02 0. -1.
        2   -1    0    0  501    0  0.00000000000E+00  0.00000000000E+00 -0.38718376211E+03  0.38718376212E+03  0.25500000920E-02 0.  1.
    10030    2    1    2    0    0  0.00000000000E+00  0.00000000000E+00  0.59824898555E+03  0.13726165098E+04  0.12353842456E+04 0.  0.
        3    1    3    3  502    0  0.20696214987E+03 -0.21777908144E+03 -0.30053449563E+03  0.42494947118E+03  0.10100000352E+00 0.  1.
       -3    1    3    3    0  502 -0.20696214987E+03  0.21777908144E+03  0.89878348118E+03  0.94766703859E+03  0.10100000352E+00 0. -1.
</event>
<event>
 5   0  0.3772254E-03  0.1260167E+04  0.7818609E-02  0.9061764E-01
        1   -1    0    0  501    0  0.00000000000E+00  0.00000000000E+00  0.10775890895E+04  0.10775890895E+04  0.50400001928E-02 0.  1.
       -1   -1    0    0    0  501  0.00000000000E+00  0.00000000000E+00 -0.36841964594E+03  0.36841964598E+03  0.50400001928E-02 0. -1.
    10030    2    1    2    0    0  0.00000000000E+00  0.00000000000E+00  0.70916944353E+03  0.14460087355E+04  0.12601666411E+04 0.  0.
        3    1    3    3  502    0  0.52149864032E+03 -0.15936922198E+03  0.71680436686E+03  0.90064859480E+03  0.10100000352E+00 0. -1.
       -3    1    3    3    0  502 -0.52149864032E+03  0.15936922198E+03 -0.76349233303E+01  0.54536014066E+03  0.10100000352E+00 0.  1.
</event>
<event>
 5   0  0.2537625E-03  0.1195019E+04  0.7818609E-02  0.9117227E-01
        4   -1    0    0  501    0  0.00000000000E+00  0.00000000000E+00  0.43883893475E+03  0.43884077243E+03  0.12699999809E+01 0.  1.
       -4   -1    0    0    0  501  0.00000000000E+00  0.00000000000E+00 -0.81354680725E+03  0.81354779853E+03  0.12699999809E+01 0. -1.
    10030    2    1    2    0    0  0.00000000000E+00  0.00000000000E+00 -0.37470787250E+03  0.12523885710E+04  0.11950193065E+04 0.  0.
        1    1    3    3  502    0  0.18060876292E+03  0.19864729327E+02 -0.78389332835E+03  0.80467563836E+03  0.50400001928E-02 0. -1.
       -1    1    3    3    0  502 -0.18060876292E+03 -0.19864729327E+02  0.40918545585E+03  0.44771293260E+03  0.50400001928E-02 0.  1.
</event>
<event>
 5   0  0.6349142E-03  0.1252682E+04  0.7818609E-02  0.9067954E-01
       -2   -1    0    0    0  501  0.00000000000E+00  0.00000000000E+00  0.43474810200E+03  0.43474810201E+03  0.25500000920E-02 0. -1.
        2   -1    0    0  501    0  0.00000000000E+00  0.00000000000E+00 -0.90236799323E+03  0.90236799324E+03  0.25500000920E-02 0.  1.
    10030    2    1    2    0    0  0.00000000000E+00  0.00000000000E+00 -0.46761989123E+03  0.13371160952E+04  0.12526815595E+04 0.  0.
        1    1    3    3  502    0 -0.55058943628E+03  0.85961334746E+02  0.71408896139E+02  0.56181608102E+03  0.50400001928E-02 0.  1.
       -1    1    3    3    0  502  0.55058943628E+03 -0.85961334746E+02 -0.53902878737E+03  0.77530001423E+03  0.50400001928E-02 0. -1.
</event>
<event>
 5   0  0.6658994E-03  0.1195340E+04  0.7818609E-02  0.9116945E-01
        2   -1    0    0  501    0  0.00000000000E+00  0.00000000000E+00  0.71976392610E+03  0.71976392610E+03  0.25500000920E-02 0. -1.
       -2   -1    0    0    0  501  0.00000000000E+00  0.00000000000E+00 -0.49628704368E+03  0.49628704369E+03  0.25500000920E-02 0.  1.
    10030    2    1    2    0    0  0.00000000000E+00  0.00000000000E+00  0.22347688241E+03  0.12160509698E+04  0.11953401374E+04 0.  0.
        4    1    3    3  502    0  0.63972848109E+02  0.24284324797E+03 -0.44000755130E+03  0.50662967390E+03  0.12699999809E+01 0.  1.
       -4    1    3    3    0  502 -0.63972848109E+02 -0.24284324797E+03  0.66348443371E+03  0.70942129589E+03  0.12699999809E+01 0. -1.
</event>
<event>
 5   0  0.6493047E-03  0.1220932E+04  0.7818609E-02  0.9094730E-01
       -2   -1    0    0    0  501  0.00000000000E+00  0.00000000000E+00  0.43230535497E+03  0.43230535497E+03  0.25500000920E-02 0. -1.
        2   -1    0    0  501    0  0.00000000000E+00  0.00000000000E+00 -0.86204932428E+03  0.86204932428E+03  0.25500000920E-02 0.  1.
    10030    2    1    2    0    0  0.00000000000E+00  0.00000000000E+00 -0.42974396931E+03  0.12943546793E+04  0.12209316756E+04 0.  0.
        3    1    3    3  502    0 -0.31922594567E+02 -0.27520513294E+03 -0.79156267512E+03  0.83864676478E+03  0.10100000352E+00 0.  1.
       -3    1    3    3    0  502  0.31922594567E+02  0.27520513294E+03  0.36181870581E+03  0.45570791447E+03  0.10100000352E+00 0. -1.
</event>
<event>
 5   0  0.3701879E-03  0.1011493E+04  0.7818609E-02  0.9296029E-01
        1   -1    0    0  501    0  0.00000000000E+00  0.00000000000E+00  0.16015029541E+03  0.16015029548E+03  0.50400001928E-02 0.  1.
       -1   -1    0    0    0  501  0.00000000000E+00  0.00000000000E+00 -0.15971205187E+04  0.15971205187E+04  0.50400001928E-02 0. -1.
    10030    2    1    2    0    0  0.00000000000E+00  0.00000000000E+00 -0.14369702233E+04  0.17572708142E+04  0.10114926059E+04 0.  0.
        1    1    3    3  502    0 -0.21768411529E+03 -0.35804265460E+03 -0.22649219191E+03  0.47631883186E+03  0.50400001928E-02 0.  1.
       -1    1    3    3    0  502  0.21768411529E+03  0.35804265460E+03 -0.12104780314E+04  0.12809519824E+04  0.50400001928E-02 0. -1.
</event>
<event>
 5   0  0.6585930E-03  0.1179841E+04  0.7818609E-02  0.9130687E-01
        2   -1    0    0  501    0  0.00000000000E+00  0.00000000000E+00  0.77924736836E+03  0.77924736836E+03  0.25500000920E-02 0.  1.
       -2   -1    0    0    0  501  0.00000000000E+00  0.00000000000E+00 -0.44659271672E+03  0.44659271672E+03  0.25500000920E-02 0. -1.
    10030    2    1    2    0    0  0.00000000000E+00  0.00000000000E+00  0.33265465164E+03  0.12258400851E+04  0.11798410049E+04 0.  0.
        2    1    3    3  502    0  0.31689579415E+03  0.21944160296E+03 -0.29765783829E+03  0.48700898366E+03  0.25500000920E-02 0. -1.
       -2    1    3    3    0  502 -0.31689579415E+03 -0.21944160296E+03  0.63031248994E+03  0.73883110143E+03  0.25500000920E-02 0.  1.
</event>
<event>
 5   0  0.3944074E-03  0.1199272E+04  0.7818609E-02  0.9113494E-01
        1   -1    0    0  501    0  0.00000000000E+00  0.00000000000E+00  0.98807567115E+03  0.98807567117E+03  0.50400001928E-02 0.  1.
       -1   -1    0    0    0  501  0.00000000000E+00  0.00000000000E+00 -0.36390258661E+03  0.36390258665E+03  0.50400001928E-02 0. -1.
    10030    2    1    2    0    0  0.00000000000E+00  0.00000000000E+00  0.62417308454E+03  0.13519782578E+04  0.11992719334E+04 0.  0.
        4    1    3    3  502    0  0.35792307069E+03 -0.71898661499E+02  0.84835014970E+03  0.92356804376E+03  0.12699999809E+01 0.  1.
       -4    1    3    3    0  502 -0.35792307069E+03  0.71898661499E+02 -0.22417706516E+03  0.42841021405E+03  0.12699999809E+01 0. -1.
</event>
<event>
 5   0  0.3648616E-03  0.9097014E+03  0.7818609E-02  0.9413535E-01
       -1   -1    0    0    0  501  0.00000000000E+00  0.00000000000E+00  0.70384930937E+03  0.70384930939E+03  0.50400001928E-02 0. -1.
        1   -1    0    0  501    0  0.00000000000E+00  0.00000000000E+00 -0.29393956315E+03  0.29393956320E+03  0.50400001928E-02 0.  1.
    10030    2    1    2    0    0  0.00000000000E+00  0.00000000000E+00  0.40990974622E+03  0.99778887259E+03  0.90970139838E+03 0.  0.
        2    1    3    3  502    0 -0.77166609202E+02  0.43488732686E+03  0.32413902545E+03  0.54785744539E+03  0.25500000920E-02 0.  1.
       -2    1    3    3    0  502  0.77166609202E+02 -0.43488732686E+03  0.85770720770E+02  0.44993142720E+03  0.25500000920E-02 0. -1.
</event>
<event>
 5   0  0.6640844E-03  0.1173233E+04  0.7818609E-02  0.9136613E-01
        2   -1    0    0  501    0  0.00000000000E+00  0.00000000000E+00  0.10716133393E+04  0.10716133393E+04  0.25500000920E-02 0.  1.
       -2   -1    0    0    0  501  0.00000000000E+00  0.00000000000E+00 -0.32112247546E+03  0.32112247547E+03  0.25500000920E-02 0. -1.
    10030    2    1    2    0    0  0.00000000000E+00  0.00000000000E+00  0.75049086388E+03  0.13927358148E+04  0.11732333583E+04 0.  0.
        5    1    3    3  502    0  0.43163955740E+03  0.30283006617E+03  0.68039566915E+03  0.86080143651E+03  0.46999998093E+01 0. -1.
       -5    1    3    3    0  502 -0.43163955740E+03 -0.30283006617E+03  0.70095194725E+02  0.53193437830E+03  0.46999998093E+01 0.  1.
</event>
<event>
 5   0  0.3701879E-03  0.1076206E+04  0.7818609E-02  0.9228698E-01
        1   -1    0    0  501    0  0.00000000000E+00  0.00000000000E+00  0.12547228691E+04  0.12547228691E+04  0.50400001928E-02 0.  1.
       -1   -1    0    0    0  501  0.00000000000E+00  0.00000000000E+00 -0.23077201246E+03  0.23077201251E+03  0.50400001928E-02 0. -1.
    10030    2    1    2    0    0  0.00000000000E+00  0.00000000000E+00  0.10239508566E+04  0.14854948816E+04  0.10762061543E+04 0.  0.
        1    1    3    3  502    0  0.87866378063E+02  0.34898597635E+02 -0.21921803008E+03  0.23873616661E+03  0.50400001928E-02 0. -1.
       -1    1    3    3    0  502 -0.87866378063E+02 -0.34898597635E+02  0.12431688867E+04  0.12467587150E+04  0.50400001928E-02 0.  1.
</event>
<event>
 5   0  0.6658994E-03  0.1196503E+04  0.7818609E-02  0.9115923E-01
       -2   -1    0    0    0  501  0.00000000000E+00  0.00000000000E+00  0.63029650871E+03  0.63029650872E+03  0.25500000920E-02 0. -1.
        2   -1    0    0  501    0  0.00000000000E+00  0.00000000000E+00 -0.56783606340E+03  0.56783606340E+03  0.25500000920E-02 0.  1.
    10030    2    1    2    0    0  0.00000000000E+00  0.00000000000E+00  0.62460445318E+02  0.11981325721E+04  0.11965033862E+04 0.  0.
        4    1    3    3  502    0  0.11570709865E+03  0.57564375432E+03  0.14605811479E+03  0.60505243604E+03  0.12699999809E+01 0.  1.
       -4    1    3    3    0  502 -0.11570709865E+03 -0.57564375432E+03 -0.83597669473E+02  0.59308013608E+03  0.12699999809E+01 0. -1.
</event>
<event>
 5   0  0.3731281E-03  0.1059458E+04  0.7818609E-02  0.9245634E-01
        1   -1    0    0  501    0  0.00000000000E+00  0.00000000000E+00  0.16575787413E+04  0.16575787413E+04  0.50400001928E-02 0. -1.
       -1   -1    0    0    0  501  0.00000000000E+00  0.00000000000E+00 -0.16929068864E+03  0.16929068872E+03  0.50400001928E-02 0.  1.
    10030    2    1    2    0    0  0.00000000000E+00  0.00000000000E+00  0.14882880526E+04  0.18268694300E+04  0.10594576852E+04 0.  0.
        5    1    3    3  502    0  0.37301319156E+03 -0.37400155391E+03  0.67572095410E+03  0.85769277787E+03  0.46999998093E+01 0.  1.
       -5    1    3    3    0  502 -0.37301319156E+03  0.37400155391E+03  0.81256709855E+03  0.96917665214E+03  0.46999998093E+01 0. -1.
</event>
<event>
 5   0  0.6493047E-03  0.1195149E+04  0.7818609E-02  0.9117113E-01
        2   -1    0    0  501    0  0.00000000000E+00  0.00000000000E+00  0.10263412545E+04  0.10263412545E+04  0.25500000920E-02 0. -1.
       -2   -1    0    0    0  501  0.00000000000E+00  0.00000000000E+00 -0.34793049544E+03  0.34793049545E+03  0.25500000920E-02 0.  1.
    10030    2    1    2    0    0  0.00000000000E+00  0.00000000000E+00  0.67841075906E+03  0.13742717499E+04  0.11951492311E+04 0.  0.
        3    1    3    3  502    0  0.53994195422E+03  0.25603982642E+03  0.33770421749E+03  0.68639482468E+03  0.10100000352E+00 0. -1.
       -3    1    3    3    0  502 -0.53994195422E+03 -0.25603982642E+03  0.34070654157E+03  0.68787692527E+03  0.10100000352E+00 0.  1.
</event>
<event>
 5   0  0.6493047E-03  0.1226564E+04  0.7818609E-02  0.9089918E-01
       -2   -1    0    0    0  501  0.00000000000E+00  0.00000000000E+00  0.79564510075E+03  0.79564510075E+03  0.25500000920E-02 0.  1.
        2   -1    0    0  501    0  0.00000000000E+00  0.00000000000E+00 -0.47271653561E+03  0.47271653562E+03  0.25500000920E-02 0. -1.
    10030    2    1    2    0    0  0.00000000000E+00  0.00000000000E+00  0.32292856514E+03  0.12683616364E+04  0.12265636479E+04 0.  0.
        3    1    3    3  502    0  0.17534896397E+03  0.27632211984E+02 -0.44556973806E+03  0.47962818931E+03  0.10100000352E+00 0. -1.
       -3    1    3    3    0  502 -0.17534896397E+03 -0.27632211984E+02  0.76849830319E+03  0.78873344707E+03  0.10100000352E+00 0.  1.
</event>
<event>
 5   0  0.3772254E-03  0.1220639E+04  0.7818609E-02  0.9094981E-01
       -1   -1    0    0    0  501  0.00000000000E+00  0.00000000000E+00  0.33196407700E+03  0.33196407704E+03  0.50400001928E-02 0.  1.
        1   -1    0    0  501    0  0.00000000000E+00  0.00000000000E+00 -0.11220788628E+04  0.11220788628E+04  0.50400001928E-02 0. -1.
    10030    2    1    2    0    0  0.00000000000E+00  0.00000000000E+00 -0.79011478578E+03  0.14540429398E+04  0.12206389705E+04 0.  0.
        3    1    3    3  502    0  0.15763242832E+03  0.15535643201E+03 -0.10725917855E+04  0.10951879984E+04  0.10100000352E+00 0. -1.
       -3    1    3    3    0  502 -0.15763242832E+03 -0.15535643201E+03  0.28247699969E+03  0.35885494142E+03  0.10100000352E+00 0.  1.
</event>
<event>
 5   0  0.6585930E-03  0.1176525E+04  0.7818609E-02  0.9133656E-01
       -2   -1    0    0    0  501  0.00000000000E+00  0.00000000000E+00  0.62305383341E+03  0.62305383341E+03  0.25500000920E-02 0. -1.
        2   -1    0    0  501    0  0.00000000000E+00  0.00000000000E+00 -0.55541394192E+03  0.55541394192E+03  0.25500000920E-02 0.  1.
    10030    2    1    2    0    0  0.00000000000E+00  0.00000000000E+00  0.67639891489E+02  0.11784677753E+04  0.11765250285E+04 0.  0.
        2    1    3    3  502    0  0.58892099425E+02  0.97914240921E+02  0.61183200867E+03  0.62240974027E+03  0.25500000920E-02 0. -1.
       -2    1    3    3    0  502 -0.58892099425E+02 -0.97914240921E+02 -0.54419211718E+03  0.55605803506E+03  0.25500000920E-02 0.  1.
</event>
<event>
 5   0  0.6658994E-03  0.1206266E+04  0.7818609E-02  0.9107390E-01
       -2   -1    0    0    0  501  0.00000000000E+00  0.00000000000E+00  0.24944198679E+03  0.24944198681E+03  0.25500000920E-02 0.  1.
        2   -1    0    0  501    0  0.00000000000E+00  0.00000000000E+00 -0.14583320954E+04  0.14583320954E+04  0.25500000920E-02 0. -1.
    10030    2    1    2    0    0  0.00000000000E+00  0.00000000000E+00 -0.12088901086E+04  0.17077740823E+04  0.12062657341E+04 0.  0.
        4    1    3    3  502    0  0.19571941035E+03 -0.53693683601E+03 -0.33152996222E+03  0.66069734538E+03  0.12699999809E+01 0. -1.
       -4    1    3    3    0  502 -0.19571941035E+03  0.53693683601E+03 -0.87736014643E+03  0.10470767369E+04  0.12699999809E+01 0.  1.
</event>
<event>
 5   0  0.6658994E-03  0.9889538E+03  0.7818609E-02  0.9320744E-01
       -2   -1    0    0    0  501  0.00000000000E+00  0.00000000000E+00  0.25858056957E+03  0.25858056958E+03  0.25500000920E-02 0. -1.
        2   -1    0    0  501    0  0.00000000000E+00  0.00000000000E+00 -0.94557528528E+03  0.94557528528E+03  0.25500000920E-02 0.  1.
    10030    2    1    2    0    0  0.00000000000E+00  0.00000000000E+00 -0.68699471571E+03  0.12041558549E+04  0.98895378223E+03 0.  0.
        4    1    3    3  502    0 -0.34919568640E+03 -0.22040410611E+03 -0.12294737491E+02  0.41312028619E+03  0.12699999809E+01 0. -1.
       -4    1    3    3    0  502  0.34919568640E+03  0.22040410611E+03 -0.67469997822E+03  0.79103556867E+03  0.12699999809E+01 0.  1.
</event>
<event>
 5   0  0.3648616E-03  0.1177762E+04  0.7818609E-02  0.9132547E-01
        1   -1    0    0  501    0  0.00000000000E+00  0.00000000000E+00  0.82696628000E+03  0.82696628002E+03  0.50400001928E-02 0.  1.
       -1   -1    0    0    0  501  0.00000000000E+00  0.00000000000E+00 -0.41934097742E+03  0.41934097745E+03  0.50400001928E-02 0. -1.
    10030    2    1    2    0    0  0.00000000000E+00  0.00000000000E+00  0.40762530258E+03  0.12463072575E+04  0.11777620272E+04 0.  0.
        2    1    3    3  502    0 -0.31229498119E+02 -0.33354917157E+03  0.71630309682E+03  0.79077206446E+03  0.25500000920E-02 0.  1.
       -2    1    3    3    0  502  0.31229498119E+02  0.33354917157E+03 -0.30867779424E+03  0.45553519301E+03  0.25500000920E-02 0. -1.
</event>
<event>
 5   0  0.3772254E-03  0.1222847E+04  0.7818609E-02  0.9093090E-01
       -1   -1    0    0    0  501  0.00000000000E+00  0.00000000000E+00  0.84471262250E+03  0.84471262251E+03  0.50400001928E-02 0. -1.
        1   -1    0    0  501    0  0.00000000000E+00  0.00000000000E+00 -0.44256352736E+03  0.44256352739E+03  0.50400001928E-02 0.  1.
    10030    2    1    2    0    0  0.00000000000E+00  0.00000000000E+00  0.40214909514E+03  0.12872761499E+04  0.12228474931E+04 0.  0.
        3    1    3    3  502    0  0.88504918613E+02 -0.10839841984E+03  0.82762755346E+03  0.83937519351E+03  0.10100000352E+00 0. -1.
       -3    1    3    3    0  502 -0.88504918613E+02  0.10839841984E+03 -0.42547845832E+03  0.44790095639E+03  0.10100000352E+00 0.  1.
</event>
<event>
 5   0  0.3701879E-03  0.1198208E+04  0.7818609E-02  0.9114427E-01
       -1   -1    0    0    0  501  0.00000000000E+00  0.00000000000E+00  0.44249754188E+03  0.44249754191E+03  0.50400001928E-02 0. -1.
        1   -1    0    0  501    0  0.00000000000E+00  0.00000000000E+00 -0.81113565441E+03  0.81113565442E+03  0.50400001928E-02 0.  1.
    10030    2    1    2    0    0  0.00000000000E+00  0.00000000000E+00 -0.36863811252E+03  0.12536331963E+04  0.11982078839E+04 0.  0.
        1    1    3    3  502    0 -0.51149094366E+02  0.11105968031E+02 -0.80873891945E+03  0.81043088061E+03  0.50400001928E-02 0.  1.
       -1    1    3    3    0  502  0.51149094366E+02 -0.11105968031E+02  0.44010080693E+03  0.44320231573E+03  0.50400001928E-02 0. -1.
</event>
<event>
 5   0  0.3648616E-03  0.1224825E+04  0.7818609E-02  0.9091400E-01
       -1   -1    0    0    0  501  0.00000000000E+00  0.00000000000E+00  0.75887319610E+03  0.75887319611E+03  0.50400001928E-02 0.  1.
        1   -1    0    0  501    0  0.00000000000E+00  0.00000000000E+00 -0.49421861454E+03  0.49421861456E+03  0.50400001928E-02 0. -1.
    10030    2    1    2    0    0  0.00000000000E+00  0.00000000000E+00  0.26465458156E+03  0.12530918107E+04  0.12248253094E+04 0.  0.
        2    1    3    3  502    0  0.48712399036E+03 -0.34681053914E+03 -0.29433035179E+01  0.59797658406E+03  0.25500000920E-02 0. -1.
       -2    1    3    3    0  502 -0.48712399036E+03  0.34681053914E+03  0.26759788508E+03  0.65511522662E+03  0.25500000920E-02 0.  1.
</event>
<event>
 5   0  0.3701879E-03  0.1205473E+04  0.7818609E-02  0.9108080E-01
       -1   -1    0    0    0  501  0.00000000000E+00  0.00000000000E+00  0.47143806966E+03  0.47143806969E+03  0.50400001928E-02 0.  1.
        1   -1    0    0  501    0  0.00000000000E+00  0.00000000000E+00 -0.77060189006E+03  0.77060189008E+03  0.50400001928E-02 0. -1.
    10030    2    1    2    0    0  0.00000000000E+00  0.00000000000E+00 -0.29916382040E+03  0.12420399598E+04  0.12054726335E+04 0.  0.
        1    1    3    3  502    0  0.16132857537E+03  0.29986955699E+03  0.36283977975E+03  0.49759558503E+03  0.50400001928E-02 0.  1.
       -1    1    3    3    0  502 -0.16132857537E+03 -0.29986955699E+03 -0.66200360015E+03  0.74444437474E+03  0.50400001928E-02 0. -1.
</event>
<event>
 5   0  0.6585930E-03  0.9225289E+03  0.7818609E-02  0.9397849E-01
        2   -1    0    0  501    0  0.00000000000E+00  0.00000000000E+00  0.57256447176E+03  0.57256447177E+03  0.25500000920E-02 0. -1.
       -2   -1    0    0    0  501  0.00000000000E+00  0.00000000000E+00 -0.37159986479E+03  0.37159986479E+03  0.25500000920E-02 0.  1.
    10030    2    1    2    0    0  0.00000000000E+00  0.00000000000E+00  0.20096460697E+03  0.94416433656E+03  0.92252887281E+03 0.  0.
        2    1    3    3  502    0 -0.35194122677E+03  0.20745855738E+02  0.40490022059E+03  0.53687727301E+03  0.25500000920E-02 0. -1.
       -2    1    3    3    0  502  0.35194122677E+03 -0.20745855738E+02 -0.20393561361E+03  0.40728706355E+03  0.25500000920E-02 0.  1.
</event>
<event>
 5   0  0.3944074E-03  0.1253933E+04  0.7818609E-02  0.9066916E-01
        1   -1    0    0  501    0  0.00000000000E+00  0.00000000000E+00  0.66221270245E+03  0.66221270247E+03  0.50400001928E-02 0. -1.
       -1   -1    0    0    0  501  0.00000000000E+00  0.00000000000E+00 -0.59359610690E+03  0.59359610692E+03  0.50400001928E-02 0.  1.
    10030    2    1    2    0    0  0.00000000000E+00  0.00000000000E+00  0.68616595550E+02  0.12558088094E+04  0.12539328246E+04 0.  0.
        4    1    3    3  502    0  0.17850184863E+02 -0.56726285465E+03  0.30112665332E+03  0.64248319014E+03  0.12699999809E+01 0. -1.
       -4    1    3    3    0  502 -0.17850184863E+02  0.56726285465E+03 -0.23251005777E+03  0.61332561925E+03  0.12699999809E+01 0.  1.
</event>
<event>
 5   0  0.6585930E-03  0.1189695E+04  0.7818609E-02  0.9121924E-01
       -2   -1    0    0    0  501  0.00000000000E+00  0.00000000000E+00  0.21958835443E+03  0.21958835444E+03  0.25500000920E-02 0. -1.
        2   -1    0    0  501    0  0.00000000000E+00  0.00000000000E+00 -0.16113953467E+04  0.16113953467E+04  0.25500000920E-02 0.  1.
    10030    2    1    2    0    0  0.00000000000E+00  0.00000000000E+00 -0.13918069923E+04  0.18309837012E+04  0.11896951753E+04 0.  0.
        2    1    3    3  502    0 -0.58196130929E+03  0.19651514665E+02 -0.50880770013E+03  0.77327254138E+03  0.25500000920E-02 0.  1.
       -2    1    3    3    0  502  0.58196130929E+03 -0.19651514665E+02 -0.88299929217E+03  0.10577111598E+04  0.25500000920E-02 0. -1.
</event>
<event>
 5   0  0.3701879E-03  0.1046959E+04  0.7818609E-02  0.9258489E-01
       -1   -1    0    0    0  501  0.00000000000E+00  0.00000000000E+00  0.30886683280E+03  0.30886683284E+03  0.50400001928E-02 0.  1.
        1   -1    0    0  501    0  0.00000000000E+00  0.00000000000E+00 -0.88721398001E+03  0.88721398002E+03  0.50400001928E-02 0. -1.
    10030    2    1    2    0    0  0.00000000000E+00  0.00000000000E+00 -0.57834714721E+03  0.11960808129E+04  0.10469593537E+04 0.  0.
        1    1    3    3  502    0  0.88752945950E+02 -0.16205685555E+02 -0.87826504505E+03  0.88288685517E+03  0.50400001928E-02 0. -1.
       -1    1    3    3    0  502 -0.88752945950E+02  0.16205685555E+02  0.29991789784E+03  0.31319395769E+03  0.50400001928E-02 0.  1.
</event>
<event>
 5   0  0.3772254E-03  0.1184350E+04  0.7818609E-02  0.9126666E-01
       -1   -1    0    0    0  501  0.00000000000E+00  0.00000000000E+00  0.58412823418E+03  0.58412823420E+03  0.50400001928E-02 0. -1.
        1   -1    0    0  501    0  0.00000000000E+00  0.00000000000E+00 -0.60033239287E+03  0.60033239289E+03  0.50400001928E-02 0.  1.
    10030    2    1    2    0    0  0.00000000000E+00  0.00000000000E+00 -0.16204158690E+02  0.11844606271E+04  0.11843497804E+04 0.  0.
        3    1    3    3  502    0 -0.57059922216E+03 -0.10934335928E+02  0.14992555192E+03  0.59006839718E+03  0.10100000352E+00 0. -1.
       -3    1    3    3    0  502  0.57059922216E+03  0.10934335928E+02 -0.16612971061E+03  0.59439222991E+03  0.10100000352E+00 0.  1.
</event>
<event>
 5   0  0.6585930E-03  0.1211049E+04  0.7818609E-02  0.9103240E-01
        2   -1    0    0  501    0  0.00000000000E+00  0.00000000000E+00  0.72245245788E+03  0.72245245788E+03  0.25500000920E-02 0.  1.
       -2   -1    0    0    0  501  0.00000000000E+00  0.00000000000E+00 -0.50752121433E+03  0.50752121434E+03  0.25500000920E-02 0. -1.
    10030    2    1    2    0    0  0.00000000000E+00  0.00000000000E+00  0.21493124355E+03  0.12299736722E+04  0.12110490473E+04 0.  0.
        2    1    3    3  502    0  0.24447807529E+03  0.36750830948E+03  0.52846468436E+03  0.68855414418E+03  0.25500000920E-02 0.  1.
       -2    1    3    3    0  502 -0.24447807529E+03 -0.36750830948E+03 -0.31353344082E+03  0.54141952805E+03  0.25500000920E-02 0. -1.
</event>
<event>
 5   0  0.6349142E-03  0.6378592E+03  0.7818609E-02  0.9829831E-01
       -2   -1    0    0    0  501  0.00000000000E+00  0.00000000000E+00  0.79682828644E+02  0.79682828684E+02  0.25500000920E-02 0. -1.
        2   -1    0    0  501    0  0.00000000000E+00  0.00000000000E+00 -0.12765120194E+04  0.12765120194E+04  0.25500000920E-02 0.  1.
    10030    2    1    2    0    0  0.00000000000E+00  0.00000000000E+00 -0.11968291908E+04  0.13561948481E+04  0.63785919616E+03 0.  0.
        1    1    3    3  502    0  0.52559214736E+02 -0.56726594393E+01  0.70302583950E+02  0.87960806352E+02  0.50400001928E-02 0. -1.
       -1    1    3    3    0  502 -0.52559214736E+02  0.56726594393E+01 -0.12671317747E+04  0.12682340417E+04  0.50400001928E-02 0.  1.
</event>
<event>
 5   0  0.6640844E-03  0.1269449E+04  0.7818609E-02  0.9054150E-01
       -2   -1    0    0    0  501  0.00000000000E+00  0.00000000000E+00  0.80378995689E+03  0.80378995690E+03  0.25500000920E-02 0. -1.
        2   -1    0    0  501    0  0.00000000000E+00  0.00000000000E+00 -0.50121921881E+03  0.50121921882E+03  0.25500000920E-02 0.  1.
    10030    2    1    2    0    0  0.00000000000E+00  0.00000000000E+00  0.30257073808E+03  0.13050091757E+04  0.12694486587E+04 0.  0.
        5    1    3    3  502    0  0.42899396176E+02  0.41978672148E+02  0.80084804029E+03  0.80310786370E+03  0.46999998093E+01 0. -1.
       -5    1    3    3    0  502 -0.42899396176E+02 -0.41978672148E+02 -0.49827730221E+03  0.50190131201E+03  0.46999998093E+01 0.  1.
</event>
<event>
 5   0  0.3944074E-03  0.1096530E+04  0.7818609E-02  0.9208580E-01
        1   -1    0    0  501    0  0.00000000000E+00  0.00000000000E+00  0.33987548248E+03  0.33987548252E+03  0.50400001928E-02 0.  1.
       -1   -1    0    0    0  501  0.00000000000E+00  0.00000000000E+00 -0.88442611064E+03  0.88442611066E+03  0.50400001928E-02 0. -1.
    10030    2    1    2    0    0  0.00000000000E+00  0.00000000000E+00 -0.54455062816E+03  0.12243015932E+04  0.10965304393E+04 0.  0.
        4    1    3    3  502    0  0.39004488102E+03  0.38470191062E+03 -0.29628884182E+03  0.62283164654E+03  0.12699999809E+01 0. -1.
       -4    1    3    3    0  502 -0.39004488102E+03 -0.38470191062E+03 -0.24826178635E+03  0.60146994663E+03  0.12699999809E+01 0.  1.
</event>
<event>
 5   0  0.3701879E-03  0.1186351E+04  0.7818609E-02  0.9124888E-01
        1   -1    0    0  501    0  0.00000000000E+00  0.00000000000E+00  0.13596648265E+04  0.13596648265E+04  0.50400001928E-02 0.  1.
       -1   -1    0    0    0  501  0.00000000000E+00  0.00000000000E+00 -0.25878232476E+03  0.25878232481E+03  0.50400001928E-02 0. -1.
    10030    2    1    2    0    0  0.00000000000E+00  0.00000000000E+00  0.11008825017E+04  0.16184471513E+04  0.11863510859E+04 0.  0.
        1    1    3    3  502    0  0.18988810662E+03 -0.69633293751E+01 -0.21613935106E+03  0.28778846414E+03  0.50400001928E-02 0. -1.
       -1    1    3    3    0  502 -0.18988810662E+03  0.69633293751E+01  0.13170218528E+04  0.13306586872E+04  0.50400001928E-02 0.  1.
</event>
<event>
 5   0  0.3772254E-03  0.1131254E+04  0.7818609E-02  0.9175253E-01
        1   -1    0    0  501    0  0.00000000000E+00  0.00000000000E+00  0.90320346689E+03  0.90320346690E+03  0.50400001928E-02 0. -1.
       -1   -1    0    0    0  501  0.00000000000E+00  0.00000000000E+00 -0.35422154331E+03  0.35422154334E+03  0.50400001928E-02 0.  1.
    10030    2    1    2    0    0  0.00000000000E+00  0.00000000000E+00  0.54898192358E+03  0.12574250102E+04  0.11312543940E+04 0.  0.
        3    1    3    3  502    0 -0.29856237732E+03 -0.39337023356E+03 -0.32046969005E+02  0.49488044236E+03  0.10100000352E+00 0.  1.
       -3    1    3    3    0  502  0.29856237732E+03  0.39337023356E+03  0.58102889258E+03  0.76254456789E+03  0.10100000352E+00 0. -1.
</event>
<event>
 5   0  0.6493047E-03  0.1145085E+04  0.7818609E-02  0.9162330E-01
       -2   -1    0    0    0  501  0.00000000000E+00  0.00000000000E+00  0.11318353633E+04  0.11318353633E+04  0.25500000920E-02 0. -1.
        2   -1    0    0  501    0  0.00000000000E+00  0.00000000000E+00 -0.28962222443E+03  0.28962222444E+03  0.25500000920E-02 0.  1.
    10030    2    1    2    0    0  0.00000000000E+00  0.00000000000E+00  0.84221313884E+03  0.14214575877E+04  0.11450845831E+04 0.  0.
        3    1    3    3  502    0 -0.42358219514E+03  0.10423419584E+02 -0.56894697734E+02  0.42751320511E+03  0.10100000352E+00 0.  1.
       -3    1    3    3    0  502  0.42358219514E+03 -0.10423419584E+02  0.89910783657E+03  0.99394438260E+03  0.10100000352E+00 0. -1.
</event>
<event>
 5   0  0.6585930E-03  0.1189254E+04  0.7818609E-02  0.9122315E-01
        2   -1    0    0  501    0  0.00000000000E+00  0.00000000000E+00  0.11678483221E+04  0.11678483221E+04  0.25500000920E-02 0.  1.
       -2   -1    0    0    0  501  0.00000000000E+00  0.00000000000E+00 -0.30276308362E+03  0.30276308363E+03  0.25500000920E-02 0. -1.
    10030    2    1    2    0    0  0.00000000000E+00  0.00000000000E+00  0.86508523847E+03  0.14706114057E+04  0.11892541515E+04 0.  0.
        2    1    3    3  502    0 -0.16181069033E+03 -0.49337919594E+02  0.11374647846E+04  0.11499752459E+04  0.25500000920E-02 0.  1.
       -2    1    3    3    0  502  0.16181069033E+03  0.49337919594E+02 -0.27237954618E+03  0.32063615984E+03  0.25500000920E-02 0. -1.
</event>
<event>
 5   0  0.2537625E-03  0.8586906E+03  0.7818609E-02  0.9478746E-01
        4   -1    0    0  501    0  0.00000000000E+00  0.00000000000E+00  0.37464486881E+03  0.37464702137E+03  0.12699999809E+01 0.  1.
       -4   -1    0    0    0  501  0.00000000000E+00  0.00000000000E+00 -0.49202789708E+03  0.49202953611E+03  0.12699999809E+01 0. -1.
    10030    2    1    2    0    0  0.00000000000E+00  0.00000000000E+00 -0.11738302827E+03  0.86667655748E+03  0.85869056124E+03 0.  0.
        1    1    3    3  502    0 -0.20149002462E+02  0.11010596861E+03 -0.47704378589E+03  0.49000008195E+03  0.50400001928E-02 0. -1.
       -1    1    3    3    0  502  0.20149002462E+02 -0.11010596861E+03  0.35966075762E+03  0.37667647553E+03  0.50400001928E-02 0.  1.
</event>
<event>
 5   0  0.3648616E-03  0.1189070E+04  0.7818609E-02  0.9122478E-01
        1   -1    0    0  501    0  0.00000000000E+00  0.00000000000E+00  0.14287304636E+04  0.14287304636E+04  0.50400001928E-02 0. -1.
       -1   -1    0    0    0  501  0.00000000000E+00  0.00000000000E+00 -0.24740283906E+03  0.24740283911E+03  0.50400001928E-02 0.  1.
    10030    2    1    2    0    0  0.00000000000E+00  0.00000000000E+00  0.11813276246E+04  0.16761333027E+04  0.11890701796E+04 0.  0.
        2    1    3    3  502    0  0.46630387763E+02 -0.16134128220E+03 -0.21327090324E+03  0.27145880089E+03  0.25500000920E-02 0.  1.
       -2    1    3    3    0  502 -0.46630387763E+02  0.16134128220E+03  0.13945985278E+04  0.14046745019E+04  0.25500000920E-02 0. -1.
</event>
<event>
 5   0  0.6658994E-03  0.1185819E+04  0.7818609E-02  0.9125360E-01
        2   -1    0    0  501    0  0.00000000000E+00  0.00000000000E+00  0.11115428330E+04  0.11115428330E+04  0.25500000920E-02 0. -1.
       -2   -1    0    0    0  501  0.00000000000E+00  0.00000000000E+00 -0.31626481993E+03  0.31626481994E+03  0.25500000920E-02 0.  1.
    10030    2    1    2    0    0  0.00000000000E+00  0.00000000000E+00  0.79527801310E+03  0.14278076530E+04  0.11858193689E+04 0.  0.
        4    1    3    3  502    0 -0.24663162185E+03 -0.78415895459E+02  0.10399438526E+04  0.10716627450E+04  0.12699999809E+01 0. -1.
       -4    1    3    3    0  502  0.24663162185E+03  0.78415895459E+02 -0.24466583950E+03  0.35614490797E+03  0.12699999809E+01 0.  1.
</event>
<event>
 5   0  0.3772254E-03  0.1206519E+04  0.7818609E-02  0.9107169E-01
        1   -1    0    0  501    0  0.00000000000E+00  0.00000000000E+00  0.87155213851E+03  0.87155213852E+03  0.50400001928E-02 0. -1.
       -1   -1    0    0    0  501  0.00000000000E+00  0.00000000000E+00 -0.41755650374E+03  0.41755650377E+03  0.50400001928E-02 0.  1.
    10030    2    1    2    0    0  0.00000000000E+00  0.00000000000E+00  0.45399563477E+03  0.12891086423E+04  0.12065193970E+04 0.  0.
        3    1    3    3  502    0  0.30576857221E+01  0.51717865254E+03  0.55880202459E+03  0.76140844556E+03  0.10100000352E+00 0. -1.
       -3    1    3    3    0  502 -0.30576857221E+01 -0.51717865254E+03 -0.10480638982E+03  0.52770019673E+03  0.10100000352E+00 0.  1.
</event>
<event>
 5   0  0.6349142E-03  0.1197066E+04  0.7818609E-02  0.9115428E-01
        2   -1    0    0  501    0  0.00000000000E+00  0.00000000000E+00  0.12158110684E+04  0.12158110684E+04  0.25500000920E-02 0.  1.
       -2   -1    0    0    0  501  0.00000000000E+00  0.00000000000E+00 -0.29465266274E+03  0.29465266275E+03  0.25500000920E-02 0. -1.
    10030    2    1    2    0    0  0.00000000000E+00  0.00000000000E+00  0.92115840562E+03  0.15104637311E+04  0.11970663619E+04 0.  0.
        1    1    3    3  502    0  0.34886230958E+03 -0.32836611012E+03  0.78871523355E+01  0.47915698943E+03  0.50400001928E-02 0. -1.
       -1    1    3    3    0  502 -0.34886230958E+03  0.32836611012E+03  0.91327125328E+03  0.10313067417E+04  0.50400001928E-02 0.  1.
</event>
<event>
 5   0  0.2537625E-03  0.1199950E+04  0.7818609E-02  0.9112900E-01
       -4   -1    0    0    0  501  0.00000000000E+00  0.00000000000E+00  0.25965346958E+03  0.25965657544E+03  0.12699999809E+01 0. -1.
        4   -1    0    0  501    0  0.00000000000E+00  0.00000000000E+00 -0.13863365833E+04  0.13863371650E+04  0.12699999809E+01 0.  1.
    10030    2    1    2    0    0  0.00000000000E+00  0.00000000000E+00 -0.11266831137E+04  0.16459937405E+04  0.11999502302E+04 0.  0.
        3    1    3    3  502    0 -0.12700625625E+03  0.64610348524E+02  0.23610672243E+03  0.27577432956E+03  0.10100000352E+00 0. -1.
       -3    1    3    3    0  502  0.12700625625E+03 -0.64610348524E+02 -0.13627898362E+04  0.13702194109E+04  0.10100000352E+00 0.  1.
</event>
<event>
 5   0  0.3944074E-03  0.1198310E+04  0.7818609E-02  0.9114337E-01
       -1   -1    0    0    0  501  0.00000000000E+00  0.00000000000E+00  0.48610881070E+03  0.48610881073E+03  0.50400001928E-02 0. -1.
        1   -1    0    0  501    0  0.00000000000E+00  0.00000000000E+00 -0.73849049720E+03  0.73849049722E+03  0.50400001928E-02 0.  1.
    10030    2    1    2    0    0  0.00000000000E+00  0.00000000000E+00 -0.25238168650E+03  0.12245993079E+04  0.11983100389E+04 0.  0.
        4    1    3    3  502    0 -0.45501741353E+03 -0.38857722400E+03 -0.15772255707E+03  0.61879812826E+03  0.12699999809E+01 0.  1.
       -4    1    3    3    0  502  0.45501741353E+03  0.38857722400E+03 -0.94659129433E+02  0.60580117969E+03  0.12699999809E+01 0. -1.
</event>
<event>
 5   0  0.6658994E-03  0.1173510E+04  0.7818609E-02  0.9136364E-01
       -2   -1    0    0    0  501  0.00000000000E+00  0.00000000000E+00  0.11514111419E+04  0.11514111419E+04  0.25500000920E-02 0.  1.
        2   -1    0    0  501    0  0.00000000000E+00  0.00000000000E+00 -0.29900827651E+03  0.29900827652E+03  0.25500000920E-02 0. -1.
    10030    2    1    2    0    0  0.00000000000E+00  0.00000000000E+00  0.85240286541E+03  0.14504194184E+04  0.11735100530E+04 0.  0.
        4    1    3    3  502    0 -0.95521983468E+02  0.73388514558E+01  0.11416773219E+04  0.11456906338E+04  0.12699999809E+01 0.  1.
       -4    1    3    3    0  502  0.95521983468E+02 -0.73388514558E+01 -0.28927445654E+03  0.30472878462E+03  0.12699999809E+01 0. -1.
</event>
<event>
 5   0  0.6585930E-03  0.9013413E+03  0.7818609E-02  0.9423906E-01
       -2   -1    0    0    0  501  0.00000000000E+00  0.00000000000E+00  0.12735933572E+03  0.12735933574E+03  0.25500000920E-02 0. -1.
        2   -1    0    0  501    0  0.00000000000E+00  0.00000000000E+00 -0.15947322030E+04  0.15947322030E+04  0.25500000920E-02 0.  1.
    10030    2    1    2    0    0  0.00000000000E+00  0.00000000000E+00 -0.14673728672E+04  0.17220915387E+04  0.90134129838E+03 0.  0.
        2    1    3    3  502    0  0.24207207962E+03  0.26335903201E+03 -0.12574354930E+04  0.13073258548E+04  0.25500000920E-02 0.  1.
       -2    1    3    3    0  502 -0.24207207962E+03 -0.26335903201E+03 -0.20993737426E+03  0.41476568396E+03  0.25500000920E-02 0. -1.
</event>
<event>
 5   0  0.3731281E-03  0.1448686E+04  0.7818609E-02  0.8919312E-01
        1   -1    0    0  501    0  0.00000000000E+00  0.00000000000E+00  0.10191224528E+04  0.10191224528E+04  0.50400001928E-02 0. -1.
       -1   -1    0    0    0  501  0.00000000000E+00  0.00000000000E+00 -0.51482804480E+03  0.51482804482E+03  0.50400001928E-02 0.  1.
    10030    2    1    2    0    0  0.00000000000E+00  0.00000000000E+00  0.50429440798E+03  0.15339504976E+04  0.14486860527E+04 0.  0.
        5    1    3    3  502    0  0.80988983041E+02 -0.39231514124E+03 -0.38684464282E+03  0.55690327087E+03  0.46999998093E+01 0.  1.
       -5    1    3    3    0  502 -0.80988983041E+02  0.39231514124E+03  0.89113905081E+03  0.97704722675E+03  0.46999998093E+01 0. -1.
</event>
<event>
 5   0  0.6640844E-03  0.1201949E+04  0.7818609E-02  0.9111152E-01
        2   -1    0    0  501    0  0.00000000000E+00  0.00000000000E+00  0.50688775626E+03  0.50688775626E+03  0.25500000920E-02 0.  1.
       -2   -1    0    0    0  501  0.00000000000E+00  0.00000000000E+00 -0.71252543079E+03  0.71252543080E+03  0.25500000920E-02 0. -1.
    10030    2    1    2    0    0  0.00000000000E+00  0.00000000000E+00 -0.20563767454E+03  0.12194131871E+04  0.12019491119E+04 0.  0.
        5    1    3    3  502    0  0.33506007454E+03  0.46229997906E+03  0.87420521230E+02  0.57762527794E+03  0.46999998093E+01 0.  1.
       -5    1    3    3    0  502 -0.33506007454E+03 -0.46229997906E+03 -0.29305819577E+03  0.64178790912E+03  0.46999998093E+01 0. -1.
</event>
<event>
 5   0  0.6585930E-03  0.1189246E+04  0.7818609E-02  0.9122322E-01
       -2   -1    0    0    0  501  0.00000000000E+00  0.00000000000E+00  0.27085381887E+03  0.27085381888E+03  0.25500000920E-02 0.  1.
        2   -1    0    0  501    0  0.00000000000E+00  0.00000000000E+00 -0.13054153828E+04  0.13054153828E+04  0.25500000920E-02 0. -1.
    10030    2    1    2    0    0  0.00000000000E+00  0.00000000000E+00 -0.10345615639E+04  0.15762692017E+04  0.11892463860E+04 0.  0.
        2    1    3    3  502    0  0.20524432200E+02  0.67645117748E+02  0.26526463158E+03  0.27452220138E+03  0.25500000920E-02 0.  1.
       -2    1    3    3    0  502 -0.20524432200E+02 -0.67645117748E+02 -0.12998261955E+04  0.13017470003E+04  0.25500000920E-02 0. -1.
</event>
<event>
 5   0  0.6640844E-03  0.1180821E+04  0.7818609E-02  0.9129811E-01
        2   -1    0    0  501    0  0.00000000000E+00  0.00000000000E+00  0.25180546303E+04  0.25180546303E+04  0.25500000920E-02 0. -1.
       -2   -1    0    0    0  501  0.00000000000E+00  0.00000000000E+00 -0.13843416332E+03  0.13843416334E+03  0.25500000920E-02 0.  1.
    10030    2    1    2    0    0  0.00000000000E+00  0.00000000000E+00  0.23796204669E+04  0.26564887936E+04  0.11808213852E+04 0.  0.
        5    1    3    3  502    0 -0.11676493805E+03  0.13495072352E+03 -0.76264756504E+02  0.19412406244E+03  0.46999998093E+01 0.  1.
       -5    1    3    3    0  502  0.11676493805E+03 -0.13495072352E+03  0.24558852234E+04  0.24623647312E+04  0.46999998093E+01 0. -1.
</event>
<event>
 5   0  0.3772254E-03  0.1182322E+04  0.7818609E-02  0.9128472E-01
       -1   -1    0    0    0  501  0.00000000000E+00  0.00000000000E+00  0.16110172461E+03  0.16110172469E+03  0.50400001928E-02 0.  1.
        1   -1    0    0  501    0  0.00000000000E+00  0.00000000000E+00 -0.21692600091E+04  0.21692600091E+04  0.50400001928E-02 0. -1.
    10030    2    1    2    0    0  0.00000000000E+00  0.00000000000E+00 -0.20081582845E+04  0.23303617338E+04  0.11823223396E+04 0.  0.
        3    1    3    3  502    0  0.18966644410E+03  0.88916763702E+02  0.85499074563E+02  0.22625130461E+03  0.10100000352E+00 0.  1.
       -3    1    3    3    0  502 -0.18966644410E+03 -0.88916763702E+02 -0.20936573590E+04  0.21041104292E+04  0.10100000352E+00 0. -1.
</event>
<event>
 5   0  0.6349142E-03  0.1212178E+04  0.7818609E-02  0.9102264E-01
        2   -1    0    0  501    0  0.00000000000E+00  0.00000000000E+00  0.64010614743E+03  0.64010614743E+03  0.25500000920E-02 0. -1.
       -2   -1    0    0    0  501  0.00000000000E+00  0.00000000000E+00 -0.57387930895E+03  0.57387930896E+03  0.25500000920E-02 0.  1.
    10030    2    1    2    0    0  0.00000000000E+00  0.00000000000E+00  0.66226838476E+02  0.12139854564E+04  0.12121776661E+04 0.  0.
        1    1    3    3  502    0  0.21548024527E+03  0.54364185049E+03 -0.12638952814E+03  0.59829132582E+03  0.50400001928E-02 0.  1.
       -1    1    3    3    0  502 -0.21548024527E+03 -0.54364185049E+03  0.19261636661E+03  0.61569413057E+03  0.50400001928E-02 0. -1.
</event>
<event>
 5   0  0.3772254E-03  0.1183344E+04  0.7818609E-02  0.9127562E-01
        1   -1    0    0  501    0  0.00000000000E+00  0.00000000000E+00  0.17026072220E+04  0.17026072220E+04  0.50400001928E-02 0. -1.
       -1   -1    0    0    0  501  0.00000000000E+00  0.00000000000E+00 -0.20561148928E+03  0.20561148934E+03  0.50400001928E-02 0.  1.
    10030    2    1    2    0    0  0.00000000000E+00  0.00000000000E+00  0.14969957327E+04  0.19082187113E+04  0.11833437483E+04 0.  0.
        3    1    3    3  502    0  0.30043502446E+03 -0.18276595974E+03  0.15157992608E+04  0.15560565572E+04  0.10100000352E+00 0. -1.
       -3    1    3    3    0  502 -0.30043502446E+03  0.18276595974E+03 -0.18803528058E+02  0.35216215417E+03  0.10100000352E+00 0.  1.
</event>
<event>
 5   0  0.6585930E-03  0.1212107E+04  0.7818609E-02  0.9102325E-01
        2   -1    0    0  501    0  0.00000000000E+00  0.00000000000E+00  0.32754129172E+03  0.32754129173E+03  0.25500000920E-02 0.  1.
       -2   -1    0    0    0  501  0.00000000000E+00  0.00000000000E+00 -0.11213879122E+04  0.11213879123E+04  0.25500000920E-02 0. -1.
    10030    2    1    2    0    0  0.00000000000E+00  0.00000000000E+00 -0.79384662053E+03  0.14489292040E+04  0.12121070007E+04 0.  0.
        2    1    3    3  502    0  0.14723857986E+03  0.51327362867E+03 -0.54259941141E+02  0.53672447169E+03  0.25500000920E-02 0.  1.
       -2    1    3    3    0  502 -0.14723857986E+03 -0.51327362867E+03 -0.73958667939E+03  0.91220473229E+03  0.25500000920E-02 0. -1.
</event>
<event>
 5   0  0.6493047E-03  0.1216134E+04  0.7818609E-02  0.9098851E-01
       -2   -1    0    0    0  501  0.00000000000E+00  0.00000000000E+00  0.19551469402E+03  0.19551469404E+03  0.25500000920E-02 0.  1.
        2   -1    0    0  501    0  0.00000000000E+00  0.00000000000E+00 -0.18911384607E+04  0.18911384607E+04  0.25500000920E-02 0. -1.
    10030    2    1    2    0    0  0.00000000000E+00  0.00000000000E+00 -0.16956237667E+04  0.20866531548E+04  0.12161338043E+04 0.  0.
        3    1    3    3  502    0  0.10876798476E+02  0.30260745754E+03  0.56951177062E+02  0.30811203299E+03  0.10100000352E+00 0.  1.
       -3    1    3    3    0  502 -0.10876798476E+02 -0.30260745754E+03 -0.17525749438E+04  0.17785411218E+04  0.10100000352E+00 0. -1.
</event>
<event>
 5   0  0.6349142E-03  0.1198663E+04  0.7818609E-02  0.9114028E-01
        2   -1    0    0  501    0  0.00000000000E+00  0.00000000000E+00  0.74495573484E+03  0.74495573484E+03  0.25500000920E-02 0.  1.
       -2   -1    0    0    0  501  0.00000000000E+00  0.00000000000E+00 -0.48217402254E+03  0.48217402255E+03  0.25500000920E-02 0. -1.
    10030    2    1    2    0    0  0.00000000000E+00  0.00000000000E+00  0.26278171230E+03  0.12271297574E+04  0.11986630941E+04 0.  0.
        1    1    3    3  502    0  0.19919116021E+03 -0.40553193556E+03  0.53452565967E+03  0.69989352757E+03  0.50400001928E-02 0.  1.
       -1    1    3    3    0  502 -0.19919116021E+03  0.40553193556E+03 -0.27174394737E+03  0.52723622981E+03  0.50400001928E-02 0. -1.
</event>
<event>
 5   0  0.6640844E-03  0.1183312E+04  0.7818609E-02  0.9127590E-01
        2   -1    0    0  501    0  0.00000000000E+00  0.00000000000E+00  0.23439350460E+04  0.23439350460E+04  0.25500000920E-02 0. -1.
       -2   -1    0    0    0  501  0.00000000000E+00  0.00000000000E+00 -0.14934582064E+03  0.14934582066E+03  0.25500000920E-02 0.  1.
    10030    2    1    2    0    0  0.00000000000E+00  0.00000000000E+00  0.21945892253E+04  0.24932808666E+04  0.11833121363E+04 0.  0.
        5    1    3    3  502    0  0.22998132258E+02  0.59110617474E+03  0.10762887149E+04  0.12281510134E+04  0.46999998093E+01 0.  1.
       -5    1    3    3    0  502 -0.22998132258E+02 -0.59110617474E+03  0.11183005105E+04  0.12651298533E+04  0.46999998093E+01 0. -1.
</event>
<event>
 5   0  0.3944074E-03  0.1130969E+04  0.7818609E-02  0.9175523E-01
       -1   -1    0    0    0  501  0.00000000000E+00  0.00000000000E+00  0.35594958206E+03  0.35594958209E+03  0.50400001928E-02 0.  1.
        1   -1    0    0  501    0  0.00000000000E+00  0.00000000000E+00 -0.89836450193E+03  0.89836450194E+03  0.50400001928E-02 0. -1.
    10030    2    1    2    0    0  0.00000000000E+00  0.00000000000E+00 -0.54241491987E+03  0.12543140840E+04  0.11309685566E+04 0.  0.
        4    1    3    3  502    0  0.49893709620E+03 -0.21208992291E+03 -0.44952341244E+03  0.70426789831E+03  0.12699999809E+01 0. -1.
       -4    1    3    3    0  502 -0.49893709620E+03  0.21208992291E+03 -0.92891507436E+02  0.55004618572E+03  0.12699999809E+01 0.  1.
</event>
<event>
 5   0  0.3731281E-03  0.1018619E+04  0.7818609E-02  0.9288356E-01
        1   -1    0    0  501    0  0.00000000000E+00  0.00000000000E+00  0.57862469733E+03  0.57862469735E+03  0.50400001928E-02 0.  1.
       -1   -1    0    0    0  501  0.00000000000E+00  0.00000000000E+00 -0.44829804556E+03  0.44829804559E+03  0.50400001928E-02 0. -1.
    10030    2    1    2    0    0  0.00000000000E+00  0.00000000000E+00  0.13032665177E+03  0.10269227429E+04  0.10186193027E+04 0.  0.
        5    1    3    3  502    0 -0.31567608099E+03  0.27195016526E+03  0.36040885024E+03  0.55093094832E+03  0.46999998093E+01 0.  1.
       -5    1    3    3    0  502  0.31567608099E+03 -0.27195016526E+03 -0.23008219847E+03  0.47599179462E+03  0.46999998093E+01 0. -1.
</event>
<event>
 5   0  0.2537625E-03  0.1114643E+04  0.7818609E-02  0.9191036E-01
        3   -1    0    0  501    0  0.00000000000E+00  0.00000000000E+00  0.13059749298E+04  0.13059749337E+04  0.10100000352E+00 0. -1.
       -3   -1    0    0    0  501  0.00000000000E+00  0.00000000000E+00 -0.23783550247E+03  0.23783552391E+03  0.10100000352E+00 0.  1.
    10030    2    1    2    0    0  0.00000000000E+00  0.00000000000E+00  0.10681394273E+04  0.15438104576E+04  0.11146429441E+04 0.  0.
        3    1    3    3  502    0 -0.17380769609E+03  0.18910770532E+03  0.12191141166E+04  0.12458772327E+04  0.10100000352E+00 0. -1.
       -3    1    3    3    0  502  0.17380769609E+03 -0.18910770532E+03 -0.15097468936E+03  0.29793322484E+03  0.10100000352E+00 0.  1.
</event>
<event>
 5   0  0.6658994E-03  0.1161223E+04  0.7818609E-02  0.9147492E-01
        2   -1    0    0  501    0  0.00000000000E+00  0.00000000000E+00  0.82962434582E+03  0.82962434582E+03  0.25500000920E-02 0. -1.
       -2   -1    0    0    0  501  0.00000000000E+00  0.00000000000E+00 -0.40634044416E+03  0.40634044417E+03  0.25500000920E-02 0.  1.
    10030    2    1    2    0    0  0.00000000000E+00  0.00000000000E+00  0.42328390166E+03  0.12359647900E+04  0.11612233638E+04 0.  0.
        4    1    3    3  502    0 -0.56906689652E+02 -0.33872231217E+03 -0.28660921598E+03  0.44734509238E+03  0.12699999809E+01 0.  1.
       -4    1    3    3    0  502  0.56906689652E+02  0.33872231217E+03  0.70989311764E+03  0.78861969761E+03  0.12699999809E+01 0. -1.
</event>
<event>
 5   0  0.3944074E-03  0.1183312E+04  0.7818609E-02  0.9127590E-01
        1   -1    0    0  501    0  0.00000000000E+00  0.00000000000E+00  0.56038370460E+03  0.56038370463E+03  0.50400001928E-02 0.  1.
       -1   -1    0    0    0  501  0.00000000000E+00  0.00000000000E+00 -0.62467368832E+03  0.62467368834E+03  0.50400001928E-02 0. -1.
    10030    2    1    2    0    0  0.00000000000E+00  0.00000000000E+00 -0.64289983712E+02  0.11850573930E+04  0.11833122253E+04 0.  0.
        4    1    3    3  502    0 -0.21080238349E+03  0.43882390800E+03  0.30458187246E+03  0.57426108788E+03  0.12699999809E+01 0.  1.
       -4    1    3    3    0  502  0.21080238349E+03 -0.43882390800E+03 -0.36887185618E+03  0.61079630508E+03  0.12699999809E+01 0. -1.
</event>
<event>
 5   0  0.2537625E-03  0.1193258E+04  0.7818609E-02  0.9118778E-01
        3   -1    0    0  501    0  0.00000000000E+00  0.00000000000E+00  0.11492695685E+04  0.11492695729E+04  0.10100000352E+00 0.  1.
       -3   -1    0    0    0  501  0.00000000000E+00  0.00000000000E+00 -0.30973271584E+03  0.30973273231E+03  0.10100000352E+00 0. -1.
    10030    2    1    2    0    0  0.00000000000E+00  0.00000000000E+00  0.83953685265E+03  0.14590023052E+04  0.11932583960E+04 0.  0.
        3    1    3    3  502    0 -0.38191977607E+03 -0.45836204420E+03  0.42320742626E+03  0.73148001665E+03  0.10100000352E+00 0.  1.
       -3    1    3    3    0  502  0.38191977607E+03  0.45836204420E+03  0.41632942638E+03  0.72752228858E+03  0.10100000352E+00 0. -1.
</event>
<event>
 5   0  0.3701879E-03  0.1208399E+04  0.7818609E-02  0.9105537E-01
        1   -1    0    0  501    0  0.00000000000E+00  0.00000000000E+00  0.14170782469E+04  0.14170782469E+04  0.50400001928E-02 0. -1.
       -1   -1    0    0    0  501  0.00000000000E+00  0.00000000000E+00 -0.25761237932E+03  0.25761237937E+03  0.50400001928E-02 0.  1.
    10030    2    1    2    0    0  0.00000000000E+00  0.00000000000E+00  0.11594658676E+04  0.16746906263E+04  0.12083987734E+04 0.  0.
        1    1    3    3  502    0 -0.57331753938E+02  0.11667394746E+03 -0.23800092148E+03  0.27119029975E+03  0.50400001928E-02 0.  1.
       -1    1    3    3    0  502  0.57331753938E+02 -0.11667394746E+03  0.13974667891E+04  0.14035003265E+04  0.50400001928E-02 0. -1.
</event>
<event>
 5   0  0.6349142E-03  0.1149287E+04  0.7818609E-02  0.9158441E-01
       -2   -1    0    0    0  501  0.00000000000E+00  0.00000000000E+00  0.34507698240E+03  0.34507698241E+03  0.25500000920E-02 0. -1.
        2   -1    0    0  501    0  0.00000000000E+00  0.00000000000E+00 -0.95693240108E+03  0.95693240109E+03  0.25500000920E-02 0.  1.
    10030    2    1    2    0    0  0.00000000000E+00  0.00000000000E+00 -0.61185541868E+03  0.13020093835E+04  0.11492873363E+04 0.  0.
        1    1    3    3  502    0  0.93455185649E+02  0.49290251834E+03  0.11539860653E+02  0.50181663257E+03  0.50400001928E-02 0. -1.
       -1    1    3    3    0  502 -0.93455185649E+02 -0.49290251834E+03 -0.62339527933E+03  0.80019275093E+03  0.50400001928E-02 0.  1.
</event>
<event>
 5   0  0.3731281E-03  0.1204086E+04  0.7818609E-02  0.9109288E-01
        1   -1    0    0  501    0  0.00000000000E+00  0.00000000000E+00  0.99807872195E+03  0.99807872196E+03  0.50400001928E-02 0.  1.
       -1   -1    0    0    0  501  0.00000000000E+00  0.00000000000E+00 -0.36315334191E+03  0.36315334195E+03  0.50400001928E-02 0. -1.
    10030    2    1    2    0    0  0.00000000000E+00  0.00000000000E+00  0.63492538004E+03  0.13612320639E+04  0.12040857501E+04 0.  0.
        5    1    3    3  502    0 -0.46259442048E+03  0.13006369441E+03 -0.92530099872E+02  0.48938131538E+03  0.46999998093E+01 0. -1.
       -5    1    3    3    0  502  0.46259442048E+03 -0.13006369441E+03  0.72745547991E+03  0.87185074853E+03  0.46999998093E+01 0.  1.
</event>
<event>
 5   0  0.6658994E-03  0.1187962E+04  0.7818609E-02  0.9123459E-01
        2   -1    0    0  501    0  0.00000000000E+00  0.00000000000E+00  0.80662830382E+03  0.80662830383E+03  0.25500000920E-02 0. -1.
       -2   -1    0    0    0  501  0.00000000000E+00  0.00000000000E+00 -0.43739279799E+03  0.43739279799E+03  0.25500000920E-02 0.  1.
    10030    2    1    2    0    0  0.00000000000E+00  0.00000000000E+00  0.36923550584E+03  0.12440211018E+04  0.11879619704E+04 0.  0.
        4    1    3    3  502    0  0.23589040878E+03 -0.52045021966E+03  0.14795146653E+02  0.57160583041E+03  0.12699999809E+01 0. -1.
       -4    1    3    3    0  502 -0.23589040878E+03  0.52045021966E+03  0.35444035918E+03  0.67241527140E+03  0.12699999809E+01 0.  1.
</event>
<event>
 5   0  0.6349142E-03  0.1064691E+04  0.7818609E-02  0.9240307E-01
       -2   -1    0    0    0  501  0.00000000000E+00  0.00000000000E+00  0.17563482485E+03  0.17563482487E+03  0.25500000920E-02 0.  1.
        2   -1    0    0  501    0  0.00000000000E+00  0.00000000000E+00 -0.16135268209E+04  0.16135268209E+04  0.25500000920E-02 0. -1.
    10030    2    1    2    0    0  0.00000000000E+00  0.00000000000E+00 -0.14378919961E+04  0.17891616458E+04  0.10646905665E+04 0.  0.
        1    1    3    3  502    0 -0.37917067507E+03  0.34167922399E+03 -0.46477845724E+03  0.69031449882E+03  0.50400001928E-02 0.  1.
       -1    1    3    3    0  502  0.37917067507E+03 -0.34167922399E+03 -0.97311353885E+03  0.10988471470E+04  0.50400001928E-02 0. -1.
</event>
<event>
 5   0  0.6493047E-03  0.1206737E+04  0.7818609E-02  0.9106980E-01
       -2   -1    0    0    0  501  0.00000000000E+00  0.00000000000E+00  0.32755630306E+03  0.32755630307E+03  0.25500000920E-02 0. -1.
        2   -1    0    0  501    0  0.00000000000E+00  0.00000000000E+00 -0.11114230584E+04  0.11114230584E+04  0.25500000920E-02 0.  1.
    10030    2    1    2    0    0  0.00000000000E+00  0.00000000000E+00 -0.78386675529E+03  0.14389793614E+04  0.12067371348E+04 0.  0.
        3    1    3    3  502    0  0.35015439400E+03  0.41025082062E+03 -0.71442520999E+03  0.89516324005E+03  0.10100000352E+00 0.  1.
       -3    1    3    3    0  502 -0.35015439400E+03 -0.41025082062E+03 -0.69441545299E+02  0.54381612138E+03  0.10100000352E+00 0. -1.
</event>
<event>
 5   0  0.6585930E-03  0.1250544E+04  0.7818609E-02  0.9069731E-01
        2   -1    0    0  501    0  0.00000000000E+00  0.00000000000E+00  0.17024558819E+04  0.17024558819E+04  0.25500000920E-02 0.  1.
       -2   -1    0    0    0  501  0.00000000000E+00  0.00000000000E+00 -0.22964752341E+03  0.22964752342E+03  0.25500000920E-02 0. -1.
    10030    2    1    2    0    0  0.00000000000E+00  0.00000000000E+00  0.14728083585E+04  0.19321034053E+04  0.12505435250E+04 0.  0.
        2    1    3    3  502    0  0.52621257039E+03 -0.30955485935E+03  0.94507159972E+03  0.11251151980E+04  0.25500000920E-02 0.  1.
       -2    1    3    3    0  502 -0.52621257039E+03  0.30955485935E+03  0.52773675879E+03  0.80698820733E+03  0.25500000920E-02 0. -1.
</event>
<event>
 5   0  0.6349142E-03  0.1075485E+04  0.7818609E-02  0.9229421E-01
       -2   -1    0    0    0  501  0.00000000000E+00  0.00000000000E+00  0.56555446428E+03  0.56555446428E+03  0.25500000920E-02 0. -1.
        2   -1    0    0  501    0  0.00000000000E+00  0.00000000000E+00 -0.51129809717E+03  0.51129809718E+03  0.25500000920E-02 0.  1.
    10030    2    1    2    0    0  0.00000000000E+00  0.00000000000E+00  0.54256367103E+02  0.10768525615E+04  0.10754848608E+04 0.  0.
        1    1    3    3  502    0  0.35188980678E+02 -0.45974558783E+03  0.30417963316E+03  0.55238529954E+03  0.50400001928E-02 0. -1.
       -1    1    3    3    0  502 -0.35188980678E+02  0.45974558783E+03 -0.24992326605E+03  0.52446726193E+03  0.50400001928E-02 0.  1.
</event>
<event>
 5   0  0.6493047E-03  0.1159878E+04  0.7818609E-02  0.9148719E-01
        2   -1    0    0  501    0  0.00000000000E+00  0.00000000000E+00  0.15033745231E+04  0.15033745231E+04  0.25500000920E-02 0.  1.
       -2   -1    0    0    0  501  0.00000000000E+00  0.00000000000E+00 -0.22371605064E+03  0.22371605066E+03  0.25500000920E-02 0. -1.
    10030    2    1    2    0    0  0.00000000000E+00  0.00000000000E+00  0.12796584724E+04  0.17270905737E+04  0.11598775986E+04 0.  0.
        3    1    3    3  502    0 -0.83274864730E+02  0.57383272600E+03  0.62419087752E+03  0.85195831019E+03  0.10100000352E+00 0. -1.
       -3    1    3    3    0  502  0.83274864730E+02 -0.57383272600E+03  0.65546759493E+03  0.87513226356E+03  0.10100000352E+00 0.  1.
</event>
<event>
 5   0  0.6585930E-03  0.1195950E+04  0.7818609E-02  0.9116409E-01
        2   -1    0    0  501    0  0.00000000000E+00  0.00000000000E+00  0.15605267619E+04  0.15605267619E+04  0.25500000920E-02 0. -1.
       -2   -1    0    0    0  501  0.00000000000E+00  0.00000000000E+00 -0.22913676898E+03  0.22913676899E+03  0.25500000920E-02 0.  1.
    10030    2    1    2    0    0  0.00000000000E+00  0.00000000000E+00  0.13313899929E+04  0.17896635309E+04  0.11959499323E+04 0.  0.
        2    1    3    3  502    0 -0.28555102611E+02  0.22847822353E+03 -0.16013800095E+03  0.28046723849E+03  0.25500000920E-02 0.  1.
       -2    1    3    3    0  502  0.28555102611E+02 -0.22847822353E+03  0.14915279939E+04  0.15091962924E+04  0.25500000920E-02 0. -1.
</event>
<event>
 5   0  0.3772254E-03  0.1263893E+04  0.7818609E-02  0.9058699E-01
       -1   -1    0    0    0  501  0.00000000000E+00  0.00000000000E+00  0.12704706298E+04  0.12704706298E+04  0.50400001928E-02 0. -1.
        1   -1    0    0  501    0  0.00000000000E+00  0.00000000000E+00 -0.31433739778E+03  0.31433739782E+03  0.50400001928E-02 0.  1.
    10030    2    1    2    0    0  0.00000000000E+00  0.00000000000E+00  0.95613323206E+03  0.15848080277E+04  0.12638930837E+04 0.  0.
        3    1    3    3  502    0  0.52243515543E+03 -0.44742584150E+02  0.92035394417E+03  0.10592411355E+04  0.10100000352E+00 0. -1.
       -3    1    3    3    0  502 -0.52243515543E+03  0.44742584150E+02  0.35779287892E+02  0.52556689213E+03  0.10100000352E+00 0.  1.
</event>
<event>
 5   0  0.3701879E-03  0.1212915E+04  0.7818609E-02  0.9101626E-01
        1   -1    0    0  501    0  0.00000000000E+00  0.00000000000E+00  0.11300497756E+04  0.11300497756E+04  0.50400001928E-02 0.  1.
       -1   -1    0    0    0  501  0.00000000000E+00  0.00000000000E+00 -0.32546421566E+03  0.32546421570E+03  0.50400001928E-02 0. -1.
    10030    2    1    2    0    0  0.00000000000E+00  0.00000000000E+00  0.80458555990E+03  0.14555139913E+04  0.12129151065E+04 0.  0.
        1    1    3    3  502    0 -0.14574443522E+03  0.38576755676E+03  0.93590435890E+03  0.10227292004E+04  0.50400001928E-02 0.  1.
       -1    1    3    3    0  502  0.14574443522E+03 -0.38576755676E+03 -0.13131879900E+03  0.43278479091E+03  0.50400001928E-02 0. -1.
</event>
<event>
 5   0  0.6585930E-03  0.7649000E+03  0.7818609E-02  0.9612260E-01
       -2   -1    0    0    0  501  0.00000000000E+00  0.00000000000E+00  0.31436634251E+03  0.31436634252E+03  0.25500000920E-02 0.  1.
        2   -1    0    0  501    0  0.00000000000E+00  0.00000000000E+00 -0.46527877458E+03  0.46527877459E+03  0.25500000920E-02 0. -1.
    10030    2    1    2    0    0  0.00000000000E+00  0.00000000000E+00 -0.15091243207E+03  0.77964511711E+03  0.76489995847E+03 0.  0.
        2    1    3    3  502    0  0.40752234925E+02 -0.34214008234E+03  0.93717418934E+02  0.35707637168E+03  0.25500000920E-02 0.  1.
       -2    1    3    3    0  502 -0.40752234925E+02  0.34214008234E+03 -0.24462985101E+03  0.42256874542E+03  0.25500000920E-02 0. -1.
</event>
<event>
 5   0  0.6640844E-03  0.8257122E+03  0.7818609E-02  0.9523528E-01
       -2   -1    0    0    0  501  0.00000000000E+00  0.00000000000E+00  0.14337824558E+03  0.14337824560E+03  0.25500000920E-02 0.  1.
        2   -1    0    0  501    0  0.00000000000E+00  0.00000000000E+00 -0.11888145784E+04  0.11888145784E+04  0.25500000920E-02 0. -1.
    10030    2    1    2    0    0  0.00000000000E+00  0.00000000000E+00 -0.10454363328E+04  0.13321928240E+04  0.82571217404E+03 0.  0.
        5    1    3    3  502    0  0.38934822769E+03  0.13710442137E+03 -0.51272118012E+03  0.65825129191E+03  0.46999998093E+01 0.  1.
       -5    1    3    3    0  502 -0.38934822769E+03 -0.13710442137E+03 -0.53271515271E+03  0.67394153210E+03  0.46999998093E+01 0. -1.
</event>
<event>
 5   0  0.6640844E-03  0.1249051E+04  0.7818609E-02  0.9070974E-01
        2   -1    0    0  501    0  0.00000000000E+00  0.00000000000E+00  0.50161445302E+03  0.50161445302E+03  0.25500000920E-02 0.  1.
       -2   -1    0    0    0  501  0.00000000000E+00  0.00000000000E+00 -0.77755324044E+03  0.77755324045E+03  0.25500000920E-02 0. -1.
    10030    2    1    2    0    0  0.00000000000E+00  0.00000000000E+00 -0.27593878743E+03  0.12791676935E+04  0.12490507490E+04 0.  0.
        5    1    3    3  502    0  0.27286669178E+02  0.56471561120E+03 -0.40962280157E+03  0.69818422599E+03  0.46999998093E+01 0.  1.
       -5    1    3    3    0  502 -0.27286669178E+02 -0.56471561120E+03  0.13368401414E+03  0.58098346748E+03  0.46999998093E+01 0. -1.
</event>
<event>
 5   0  0.3944074E-03  0.1224615E+04  0.7818609E-02  0.9091580E-01
       -1   -1    0    0    0  501  0.00000000000E+00  0.00000000000E+00  0.22666866509E+03  0.22666866515E+03  0.50400001928E-02 0. -1.
        1   -1    0    0  501    0  0.00000000000E+00  0.00000000000E+00 -0.16540464338E+04  0.16540464338E+04  0.50400001928E-02 0.  1.
    10030    2    1    2    0    0  0.00000000000E+00  0.00000000000E+00 -0.14273777687E+04  0.18807150990E+04  0.12246150370E+04 0.  0.
        4    1    3    3  502    0 -0.43094692156E+03  0.17024883272E+03 -0.98964570010E+02  0.47380957490E+03  0.12699999809E+01 0. -1.
       -4    1    3    3    0  502  0.43094692156E+03 -0.17024883272E+03 -0.13284131987E+04  0.14069055241E+04  0.12699999809E+01 0.  1.
</event>
<event>
 5   0  0.3731281E-03  0.1193820E+04  0.7818609E-02  0.9118283E-01
       -1   -1    0    0    0  501  0.00000000000E+00  0.00000000000E+00  0.37549253252E+03  0.37549253255E+03  0.50400001928E-02 0.  1.
        1   -1    0    0  501    0  0.00000000000E+00  0.00000000000E+00 -0.94889108954E+03  0.94889108955E+03  0.50400001928E-02 0. -1.
    10030    2    1    2    0    0  0.00000000000E+00  0.00000000000E+00 -0.57339855702E+03  0.13243836221E+04  0.11938199501E+04 0.  0.
        5    1    3    3  502    0  0.30424818656E+03 -0.28892081658E+03  0.18427503596E+03  0.45828111040E+03  0.46999998093E+01 0.  1.
       -5    1    3    3    0  502 -0.30424818656E+03  0.28892081658E+03 -0.75767359298E+03  0.86610251170E+03  0.46999998093E+01 0. -1.
</event>
<event>
 5   0  0.6349142E-03  0.1186019E+04  0.7818609E-02  0.9125182E-01
       -2   -1    0    0    0  501  0.00000000000E+00  0.00000000000E+00  0.35522420905E+03  0.35522420906E+03  0.25500000920E-02 0. -1.
        2   -1    0    0  501    0  0.00000000000E+00  0.00000000000E+00 -0.98996779107E+03  0.98996779107E+03  0.25500000920E-02 0.  1.
    10030    2    1    2    0    0  0.00000000000E+00  0.00000000000E+00 -0.63474358201E+03  0.13451920001E+04  0.11860194359E+04 0.  0.
        1    1    3    3  502    0 -0.61750375352E+02 -0.34177616790E+03  0.22779919907E+03  0.41535109597E+03  0.50400001928E-02 0. -1.
       -1    1    3    3    0  502  0.61750375352E+02  0.34177616790E+03 -0.86254278109E+03  0.92984090415E+03  0.50400001928E-02 0.  1.
</event>
<event>
 5   0  0.6658994E-03  0.1182133E+04  0.7818609E-02  0.9128641E-01
       -2   -1    0    0    0  501  0.00000000000E+00  0.00000000000E+00  0.56268211268E+03  0.56268211268E+03  0.25500000920E-02 0. -1.
        2   -1    0    0  501    0  0.00000000000E+00  0.00000000000E+00 -0.62088224787E+03  0.62088224788E+03  0.25500000920E-02 0.  1.
    10030    2    1    2    0    0  0.00000000000E+00  0.00000000000E+00 -0.58200135195E+02  0.11835643606E+04  0.11821325390E+04 0.  0.
        4    1    3    3  502    0  0.42283372598E+03  0.29504333721E+03 -0.31844628417E+03  0.60601037900E+03  0.12699999809E+01 0.  1.
       -4    1    3    3    0  502 -0.42283372598E+03 -0.29504333721E+03  0.26024614897E+03  0.57755398156E+03  0.12699999809E+01 0. -1.
</event>
<event>
 5   0  0.6585930E-03  0.1185015E+04  0.7818609E-02  0.9126075E-01
        2   -1    0    0  501    0  0.00000000000E+00  0.00000000000E+00  0.44463911455E+03  0.44463911456E+03  0.25500000920E-02 0.  1.
       -2   -1    0    0    0  501  0.00000000000E+00  0.00000000000E+00 -0.78955103986E+03  0.78955103987E+03  0.25500000920E-02 0. -1.
    10030    2    1    2    0    0  0.00000000000E+00  0.00000000000E+00 -0.34491192531E+03  0.12341901544E+04  0.11850152324E+04 0.  0.
        2    1    3    3  502    0  0.16573445924E+02 -0.50279218727E+03 -0.49848057034E+03  0.70820727312E+03  0.25500000920E-02 0. -1.
       -2    1    3    3    0  502 -0.16573445924E+02  0.50279218727E+03  0.15356864503E+03  0.52598288131E+03  0.25500000920E-02 0.  1.
</event>
<event>
 5   0  0.6585930E-03  0.1189618E+04  0.7818609E-02  0.9121992E-01
        2   -1    0    0  501    0  0.00000000000E+00  0.00000000000E+00  0.14909390924E+04  0.14909390924E+04  0.25500000920E-02 0. -1.
       -2   -1    0    0    0  501  0.00000000000E+00  0.00000000000E+00 -0.23729876642E+03  0.23729876644E+03  0.25500000920E-02 0.  1.
    10030    2    1    2    0    0  0.00000000000E+00  0.00000000000E+00  0.12536403260E+04  0.17282378588E+04  0.11896184388E+04 0.  0.
        2    1    3    3  502    0 -0.36168233080E+03  0.35638074770E+02  0.13108770449E+04  0.13603245229E+04  0.25500000920E-02 0. -1.
       -2    1    3    3    0  502  0.36168233080E+03 -0.35638074770E+02 -0.57236718884E+02  0.36791333596E+03  0.25500000920E-02 0.  1.
</event>
<event>
 5   0  0.2537625E-03  0.1200734E+04  0.7818609E-02  0.9112214E-01
       -4   -1    0    0    0  501  0.00000000000E+00  0.00000000000E+00  0.74414636047E+03  0.74414744420E+03  0.12699999809E+01 0.  1.
        4   -1    0    0  501    0  0.00000000000E+00  0.00000000000E+00 -0.48436548072E+03  0.48436714567E+03  0.12699999809E+01 0. -1.
    10030    2    1    2    0    0  0.00000000000E+00  0.00000000000E+00  0.25978087976E+03  0.12285145899E+04  0.12007339389E+04 0.  0.
        4    1    3    3  502    0  0.28834184323E+03  0.94245700100E+02 -0.40018468042E+03  0.50216796183E+03  0.12699999809E+01 0. -1.
       -4    1    3    3    0  502 -0.28834184323E+03 -0.94245700100E+02  0.65996556018E+03  0.72634662804E+03  0.12699999809E+01 0.  1.
</event>
<event>
 5   0  0.3701879E-03  0.1193814E+04  0.7818609E-02  0.9118288E-01
        1   -1    0    0  501    0  0.00000000000E+00  0.00000000000E+00  0.18011972740E+03  0.18011972747E+03  0.50400001928E-02 0.  1.
       -1   -1    0    0    0  501  0.00000000000E+00  0.00000000000E+00 -0.19781181558E+04  0.19781181559E+04  0.50400001928E-02 0. -1.
    10030    2    1    2    0    0  0.00000000000E+00  0.00000000000E+00 -0.17979984285E+04  0.21582378833E+04  0.11938142286E+04 0.  0.
        1    1    3    3  502    0  0.47267636728E+03  0.78107322698E+02 -0.15426915590E+04  0.16153702202E+04  0.50400001928E-02 0. -1.
       -1    1    3    3    0  502 -0.47267636728E+03 -0.78107322698E+02 -0.25530686942E+03  0.54286766310E+03  0.50400001928E-02 0.  1.
</event>
<event>
 5   0  0.6640844E-03  0.1193054E+04  0.7818609E-02  0.9118958E-01
        2   -1    0    0  501    0  0.00000000000E+00  0.00000000000E+00  0.59410493628E+03  0.59410493628E+03  0.25500000920E-02 0.  1.
       -2   -1    0    0    0  501  0.00000000000E+00  0.00000000000E+00 -0.59895938460E+03  0.59895938460E+03  0.25500000920E-02 0. -1.
    10030    2    1    2    0    0  0.00000000000E+00  0.00000000000E+00 -0.48544483193E+01  0.11930643209E+04  0.11930544447E+04 0.  0.
        5    1    3    3  502    0  0.89129154035E+02  0.57412668406E+03 -0.13754748116E+03  0.59708195000E+03  0.46999998093E+01 0.  1.
       -5    1    3    3    0  502 -0.89129154035E+02 -0.57412668406E+03  0.13269303284E+03  0.59598237089E+03  0.46999998093E+01 0. -1.
</event>
<event>
 5   0  0.6349142E-03  0.1182032E+04  0.7818609E-02  0.9128731E-01
       -2   -1    0    0    0  501  0.00000000000E+00  0.00000000000E+00  0.93002463366E+03  0.93002463366E+03  0.25500000920E-02 0. -1.
        2   -1    0    0  501    0  0.00000000000E+00  0.00000000000E+00 -0.37558141334E+03  0.37558141335E+03  0.25500000920E-02 0.  1.
    10030    2    1    2    0    0  0.00000000000E+00  0.00000000000E+00  0.55444322031E+03  0.13056060470E+04  0.11820320916E+04 0.  0.
        1    1    3    3  502    0  0.42970388743E+03  0.50792355672E+02  0.72189430368E+03  0.84163928139E+03  0.50400001928E-02 0. -1.
       -1    1    3    3    0  502 -0.42970388743E+03 -0.50792355672E+02 -0.16745108336E+03  0.46396676563E+03  0.50400001928E-02 0.  1.
</event>
<event>
 5   0  0.3944074E-03  0.1184562E+04  0.7818609E-02  0.9126478E-01
       -1   -1    0    0    0  501  0.00000000000E+00  0.00000000000E+00  0.26565931047E+03  0.26565931051E+03  0.50400001928E-02 0.  1.
        1   -1    0    0  501    0  0.00000000000E+00  0.00000000000E+00 -0.13204765726E+04  0.13204765726E+04  0.50400001928E-02 0. -1.
    10030    2    1    2    0    0  0.00000000000E+00  0.00000000000E+00 -0.10548172621E+04  0.15861358831E+04  0.11845621905E+04 0.  0.
        4    1    3    3  502    0 -0.20262735364E+03  0.18595295894E+02 -0.12722037477E+04  0.12883740211E+04  0.12699999809E+01 0. -1.
       -4    1    3    3    0  502  0.20262735364E+03 -0.18595295894E+02  0.21738648561E+03  0.29776186206E+03  0.12699999809E+01 0.  1.
</event>
<event>
 5   0  0.3772254E-03  0.1016668E+04  0.7818609E-02  0.9290450E-01
        1   -1    0    0  501    0  0.00000000000E+00  0.00000000000E+00  0.84603351523E+03  0.84603351524E+03  0.50400001928E-02 0.  1.
       -1   -1    0    0    0  501  0.00000000000E+00  0.00000000000E+00 -0.30542921896E+03  0.30542921900E+03  0.50400001928E-02 0. -1.
    10030    2    1    2    0    0  0.00000000000E+00  0.00000000000E+00  0.54060429626E+03  0.11514627342E+04  0.10166678038E+04 0.  0.
        3    1    3    3  502    0  0.13861554479E+03 -0.48893148286E+03  0.25713873180E+03  0.56955122841E+03  0.10100000352E+00 0. -1.
       -3    1    3    3    0  502 -0.13861554479E+03  0.48893148286E+03  0.28346556446E+03  0.58191150584E+03  0.10100000352E+00 0.  1.
</event>
<event>
 5   0  0.6640844E-03  0.1212147E+04  0.7818609E-02  0.9102290E-01
       -2   -1    0    0    0  501  0.00000000000E+00  0.00000000000E+00  0.61215163789E+03  0.61215163790E+03  0.25500000920E-02 0.  1.
        2   -1    0    0  501    0  0.00000000000E+00  0.00000000000E+00 -0.60005609306E+03  0.60005609306E+03  0.25500000920E-02 0. -1.
    10030    2    1    2    0    0  0.00000000000E+00  0.00000000000E+00  0.12095544835E+02  0.12122077310E+04  0.12121473841E+04 0.  0.
        5    1    3    3  502    0 -0.40706455953E+03 -0.48530507460E+02  0.45244031707E+03  0.61055802041E+03  0.46999998093E+01 0.  1.
       -5    1    3    3    0  502  0.40706455953E+03  0.48530507460E+02 -0.44034477223E+03  0.60164971056E+03  0.46999998093E+01 0. -1.
</event>
<event>
 5   0  0.6640844E-03  0.1207971E+04  0.7818609E-02  0.9105908E-01
       -2   -1    0    0    0  501  0.00000000000E+00  0.00000000000E+00  0.25715324028E+03  0.25715324029E+03  0.25500000920E-02 0. -1.
        2   -1    0    0  501    0  0.00000000000E+00  0.00000000000E+00 -0.14186025875E+04  0.14186025875E+04  0.25500000920E-02 0.  1.
    10030    2    1    2    0    0  0.00000000000E+00  0.00000000000E+00 -0.11614493472E+04  0.16757558278E+04  0.12079706156E+04 0.  0.
        5    1    3    3  502    0 -0.42362606497E+03  0.43026913906E+03 -0.56182613289E+03  0.82477952724E+03  0.46999998093E+01 0.  1.
       -5    1    3    3    0  502  0.42362606497E+03 -0.43026913906E+03 -0.59962321435E+03  0.85097630058E+03  0.46999998093E+01 0. -1.
</event>
<event>
 5   0  0.6585930E-03  0.1191216E+04  0.7818609E-02  0.9120580E-01
       -2   -1    0    0    0  501  0.00000000000E+00  0.00000000000E+00  0.65335449851E+03  0.65335449851E+03  0.25500000920E-02 0.  1.
        2   -1    0    0  501    0  0.00000000000E+00  0.00000000000E+00 -0.54296558773E+03  0.54296558774E+03  0.25500000920E-02 0. -1.
    10030    2    1    2    0    0  0.00000000000E+00  0.00000000000E+00  0.11038891078E+03  0.11963200863E+04  0.11912162008E+04 0.  0.
        2    1    3    3  502    0  0.55661916462E+03  0.44829093383E+02 -0.15285120725E+03  0.57896289484E+03  0.25500000920E-02 0. -1.
       -2    1    3    3    0  502 -0.55661916462E+03 -0.44829093383E+02  0.26324011803E+03  0.61735719141E+03  0.25500000920E-02 0.  1.
</event>
<event>
 5   0  0.6658994E-03  0.7879950E+03  0.7818609E-02  0.9577558E-01
       -2   -1    0    0    0  501  0.00000000000E+00  0.00000000000E+00  0.17446992100E+03  0.17446992102E+03  0.25500000920E-02 0. -1.
        2   -1    0    0  501    0  0.00000000000E+00  0.00000000000E+00 -0.88974657072E+03  0.88974657073E+03  0.25500000920E-02 0.  1.
    10030    2    1    2    0    0  0.00000000000E+00  0.00000000000E+00 -0.71527664973E+03  0.10642164917E+04  0.78799495915E+03 0.  0.
        4    1    3    3  502    0  0.28484518387E+03 -0.24643607153E+01  0.99697322010E+01  0.28503308634E+03  0.12699999809E+01 0. -1.
       -4    1    3    3    0  502 -0.28484518387E+03  0.24643607153E+01 -0.72524638193E+03  0.77918340540E+03  0.12699999809E+01 0.  1.
</event>
<event>
 5   0  0.3701879E-03  0.1325855E+04  0.7818609E-02  0.9009309E-01
        1   -1    0    0  501    0  0.00000000000E+00  0.00000000000E+00  0.70643467658E+03  0.70643467660E+03  0.50400001928E-02 0. -1.
       -1   -1    0    0    0  501  0.00000000000E+00  0.00000000000E+00 -0.62209991855E+03  0.62209991857E+03  0.50400001928E-02 0.  1.
    10030    2    1    2    0    0  0.00000000000E+00  0.00000000000E+00  0.84334758025E+02  0.13285345952E+04  0.13258551275E+04 0.  0.
        1    1    3    3  502    0 -0.64433073310E+03  0.19097624446E+01 -0.11405541014E+03  0.65435034761E+03  0.50400001928E-02 0.  1.
       -1    1    3    3    0  502  0.64433073310E+03 -0.19097624446E+01  0.19839016816E+03  0.67418424756E+03  0.50400001928E-02 0. -1.
</event>
<event>
 5   0  0.3701879E-03  0.1206101E+04  0.7818609E-02  0.9107533E-01
        1   -1    0    0  501    0  0.00000000000E+00  0.00000000000E+00  0.15786290369E+04  0.15786290369E+04  0.50400001928E-02 0.  1.
       -1   -1    0    0    0  501  0.00000000000E+00  0.00000000000E+00 -0.23037053511E+03  0.23037053516E+03  0.50400001928E-02 0. -1.
    10030    2    1    2    0    0  0.00000000000E+00  0.00000000000E+00  0.13482585017E+04  0.18089995720E+04  0.12061005199E+04 0.  0.
        1    1    3    3  502    0  0.42659133241E+03  0.39962317539E+03  0.45170857010E+03  0.73872828532E+03  0.50400001928E-02 0. -1.
       -1    1    3    3    0  502 -0.42659133241E+03 -0.39962317539E+03  0.89654993164E+03  0.10702712867E+04  0.50400001928E-02 0.  1.
</event>
<event>
 5   0  0.3772254E-03  0.1193342E+04  0.7818609E-02  0.9118704E-01
       -1   -1    0    0    0  501  0.00000000000E+00  0.00000000000E+00  0.98836839544E+03  0.98836839545E+03  0.50400001928E-02 0.  1.
        1   -1    0    0  501    0  0.00000000000E+00  0.00000000000E+00 -0.36020616890E+03  0.36020616894E+03  0.50400001928E-02 0. -1.
    10030    2    1    2    0    0  0.00000000000E+00  0.00000000000E+00  0.62816222654E+03  0.13485745644E+04  0.11933421860E+04 0.  0.
        3    1    3    3  502    0  0.16851844627E+03  0.18900716963E+03  0.92463318294E+03  0.95868071332E+03  0.10100000352E+00 0.  1.
       -3    1    3    3    0  502 -0.16851844627E+03 -0.18900716963E+03 -0.29647095640E+03  0.38989385106E+03  0.10100000352E+00 0. -1.
</event>
<event>
 5   0  0.6349142E-03  0.8258846E+03  0.7818609E-02  0.9523288E-01
       -2   -1    0    0    0  501  0.00000000000E+00  0.00000000000E+00  0.77640539792E+02  0.77640539834E+02  0.25500000920E-02 0. -1.
        2   -1    0    0  501    0  0.00000000000E+00  0.00000000000E+00 -0.21962923857E+04  0.21962923857E+04  0.25500000920E-02 0.  1.
    10030    2    1    2    0    0  0.00000000000E+00  0.00000000000E+00 -0.21186518459E+04  0.22739329255E+04  0.82588455952E+03 0.  0.
        1    1    3    3  502    0 -0.98952965078E+02 -0.26813156296E+03 -0.18799620009E+04  0.19015633960E+04  0.50400001928E-02 0.  1.
       -1    1    3    3    0  502  0.98952965078E+02  0.26813156296E+03 -0.23868984500E+03  0.37236952948E+03  0.50400001928E-02 0. -1.
</event>
<event>
 5   0  0.2537625E-03  0.1192888E+04  0.7818609E-02  0.9119104E-01
       -3   -1    0    0    0  501  0.00000000000E+00  0.00000000000E+00  0.67250253599E+03  0.67250254357E+03  0.10100000352E+00 0.  1.
        3   -1    0    0  501    0  0.00000000000E+00  0.00000000000E+00 -0.52898759426E+03  0.52898760390E+03  0.10100000352E+00 0. -1.
    10030    2    1    2    0    0  0.00000000000E+00  0.00000000000E+00  0.14351494173E+03  0.12014901475E+04  0.11928881071E+04 0.  0.
        4    1    3    3  502    0  0.36390248978E+03 -0.23480932344E+03  0.48481651995E+03  0.65008392640E+03  0.12699999809E+01 0.  1.
       -4    1    3    3    0  502 -0.36390248978E+03  0.23480932344E+03 -0.34130157822E+03  0.55140622108E+03  0.12699999809E+01 0. -1.
</event>
<event>
 5   0  0.6658994E-03  0.1178740E+04  0.7818609E-02  0.9131672E-01
       -2   -1    0    0    0  501  0.00000000000E+00  0.00000000000E+00  0.28640427259E+03  0.28640427260E+03  0.25500000920E-02 0.  1.
        2   -1    0    0  501    0  0.00000000000E+00  0.00000000000E+00 -0.12128206858E+04  0.12128206858E+04  0.25500000920E-02 0. -1.
    10030    2    1    2    0    0  0.00000000000E+00  0.00000000000E+00 -0.92641641321E+03  0.14992249584E+04  0.11787400499E+04 0.  0.
        4    1    3    3  502    0  0.34005130549E+03  0.37668481546E+03 -0.82004405584E+02  0.51405512934E+03  0.12699999809E+01 0.  1.
       -4    1    3    3    0  502 -0.34005130549E+03 -0.37668481546E+03 -0.84441200762E+03  0.98516982906E+03  0.12699999809E+01 0. -1.
</event>
<event>
 5   0  0.3944074E-03  0.1150341E+04  0.7818609E-02  0.9157469E-01
       -1   -1    0    0    0  501  0.00000000000E+00  0.00000000000E+00  0.66197710410E+03  0.66197710412E+03  0.50400001928E-02 0. -1.
        1   -1    0    0  501    0  0.00000000000E+00  0.00000000000E+00 -0.49974730045E+03  0.49974730048E+03  0.50400001928E-02 0.  1.
    10030    2    1    2    0    0  0.00000000000E+00  0.00000000000E+00  0.16222980365E+03  0.11617244046E+04  0.11503412898E+04 0.  0.
        4    1    3    3  502    0  0.48003003729E+03  0.28190646466E+03 -0.64952311217E+02  0.56046454585E+03  0.12699999809E+01 0.  1.
       -4    1    3    3    0  502 -0.48003003729E+03 -0.28190646466E+03  0.22718211486E+03  0.60125985874E+03  0.12699999809E+01 0. -1.
</event>
<event>
 5   0  0.3731281E-03  0.1194769E+04  0.7818609E-02  0.9117448E-01
        1   -1    0    0  501    0  0.00000000000E+00  0.00000000000E+00  0.10976487314E+04  0.10976487315E+04  0.50400001928E-02 0.  1.
       -1   -1    0    0    0  501  0.00000000000E+00  0.00000000000E+00 -0.32512050436E+03  0.32512050440E+03  0.50400001928E-02 0. -1.
    10030    2    1    2    0    0  0.00000000000E+00  0.00000000000E+00  0.77252822709E+03  0.14227692359E+04  0.11947687797E+04 0.  0.
        5    1    3    3  502    0 -0.15362976853E+02  0.34992379704E+03 -0.18998470402E+03  0.39849587520E+03  0.46999998093E+01 0. -1.
       -5    1    3    3    0  502  0.15362976853E+02 -0.34992379704E+03  0.96251293111E+03  0.10242733607E+04  0.46999998093E+01 0.  1.
</event>
<event>
 5   0  0.6349142E-03  0.1201388E+04  0.7818609E-02  0.9111643E-01
       -2   -1    0    0    0  501  0.00000000000E+00  0.00000000000E+00  0.61799921868E+03  0.61799921869E+03  0.25500000920E-02 0.  1.
        2   -1    0    0  501    0  0.00000000000E+00  0.00000000000E+00 -0.58387322960E+03  0.58387322961E+03  0.25500000920E-02 0. -1.
    10030    2    1    2    0    0  0.00000000000E+00  0.00000000000E+00  0.34125989083E+02  0.12018724483E+04  0.12013878636E+04 0.  0.
        1    1    3    3  502    0  0.41367249546E+03  0.34625194929E+03  0.28140025598E+03  0.60844182136E+03  0.50400001928E-02 0.  1.
       -1    1    3    3    0  502 -0.41367249546E+03 -0.34625194929E+03 -0.24727426690E+03  0.59343062693E+03  0.50400001928E-02 0. -1.
</event>
<event>
 5   0  0.3772254E-03  0.1207954E+04  0.7818609E-02  0.9105923E-01
        1   -1    0    0  501    0  0.00000000000E+00  0.00000000000E+00  0.82179916266E+03  0.82179916267E+03  0.50400001928E-02 0. -1.
       -1   -1    0    0    0  501  0.00000000000E+00  0.00000000000E+00 -0.44388994279E+03  0.44388994282E+03  0.50400001928E-02 0.  1.
    10030    2    1    2    0    0  0.00000000000E+00  0.00000000000E+00  0.37790921986E+03  0.12656891055E+04  0.12079542762E+04 0.  0.
        3    1    3    3  502    0  0.30320699813E+03  0.22969600193E+02  0.73574557344E+03  0.79610529786E+03  0.10100000352E+00 0. -1.
       -3    1    3    3    0  502 -0.30320699813E+03 -0.22969600193E+02 -0.35783635358E+03  0.46958380763E+03  0.10100000352E+00 0.  1.
</event>
<event>
 5   0  0.6585930E-03  0.1217530E+04  0.7818609E-02  0.9097649E-01
        2   -1    0    0  501    0  0.00000000000E+00  0.00000000000E+00  0.35195728479E+03  0.35195728480E+03  0.25500000920E-02 0.  1.
       -2   -1    0    0    0  501  0.00000000000E+00  0.00000000000E+00 -0.10529542501E+04  0.10529542501E+04  0.25500000920E-02 0. -1.
    10030    2    1    2    0    0  0.00000000000E+00  0.00000000000E+00 -0.70099696528E+03  0.14049115349E+04  0.12175301538E+04 0.  0.
        2    1    3    3  502    0  0.36675957719E+03  0.16097706540E+02 -0.91085252861E+03  0.98205094190E+03  0.25500000920E-02 0. -1.
       -2    1    3    3    0  502 -0.36675957719E+03 -0.16097706540E+02  0.20985556333E+03  0.42286059296E+03  0.25500000920E-02 0.  1.
</event>
<event>
 5   0  0.6585930E-03  0.1198437E+04  0.7818609E-02  0.9114226E-01
       -2   -1    0    0    0  501  0.00000000000E+00  0.00000000000E+00  0.40609903773E+03  0.40609903774E+03  0.25500000920E-02 0.  1.
        2   -1    0    0  501    0  0.00000000000E+00  0.00000000000E+00 -0.88417579432E+03  0.88417579432E+03  0.25500000920E-02 0. -1.
    10030    2    1    2    0    0  0.00000000000E+00  0.00000000000E+00 -0.47807675659E+03  0.12902748321E+04  0.11984372145E+04 0.  0.
        2    1    3    3  502    0 -0.31294039596E+02  0.29928031253E+03 -0.79693168132E+03  0.85184982660E+03  0.25500000920E-02 0. -1.
       -2    1    3    3    0  502  0.31294039596E+02 -0.29928031253E+03  0.31885492473E+03  0.43842500546E+03  0.25500000920E-02 0.  1.
</event>
<event>
 5   0  0.6658994E-03  0.1181651E+04  0.7818609E-02  0.9129071E-01
        2   -1    0    0  501    0  0.00000000000E+00  0.00000000000E+00  0.15651182575E+04  0.15651182575E+04  0.25500000920E-02 0. -1.
       -2   -1    0    0    0  501  0.00000000000E+00  0.00000000000E+00 -0.22303404886E+03  0.22303404888E+03  0.25500000920E-02 0.  1.
    10030    2    1    2    0    0  0.00000000000E+00  0.00000000000E+00  0.13420842087E+04  0.17881523064E+04  0.11816508146E+04 0.  0.
        4    1    3    3  502    0  0.17091100312E+03 -0.24488117549E+03  0.14425047201E+04  0.14730915930E+04  0.12699999809E+01 0. -1.
       -4    1    3    3    0  502 -0.17091100312E+03  0.24488117549E+03 -0.10042051142E+03  0.31506071337E+03  0.12699999809E+01 0.  1.
</event>
<event>
 5   0  0.6493047E-03  0.1163243E+04  0.7818609E-02  0.9145653E-01
       -2   -1    0    0    0  501  0.00000000000E+00  0.00000000000E+00  0.34964470411E+03  0.34964470412E+03  0.25500000920E-02 0.  1.
        2   -1    0    0  501    0  0.00000000000E+00  0.00000000000E+00 -0.96750633384E+03  0.96750633384E+03  0.25500000920E-02 0. -1.
    10030    2    1    2    0    0  0.00000000000E+00  0.00000000000E+00 -0.61786162973E+03  0.13171510380E+04  0.11632428222E+04 0.  0.
        3    1    3    3  502    0  0.25093300299E+03 -0.23003643510E+01 -0.90305442991E+03  0.93727262696E+03  0.10100000352E+00 0. -1.
       -3    1    3    3    0  502 -0.25093300299E+03  0.23003643510E+01  0.28519280019E+03  0.37987841100E+03  0.10100000352E+00 0.  1.
</event>
<event>
 5   0  0.6349142E-03  0.1153203E+04  0.7818609E-02  0.9154834E-01
        2   -1    0    0  501    0  0.00000000000E+00  0.00000000000E+00  0.70726540694E+03  0.70726540695E+03  0.25500000920E-02 0. -1.
       -2   -1    0    0    0  501  0.00000000000E+00  0.00000000000E+00 -0.47007679897E+03  0.47007679898E+03  0.25500000920E-02 0.  1.
    10030    2    1    2    0    0  0.00000000000E+00  0.00000000000E+00  0.23718860798E+03  0.11773422059E+04  0.11532025989E+04 0.  0.
        1    1    3    3  502    0 -0.16082544653E+03 -0.43518007521E+03 -0.23095034468E+03  0.51825146777E+03  0.50400001928E-02 0.  1.
       -1    1    3    3    0  502  0.16082544653E+03  0.43518007521E+03  0.46813895265E+03  0.65909073816E+03  0.50400001928E-02 0. -1.
</event>
<event>
 5   0  0.6640844E-03  0.1168003E+04  0.7818609E-02  0.9141333E-01
       -2   -1    0    0    0  501  0.00000000000E+00  0.00000000000E+00  0.34658478748E+03  0.34658478749E+03  0.25500000920E-02 0. -1.
        2   -1    0    0  501    0  0.00000000000E+00  0.00000000000E+00 -0.98405369700E+03  0.98405369701E+03  0.25500000920E-02 0.  1.
    10030    2    1    2    0    0  0.00000000000E+00  0.00000000000E+00 -0.63746890952E+03  0.13306384845E+04  0.11680034956E+04 0.  0.
        5    1    3    3  502    0 -0.28494191199E+03 -0.66352855176E+02  0.25705213200E+03  0.38947719210E+03  0.46999998093E+01 0. -1.
       -5    1    3    3    0  502  0.28494191199E+03  0.66352855176E+02 -0.89452104152E+03  0.94116129240E+03  0.46999998093E+01 0.  1.
</event>
<event>
 5   0  0.3944074E-03  0.1192664E+04  0.7818609E-02  0.9119302E-01
        1   -1    0    0  501    0  0.00000000000E+00  0.00000000000E+00  0.12296941213E+04  0.12296941213E+04  0.50400001928E-02 0.  1.
       -1   -1    0    0    0  501  0.00000000000E+00  0.00000000000E+00 -0.28918734556E+03  0.28918734560E+03  0.50400001928E-02 0. -1.
    10030    2    1    2    0    0  0.00000000000E+00  0.00000000000E+00  0.94050677571E+03  0.15188814669E+04  0.11926642089E+04 0.  0.
        4    1    3    3  502    0 -0.22606534717E+03  0.10149981939E+03 -0.22050943886E+03  0.33171340047E+03  0.12699999809E+01 0. -1.
       -4    1    3    3    0  502  0.22606534717E+03 -0.10149981939E+03  0.11610162146E+04  0.11871680664E+04  0.12699999809E+01 0.  1.
</event>
<event>
 5   0  0.3731281E-03  0.1088534E+04  0.7818609E-02  0.9216440E-01
       -1   -1    0    0    0  501  0.00000000000E+00  0.00000000000E+00  0.44831451144E+03  0.44831451147E+03  0.50400001928E-02 0. -1.
        1   -1    0    0  501    0  0.00000000000E+00  0.00000000000E+00 -0.66075631037E+03  0.66075631039E+03  0.50400001928E-02 0.  1.
    10030    2    1    2    0    0  0.00000000000E+00  0.00000000000E+00 -0.21244179893E+03  0.11090708219E+04  0.10885341382E+04 0.  0.
        5    1    3    3  502    0 -0.27241566519E+03  0.20467765160E+03  0.32616912910E+03  0.47171138049E+03  0.46999998093E+01 0. -1.
       -5    1    3    3    0  502  0.27241566519E+03 -0.20467765160E+03 -0.53861092803E+03  0.63735944136E+03  0.46999998093E+01 0.  1.
</event>
<event>
 5   0  0.6658994E-03  0.1219256E+04  0.7818609E-02  0.9096167E-01
        2   -1    0    0  501    0  0.00000000000E+00  0.00000000000E+00  0.12921602140E+04  0.12921602140E+04  0.25500000920E-02 0.  1.
       -2   -1    0    0    0  501  0.00000000000E+00  0.00000000000E+00 -0.28761637842E+03  0.28761637843E+03  0.25500000920E-02 0. -1.
    10030    2    1    2    0    0  0.00000000000E+00  0.00000000000E+00  0.10045438356E+04  0.15797765925E+04  0.12192562341E+04 0.  0.
        4    1    3    3  502    0  0.38706653360E+02  0.59040971696E+03  0.69253528289E+03  0.91087242238E+03  0.12699999809E+01 0.  1.
       -4    1    3    3    0  502 -0.38706653360E+02 -0.59040971696E+03  0.31200855272E+03  0.66890417009E+03  0.12699999809E+01 0. -1.
</event>
<event>
 5   0  0.6585930E-03  0.1204916E+04  0.7818609E-02  0.9108564E-01
        2   -1    0    0  501    0  0.00000000000E+00  0.00000000000E+00  0.15891447659E+04  0.15891447659E+04  0.25500000920E-02 0. -1.
       -2   -1    0    0    0  501  0.00000000000E+00  0.00000000000E+00 -0.22839690638E+03  0.22839690639E+03  0.25500000920E-02 0.  1.
    10030    2    1    2    0    0  0.00000000000E+00  0.00000000000E+00  0.13607478595E+04  0.18175416723E+04  0.12049161769E+04 0.  0.
        2    1    3    3  502    0 -0.18177937823E+03  0.56015662717E+03  0.87199047570E+03  0.10522293377E+04  0.25500000920E-02 0. -1.
       -2    1    3    3    0  502  0.18177937823E+03 -0.56015662717E+03  0.48875738384E+03  0.76531233466E+03  0.25500000920E-02 0.  1.
</event>
<event>
 5   0  0.3731281E-03  0.1211702E+04  0.7818609E-02  0.9102675E-01
       -1   -1    0    0    0  501  0.00000000000E+00  0.00000000000E+00  0.84374967412E+03  0.84374967414E+03  0.50400001928E-02 0.  1.
        1   -1    0    0  501    0  0.00000000000E+00  0.00000000000E+00 -0.43502855881E+03  0.43502855884E+03  0.50400001928E-02 0. -1.
    10030    2    1    2    0    0  0.00000000000E+00  0.00000000000E+00  0.40872111531E+03  0.12787782330E+04  0.12117016213E+04 0.  0.
        5    1    3    3  502    0  0.23704207014E+03 -0.78658544300E+02 -0.37815178311E+03  0.45320742567E+03  0.46999998093E+01 0. -1.
       -5    1    3    3    0  502 -0.23704207014E+03  0.78658544300E+02  0.78687289843E+03  0.82557080731E+03  0.46999998093E+01 0.  1.
</event>
<event>
 5   0  0.3648616E-03  0.1209073E+04  0.7818609E-02  0.9104952E-01
        1   -1    0    0  501    0  0.00000000000E+00  0.00000000000E+00  0.66585315734E+03  0.66585315736E+03  0.50400001928E-02 0.  1.
       -1   -1    0    0    0  501  0.00000000000E+00  0.00000000000E+00 -0.54886609127E+03  0.54886609129E+03  0.50400001928E-02 0. -1.
    10030    2    1    2    0    0  0.00000000000E+00  0.00000000000E+00  0.11698706608E+03  0.12147192487E+04  0.12090727354E+04 0.  0.
        2    1    3    3  502    0 -0.31969374934E+02  0.54210578503E+03  0.32537199895E+03  0.63306213028E+03  0.25500000920E-02 0.  1.
       -2    1    3    3    0  502  0.31969374934E+02 -0.54210578503E+03 -0.20838493288E+03  0.58165711837E+03  0.25500000920E-02 0. -1.
</event>
<event>
 5   0  0.6640844E-03  0.1154191E+04  0.7818609E-02  0.9153926E-01
       -2   -1    0    0    0  501  0.00000000000E+00  0.00000000000E+00  0.35759836041E+03  0.35759836042E+03  0.25500000920E-02 0. -1.
        2   -1    0    0  501    0  0.00000000000E+00  0.00000000000E+00 -0.93132203137E+03  0.93132203138E+03  0.25500000920E-02 0.  1.
    10030    2    1    2    0    0  0.00000000000E+00  0.00000000000E+00 -0.57372367096E+03  0.12889203918E+04  0.11541910265E+04 0.  0.
        5    1    3    3  502    0 -0.19960747161E+03 -0.46059809614E+03  0.31011144265E+02  0.50296871667E+03  0.46999998093E+01 0. -1.
       -5    1    3    3    0  502  0.19960747161E+03  0.46059809614E+03 -0.60473481523E+03  0.78595167513E+03  0.46999998093E+01 0.  1.
</event>
<event>
 5   0  0.3648616E-03  0.1198281E+04  0.7818609E-02  0.9114363E-01
        1   -1    0    0  501    0  0.00000000000E+00  0.00000000000E+00  0.12159343044E+04  0.12159343044E+04  0.50400001928E-02 0. -1.
       -1   -1    0    0    0  501  0.00000000000E+00  0.00000000000E+00 -0.29522076650E+03  0.29522076655E+03  0.50400001928E-02 0.  1.
    10030    2    1    2    0    0  0.00000000000E+00  0.00000000000E+00  0.92071353788E+03  0.15111550709E+04  0.11982805304E+04 0.  0.
        2    1    3    3  502    0 -0.54112241543E+03  0.19882238655E+03  0.66613401787E+03  0.88095308595E+03  0.25500000920E-02 0. -1.
       -2    1    3    3    0  502  0.54112241543E+03 -0.19882238655E+03  0.25457952001E+03  0.63020198499E+03  0.25500000920E-02 0.  1.
</event>
<event>
 5   0  0.3772254E-03  0.1213536E+04  0.7818609E-02  0.9101090E-01
       -1   -1    0    0    0  501  0.00000000000E+00  0.00000000000E+00  0.79103150397E+03  0.79103150399E+03  0.50400001928E-02 0. -1.
        1   -1    0    0  501    0  0.00000000000E+00  0.00000000000E+00 -0.46542684489E+03  0.46542684492E+03  0.50400001928E-02 0.  1.
    10030    2    1    2    0    0  0.00000000000E+00  0.00000000000E+00  0.32560465909E+03  0.12564583489E+04  0.12135358209E+04 0.  0.
        3    1    3    3  502    0 -0.60707791898E+02 -0.12715516568E+03 -0.44825308499E+03  0.46987733565E+03  0.10100000352E+00 0.  1.
       -3    1    3    3    0  502  0.60707791898E+02  0.12715516568E+03  0.77385774407E+03  0.78658101326E+03  0.10100000352E+00 0. -1.
</event>
<event>
 5   0  0.3701879E-03  0.1199129E+04  0.7818609E-02  0.9113619E-01
       -1   -1    0    0    0  501  0.00000000000E+00  0.00000000000E+00  0.25629503411E+03  0.25629503415E+03  0.50400001928E-02 0. -1.
        1   -1    0    0  501    0  0.00000000000E+00  0.00000000000E+00 -0.14025935731E+04  0.14025935731E+04  0.50400001928E-02 0.  1.
    10030    2    1    2    0    0  0.00000000000E+00  0.00000000000E+00 -0.11462985390E+04  0.16588886073E+04  0.11991292970E+04 0.  0.
        1    1    3    3  502    0  0.41476570782E+03  0.44187810321E+01 -0.11720682001E+04  0.12432996355E+04  0.50400001928E-02 0.  1.
       -1    1    3    3    0  502 -0.41476570782E+03 -0.44187810321E+01  0.25769661050E+02  0.41558897178E+03  0.50400001928E-02 0. -1.
</event>
<event>
 5   0  0.6349142E-03  0.1196452E+04  0.7818609E-02  0.9115968E-01
        2   -1    0    0  501    0  0.00000000000E+00  0.00000000000E+00  0.85954230729E+03  0.85954230729E+03  0.25500000920E-02 0. -1.
       -2   -1    0    0    0  501  0.00000000000E+00  0.00000000000E+00 -0.41635437322E+03  0.41635437323E+03  0.25500000920E-02 0.  1.
    10030    2    1    2    0    0  0.00000000000E+00  0.00000000000E+00  0.44318793407E+03  0.12758966805E+04  0.11964517518E+04 0.  0.
        1    1    3    3  502    0 -0.17706730991E+03 -0.24314208592E+03 -0.32985292417E+03  0.44640100559E+03  0.50400001928E-02 0.  1.
       -1    1    3    3    0  502  0.17706730991E+03  0.24314208592E+03  0.77304085824E+03  0.82949567492E+03  0.50400001928E-02 0. -1.
</event>
<event>
 5   0  0.2537625E-03  0.1073379E+04  0.7818609E-02  0.9231534E-01
       -3   -1    0    0    0  501  0.00000000000E+00  0.00000000000E+00  0.14392413294E+04  0.14392413329E+04  0.10100000352E+00 0. -1.
        3   -1    0    0  501    0  0.00000000000E+00  0.00000000000E+00 -0.20013014188E+03  0.20013016736E+03  0.10100000352E+00 0.  1.
    10030    2    1    2    0    0  0.00000000000E+00  0.00000000000E+00  0.12391111875E+04  0.16393715003E+04  0.10733789550E+04 0.  0.
        4    1    3    3  502    0 -0.22742433710E+02  0.38614830028E+03  0.51354373144E+02  0.39021354748E+03  0.12699999809E+01 0.  1.
       -4    1    3    3    0  502  0.22742433710E+02 -0.38614830028E+03  0.11877568144E+04  0.12491579528E+04  0.12699999809E+01 0. -1.
</event>
<event>
 5   0  0.6493047E-03  0.1079677E+04  0.7818609E-02  0.9225230E-01
       -2   -1    0    0    0  501  0.00000000000E+00  0.00000000000E+00  0.27263480399E+03  0.27263480400E+03  0.25500000920E-02 0. -1.
        2   -1    0    0  501    0  0.00000000000E+00  0.00000000000E+00 -0.10689226322E+04  0.10689226322E+04  0.25500000920E-02 0.  1.
    10030    2    1    2    0    0  0.00000000000E+00  0.00000000000E+00 -0.79628782822E+03  0.13415574362E+04  0.10796768263E+04 0.  0.
        3    1    3    3  502    0  0.13660258613E+03 -0.24739197553E+03  0.17338049156E+03  0.33154767553E+03  0.10100000352E+00 0. -1.
       -3    1    3    3    0  502 -0.13660258613E+03  0.24739197553E+03 -0.96966831978E+03  0.10100097607E+04  0.10100000352E+00 0.  1.
</event>
<event>
 5   0  0.6640844E-03  0.1213893E+04  0.7818609E-02  0.9100782E-01
       -2   -1    0    0    0  501  0.00000000000E+00  0.00000000000E+00  0.18459908286E+03  0.18459908288E+03  0.25500000920E-02 0. -1.
        2   -1    0    0  501    0  0.00000000000E+00  0.00000000000E+00 -0.19955894624E+04  0.19955894624E+04  0.25500000920E-02 0.  1.
    10030    2    1    2    0    0  0.00000000000E+00  0.00000000000E+00 -0.18109903795E+04  0.21801885453E+04  0.12138928858E+04 0.  0.
        5    1    3    3  502    0 -0.23362062444E+03 -0.53237893315E+03 -0.59257344412E+03  0.83016341843E+03  0.46999998093E+01 0. -1.
       -5    1    3    3    0  502  0.23362062444E+03  0.53237893315E+03 -0.12184169354E+04  0.13500251268E+04  0.46999998093E+01 0.  1.
</event>
<event>
 5   0  0.6658994E-03  0.1183287E+04  0.7818609E-02  0.9127613E-01
       -2   -1    0    0    0  501  0.00000000000E+00  0.00000000000E+00  0.85991797753E+03  0.85991797753E+03  0.25500000920E-02 0.  1.
        2   -1    0    0  501    0  0.00000000000E+00  0.00000000000E+00 -0.40706419658E+03  0.40706419659E+03  0.25500000920E-02 0. -1.
    10030    2    1    2    0    0  0.00000000000E+00  0.00000000000E+00  0.45285378094E+03  0.12669821741E+04  0.11832866443E+04 0.  0.
        4    1    3    3  502    0  0.33984086519E+03 -0.26696259154E+03 -0.20623256399E+03  0.47884686726E+03  0.12699999809E+01 0. -1.
       -4    1    3    3    0  502 -0.33984086519E+03  0.26696259154E+03  0.65908634493E+03  0.78813530686E+03  0.12699999809E+01 0.  1.
</event>
<event>
 5   0  0.6349142E-03  0.1257082E+04  0.7818609E-02  0.9064310E-01
       -2   -1    0    0    0  501  0.00000000000E+00  0.00000000000E+00  0.30695444811E+03  0.30695444812E+03  0.25500000920E-02 0.  1.
        2   -1    0    0  501    0  0.00000000000E+00  0.00000000000E+00 -0.12870433727E+04  0.12870433727E+04  0.25500000920E-02 0. -1.
    10030    2    1    2    0    0  0.00000000000E+00  0.00000000000E+00 -0.98008892462E+03  0.15939978209E+04  0.12570818401E+04 0.  0.
        1    1    3    3  502    0 -0.39134712208E+03 -0.35199009711E+03 -0.54441222458E+02  0.52916296653E+03  0.50400001928E-02 0.  1.
       -1    1    3    3    0  502  0.39134712208E+03  0.35199009711E+03 -0.92564770216E+03  0.10648348543E+04  0.50400001928E-02 0. -1.
</event>
<event>
 5   0  0.3648616E-03  0.1208281E+04  0.7818609E-02  0.9105639E-01
       -1   -1    0    0    0  501  0.00000000000E+00  0.00000000000E+00  0.55992500836E+03  0.55992500838E+03  0.50400001928E-02 0. -1.
        1   -1    0    0  501    0  0.00000000000E+00  0.00000000000E+00 -0.65184741720E+03  0.65184741722E+03  0.50400001928E-02 0.  1.
    10030    2    1    2    0    0  0.00000000000E+00  0.00000000000E+00 -0.91922408839E+02  0.12117724256E+04  0.12082808789E+04 0.  0.
        2    1    3    3  502    0 -0.17141355145E+03  0.22666126379E+03 -0.58063191148E+03  0.64644516454E+03  0.25500000920E-02 0.  1.
       -2    1    3    3    0  502  0.17141355145E+03 -0.22666126379E+03  0.48870950264E+03  0.56532726106E+03  0.25500000920E-02 0. -1.
</event>
<event>
 5   0  0.3772254E-03  0.1133774E+04  0.7818609E-02  0.9172884E-01
       -1   -1    0    0    0  501  0.00000000000E+00  0.00000000000E+00  0.28184731277E+03  0.28184731281E+03  0.50400001928E-02 0. -1.
        1   -1    0    0  501    0  0.00000000000E+00  0.00000000000E+00 -0.11401952717E+04  0.11401952717E+04  0.50400001928E-02 0.  1.
    10030    2    1    2    0    0  0.00000000000E+00  0.00000000000E+00 -0.85834795895E+03  0.14220425845E+04  0.11337741810E+04 0.  0.
        3    1    3    3  502    0  0.12052725481E+03 -0.21351912132E+03  0.21190122013E+03  0.32406692459E+03  0.10100000352E+00 0. -1.
       -3    1    3    3    0  502 -0.12052725481E+03  0.21351912132E+03 -0.10702491791E+04  0.10979756599E+04  0.10100000352E+00 0.  1.
</event>
<event>
 5   0  0.2537625E-03  0.1225090E+04  0.7818609E-02  0.9091174E-01
        3   -1    0    0  501    0  0.00000000000E+00  0.00000000000E+00  0.40861063900E+03  0.40861065148E+03  0.10100000352E+00 0. -1.
       -3   -1    0    0    0  501  0.00000000000E+00  0.00000000000E+00 -0.91826130725E+03  0.91826131281E+03  0.10100000352E+00 0.  1.
    10030    2    1    2    0    0  0.00000000000E+00  0.00000000000E+00 -0.50965066826E+03  0.13268719643E+04  0.12250899583E+04 0.  0.
        5    1    3    3  502    0 -0.59642573326E+03 -0.13623058974E+03 -0.28744087644E+03  0.67596359097E+03  0.46999998093E+01 0. -1.
       -5    1    3    3    0  502  0.59642573326E+03  0.13623058974E+03 -0.22220979182E+03  0.65090837331E+03  0.46999998093E+01 0.  1.
</event>
<event>
 5   0  0.6493047E-03  0.1201247E+04  0.7818609E-02  0.9111766E-01
        2   -1    0    0  501    0  0.00000000000E+00  0.00000000000E+00  0.96362832879E+03  0.96362832879E+03  0.25500000920E-02 0. -1.
       -2   -1    0    0    0  501  0.00000000000E+00  0.00000000000E+00 -0.37436459843E+03  0.37436459843E+03  0.25500000920E-02 0.  1.
    10030    2    1    2    0    0  0.00000000000E+00  0.00000000000E+00  0.58926373037E+03  0.13379929272E+04  0.12012465731E+04 0.  0.
        3    1    3    3  502    0  0.60489164293E+02  0.18045254540E+03 -0.33988998179E+03  0.38954751965E+03  0.10100000352E+00 0.  1.
       -3    1    3    3    0  502 -0.60489164293E+02 -0.18045254540E+03  0.92915371216E+03  0.94844540758E+03  0.10100000352E+00 0. -1.
</event>
<event>
 5   0  0.6493047E-03  0.1215019E+04  0.7818609E-02  0.9099811E-01
       -2   -1    0    0    0  501  0.00000000000E+00  0.00000000000E+00  0.49490148547E+03  0.49490148548E+03  0.25500000920E-02 0. -1.
        2   -1    0    0  501    0  0.00000000000E+00  0.00000000000E+00 -0.74574036559E+03  0.74574036559E+03  0.25500000920E-02 0.  1.
    10030    2    1    2    0    0  0.00000000000E+00  0.00000000000E+00 -0.25083888011E+03  0.12406418511E+04  0.12150193656E+04 0.  0.
        3    1    3    3  502    0 -0.13399607569E+02  0.50049926021E+03  0.22591344622E+03  0.54928676877E+03  0.10100000352E+00 0. -1.
       -3    1    3    3    0  502  0.13399607569E+02 -0.50049926021E+03 -0.47675232634E+03  0.69135508230E+03  0.10100000352E+00 0.  1.
</event>
<event>
 5   0  0.3648616E-03  0.1191435E+04  0.7818609E-02  0.9120387E-01
       -1   -1    0    0    0  501  0.00000000000E+00  0.00000000000E+00  0.47060385517E+03  0.47060385520E+03  0.50400001928E-02 0. -1.
        1   -1    0    0  501    0  0.00000000000E+00  0.00000000000E+00 -0.75409334391E+03  0.75409334393E+03  0.50400001928E-02 0.  1.
    10030    2    1    2    0    0  0.00000000000E+00  0.00000000000E+00 -0.28348948874E+03  0.12246971991E+04  0.11914348238E+04 0.  0.
        2    1    3    3  502    0  0.24545451116E+03  0.25374743683E+03 -0.63497780281E+03  0.72652081100E+03  0.25500000920E-02 0.  1.
       -2    1    3    3    0  502 -0.24545451116E+03 -0.25374743683E+03  0.35148831407E+03  0.49817638812E+03  0.25500000920E-02 0. -1.
</event>
<event>
 5   0  0.3701879E-03  0.1171553E+04  0.7818609E-02  0.9138127E-01
       -1   -1    0    0    0  501  0.00000000000E+00  0.00000000000E+00  0.50019259452E+03  0.50019259455E+03  0.50400001928E-02 0. -1.
        1   -1    0    0  501    0  0.00000000000E+00  0.00000000000E+00 -0.68600395704E+03  0.68600395706E+03  0.50400001928E-02 0.  1.
    10030    2    1    2    0    0  0.00000000000E+00  0.00000000000E+00 -0.18581136252E+03  0.11861965516E+04  0.11715529850E+04 0.  0.
        1    1    3    3  502    0 -0.32989951567E+03 -0.23350881165E+03  0.33639167672E+03  0.52585113459E+03  0.50400001928E-02 0. -1.
       -1    1    3    3    0  502  0.32989951567E+03  0.23350881165E+03 -0.52220303924E+03  0.66034541702E+03  0.50400001928E-02 0.  1.
</event>
<event>
 5   0  0.6640844E-03  0.1245752E+04  0.7818609E-02  0.9073726E-01
        2   -1    0    0  501    0  0.00000000000E+00  0.00000000000E+00  0.14419592577E+04  0.14419592577E+04  0.25500000920E-02 0.  1.
       -2   -1    0    0    0  501  0.00000000000E+00  0.00000000000E+00 -0.26906074723E+03  0.26906074725E+03  0.25500000920E-02 0. -1.
    10030    2    1    2    0    0  0.00000000000E+00  0.00000000000E+00  0.11728985105E+04  0.17110200050E+04  0.12457521991E+04 0.  0.
        5    1    3    3  502    0 -0.30459455371E+03  0.12278383422E+03  0.13133566295E+04  0.13538025847E+04  0.46999998093E+01 0.  1.
       -5    1    3    3    0  502  0.30459455371E+03 -0.12278383422E+03 -0.14045811907E+03  0.35721742021E+03  0.46999998093E+01 0. -1.
</event>
<event>
 5   0  0.3944074E-03  0.1148798E+04  0.7818609E-02  0.9158893E-01
        1   -1    0    0  501    0  0.00000000000E+00  0.00000000000E+00  0.95625900779E+03  0.95625900780E+03  0.50400001928E-02 0. -1.
       -1   -1    0    0    0  501  0.00000000000E+00  0.00000000000E+00 -0.34502621444E+03  0.34502621447E+03  0.50400001928E-02 0.  1.
    10030    2    1    2    0    0  0.00000000000E+00  0.00000000000E+00  0.61123279335E+03  0.13012852223E+04  0.11487983731E+04 0.  0.
        4    1    3    3  502    0  0.31242043777E+03  0.22849009794E+03 -0.17512101015E+03  0.42483318595E+03  0.12699999809E+01 0.  1.
       -4    1    3    3    0  502 -0.31242043777E+03 -0.22849009794E+03  0.78635380350E+03  0.87645203632E+03  0.12699999809E+01 0. -1.
</event>
<event>
 5   0  0.3701879E-03  0.1216619E+04  0.7818609E-02  0.9098433E-01
        1   -1    0    0  501    0  0.00000000000E+00  0.00000000000E+00  0.49981063054E+03  0.49981063057E+03  0.50400001928E-02 0. -1.
       -1   -1    0    0    0  501  0.00000000000E+00  0.00000000000E+00 -0.74036168601E+03  0.74036168603E+03  0.50400001928E-02 0.  1.
    10030    2    1    2    0    0  0.00000000000E+00  0.00000000000E+00 -0.24055105547E+03  0.12401723166E+04  0.12166193178E+04 0.  0.
        1    1    3    3  502    0  0.21695298003E+03  0.45863015975E+03  0.22182613151E+03  0.55373012526E+03  0.50400001928E-02 0.  1.
       -1    1    3    3    0  502 -0.21695298003E+03 -0.45863015975E+03 -0.46237718698E+03  0.68644219133E+03  0.50400001928E-02 0. -1.
</event>
<event>
 5   0  0.6658994E-03  0.1232957E+04  0.7818609E-02  0.9084489E-01
        2   -1    0    0  501    0  0.00000000000E+00  0.00000000000E+00  0.11299878030E+04  0.11299878030E+04  0.25500000920E-02 0.  1.
       -2   -1    0    0    0  501  0.00000000000E+00  0.00000000000E+00 -0.33632725324E+03  0.33632725325E+03  0.25500000920E-02 0. -1.
    10030    2    1    2    0    0  0.00000000000E+00  0.00000000000E+00  0.79366054979E+03  0.14663150563E+04  0.12329569238E+04 0.  0.
        4    1    3    3  502    0  0.37912515926E+03 -0.73981428085E+01  0.97488436840E+03  0.10460362152E+04  0.12699999809E+01 0.  1.
       -4    1    3    3    0  502 -0.37912515926E+03  0.73981428085E+01 -0.18122381861E+03  0.42027884105E+03  0.12699999809E+01 0. -1.
</event>
<event>
 5   0  0.3701879E-03  0.1027458E+04  0.7818609E-02  0.9278932E-01
        1   -1    0    0  501    0  0.00000000000E+00  0.00000000000E+00  0.80963634488E+03  0.80963634489E+03  0.50400001928E-02 0. -1.
       -1   -1    0    0    0  501  0.00000000000E+00  0.00000000000E+00 -0.32597027870E+03  0.32597027874E+03  0.50400001928E-02 0.  1.
    10030    2    1    2    0    0  0.00000000000E+00  0.00000000000E+00  0.48366606617E+03  0.11356066236E+04  0.10274578045E+04 0.  0.
        1    1    3    3  502    0 -0.33170329343E+03 -0.57727448174E+02  0.67069311718E+03  0.75045905325E+03  0.50400001928E-02 0. -1.
       -1    1    3    3    0  502  0.33170329343E+03  0.57727448174E+02 -0.18702705100E+03  0.38514757039E+03  0.50400001928E-02 0.  1.
</event>
<event>
 5   0  0.3701879E-03  0.1167465E+04  0.7818609E-02  0.9141821E-01
        1   -1    0    0  501    0  0.00000000000E+00  0.00000000000E+00  0.11670450468E+04  0.11670450468E+04  0.50400001928E-02 0. -1.
       -1   -1    0    0    0  501  0.00000000000E+00  0.00000000000E+00 -0.29197116571E+03  0.29197116576E+03  0.50400001928E-02 0.  1.
    10030    2    1    2    0    0  0.00000000000E+00  0.00000000000E+00  0.87507388109E+03  0.14590162126E+04  0.11674647794E+04 0.  0.
        1    1    3    3  502    0 -0.71227123204E+02 -0.28635827045E+03  0.10669708692E+04  0.11070235760E+04  0.50400001928E-02 0. -1.
       -1    1    3    3    0  502  0.71227123204E+02  0.28635827045E+03 -0.19189698809E+03  0.35199263657E+03  0.50400001928E-02 0.  1.
</event>
<event>
 5   0  0.3701879E-03  0.1021900E+04  0.7818609E-02  0.9284846E-01
        1   -1    0    0  501    0  0.00000000000E+00  0.00000000000E+00  0.30768925643E+03  0.30768925647E+03  0.50400001928E-02 0. -1.
       -1   -1    0    0    0  501  0.00000000000E+00  0.00000000000E+00 -0.84848531660E+03  0.84848531662E+03  0.50400001928E-02 0.  1.
    10030    2    1    2    0    0  0.00000000000E+00  0.00000000000E+00 -0.54079606017E+03  0.11561745731E+04  0.10218998311E+04 0.  0.
        1    1    3    3  502    0  0.31683857351E+03 -0.82547218222E+02  0.17340552937E+03  0.37049993595E+03  0.50400001928E-02 0. -1.
       -1    1    3    3    0  502 -0.31683857351E+03  0.82547218222E+02 -0.71420158955E+03  0.78567463713E+03  0.50400001928E-02 0.  1.
</event>
<event>
 5   0  0.3731281E-03  0.1200399E+04  0.7818609E-02  0.9112507E-01
       -1   -1    0    0    0  501  0.00000000000E+00  0.00000000000E+00  0.52112803929E+03  0.52112803931E+03  0.50400001928E-02 0.  1.
        1   -1    0    0  501    0  0.00000000000E+00  0.00000000000E+00 -0.69126846363E+03  0.69126846365E+03  0.50400001928E-02 0. -1.
    10030    2    1    2    0    0  0.00000000000E+00  0.00000000000E+00 -0.17014042434E+03  0.12123965030E+04  0.12003988989E+04 0.  0.
        5    1    3    3  502    0 -0.12805836831E+03  0.68711101597E+02  0.50307036357E+03  0.52366214478E+03  0.46999998093E+01 0.  1.
       -5    1    3    3    0  502  0.12805836831E+03 -0.68711101597E+02 -0.67321078791E+03  0.68873435818E+03  0.46999998093E+01 0. -1.
</event>
<event>
 5   0  0.3731281E-03  0.1358557E+04  0.7818609E-02  0.8984376E-01
        1   -1    0    0  501    0  0.00000000000E+00  0.00000000000E+00  0.73308618511E+03  0.73308618513E+03  0.50400001928E-02 0.  1.
       -1   -1    0    0    0  501  0.00000000000E+00  0.00000000000E+00 -0.62942029726E+03  0.62942029728E+03  0.50400001928E-02 0. -1.
    10030    2    1    2    0    0  0.00000000000E+00  0.00000000000E+00  0.10366588786E+03  0.13625064824E+04  0.13585570648E+04 0.  0.
        5    1    3    3  502    0  0.18583651957E+03 -0.43248222988E+03  0.54297194954E+03  0.71862140182E+03  0.46999998093E+01 0.  1.
       -5    1    3    3    0  502 -0.18583651957E+03  0.43248222988E+03 -0.43930606168E+03  0.64388508058E+03  0.46999998093E+01 0. -1.
</event>
<event>
 5   0  0.3648616E-03  0.1208489E+04  0.7818609E-02  0.9105458E-01
        1   -1    0    0  501    0  0.00000000000E+00  0.00000000000E+00  0.75031046139E+03  0.75031046141E+03  0.50400001928E-02 0.  1.
       -1   -1    0    0    0  501  0.00000000000E+00  0.00000000000E+00 -0.48661387801E+03  0.48661387804E+03  0.50400001928E-02 0. -1.
    10030    2    1    2    0    0  0.00000000000E+00  0.00000000000E+00  0.26369658338E+03  0.12369243394E+04  0.12084891118E+04 0.  0.
        2    1    3    3  502    0  0.59468338637E+03 -0.75349979889E+02  0.20970071101E+03  0.63505931825E+03  0.25500000920E-02 0. -1.
       -2    1    3    3    0  502 -0.59468338637E+03  0.75349979889E+02  0.53995872374E+02  0.60186502119E+03  0.25500000920E-02 0.  1.
</event>
<event>
 5   0  0.3648616E-03  0.1189803E+04  0.7818609E-02  0.9121829E-01
       -1   -1    0    0    0  501  0.00000000000E+00  0.00000000000E+00  0.14393352858E+03  0.14393352867E+03  0.50400001928E-02 0. -1.
        1   -1    0    0  501    0  0.00000000000E+00  0.00000000000E+00 -0.24588277348E+04  0.24588277348E+04  0.50400001928E-02 0.  1.
    10030    2    1    2    0    0  0.00000000000E+00  0.00000000000E+00 -0.23148942062E+04  0.26027612635E+04  0.11898029285E+04 0.  0.
        2    1    3    3  502    0  0.29596619083E+03 -0.30410312240E+03 -0.20695114618E+04  0.21125700902E+04  0.25500000920E-02 0.  1.
       -2    1    3    3    0  502 -0.29596619083E+03  0.30410312240E+03 -0.24538274440E+03  0.49019117334E+03  0.25500000920E-02 0. -1.
</event>
<event>
 5   0  0.3648616E-03  0.1194966E+04  0.7818609E-02  0.9117274E-01
       -1   -1    0    0    0  501  0.00000000000E+00  0.00000000000E+00  0.79653631275E+03  0.79653631277E+03  0.50400001928E-02 0.  1.
        1   -1    0    0  501    0  0.00000000000E+00  0.00000000000E+00 -0.44817287200E+03  0.44817287203E+03  0.50400001928E-02 0. -1.
    10030    2    1    2    0    0  0.00000000000E+00  0.00000000000E+00  0.34836344075E+03  0.12447091848E+04  0.11949660530E+04 0.  0.
        2    1    3    3  502    0  0.11980238155E+03 -0.29498879101E+03 -0.35244812529E+03  0.47496387071E+03  0.25500000920E-02 0. -1.
       -2    1    3    3    0  502 -0.11980238155E+03  0.29498879101E+03  0.70081156605E+03  0.76974531409E+03  0.25500000920E-02 0.  1.
</event>
<event>
 5   0  0.6640844E-03  0.1236771E+04  0.7818609E-02  0.9081266E-01
        2   -1    0    0  501    0  0.00000000000E+00  0.00000000000E+00  0.79816623219E+03  0.79816623219E+03  0.25500000920E-02 0. -1.
       -2   -1    0    0    0  501  0.00000000000E+00  0.00000000000E+00 -0.47909885907E+03  0.47909885908E+03  0.25500000920E-02 0.  1.
    10030    2    1    2    0    0  0.00000000000E+00  0.00000000000E+00  0.31906737311E+03  0.12772650913E+04  0.12367708457E+04 0.  0.
        5    1    3    3  502    0  0.33938947699E+03 -0.15878765095E+03 -0.34848685834E+03  0.51172640700E+03  0.46999998093E+01 0.  1.
       -5    1    3    3    0  502 -0.33938947699E+03  0.15878765095E+03  0.66755423145E+03  0.76553868427E+03  0.46999998093E+01 0. -1.
</event>
<event>
 5   0  0.3701879E-03  0.1172445E+04  0.7818609E-02  0.9137324E-01
       -1   -1    0    0    0  501  0.00000000000E+00  0.00000000000E+00  0.34582240728E+03  0.34582240732E+03  0.50400001928E-02 0. -1.
        1   -1    0    0  501    0  0.00000000000E+00  0.00000000000E+00 -0.99373703640E+03  0.99373703641E+03  0.50400001928E-02 0.  1.
    10030    2    1    2    0    0  0.00000000000E+00  0.00000000000E+00 -0.64791462912E+03  0.13395594437E+04  0.11724445133E+04 0.  0.
        1    1    3    3  502    0  0.49094210454E+03 -0.91071730727E+02 -0.67488187938E+03  0.83951400304E+03  0.50400001928E-02 0.  1.
       -1    1    3    3    0  502 -0.49094210454E+03  0.91071730727E+02  0.26967250264E+02  0.50004544070E+03  0.50400001928E-02 0. -1.
</event>
<event>
 5   0  0.3731281E-03  0.1165510E+04  0.7818609E-02  0.9143593E-01
       -1   -1    0    0    0  501  0.00000000000E+00  0.00000000000E+00  0.44282807648E+03  0.44282807650E+03  0.50400001928E-02 0. -1.
        1   -1    0    0  501    0  0.00000000000E+00  0.00000000000E+00 -0.76689692630E+03  0.76689692632E+03  0.50400001928E-02 0.  1.
    10030    2    1    2    0    0  0.00000000000E+00  0.00000000000E+00 -0.32406884983E+03  0.12097250028E+04  0.11655101729E+04 0.  0.
        5    1    3    3  502    0 -0.32371143262E+03 -0.29796603551E+03  0.23457198923E+03  0.49861704549E+03  0.46999998093E+01 0. -1.
       -5    1    3    3    0  502  0.32371143262E+03  0.29796603551E+03 -0.55864083905E+03  0.71110795733E+03  0.46999998093E+01 0.  1.
</event>
<event>
 5   0  0.6493047E-03  0.1180099E+04  0.7818609E-02  0.9130456E-01
        2   -1    0    0  501    0  0.00000000000E+00  0.00000000000E+00  0.16756263975E+04  0.16756263975E+04  0.25500000920E-02 0. -1.
       -2   -1    0    0    0  501  0.00000000000E+00  0.00000000000E+00 -0.20777823768E+03  0.20777823769E+03  0.25500000920E-02 0.  1.
    10030    2    1    2    0    0  0.00000000000E+00  0.00000000000E+00  0.14678481598E+04  0.18834046352E+04  0.11800994871E+04 0.  0.
        3    1    3    3  502    0 -0.31687873647E+03  0.44729995594E+03  0.38547090531E+03  0.67013223564E+03  0.10100000352E+00 0.  1.
       -3    1    3    3    0  502  0.31687873647E+03 -0.44729995594E+03  0.10823772545E+04  0.12132723995E+04  0.10100000352E+00 0. -1.
</event>
<event>
 5   0  0.3944074E-03  0.1197833E+04  0.7818609E-02  0.9114755E-01
       -1   -1    0    0    0  501  0.00000000000E+00  0.00000000000E+00  0.32011512517E+03  0.32011512521E+03  0.50400001928E-02 0.  1.
        1   -1    0    0  501    0  0.00000000000E+00  0.00000000000E+00 -0.11205379859E+04  0.11205379859E+04  0.50400001928E-02 0. -1.
    10030    2    1    2    0    0  0.00000000000E+00  0.00000000000E+00 -0.80042286069E+03  0.14406531111E+04  0.11978333067E+04 0.  0.
        4    1    3    3  502    0  0.29569976441E+03 -0.94417469518E+02 -0.10162397863E+04  0.10625901963E+04  0.12699999809E+01 0. -1.
       -4    1    3    3    0  502 -0.29569976441E+03  0.94417469518E+02  0.21581692561E+03  0.37806291474E+03  0.12699999809E+01 0.  1.
</event>
<event>
 5   0  0.6658994E-03  0.1213997E+04  0.7818609E-02  0.9100693E-01
       -2   -1    0    0    0  501  0.00000000000E+00  0.00000000000E+00  0.33068315946E+03  0.33068315947E+03  0.25500000920E-02 0.  1.
        2   -1    0    0  501    0  0.00000000000E+00  0.00000000000E+00 -0.11141998902E+04  0.11141998902E+04  0.25500000920E-02 0. -1.
    10030    2    1    2    0    0  0.00000000000E+00  0.00000000000E+00 -0.78351673078E+03  0.14448830497E+04  0.12139969357E+04 0.  0.
        4    1    3    3  502    0 -0.22470916418E+03  0.24920052015E+02 -0.10622152944E+04  0.10860102035E+04  0.12699999809E+01 0. -1.
       -4    1    3    3    0  502  0.22470916418E+03 -0.24920052015E+02  0.27869856366E+03  0.35887284621E+03  0.12699999809E+01 0.  1.
</event>
<event>
 5   0  0.6349142E-03  0.1178134E+04  0.7818609E-02  0.9132214E-01
       -2   -1    0    0    0  501  0.00000000000E+00  0.00000000000E+00  0.31780484435E+03  0.31780484436E+03  0.25500000920E-02 0. -1.
        2   -1    0    0  501    0  0.00000000000E+00  0.00000000000E+00 -0.10918656511E+04  0.10918656511E+04  0.25500000920E-02 0.  1.
    10030    2    1    2    0    0  0.00000000000E+00  0.00000000000E+00 -0.77406080679E+03  0.14096704955E+04  0.11781344462E+04 0.  0.
        1    1    3    3  502    0  0.37751274119E+02 -0.17083024997E+03 -0.10600621408E+04  0.10744021014E+04  0.50400001928E-02 0.  1.
       -1    1    3    3    0  502 -0.37751274119E+02  0.17083024997E+03  0.28600133404E+03  0.33526839412E+03  0.50400001928E-02 0. -1.
</event>
<event>
 5   0  0.3772254E-03  0.1208058E+04  0.7818609E-02  0.9105832E-01
        1   -1    0    0  501    0  0.00000000000E+00  0.00000000000E+00  0.87603395262E+03  0.87603395264E+03  0.50400001928E-02 0. -1.
       -1   -1    0    0    0  501  0.00000000000E+00  0.00000000000E+00 -0.41648050955E+03  0.41648050958E+03  0.50400001928E-02 0.  1.
    10030    2    1    2    0    0  0.00000000000E+00  0.00000000000E+00  0.45955344307E+03  0.12925144622E+04  0.12080580566E+04 0.  0.
        3    1    3    3  502    0  0.24294706979E+03  0.30131105623E+03 -0.26636602986E+03  0.46985370424E+03  0.10100000352E+00 0.  1.
       -3    1    3    3    0  502 -0.24294706979E+03 -0.30131105623E+03  0.72591947293E+03  0.82266075798E+03  0.10100000352E+00 0. -1.
</event>
<event>
 5   0  0.6493047E-03  0.1348757E+04  0.7818609E-02  0.8991770E-01
        2   -1    0    0  501    0  0.00000000000E+00  0.00000000000E+00  0.94117541482E+03  0.94117541482E+03  0.25500000920E-02 0.  1.
       -2   -1    0    0    0  501  0.00000000000E+00  0.00000000000E+00 -0.48321083291E+03  0.48321083292E+03  0.25500000920E-02 0. -1.
    10030    2    1    2    0    0  0.00000000000E+00  0.00000000000E+00  0.45796458191E+03  0.14243862477E+04  0.13487566958E+04 0.  0.
        3    1    3    3  502    0 -0.48915035590E+03  0.37395494015E+03  0.51949999644E+03  0.80559954347E+03  0.10100000352E+00 0.  1.
       -3    1    3    3    0  502  0.48915035590E+03 -0.37395494015E+03 -0.61535414533E+02  0.61878670427E+03  0.10100000352E+00 0. -1.
</event>
<event>
 5   0  0.3944074E-03  0.9671707E+03  0.7818609E-02  0.9345303E-01
        1   -1    0    0  501    0  0.00000000000E+00  0.00000000000E+00  0.17964298533E+04  0.17964298533E+04  0.50400001928E-02 0.  1.
       -1   -1    0    0    0  501  0.00000000000E+00  0.00000000000E+00 -0.13017751073E+03  0.13017751083E+03  0.50400001928E-02 0. -1.
    10030    2    1    2    0    0  0.00000000000E+00  0.00000000000E+00  0.16662523425E+04  0.19266073641E+04  0.96717065011E+03 0.  0.
        4    1    3    3  502    0  0.75726569758E+02  0.19538269261E+03 -0.35040632240E+02  0.21245792230E+03  0.12699999809E+01 0. -1.
       -4    1    3    3    0  502 -0.75726569758E+02 -0.19538269261E+03  0.17012929748E+04  0.17141494418E+04  0.12699999809E+01 0.  1.
</event>
<event>
 5   0  0.6585930E-03  0.1250392E+04  0.7818609E-02  0.9069857E-01
       -2   -1    0    0    0  501  0.00000000000E+00  0.00000000000E+00  0.51863856861E+03  0.51863856862E+03  0.25500000920E-02 0. -1.
        2   -1    0    0  501    0  0.00000000000E+00  0.00000000000E+00 -0.75364587117E+03  0.75364587117E+03  0.25500000920E-02 0.  1.
    10030    2    1    2    0    0  0.00000000000E+00  0.00000000000E+00 -0.23500730255E+03  0.12722844398E+04  0.12503916440E+04 0.  0.
        2    1    3    3  502    0 -0.43726664064E+03  0.82279806619E+02  0.32938745966E+03  0.55359568295E+03  0.25500000920E-02 0. -1.
       -2    1    3    3    0  502  0.43726664064E+03 -0.82279806619E+02 -0.56439476222E+03  0.71868875685E+03  0.25500000920E-02 0.  1.
</event>
<event>
 5   0  0.3944074E-03  0.1275658E+04  0.7818609E-02  0.9049094E-01
        1   -1    0    0  501    0  0.00000000000E+00  0.00000000000E+00  0.19401863029E+04  0.19401863030E+04  0.50400001928E-02 0. -1.
       -1   -1    0    0    0  501  0.00000000000E+00  0.00000000000E+00 -0.20968388847E+03  0.20968388854E+03  0.50400001928E-02 0.  1.
    10030    2    1    2    0    0  0.00000000000E+00  0.00000000000E+00  0.17305024145E+04  0.21498701915E+04  0.12756579611E+04 0.  0.
        4    1    3    3  502    0 -0.55223629817E+03  0.28459757900E+03  0.11086797037E+04  0.12708788335E+04  0.12699999809E+01 0. -1.
       -4    1    3    3    0  502  0.55223629817E+03 -0.28459757900E+03  0.62182271074E+03  0.87899135802E+03  0.12699999809E+01 0.  1.
</event>
<event>
 5   0  0.3944074E-03  0.1172145E+04  0.7818609E-02  0.9137594E-01
       -1   -1    0    0    0  501  0.00000000000E+00  0.00000000000E+00  0.61210425913E+03  0.61210425915E+03  0.50400001928E-02 0.  1.
        1   -1    0    0  501    0  0.00000000000E+00  0.00000000000E+00 -0.56114775708E+03  0.56114775710E+03  0.50400001928E-02 0. -1.
    10030    2    1    2    0    0  0.00000000000E+00  0.00000000000E+00  0.50956502047E+02  0.11732520163E+04  0.11721449264E+04 0.  0.
        4    1    3    3  502    0 -0.25052407140E+03  0.17744175328E+03  0.52518061557E+03  0.60832900476E+03  0.12699999809E+01 0.  1.
       -4    1    3    3    0  502  0.25052407140E+03 -0.17744175328E+03 -0.47422411353E+03  0.56492301149E+03  0.12699999809E+01 0. -1.
</event>
<event>
 5   0  0.3648616E-03  0.1112480E+04  0.7818609E-02  0.9193113E-01
       -1   -1    0    0    0  501  0.00000000000E+00  0.00000000000E+00  0.34912000991E+03  0.34912000994E+03  0.50400001928E-02 0. -1.
        1   -1    0    0  501    0  0.00000000000E+00  0.00000000000E+00 -0.88623648220E+03  0.88623648221E+03  0.50400001928E-02 0.  1.
    10030    2    1    2    0    0  0.00000000000E+00  0.00000000000E+00 -0.53711647229E+03  0.12353564922E+04  0.11124799135E+04 0.  0.
        2    1    3    3  502    0  0.24625664923E+03  0.49435171657E+03 -0.19509246381E+03  0.58573631132E+03  0.25500000920E-02 0. -1.
       -2    1    3    3    0  502 -0.24625664923E+03 -0.49435171657E+03 -0.34202400849E+03  0.64962018084E+03  0.25500000920E-02 0.  1.
</event>
<event>
 5   0  0.6585930E-03  0.1222367E+04  0.7818609E-02  0.9093501E-01
       -2   -1    0    0    0  501  0.00000000000E+00  0.00000000000E+00  0.64946771660E+03  0.64946771660E+03  0.25500000920E-02 0.  1.
        2   -1    0    0  501    0  0.00000000000E+00  0.00000000000E+00 -0.57515615723E+03  0.57515615723E+03  0.25500000920E-02 0. -1.
    10030    2    1    2    0    0  0.00000000000E+00  0.00000000000E+00  0.74311559368E+02  0.12246238738E+04  0.12223671398E+04 0.  0.
        2    1    3    3  502    0 -0.26941504453E+03 -0.11600775889E+03 -0.50002728598E+03  0.57971506197E+03  0.25500000920E-02 0. -1.
       -2    1    3    3    0  502  0.26941504453E+03  0.11600775889E+03  0.57433884535E+03  0.64490881187E+03  0.25500000920E-02 0.  1.
</event>
<event>
 5   0  0.6349142E-03  0.1308503E+04  0.7818609E-02  0.9022849E-01
        2   -1    0    0  501    0  0.00000000000E+00  0.00000000000E+00  0.15481688270E+04  0.15481688271E+04  0.25500000920E-02 0. -1.
       -2   -1    0    0    0  501  0.00000000000E+00  0.00000000000E+00 -0.27648475522E+03  0.27648475523E+03  0.25500000920E-02 0.  1.
    10030    2    1    2    0    0  0.00000000000E+00  0.00000000000E+00  0.12716840718E+04  0.18246535823E+04  0.13085030824E+04 0.  0.
        1    1    3    3  502    0  0.53407956445E+03 -0.15336848035E+03  0.11174498309E+04  0.12479811683E+04  0.50400001928E-02 0. -1.
       -1    1    3    3    0  502 -0.53407956445E+03  0.15336848035E+03  0.15423424098E+03  0.57667241398E+03  0.50400001928E-02 0.  1.
</event>
<event>
 5   0  0.6640844E-03  0.1207262E+04  0.7818609E-02  0.9106523E-01
        2   -1    0    0  501    0  0.00000000000E+00  0.00000000000E+00  0.11760421433E+04  0.11760421433E+04  0.25500000920E-02 0.  1.
       -2   -1    0    0    0  501  0.00000000000E+00  0.00000000000E+00 -0.30982791546E+03  0.30982791547E+03  0.25500000920E-02 0. -1.
    10030    2    1    2    0    0  0.00000000000E+00  0.00000000000E+00  0.86621422786E+03  0.14858700588E+04  0.12072624997E+04 0.  0.
        5    1    3    3  502    0  0.16248163421E+03 -0.57420153689E+03  0.32137791394E+03  0.67780051637E+03  0.46999998093E+01 0. -1.
       -5    1    3    3    0  502 -0.16248163421E+03  0.57420153689E+03  0.54483631392E+03  0.80806954242E+03  0.46999998093E+01 0.  1.
</event>
<event>
 5   0  0.6349142E-03  0.1238499E+04  0.7818609E-02  0.9079810E-01
       -2   -1    0    0    0  501  0.00000000000E+00  0.00000000000E+00  0.70021120381E+03  0.70021120382E+03  0.25500000920E-02 0. -1.
        2   -1    0    0  501    0  0.00000000000E+00  0.00000000000E+00 -0.54764872450E+03  0.54764872450E+03  0.25500000920E-02 0.  1.
    10030    2    1    2    0    0  0.00000000000E+00  0.00000000000E+00  0.15256247932E+03  0.12478599283E+04  0.12384987245E+04 0.  0.
        1    1    3    3  502    0 -0.15955281983E+03  0.50906648733E+03  0.39308426773E+03  0.66266208010E+03  0.50400001928E-02 0. -1.
       -1    1    3    3    0  502  0.15955281983E+03 -0.50906648733E+03 -0.24052178841E+03  0.58519784822E+03  0.50400001928E-02 0.  1.
</event>
<event>
 5   0  0.3701879E-03  0.8800599E+03  0.7818609E-02  0.9450857E-01
        1   -1    0    0  501    0  0.00000000000E+00  0.00000000000E+00  0.60926492796E+03  0.60926492798E+03  0.50400001928E-02 0. -1.
       -1   -1    0    0    0  501  0.00000000000E+00  0.00000000000E+00 -0.31780319344E+03  0.31780319348E+03  0.50400001928E-02 0.  1.
    10030    2    1    2    0    0  0.00000000000E+00  0.00000000000E+00  0.29146173452E+03  0.92706812146E+03  0.88005986111E+03 0.  0.
        1    1    3    3  502    0  0.19463208228E+03  0.25675635234E+03  0.46144066307E+03  0.56279033173E+03  0.50400001928E-02 0. -1.
       -1    1    3    3    0  502 -0.19463208228E+03 -0.25675635234E+03 -0.16997892855E+03  0.36427778974E+03  0.50400001928E-02 0.  1.
</event>
<event>
 5   0  0.6640844E-03  0.1188325E+04  0.7818609E-02  0.9123138E-01
        2   -1    0    0  501    0  0.00000000000E+00  0.00000000000E+00  0.13022220838E+04  0.13022220838E+04  0.25500000920E-02 0. -1.
       -2   -1    0    0    0  501  0.00000000000E+00  0.00000000000E+00 -0.27109736935E+03  0.27109736936E+03  0.25500000920E-02 0.  1.
    10030    2    1    2    0    0  0.00000000000E+00  0.00000000000E+00  0.10311247144E+04  0.15733194532E+04  0.11883248398E+04 0.  0.
        5    1    3    3  502    0  0.43340200951E+03  0.44514489655E+02 -0.19280146335E+02  0.43613375893E+03  0.46999998093E+01 0.  1.
       -5    1    3    3    0  502 -0.43340200951E+03 -0.44514489655E+02  0.10504048608E+04  0.11371856942E+04  0.46999998093E+01 0. -1.
</event>
<event>
 5   0  0.2537625E-03  0.1215401E+04  0.7818609E-02  0.9099482E-01
        3   -1    0    0  501    0  0.00000000000E+00  0.00000000000E+00  0.30537983712E+03  0.30537985383E+03  0.10100000352E+00 0. -1.
       -3   -1    0    0    0  501  0.00000000000E+00  0.00000000000E+00 -0.12093140818E+04  0.12093140861E+04  0.10100000352E+00 0.  1.
    10030    2    1    2    0    0  0.00000000000E+00  0.00000000000E+00 -0.90393424472E+03  0.15146939399E+04  0.12154014204E+04 0.  0.
        2    1    3    3  502    0  0.25933170627E+03 -0.14517142907E+03 -0.11125647918E+04  0.11515763517E+04  0.25500000920E-02 0.  1.
       -2    1    3    3    0  502 -0.25933170627E+03  0.14517142907E+03  0.20863054710E+03  0.36311758823E+03  0.25500000920E-02 0. -1.
</event>
<event>
 5   0  0.6658994E-03  0.1224465E+04  0.7818609E-02  0.9091708E-01
        2   -1    0    0  501    0  0.00000000000E+00  0.00000000000E+00  0.50336078194E+03  0.50336078195E+03  0.25500000920E-02 0.  1.
       -2   -1    0    0    0  501  0.00000000000E+00  0.00000000000E+00 -0.74465229473E+03  0.74465229474E+03  0.25500000920E-02 0. -1.
    10030    2    1    2    0    0  0.00000000000E+00  0.00000000000E+00 -0.24129151279E+03  0.12480130767E+04  0.12244652079E+04 0.  0.
        4    1    3    3  502    0 -0.55195433668E+03  0.10549780018E+03 -0.36830796222E+03  0.67188968109E+03  0.12699999809E+01 0.  1.
       -4    1    3    3    0  502  0.55195433668E+03 -0.10549780018E+03  0.12701644943E+03  0.57612339559E+03  0.12699999809E+01 0. -1.
</event>
<event>
 5   0  0.6658994E-03  0.1208004E+04  0.7818609E-02  0.9105880E-01
        2   -1    0    0  501    0  0.00000000000E+00  0.00000000000E+00  0.99970767200E+03  0.99970767200E+03  0.25500000920E-02 0. -1.
       -2   -1    0    0    0  501  0.00000000000E+00  0.00000000000E+00 -0.36492482607E+03  0.36492482608E+03  0.25500000920E-02 0.  1.
    10030    2    1    2    0    0  0.00000000000E+00  0.00000000000E+00  0.63478284593E+03  0.13646324981E+04  0.12080035568E+04 0.  0.
        4    1    3    3  502    0 -0.19798755171E+03 -0.56797531682E+03  0.37948677650E+03  0.71120099662E+03  0.12699999809E+01 0. -1.
       -4    1    3    3    0  502  0.19798755171E+03  0.56797531682E+03  0.25529606942E+03  0.65343150147E+03  0.12699999809E+01 0.  1.
</event>
<event>
 5   0  0.3648616E-03  0.1200722E+04  0.7818609E-02  0.9112225E-01
       -1   -1    0    0    0  501  0.00000000000E+00  0.00000000000E+00  0.67404707147E+03  0.67404707149E+03  0.50400001928E-02 0.  1.
        1   -1    0    0  501    0  0.00000000000E+00  0.00000000000E+00 -0.53473026059E+03  0.53473026061E+03  0.50400001928E-02 0. -1.
    10030    2    1    2    0    0  0.00000000000E+00  0.00000000000E+00  0.13931681088E+03  0.12087773321E+04  0.12007220598E+04 0.  0.
        2    1    3    3  502    0  0.23304190592E+03  0.44426829468E+03 -0.26232737767E+03  0.56612586997E+03  0.25500000920E-02 0. -1.
       -2    1    3    3    0  502 -0.23304190592E+03 -0.44426829468E+03  0.40164418855E+03  0.64265146213E+03  0.25500000920E-02 0.  1.
</event>
<event>
 5   0  0.3701879E-03  0.1241420E+04  0.7818609E-02  0.9077355E-01
        1   -1    0    0  501    0  0.00000000000E+00  0.00000000000E+00  0.94515201905E+03  0.94515201906E+03  0.50400001928E-02 0.  1.
       -1   -1    0    0    0  501  0.00000000000E+00  0.00000000000E+00 -0.40763877286E+03  0.40763877289E+03  0.50400001928E-02 0. -1.
    10030    2    1    2    0    0  0.00000000000E+00  0.00000000000E+00  0.53751324619E+03  0.13527907919E+04  0.12414195250E+04 0.  0.
        1    1    3    3  502    0 -0.54157029967E+03  0.16032237852E+03 -0.11786670900E+02  0.56492528726E+03  0.50400001928E-02 0. -1.
       -1    1    3    3    0  502  0.54157029967E+03 -0.16032237852E+03  0.54929991709E+03  0.78786550469E+03  0.50400001928E-02 0.  1.
</event>
<event>
 5   0  0.3731281E-03  0.1179018E+04  0.7818609E-02  0.9131423E-01
       -1   -1    0    0    0  501  0.00000000000E+00  0.00000000000E+00  0.64530919385E+03  0.64530919387E+03  0.50400001928E-02 0.  1.
        1   -1    0    0  501    0  0.00000000000E+00  0.00000000000E+00 -0.53853399457E+03  0.53853399459E+03  0.50400001928E-02 0. -1.
    10030    2    1    2    0    0  0.00000000000E+00  0.00000000000E+00  0.10677519928E+03  0.11838431885E+04  0.11790181303E+04 0.  0.
        5    1    3    3  502    0  0.41460611212E+03  0.13631911752E+03  0.45126385939E+03  0.62780752688E+03  0.46999998093E+01 0.  1.
       -5    1    3    3    0  502 -0.41460611212E+03 -0.13631911752E+03 -0.34448866011E+03  0.55603566159E+03  0.46999998093E+01 0. -1.
</event>
<event>
 5   0  0.6658994E-03  0.1186911E+04  0.7818609E-02  0.9124391E-01
       -2   -1    0    0    0  501  0.00000000000E+00  0.00000000000E+00  0.47525965920E+03  0.47525965921E+03  0.25500000920E-02 0.  1.
        2   -1    0    0  501    0  0.00000000000E+00  0.00000000000E+00 -0.74104631910E+03  0.74104631910E+03  0.25500000920E-02 0. -1.
    10030    2    1    2    0    0  0.00000000000E+00  0.00000000000E+00 -0.26578665990E+03  0.12163059783E+04  0.11869109841E+04 0.  0.
        4    1    3    3  502    0 -0.27170432814E+03 -0.24274174936E+03  0.34715348050E+03  0.50325336635E+03  0.12699999809E+01 0.  1.
       -4    1    3    3    0  502  0.27170432814E+03  0.24274174936E+03 -0.61294014040E+03  0.71305261196E+03  0.12699999809E+01 0. -1.
</event>
<event>
 5   0  0.6640844E-03  0.1199808E+04  0.7818609E-02  0.9113024E-01
        2   -1    0    0  501    0  0.00000000000E+00  0.00000000000E+00  0.39823220828E+03  0.39823220829E+03  0.25500000920E-02 0. -1.
       -2   -1    0    0    0  501  0.00000000000E+00  0.00000000000E+00 -0.90370647723E+03  0.90370647723E+03  0.25500000920E-02 0.  1.
    10030    2    1    2    0    0  0.00000000000E+00  0.00000000000E+00 -0.50547426895E+03  0.13019386855E+04  0.11998083615E+04 0.  0.
        5    1    3    3  502    0 -0.56638422417E+03 -0.15835751975E+03 -0.38110641449E+03  0.70080837796E+03  0.46999998093E+01 0.  1.
       -5    1    3    3    0  502  0.56638422417E+03  0.15835751975E+03 -0.12436785446E+03  0.60113030757E+03  0.46999998093E+01 0. -1.
</event>
<event>
 5   0  0.6349142E-03  0.1023551E+04  0.7818609E-02  0.9283086E-01
       -2   -1    0    0    0  501  0.00000000000E+00  0.00000000000E+00  0.56560992320E+03  0.56560992320E+03  0.25500000920E-02 0.  1.
        2   -1    0    0  501    0  0.00000000000E+00  0.00000000000E+00 -0.46306461886E+03  0.46306461886E+03  0.25500000920E-02 0. -1.
    10030    2    1    2    0    0  0.00000000000E+00  0.00000000000E+00  0.10254530434E+03  0.10286745421E+04  0.10235505723E+04 0.  0.
        1    1    3    3  502    0 -0.26722619596E+03  0.56773141216E+02 -0.38365342397E+03  0.47098086916E+03  0.50400001928E-02 0. -1.
       -1    1    3    3    0  502  0.26722619596E+03 -0.56773141216E+02  0.48619872830E+03  0.55769367291E+03  0.50400001928E-02 0.  1.
</event>
<event>
 5   0  0.6349142E-03  0.1239513E+04  0.7818609E-02  0.9078957E-01
       -2   -1    0    0    0  501  0.00000000000E+00  0.00000000000E+00  0.19957500730E+03  0.19957500732E+03  0.25500000920E-02 0.  1.
        2   -1    0    0  501    0  0.00000000000E+00  0.00000000000E+00 -0.19245808262E+04  0.19245808262E+04  0.25500000920E-02 0. -1.
    10030    2    1    2    0    0  0.00000000000E+00  0.00000000000E+00 -0.17250058189E+04  0.21241558336E+04  0.12395131826E+04 0.  0.
        1    1    3    3  502    0  0.75171731817E+02  0.53809169126E+03 -0.13734756925E+04  0.14770338302E+04  0.50400001928E-02 0.  1.
       -1    1    3    3    0  502 -0.75171731817E+02 -0.53809169126E+03 -0.35153012641E+03  0.64712200338E+03  0.50400001928E-02 0. -1.
</event>
<event>
 5   0  0.3731281E-03  0.1207233E+04  0.7818609E-02  0.9106549E-01
        1   -1    0    0  501    0  0.00000000000E+00  0.00000000000E+00  0.76837883907E+03  0.76837883909E+03  0.50400001928E-02 0. -1.
       -1   -1    0    0    0  501  0.00000000000E+00  0.00000000000E+00 -0.47418386554E+03  0.47418386557E+03  0.50400001928E-02 0.  1.
    10030    2    1    2    0    0  0.00000000000E+00  0.00000000000E+00  0.29419497353E+03  0.12425627047E+04  0.12072329487E+04 0.  0.
        5    1    3    3  502    0  0.49798691762E+03  0.13442277222E+03  0.46975247900E+03  0.69767466153E+03  0.46999998093E+01 0. -1.
       -5    1    3    3    0  502 -0.49798691762E+03 -0.13442277222E+03 -0.17555750547E+03  0.54488804313E+03  0.46999998093E+01 0.  1.
</event>
<event>
 5   0  0.3731281E-03  0.1218205E+04  0.7818609E-02  0.9097070E-01
       -1   -1    0    0    0  501  0.00000000000E+00  0.00000000000E+00  0.97586619017E+03  0.97586619019E+03  0.50400001928E-02 0. -1.
        1   -1    0    0  501    0  0.00000000000E+00  0.00000000000E+00 -0.38018090110E+03  0.38018090113E+03  0.50400001928E-02 0.  1.
    10030    2    1    2    0    0  0.00000000000E+00  0.00000000000E+00  0.59568528907E+03  0.13560470913E+04  0.12182047243E+04 0.  0.
        5    1    3    3  502    0  0.19127690706E+03  0.28120218697E+03  0.86031174930E+03  0.92510535676E+03  0.46999998093E+01 0. -1.
       -5    1    3    3    0  502 -0.19127690706E+03 -0.28120218697E+03 -0.26462646022E+03  0.43094173456E+03  0.46999998093E+01 0.  1.
</event>
<event>
 5   0  0.6658994E-03  0.1189654E+04  0.7818609E-02  0.9121961E-01
       -2   -1    0    0    0  501  0.00000000000E+00  0.00000000000E+00  0.26562930831E+03  0.26562930832E+03  0.25500000920E-02 0.  1.
        2   -1    0    0  501    0  0.00000000000E+00  0.00000000000E+00 -0.13320030665E+04  0.13320030665E+04  0.25500000920E-02 0. -1.
    10030    2    1    2    0    0  0.00000000000E+00  0.00000000000E+00 -0.10663737582E+04  0.15976323748E+04  0.11896538206E+04 0.  0.
        4    1    3    3  502    0  0.59449311292E+03 -0.11048673766E+02 -0.51098546152E+03  0.78399737836E+03  0.12699999809E+01 0. -1.
       -4    1    3    3    0  502 -0.59449311292E+03  0.11048673766E+02 -0.55538829668E+03  0.81363499647E+03  0.12699999809E+01 0.  1.
</event>
<event>
 5   0  0.3944074E-03  0.1187573E+04  0.7818609E-02  0.9123804E-01
       -1   -1    0    0    0  501  0.00000000000E+00  0.00000000000E+00  0.85707858884E+03  0.85707858885E+03  0.50400001928E-02 0.  1.
        1   -1    0    0  501    0  0.00000000000E+00  0.00000000000E+00 -0.41137702286E+03  0.41137702289E+03  0.50400001928E-02 0. -1.
    10030    2    1    2    0    0  0.00000000000E+00  0.00000000000E+00  0.44570156598E+03  0.12684556117E+04  0.11875730517E+04 0.  0.
        4    1    3    3  502    0  0.64448433548E+02  0.49137371625E+03  0.57220372218E+03  0.75698113727E+03  0.12699999809E+01 0.  1.
       -4    1    3    3    0  502 -0.64448433548E+02 -0.49137371625E+03 -0.12650215619E+03  0.51147447447E+03  0.12699999809E+01 0. -1.
</event>
<event>
 5   0  0.6658994E-03  0.9787090E+03  0.7818609E-02  0.9332210E-01
       -2   -1    0    0    0  501  0.00000000000E+00  0.00000000000E+00  0.15209749685E+04  0.15209749685E+04  0.25500000920E-02 0. -1.
        2   -1    0    0  501    0  0.00000000000E+00  0.00000000000E+00 -0.15744363872E+03  0.15744363874E+03  0.25500000920E-02 0.  1.
    10030    2    1    2    0    0  0.00000000000E+00  0.00000000000E+00  0.13635313297E+04  0.16784186072E+04  0.97870901388E+03 0.  0.
        4    1    3    3  502    0  0.38159512767E+03  0.72118432180E+02  0.11923727406E+04  0.12540216406E+04  0.12699999809E+01 0. -1.
       -4    1    3    3    0  502 -0.38159512767E+03 -0.72118432180E+02  0.17115858915E+03  0.42439696660E+03  0.12699999809E+01 0.  1.
</event>
<event>
 5   0  0.3772254E-03  0.1255101E+04  0.7818609E-02  0.9065949E-01
       -1   -1    0    0    0  501  0.00000000000E+00  0.00000000000E+00  0.10281093893E+04  0.10281093893E+04  0.50400001928E-02 0.  1.
        1   -1    0    0  501    0  0.00000000000E+00  0.00000000000E+00 -0.38305198646E+03  0.38305198649E+03  0.50400001928E-02 0. -1.
    10030    2    1    2    0    0  0.00000000000E+00  0.00000000000E+00  0.64505740285E+03  0.14111613758E+04  0.12551005440E+04 0.  0.
        3    1    3    3  502    0 -0.34787783864E+03 -0.12570448407E+03  0.89251399223E+03  0.96612724030E+03  0.10100000352E+00 0.  1.
       -3    1    3    3    0  502  0.34787783864E+03  0.12570448407E+03 -0.24745658938E+03  0.44503413550E+03  0.10100000352E+00 0. -1.
</event>
<event>
 5   0  0.3944074E-03  0.1220344E+04  0.7818609E-02  0.9095233E-01
       -1   -1    0    0    0  501  0.00000000000E+00  0.00000000000E+00  0.11692200728E+04  0.11692200728E+04  0.50400001928E-02 0. -1.
        1   -1    0    0  501    0  0.00000000000E+00  0.00000000000E+00 -0.31842595989E+03  0.31842595993E+03  0.50400001928E-02 0.  1.
    10030    2    1    2    0    0  0.00000000000E+00  0.00000000000E+00  0.85079411288E+03  0.14876460327E+04  0.12203442531E+04 0.  0.
        4    1    3    3  502    0  0.32104005043E+03  0.36005235915E+03  0.88087376398E+03  0.10043130071E+04  0.12699999809E+01 0. -1.
       -4    1    3    3    0  502 -0.32104005043E+03 -0.36005235915E+03 -0.30079651107E+02  0.48333302559E+03  0.12699999809E+01 0.  1.
</event>
<event>
 5   0  0.3648616E-03  0.1206432E+04  0.7818609E-02  0.9107245E-01
        1   -1    0    0  501    0  0.00000000000E+00  0.00000000000E+00  0.19525501131E+04  0.19525501131E+04  0.50400001928E-02 0. -1.
       -1   -1    0    0    0  501  0.00000000000E+00  0.00000000000E+00 -0.18635613369E+03  0.18635613375E+03  0.50400001928E-02 0.  1.
    10030    2    1    2    0    0  0.00000000000E+00  0.00000000000E+00  0.17661939794E+04  0.21389062469E+04  0.12064322442E+04 0.  0.
        2    1    3    3  502    0  0.36964630834E+03  0.46832780083E+03  0.72551286469E+03  0.93932861084E+03  0.25500000920E-02 0.  1.
       -2    1    3    3    0  502 -0.36964630834E+03 -0.46832780083E+03  0.10406811147E+04  0.11995776360E+04  0.25500000920E-02 0. -1.
</event>
<event>
 5   0  0.6349142E-03  0.1203207E+04  0.7818609E-02  0.9110054E-01
       -2   -1    0    0    0  501  0.00000000000E+00  0.00000000000E+00  0.37722549554E+03  0.37722549555E+03  0.25500000920E-02 0. -1.
        2   -1    0    0  501    0  0.00000000000E+00  0.00000000000E+00 -0.95944412792E+03  0.95944412792E+03  0.25500000920E-02 0.  1.
    10030    2    1    2    0    0  0.00000000000E+00  0.00000000000E+00 -0.58221863237E+03  0.13366696235E+04  0.12032070256E+04 0.  0.
        1    1    3    3  502    0 -0.19105833078E+03  0.32712606082E+03 -0.81029416276E+03  0.89447827008E+03  0.50400001928E-02 0.  1.
       -1    1    3    3    0  502  0.19105833078E+03 -0.32712606082E+03  0.22807553038E+03  0.44219135339E+03  0.50400001928E-02 0. -1.
</event>
<event>
 5   0  0.3701879E-03  0.1165402E+04  0.7818609E-02  0.9143691E-01
        1   -1    0    0  501    0  0.00000000000E+00  0.00000000000E+00  0.11958329576E+04  0.11958329576E+04  0.50400001928E-02 0. -1.
       -1   -1    0    0    0  501  0.00000000000E+00  0.00000000000E+00 -0.28393616307E+03  0.28393616312E+03  0.50400001928E-02 0.  1.
    10030    2    1    2    0    0  0.00000000000E+00  0.00000000000E+00  0.91189679450E+03  0.14797691207E+04  0.11654015989E+04 0.  0.
        1    1    3    3  502    0 -0.33982651015E+03  0.76237405138E+02 -0.13723845943E+03  0.37433753982E+03  0.50400001928E-02 0.  1.
       -1    1    3    3    0  502  0.33982651015E+03 -0.76237405138E+02  0.10491352539E+04  0.11054315809E+04  0.50400001928E-02 0. -1.
</event>
<event>
 5   0  0.6349142E-03  0.1201381E+04  0.7818609E-02  0.9111648E-01
       -2   -1    0    0    0  501  0.00000000000E+00  0.00000000000E+00  0.67945385940E+03  0.67945385941E+03  0.25500000920E-02 0.  1.
        2   -1    0    0  501    0  0.00000000000E+00  0.00000000000E+00 -0.53105772031E+03  0.53105772032E+03  0.25500000920E-02 0. -1.
    10030    2    1    2    0    0  0.00000000000E+00  0.00000000000E+00  0.14839613909E+03  0.12105115797E+04  0.12013812345E+04 0.  0.
        1    1    3    3  502    0  0.19799571026E+03 -0.56401824348E+03  0.14499691507E+02  0.59793738915E+03  0.50400001928E-02 0.  1.
       -1    1    3    3    0  502 -0.19799571026E+03  0.56401824348E+03  0.13389644758E+03  0.61257419058E+03  0.50400001928E-02 0. -1.
</event>
<event>
 5   0  0.6585930E-03  0.1252889E+04  0.7818609E-02  0.9067782E-01
       -2   -1    0    0    0  501  0.00000000000E+00  0.00000000000E+00  0.20136813370E+03  0.20136813371E+03  0.25500000920E-02 0. -1.
        2   -1    0    0  501    0  0.00000000000E+00  0.00000000000E+00 -0.19488335472E+04  0.19488335472E+04  0.25500000920E-02 0.  1.
    10030    2    1    2    0    0  0.00000000000E+00  0.00000000000E+00 -0.17474654135E+04  0.21502016809E+04  0.12528894194E+04 0.  0.
        2    1    3    3  502    0 -0.18564816237E+03  0.44048940749E+03 -0.17886088070E+03  0.51037963611E+03  0.25500000920E-02 0. -1.
       -2    1    3    3    0  502  0.18564816237E+03 -0.44048940749E+03 -0.15686045328E+04  0.16398220448E+04  0.25500000920E-02 0.  1.
</event>
<event>
 5   0  0.6658994E-03  0.1225117E+04  0.7818609E-02  0.9091151E-01
        2   -1    0    0  501    0  0.00000000000E+00  0.00000000000E+00  0.17396352972E+04  0.17396352972E+04  0.25500000920E-02 0. -1.
       -2   -1    0    0    0  501  0.00000000000E+00  0.00000000000E+00 -0.21569353061E+03  0.21569353062E+03  0.25500000920E-02 0.  1.
    10030    2    1    2    0    0  0.00000000000E+00  0.00000000000E+00  0.15239417666E+04  0.19553288278E+04  0.12251172666E+04 0.  0.
        4    1    3    3  502    0  0.37080890835E+03 -0.22227656372E+03  0.69357677759E+02  0.43785638930E+03  0.12699999809E+01 0. -1.
       -4    1    3    3    0  502 -0.37080890835E+03  0.22227656372E+03  0.14545840888E+04  0.15174724385E+04  0.12699999809E+01 0.  1.
</event>
<event>
 5   0  0.3648616E-03  0.1188003E+04  0.7818609E-02  0.9123422E-01
       -1   -1    0    0    0  501  0.00000000000E+00  0.00000000000E+00  0.14829241382E+04  0.14829241382E+04  0.50400001928E-02 0. -1.
        1   -1    0    0  501    0  0.00000000000E+00  0.00000000000E+00 -0.23793400406E+03  0.23793400411E+03  0.50400001928E-02 0.  1.
    10030    2    1    2    0    0  0.00000000000E+00  0.00000000000E+00  0.12449901342E+04  0.17208581424E+04  0.11880034983E+04 0.  0.
        2    1    3    3  502    0 -0.62884598515E+02 -0.57349861326E+03  0.82726071842E+03  0.10085709833E+04  0.25500000920E-02 0.  1.
       -2    1    3    3    0  502  0.62884598515E+02  0.57349861326E+03  0.41772941576E+03  0.71228715904E+03  0.25500000920E-02 0. -1.
</event>
<event>
 5   0  0.3701879E-03  0.1197204E+04  0.7818609E-02  0.9115307E-01
       -1   -1    0    0    0  501  0.00000000000E+00  0.00000000000E+00  0.45879274749E+03  0.45879274751E+03  0.50400001928E-02 0. -1.
        1   -1    0    0  501    0  0.00000000000E+00  0.00000000000E+00 -0.78101621543E+03  0.78101621545E+03  0.50400001928E-02 0.  1.
    10030    2    1    2    0    0  0.00000000000E+00  0.00000000000E+00 -0.32222346794E+03  0.12398089630E+04  0.11972043691E+04 0.  0.
        1    1    3    3  502    0 -0.36442382155E+02  0.11014767838E+03  0.44703785830E+03  0.46184781589E+03  0.50400001928E-02 0. -1.
       -1    1    3    3    0  502  0.36442382155E+02 -0.11014767838E+03 -0.76926132624E+03  0.77796114707E+03  0.50400001928E-02 0.  1.
</event>
<event>
 5   0  0.6658994E-03  0.1191298E+04  0.7818609E-02  0.9120508E-01
       -2   -1    0    0    0  501  0.00000000000E+00  0.00000000000E+00  0.26556920507E+03  0.26556920508E+03  0.25500000920E-02 0.  1.
        2   -1    0    0  501    0  0.00000000000E+00  0.00000000000E+00 -0.13359897236E+04  0.13359897236E+04  0.25500000920E-02 0. -1.
    10030    2    1    2    0    0  0.00000000000E+00  0.00000000000E+00 -0.10704205185E+04  0.16015589287E+04  0.11912979961E+04 0.  0.
        4    1    3    3  502    0  0.34487350713E+03  0.37969817252E+02 -0.11861139899E+04  0.12358185356E+04  0.12699999809E+01 0. -1.
       -4    1    3    3    0  502 -0.34487350713E+03 -0.37969817252E+02  0.11569347136E+03  0.36574039312E+03  0.12699999809E+01 0.  1.
</event>
<event>
 5   0  0.6493047E-03  0.1201359E+04  0.7818609E-02  0.9111668E-01
        2   -1    0    0  501    0  0.00000000000E+00  0.00000000000E+00  0.14547016287E+04  0.14547016287E+04  0.25500000920E-02 0. -1.
       -2   -1    0    0    0  501  0.00000000000E+00  0.00000000000E+00 -0.24803419129E+03  0.24803419130E+03  0.25500000920E-02 0.  1.
    10030    2    1    2    0    0  0.00000000000E+00  0.00000000000E+00  0.12066674374E+04  0.17027358200E+04  0.12013588008E+04 0.  0.
        3    1    3    3  502    0  0.52161896539E+03 -0.11228966330E+01  0.10255210453E+04  0.11505568349E+04  0.10100000352E+00 0. -1.
       -3    1    3    3    0  502 -0.52161896539E+03  0.11228966330E+01  0.18114639215E+03  0.55217898506E+03  0.10100000352E+00 0.  1.
</event>
<event>
 5   0  0.2537625E-03  0.8454033E+03  0.7818609E-02  0.9496527E-01
        4   -1    0    0  501    0  0.00000000000E+00  0.00000000000E+00  0.39690238805E+03  0.39690441991E+03  0.12699999809E+01 0. -1.
       -4   -1    0    0    0  501  0.00000000000E+00  0.00000000000E+00 -0.45017385720E+03  0.45017564862E+03  0.12699999809E+01 0.  1.
    10030    2    1    2    0    0  0.00000000000E+00  0.00000000000E+00 -0.53271469149E+02  0.84708006853E+03  0.84540333160E+03 0.  0.
        5    1    3    3  502    0 -0.18986233683E+03 -0.24437937473E+03  0.26183390369E+03  0.40539865424E+03  0.46999998093E+01 0. -1.
       -5    1    3    3    0  502  0.18986233683E+03  0.24437937473E+03 -0.31510537284E+03  0.44168141429E+03  0.46999998093E+01 0.  1.
</event>
<event>
 5   0  0.2537625E-03  0.1153338E+04  0.7818609E-02  0.9154710E-01
       -3   -1    0    0    0  501  0.00000000000E+00  0.00000000000E+00  0.34492643215E+03  0.34492644693E+03  0.10100000352E+00 0.  1.
        3   -1    0    0  501    0  0.00000000000E+00  0.00000000000E+00 -0.96411014519E+03  0.96411015048E+03  0.10100000352E+00 0. -1.
    10030    2    1    2    0    0  0.00000000000E+00  0.00000000000E+00 -0.61918371305E+03  0.13090365974E+04  0.11533379136E+04 0.  0.
        4    1    3    3  502    0 -0.27758225057E+03  0.38273908582E+03 -0.68432072593E+03  0.83176774552E+03  0.12699999809E+01 0. -1.
       -4    1    3    3    0  502  0.27758225057E+03 -0.38273908582E+03  0.65137012882E+02  0.47726885190E+03  0.12699999809E+01 0.  1.
</event>
<event>
 5   0  0.3772254E-03  0.1020751E+04  0.7818609E-02  0.9286074E-01
        1   -1    0    0  501    0  0.00000000000E+00  0.00000000000E+00  0.10461170783E+04  0.10461170783E+04  0.50400001928E-02 0. -1.
       -1   -1    0    0    0  501  0.00000000000E+00  0.00000000000E+00 -0.24899984491E+03  0.24899984496E+03  0.50400001928E-02 0.  1.
    10030    2    1    2    0    0  0.00000000000E+00  0.00000000000E+00  0.79711723339E+03  0.12951169233E+04  0.10207506851E+04 0.  0.
        3    1    3    3  502    0  0.28475376154E+03 -0.11583175362E+01 -0.13884032404E+03  0.31680071369E+03  0.10100000352E+00 0.  1.
       -3    1    3    3    0  502 -0.28475376154E+03  0.11583175362E+01  0.93595755744E+03  0.97831620958E+03  0.10100000352E+00 0. -1.
</event>
<event>
 5   0  0.6585930E-03  0.1051516E+04  0.7818609E-02  0.9253781E-01
       -2   -1    0    0    0  501  0.00000000000E+00  0.00000000000E+00  0.57281597948E+03  0.57281597948E+03  0.25500000920E-02 0.  1.
        2   -1    0    0  501    0  0.00000000000E+00  0.00000000000E+00 -0.48256552936E+03  0.48256552937E+03  0.25500000920E-02 0. -1.
    10030    2    1    2    0    0  0.00000000000E+00  0.00000000000E+00  0.90250450114E+02  0.10553815088E+04  0.10515155660E+04 0.  0.
        2    1    3    3  502    0 -0.30851194384E+03  0.71663178432E+02  0.46631795891E+03  0.56370885167E+03  0.25500000920E-02 0.  1.
       -2    1    3    3    0  502  0.30851194384E+03 -0.71663178432E+02 -0.37606750880E+03  0.49167265718E+03  0.25500000920E-02 0. -1.
</event>
<event>
 5   0  0.6658994E-03  0.1209965E+04  0.7818609E-02  0.9104179E-01
       -2   -1    0    0    0  501  0.00000000000E+00  0.00000000000E+00  0.24178172082E+03  0.24178172084E+03  0.25500000920E-02 0. -1.
        2   -1    0    0  501    0  0.00000000000E+00  0.00000000000E+00 -0.15137767476E+04  0.15137767477E+04  0.25500000920E-02 0.  1.
    10030    2    1    2    0    0  0.00000000000E+00  0.00000000000E+00 -0.12719950268E+04  0.17555584685E+04  0.12099645400E+04 0.  0.
        4    1    3    3  502    0 -0.21806679337E+03 -0.38310599079E+03 -0.34822742688E+02  0.44219629449E+03  0.12699999809E+01 0. -1.
       -4    1    3    3    0  502  0.21806679337E+03  0.38310599079E+03 -0.12371722841E+04  0.13133621740E+04  0.12699999809E+01 0.  1.
</event>
<event>
 5   0  0.3701879E-03  0.1181275E+04  0.7818609E-02  0.9129406E-01
       -1   -1    0    0    0  501  0.00000000000E+00  0.00000000000E+00  0.41327838816E+03  0.41327838820E+03  0.50400001928E-02 0.  1.
        1   -1    0    0  501    0  0.00000000000E+00  0.00000000000E+00 -0.84411065375E+03  0.84411065377E+03  0.50400001928E-02 0. -1.
    10030    2    1    2    0    0  0.00000000000E+00  0.00000000000E+00 -0.43083226559E+03  0.12573890420E+04  0.11812750576E+04 0.  0.
        1    1    3    3  502    0 -0.47032019657E+03  0.32874714820E+03 -0.36434907602E+03  0.67972496201E+03  0.50400001928E-02 0.  1.
       -1    1    3    3    0  502  0.47032019657E+03 -0.32874714820E+03 -0.66483189569E+02  0.57766407996E+03  0.50400001928E-02 0. -1.
</event>
<event>
 5   0  0.3701879E-03  0.1159356E+04  0.7818609E-02  0.9149196E-01
       -1   -1    0    0    0  501  0.00000000000E+00  0.00000000000E+00  0.12503042850E+04  0.12503042850E+04  0.50400001928E-02 0.  1.
        1   -1    0    0  501    0  0.00000000000E+00  0.00000000000E+00 -0.26875577320E+03  0.26875577325E+03  0.50400001928E-02 0. -1.
    10030    2    1    2    0    0  0.00000000000E+00  0.00000000000E+00  0.98154851178E+03  0.15190600582E+04  0.11593558468E+04 0.  0.
        1    1    3    3  502    0 -0.27739148351E+03 -0.83924881999E+02 -0.16702049350E+03  0.33449255031E+03  0.50400001928E-02 0. -1.
       -1    1    3    3    0  502  0.27739148351E+03  0.83924881999E+02  0.11485690053E+04  0.11845675079E+04  0.50400001928E-02 0.  1.
</event>
<event>
 5   0  0.6493047E-03  0.1187680E+04  0.7818609E-02  0.9123709E-01
        2   -1    0    0  501    0  0.00000000000E+00  0.00000000000E+00  0.15958503303E+04  0.15958503304E+04  0.25500000920E-02 0.  1.
       -2   -1    0    0    0  501  0.00000000000E+00  0.00000000000E+00 -0.22097695716E+03  0.22097695718E+03  0.25500000920E-02 0. -1.
    10030    2    1    2    0    0  0.00000000000E+00  0.00000000000E+00  0.13748733732E+04  0.18168272875E+04  0.11876803444E+04 0.  0.
        3    1    3    3  502    0  0.33717601513E+03  0.39963853534E+03  0.25680408705E+03  0.58253495469E+03  0.10100000352E+00 0. -1.
       -3    1    3    3    0  502 -0.33717601513E+03 -0.39963853534E+03  0.11180692861E+04  0.12342923328E+04  0.10100000352E+00 0.  1.
</event>
<event>
 5   0  0.3944074E-03  0.1210115E+04  0.7818609E-02  0.9104048E-01
        1   -1    0    0  501    0  0.00000000000E+00  0.00000000000E+00  0.62785321209E+03  0.62785321211E+03  0.50400001928E-02 0. -1.
       -1   -1    0    0    0  501  0.00000000000E+00  0.00000000000E+00 -0.58308985427E+03  0.58308985429E+03  0.50400001928E-02 0.  1.
    10030    2    1    2    0    0  0.00000000000E+00  0.00000000000E+00  0.44763357821E+02  0.12109430664E+04  0.12101154292E+04 0.  0.
        4    1    3    3  502    0 -0.43220838386E+03  0.27716581225E+03  0.34270723388E+03  0.61731259150E+03  0.12699999809E+01 0. -1.
       -4    1    3    3    0  502  0.43220838386E+03 -0.27716581225E+03 -0.29794387606E+03  0.59363047491E+03  0.12699999809E+01 0.  1.
</event>
<event>
 5   0  0.3701879E-03  0.1232046E+04  0.7818609E-02  0.9085260E-01
       -1   -1    0    0    0  501  0.00000000000E+00  0.00000000000E+00  0.39247293040E+03  0.39247293043E+03  0.50400001928E-02 0. -1.
        1   -1    0    0  501    0  0.00000000000E+00  0.00000000000E+00 -0.96690560436E+03  0.96690560438E+03  0.50400001928E-02 0.  1.
    10030    2    1    2    0    0  0.00000000000E+00  0.00000000000E+00 -0.57443267396E+03  0.13593785348E+04  0.12320459017E+04 0.  0.
        1    1    3    3  502    0  0.25525564130E+03  0.36339318201E+03 -0.75827625726E+03  0.87874508789E+03  0.50400001928E-02 0. -1.
       -1    1    3    3    0  502 -0.25525564130E+03 -0.36339318201E+03  0.18384358330E+03  0.48063344692E+03  0.50400001928E-02 0.  1.
</event>
<event>
 5   0  0.2537625E-03  0.1153993E+04  0.7818609E-02  0.9154108E-01
        3   -1    0    0  501    0  0.00000000000E+00  0.00000000000E+00  0.18644258075E+04  0.18644258102E+04  0.10100000352E+00 0. -1.
       -3   -1    0    0    0  501  0.00000000000E+00  0.00000000000E+00 -0.17856703646E+03  0.17856706502E+03  0.10100000352E+00 0.  1.
    10030    2    1    2    0    0  0.00000000000E+00  0.00000000000E+00  0.16858587710E+04  0.20429928752E+04  0.11539931076E+04 0.  0.
        3    1    3    3  502    0  0.10381485013E+03  0.17629466016E+03 -0.11219653492E+03  0.23333538728E+03  0.10100000352E+00 0.  1.
       -3    1    3    3    0  502 -0.10381485013E+03 -0.17629466016E+03  0.17980553059E+04  0.18096574879E+04  0.10100000352E+00 0. -1.
</event>
<event>
 5   0  0.3701879E-03  0.1208792E+04  0.7818609E-02  0.9105196E-01
        1   -1    0    0  501    0  0.00000000000E+00  0.00000000000E+00  0.33831534610E+03  0.33831534613E+03  0.50400001928E-02 0.  1.
       -1   -1    0    0    0  501  0.00000000000E+00  0.00000000000E+00 -0.10797457404E+04  0.10797457404E+04  0.50400001928E-02 0. -1.
    10030    2    1    2    0    0  0.00000000000E+00  0.00000000000E+00 -0.74143039426E+03  0.14180610865E+04  0.12087920481E+04 0.  0.
        1    1    3    3  502    0  0.55987566648E+03 -0.24571987531E+02 -0.10519010829E+03  0.57020128323E+03  0.50400001928E-02 0.  1.
       -1    1    3    3    0  502 -0.55987566648E+03  0.24571987531E+02 -0.63624028596E+03  0.84785980327E+03  0.50400001928E-02 0. -1.
</event>
<event>
 5   0  0.3772254E-03  0.1153404E+04  0.7818609E-02  0.9154649E-01
       -1   -1    0    0    0  501  0.00000000000E+00  0.00000000000E+00  0.30186943697E+03  0.30186943702E+03  0.50400001928E-02 0. -1.
        1   -1    0    0  501    0  0.00000000000E+00  0.00000000000E+00 -0.11017516303E+04  0.11017516303E+04  0.50400001928E-02 0.  1.
    10030    2    1    2    0    0  0.00000000000E+00  0.00000000000E+00 -0.79988219334E+03  0.14036210673E+04  0.11534039091E+04 0.  0.
        3    1    3    3  502    0 -0.24566505831E+03  0.40763971407E+03 -0.36157955891E+01  0.47595644920E+03  0.10100000352E+00 0. -1.
       -3    1    3    3    0  502  0.24566505831E+03 -0.40763971407E+03 -0.79626639775E+03  0.92766461814E+03  0.10100000352E+00 0.  1.
</event>
<event>
 5   0  0.6640844E-03  0.1181987E+04  0.7818609E-02  0.9128771E-01
       -2   -1    0    0    0  501  0.00000000000E+00  0.00000000000E+00  0.23754863532E+03  0.23754863533E+03  0.25500000920E-02 0. -1.
        2   -1    0    0  501    0  0.00000000000E+00  0.00000000000E+00 -0.14703230400E+04  0.14703230400E+04  0.25500000920E-02 0.  1.
    10030    2    1    2    0    0  0.00000000000E+00  0.00000000000E+00 -0.12327744046E+04  0.17078716753E+04  0.11819868555E+04 0.  0.
        5    1    3    3  502    0  0.56134692723E+03  0.31654178332E+02 -0.87942057856E+03  0.10437983540E+04  0.46999998093E+01 0. -1.
       -5    1    3    3    0  502 -0.56134692723E+03 -0.31654178332E+02 -0.35335382608E+03  0.66407332135E+03  0.46999998093E+01 0.  1.
</event>
<event>
 5   0  0.3944074E-03  0.1202092E+04  0.7818609E-02  0.9111028E-01
       -1   -1    0    0    0  501  0.00000000000E+00  0.00000000000E+00  0.97304348570E+03  0.97304348571E+03  0.50400001928E-02 0. -1.
        1   -1    0    0  501    0  0.00000000000E+00  0.00000000000E+00 -0.37126412460E+03  0.37126412463E+03  0.50400001928E-02 0.  1.
    10030    2    1    2    0    0  0.00000000000E+00  0.00000000000E+00  0.60177936110E+03  0.13443076103E+04  0.12020917402E+04 0.  0.
        4    1    3    3  502    0 -0.24590967561E+03 -0.47141618695E+03 -0.12535155081E+02  0.53184916367E+03  0.12699999809E+01 0.  1.
       -4    1    3    3    0  502  0.24590967561E+03  0.47141618695E+03  0.61431451618E+03  0.81245844667E+03  0.12699999809E+01 0. -1.
</event>
<event>
 5   0  0.3701879E-03  0.1253223E+04  0.7818609E-02  0.9067505E-01
       -1   -1    0    0    0  501  0.00000000000E+00  0.00000000000E+00  0.46185955536E+03  0.46185955539E+03  0.50400001928E-02 0. -1.
        1   -1    0    0  501    0  0.00000000000E+00  0.00000000000E+00 -0.85013347134E+03  0.85013347135E+03  0.50400001928E-02 0.  1.
    10030    2    1    2    0    0  0.00000000000E+00  0.00000000000E+00 -0.38827391598E+03  0.13119930267E+04  0.12532234711E+04 0.  0.
        1    1    3    3  502    0  0.32839186299E+03  0.23952750072E+02  0.36399374599E+03  0.49082216439E+03  0.50400001928E-02 0. -1.
       -1    1    3    3    0  502 -0.32839186299E+03 -0.23952750072E+02 -0.75226766196E+03  0.82117086235E+03  0.50400001928E-02 0.  1.
</event>
<event>
 5   0  0.3701879E-03  0.1130499E+04  0.7818609E-02  0.9175965E-01
       -1   -1    0    0    0  501  0.00000000000E+00  0.00000000000E+00  0.10942649772E+04  0.10942649772E+04  0.50400001928E-02 0.  1.
        1   -1    0    0  501    0  0.00000000000E+00  0.00000000000E+00 -0.29198298726E+03  0.29198298731E+03  0.50400001928E-02 0. -1.
    10030    2    1    2    0    0  0.00000000000E+00  0.00000000000E+00  0.80228198996E+03  0.13862479645E+04  0.11304985749E+04 0.  0.
        1    1    3    3  502    0 -0.20152679029E+03 -0.47912316581E+03  0.67350339695E+03  0.85075195031E+03  0.50400001928E-02 0.  1.
       -1    1    3    3    0  502  0.20152679029E+03  0.47912316581E+03  0.12877859301E+03  0.53549601424E+03  0.50400001928E-02 0. -1.
</event>
<event>
 5   0  0.6640844E-03  0.1168283E+04  0.7818609E-02  0.9141080E-01
       -2   -1    0    0    0  501  0.00000000000E+00  0.00000000000E+00  0.20859812848E+03  0.20859812850E+03  0.25500000920E-02 0.  1.
        2   -1    0    0  501    0  0.00000000000E+00  0.00000000000E+00 -0.16357837614E+04  0.16357837614E+04  0.25500000920E-02 0. -1.
    10030    2    1    2    0    0  0.00000000000E+00  0.00000000000E+00 -0.14271856329E+04  0.18443818899E+04  0.11682832383E+04 0.  0.
        5    1    3    3  502    0 -0.15587802055E+03 -0.17523137769E+03 -0.15581595842E+04  0.15757180499E+04  0.46999998093E+01 0. -1.
       -5    1    3    3    0  502  0.15587802055E+03  0.17523137769E+03  0.13097395126E+03  0.26866384000E+03  0.46999998093E+01 0.  1.
</event>
<event>
 5   0  0.6658994E-03  0.1178715E+04  0.7818609E-02  0.9131694E-01
       -2   -1    0    0    0  501  0.00000000000E+00  0.00000000000E+00  0.75871027272E+03  0.75871027273E+03  0.25500000920E-02 0. -1.
        2   -1    0    0  501    0  0.00000000000E+00  0.00000000000E+00 -0.45780634366E+03  0.45780634366E+03  0.25500000920E-02 0.  1.
    10030    2    1    2    0    0  0.00000000000E+00  0.00000000000E+00  0.30090392907E+03  0.12165166164E+04  0.11787151918E+04 0.  0.
        4    1    3    3  502    0 -0.54871363528E+03 -0.21367502496E+03  0.12523282887E+03  0.60202038517E+03  0.12699999809E+01 0.  1.
       -4    1    3    3    0  502  0.54871363528E+03  0.21367502496E+03  0.17567110020E+03  0.61449623122E+03  0.12699999809E+01 0. -1.
</event>
<event>
 5   0  0.3731281E-03  0.1219179E+04  0.7818609E-02  0.9096233E-01
        1   -1    0    0  501    0  0.00000000000E+00  0.00000000000E+00  0.80384194949E+03  0.80384194950E+03  0.50400001928E-02 0.  1.
       -1   -1    0    0    0  501  0.00000000000E+00  0.00000000000E+00 -0.46227882100E+03  0.46227882103E+03  0.50400001928E-02 0. -1.
    10030    2    1    2    0    0  0.00000000000E+00  0.00000000000E+00  0.34156312849E+03  0.12661207705E+04  0.12191785902E+04 0.  0.
        5    1    3    3  502    0  0.17997670054E+03  0.17629811967E+03  0.74722505745E+03  0.78856833326E+03  0.46999998093E+01 0.  1.
       -5    1    3    3    0  502 -0.17997670054E+03 -0.17629811967E+03 -0.40566192897E+03  0.47755243727E+03  0.46999998093E+01 0. -1.
</event>
<event>
 5   0  0.6658994E-03  0.1133074E+04  0.7818609E-02  0.9173542E-01
       -2   -1    0    0    0  501  0.00000000000E+00  0.00000000000E+00  0.73269523263E+03  0.73269523263E+03  0.25500000920E-02 0.  1.
        2   -1    0    0  501    0  0.00000000000E+00  0.00000000000E+00 -0.43805951096E+03  0.43805951096E+03  0.25500000920E-02 0. -1.
    10030    2    1    2    0    0  0.00000000000E+00  0.00000000000E+00  0.29463572167E+03  0.11707547436E+04  0.11330738993E+04 0.  0.
        4    1    3    3  502    0  0.23805028723E+03  0.14113727539E+03 -0.36346454485E+03  0.45683230842E+03  0.12699999809E+01 0. -1.
       -4    1    3    3    0  502 -0.23805028723E+03 -0.14113727539E+03  0.65810026652E+03  0.71392243518E+03  0.12699999809E+01 0.  1.
</event>
<event>
 5   0  0.3772254E-03  0.1174549E+04  0.7818609E-02  0.9135430E-01
       -1   -1    0    0    0  501  0.00000000000E+00  0.00000000000E+00  0.40474412330E+03  0.40474412334E+03  0.50400001928E-02 0.  1.
        1   -1    0    0  501    0  0.00000000000E+00  0.00000000000E+00 -0.85212133704E+03  0.85212133705E+03  0.50400001928E-02 0. -1.
    10030    2    1    2    0    0  0.00000000000E+00  0.00000000000E+00 -0.44737721373E+03  0.12568654604E+04  0.11745486002E+04 0.  0.
        3    1    3    3  502    0 -0.24117108167E+03 -0.15189771053E+03  0.32577071924E+03  0.43285445223E+03  0.10100000352E+00 0.  1.
       -3    1    3    3    0  502  0.24117108167E+03  0.15189771053E+03 -0.77314793297E+03  0.82401100816E+03  0.10100000352E+00 0. -1.
</event>
<event>
 5   0  0.6585930E-03  0.1181319E+04  0.7818609E-02  0.9129367E-01
        2   -1    0    0  501    0  0.00000000000E+00  0.00000000000E+00  0.98033043324E+03  0.98033043325E+03  0.25500000920E-02 0. -1.
       -2   -1    0    0    0  501  0.00000000000E+00  0.00000000000E+00 -0.35587860934E+03  0.35587860935E+03  0.25500000920E-02 0.  1.
    10030    2    1    2    0    0  0.00000000000E+00  0.00000000000E+00  0.62445182390E+03  0.13362090426E+04  0.11813189769E+04 0.  0.
        2    1    3    3  502    0 -0.40029192964E+03 -0.43421963821E+03  0.32344098161E+03  0.67334567031E+03  0.25500000920E-02 0.  1.
       -2    1    3    3    0  502  0.40029192964E+03  0.43421963821E+03  0.30101084230E+03  0.66286337229E+03  0.25500000920E-02 0. -1.
</event>
<event>
 5   0  0.6349142E-03  0.1179155E+04  0.7818609E-02  0.9131300E-01
        2   -1    0    0  501    0  0.00000000000E+00  0.00000000000E+00  0.10886411697E+04  0.10886411697E+04  0.25500000920E-02 0. -1.
       -2   -1    0    0    0  501  0.00000000000E+00  0.00000000000E+00 -0.31929865169E+03  0.31929865170E+03  0.25500000920E-02 0.  1.
    10030    2    1    2    0    0  0.00000000000E+00  0.00000000000E+00  0.76934251802E+03  0.14079398214E+04  0.11791550495E+04 0.  0.
        1    1    3    3  502    0 -0.12296901450E+03  0.27583127145E+03 -0.21993129347E+03  0.37359609568E+03  0.50400001928E-02 0.  1.
       -1    1    3    3    0  502  0.12296901450E+03 -0.27583127145E+03  0.98927381149E+03  0.10343437257E+04  0.50400001928E-02 0. -1.
</event>
<event>
 5   0  0.3944074E-03  0.1237348E+04  0.7818609E-02  0.9080779E-01
        1   -1    0    0  501    0  0.00000000000E+00  0.00000000000E+00  0.56880563824E+03  0.56880563827E+03  0.50400001928E-02 0. -1.
       -1   -1    0    0    0  501  0.00000000000E+00  0.00000000000E+00 -0.67291489054E+03  0.67291489056E+03  0.50400001928E-02 0.  1.
    10030    2    1    2    0    0  0.00000000000E+00  0.00000000000E+00 -0.10410925230E+03  0.12417205288E+04  0.12373484292E+04 0.  0.
        4    1    3    3  502    0 -0.43461487519E+03 -0.30300754695E+03  0.26853073718E+03  0.59398150893E+03  0.12699999809E+01 0. -1.
       -4    1    3    3    0  502  0.43461487519E+03  0.30300754695E+03 -0.37263998947E+03  0.64773901990E+03  0.12699999809E+01 0.  1.
</event>
<event>
 5   0  0.6349142E-03  0.6328075E+03  0.7818609E-02  0.9839585E-01
       -2   -1    0    0    0  501  0.00000000000E+00  0.00000000000E+00  0.19117857436E+03  0.19117857438E+03  0.25500000920E-02 0.  1.
        2   -1    0    0  501    0  0.00000000000E+00  0.00000000000E+00 -0.52365357930E+03  0.52365357930E+03  0.25500000920E-02 0. -1.
    10030    2    1    2    0    0  0.00000000000E+00  0.00000000000E+00 -0.33247500493E+03  0.71483215369E+03  0.63280753712E+03 0.  0.
        1    1    3    3  502    0  0.12344306186E+02 -0.10104586905E+03  0.17217508427E+03  0.20001727229E+03  0.50400001928E-02 0.  1.
       -1    1    3    3    0  502 -0.12344306186E+02  0.10104586905E+03 -0.50465008920E+03  0.51481488139E+03  0.50400001928E-02 0. -1.
</event>
<event>
 5   0  0.2537625E-03  0.1153386E+04  0.7818609E-02  0.9154666E-01
       -4   -1    0    0    0  501  0.00000000000E+00  0.00000000000E+00  0.47947644569E+03  0.47947812762E+03  0.12699999809E+01 0. -1.
        4   -1    0    0  501    0  0.00000000000E+00  0.00000000000E+00 -0.69361705699E+03  0.69361821966E+03  0.12699999809E+01 0.  1.
    10030    2    1    2    0    0  0.00000000000E+00  0.00000000000E+00 -0.21414061130E+03  0.11730963473E+04  0.11533858152E+04 0.  0.
        1    1    3    3  502    0  0.53369317576E+03  0.19358296742E+03 -0.21015288610E+03  0.60536518457E+03  0.50400001928E-02 0.  1.
       -1    1    3    3    0  502 -0.53369317576E+03 -0.19358296742E+03 -0.39877252036E+01  0.56773116271E+03  0.50400001928E-02 0. -1.
</event>
<event>
 5   0  0.6658994E-03  0.1203222E+04  0.7818609E-02  0.9110041E-01
       -2   -1    0    0    0  501  0.00000000000E+00  0.00000000000E+00  0.95788113898E+03  0.95788113898E+03  0.25500000920E-02 0.  1.
        2   -1    0    0  501    0  0.00000000000E+00  0.00000000000E+00 -0.37785025209E+03  0.37785025210E+03  0.25500000920E-02 0. -1.
    10030    2    1    2    0    0  0.00000000000E+00  0.00000000000E+00  0.58003088688E+03  0.13357313911E+04  0.12032217249E+04 0.  0.
        4    1    3    3  502    0  0.40906562658E+03  0.84021221732E+02  0.77076639300E+03  0.87662802718E+03  0.12699999809E+01 0.  1.
       -4    1    3    3    0  502 -0.40906562658E+03 -0.84021221732E+02 -0.19073550612E+03  0.45910336390E+03  0.12699999809E+01 0. -1.
</event>
<event>
 5   0  0.6493047E-03  0.1206543E+04  0.7818609E-02  0.9107149E-01
       -2   -1    0    0    0  501  0.00000000000E+00  0.00000000000E+00  0.19551421989E+03  0.19551421991E+03  0.25500000920E-02 0. -1.
        2   -1    0    0  501    0  0.00000000000E+00  0.00000000000E+00 -0.18614320578E+04  0.18614320578E+04  0.25500000920E-02 0.  1.
    10030    2    1    2    0    0  0.00000000000E+00  0.00000000000E+00 -0.16659178379E+04  0.20569462777E+04  0.12065428905E+04 0.  0.
        3    1    3    3  502    0  0.57428765644E+02  0.42612264920E+03 -0.15543601322E+04  0.16127349460E+04  0.10100000352E+00 0.  1.
       -3    1    3    3    0  502 -0.57428765644E+02 -0.42612264920E+03 -0.11155770566E+03  0.44421133166E+03  0.10100000352E+00 0. -1.
</event>
<event>
 5   0  0.3648616E-03  0.1219413E+04  0.7818609E-02  0.9096032E-01
        1   -1    0    0  501    0  0.00000000000E+00  0.00000000000E+00  0.64861854830E+03  0.64861854832E+03  0.50400001928E-02 0.  1.
       -1   -1    0    0    0  501  0.00000000000E+00  0.00000000000E+00 -0.57312885954E+03  0.57312885956E+03  0.50400001928E-02 0. -1.
    10030    2    1    2    0    0  0.00000000000E+00  0.00000000000E+00  0.75489688763E+02  0.12217474079E+04  0.12194129881E+04 0.  0.
        2    1    3    3  502    0  0.46715789933E+03 -0.13871767825E+03  0.40486534807E+03  0.63355745378E+03  0.25500000920E-02 0.  1.
       -2    1    3    3    0  502 -0.46715789933E+03  0.13871767825E+03 -0.32937565930E+03  0.58818995411E+03  0.25500000920E-02 0. -1.
</event>
<event>
 5   0  0.3944074E-03  0.1187304E+04  0.7818609E-02  0.9124043E-01
       -1   -1    0    0    0  501  0.00000000000E+00  0.00000000000E+00  0.28116289420E+03  0.28116289425E+03  0.50400001928E-02 0. -1.
        1   -1    0    0  501    0  0.00000000000E+00  0.00000000000E+00 -0.12534457033E+04  0.12534457034E+04  0.50400001928E-02 0.  1.
    10030    2    1    2    0    0  0.00000000000E+00  0.00000000000E+00 -0.97228280915E+03  0.15346085976E+04  0.11873035361E+04 0.  0.
        4    1    3    3  502    0  0.29068775215E+03  0.30018678710E+03 -0.10311622856E+04  0.11126134767E+04  0.12699999809E+01 0.  1.
       -4    1    3    3    0  502 -0.29068775215E+03 -0.30018678710E+03  0.58879476468E+02  0.42199512088E+03  0.12699999809E+01 0. -1.
</event>
<event>
 5   0  0.3772254E-03  0.1187761E+04  0.7818609E-02  0.9123638E-01
       -1   -1    0    0    0  501  0.00000000000E+00  0.00000000000E+00  0.59375684029E+03  0.59375684031E+03  0.50400001928E-02 0.  1.
        1   -1    0    0  501    0  0.00000000000E+00  0.00000000000E+00 -0.59400377078E+03  0.59400377081E+03  0.50400001928E-02 0. -1.
    10030    2    1    2    0    0  0.00000000000E+00  0.00000000000E+00 -0.24693049444E+00  0.11877606111E+04  0.11877605855E+04 0.  0.
        3    1    3    3  502    0 -0.26191346028E+03 -0.39342114485E+03 -0.35972733005E+03  0.59395506571E+03  0.10100000352E+00 0. -1.
       -3    1    3    3    0  502  0.26191346028E+03  0.39342114485E+03  0.35948039956E+03  0.59380554541E+03  0.10100000352E+00 0.  1.
</event>
<event>
 5   0  0.3772254E-03  0.1190977E+04  0.7818609E-02  0.9120791E-01
        1   -1    0    0  501    0  0.00000000000E+00  0.00000000000E+00  0.59605602016E+03  0.59605602018E+03  0.50400001928E-02 0. -1.
       -1   -1    0    0    0  501  0.00000000000E+00  0.00000000000E+00 -0.59492119973E+03  0.59492119975E+03  0.50400001928E-02 0.  1.
    10030    2    1    2    0    0  0.00000000000E+00  0.00000000000E+00  0.11348204295E+01  0.11909772199E+04  0.11909766793E+04 0.  0.
        3    1    3    3  502    0 -0.16811553291E+03  0.11272702693E+03  0.56059992908E+03  0.59602223591E+03  0.10100000352E+00 0. -1.
       -3    1    3    3    0  502  0.16811553291E+03 -0.11272702693E+03 -0.55946510865E+03  0.59495498402E+03  0.10100000352E+00 0.  1.
</event>
<event>
 5   0  0.6349142E-03  0.1176122E+04  0.7818609E-02  0.9134017E-01
       -2   -1    0    0    0  501  0.00000000000E+00  0.00000000000E+00  0.23535923522E+03  0.23535923523E+03  0.25500000920E-02 0.  1.
        2   -1    0    0  501    0  0.00000000000E+00  0.00000000000E+00 -0.14693105211E+04  0.14693105211E+04  0.25500000920E-02 0. -1.
    10030    2    1    2    0    0  0.00000000000E+00  0.00000000000E+00 -0.12339512859E+04  0.17046697563E+04  0.11761221034E+04 0.  0.
        1    1    3    3  502    0  0.29312682685E+03  0.50922645135E+03 -0.58204287618E+03  0.82704826045E+03  0.50400001928E-02 0.  1.
       -1    1    3    3    0  502 -0.29312682685E+03 -0.50922645135E+03 -0.65190840968E+03  0.87762149587E+03  0.50400001928E-02 0. -1.
</event>
<event>
 5   0  0.6640844E-03  0.1185125E+04  0.7818609E-02  0.9125977E-01
       -2   -1    0    0    0  501  0.00000000000E+00  0.00000000000E+00  0.59972536296E+03  0.59972536297E+03  0.25500000920E-02 0.  1.
        2   -1    0    0  501    0  0.00000000000E+00  0.00000000000E+00 -0.58548531472E+03  0.58548531472E+03  0.25500000920E-02 0. -1.
    10030    2    1    2    0    0  0.00000000000E+00  0.00000000000E+00  0.14240048247E+02  0.11852106777E+04  0.11851251291E+04 0.  0.
        5    1    3    3  502    0  0.23412532037E+03  0.11063388119E+03 -0.52588540932E+03  0.58620139461E+03  0.46999998093E+01 0. -1.
       -5    1    3    3    0  502 -0.23412532037E+03 -0.11063388119E+03  0.54012545757E+03  0.59900928308E+03  0.46999998093E+01 0.  1.
</event>
<event>
 5   0  0.6585930E-03  0.1269242E+04  0.7818609E-02  0.9054318E-01
       -2   -1    0    0    0  501  0.00000000000E+00  0.00000000000E+00  0.38338762186E+03  0.38338762187E+03  0.25500000920E-02 0. -1.
        2   -1    0    0  501    0  0.00000000000E+00  0.00000000000E+00 -0.10504875752E+04  0.10504875752E+04  0.25500000920E-02 0.  1.
    10030    2    1    2    0    0  0.00000000000E+00  0.00000000000E+00 -0.66709995338E+03  0.14338751971E+04  0.12692421885E+04 0.  0.
        2    1    3    3  502    0  0.56895225064E+03  0.27658842816E+03 -0.39044194985E+03  0.74340617318E+03  0.25500000920E-02 0. -1.
       -2    1    3    3    0  502 -0.56895225064E+03 -0.27658842816E+03 -0.27665800353E+03  0.69046902395E+03  0.25500000920E-02 0.  1.
</event>
<event>
 5   0  0.3701879E-03  0.1186570E+04  0.7818609E-02  0.9124693E-01
       -1   -1    0    0    0  501  0.00000000000E+00  0.00000000000E+00  0.34200613216E+03  0.34200613220E+03  0.50400001928E-02 0.  1.
        1   -1    0    0  501    0  0.00000000000E+00  0.00000000000E+00 -0.10291843912E+04  0.10291843912E+04  0.50400001928E-02 0. -1.
    10030    2    1    2    0    0  0.00000000000E+00  0.00000000000E+00 -0.68717825901E+03  0.13711905234E+04  0.11865704748E+04 0.  0.
        1    1    3    3  502    0  0.10031488360E+03 -0.22720961287E+03  0.27903772712E+03  0.37356302980E+03  0.50400001928E-02 0.  1.
       -1    1    3    3    0  502 -0.10031488360E+03  0.22720961287E+03 -0.96621598613E+03  0.99762749358E+03  0.50400001928E-02 0. -1.
</event>
<event>
 5   0  0.6585930E-03  0.1201574E+04  0.7818609E-02  0.9111480E-01
        2   -1    0    0  501    0  0.00000000000E+00  0.00000000000E+00  0.16659142528E+04  0.16659142528E+04  0.25500000920E-02 0. -1.
       -2   -1    0    0    0  501  0.00000000000E+00  0.00000000000E+00 -0.21666485562E+03  0.21666485564E+03  0.25500000920E-02 0.  1.
    10030    2    1    2    0    0  0.00000000000E+00  0.00000000000E+00  0.14492493971E+04  0.18825791084E+04  0.12015740861E+04 0.  0.
        2    1    3    3  502    0  0.32119628042E+03 -0.48173890053E+03  0.97582317168E+03  0.11346674761E+04  0.25500000920E-02 0.  1.
       -2    1    3    3    0  502 -0.32119628042E+03  0.48173890053E+03  0.47342622547E+03  0.74791163235E+03  0.25500000920E-02 0. -1.
</event>
<event>
 5   0  0.3701879E-03  0.1174943E+04  0.7818609E-02  0.9135076E-01
        1   -1    0    0  501    0  0.00000000000E+00  0.00000000000E+00  0.23068286859E+04  0.23068286859E+04  0.50400001928E-02 0.  1.
       -1   -1    0    0    0  501  0.00000000000E+00  0.00000000000E+00 -0.14960913378E+03  0.14960913386E+03  0.50400001928E-02 0. -1.
    10030    2    1    2    0    0  0.00000000000E+00  0.00000000000E+00  0.21572195521E+04  0.24564378197E+04  0.11749427928E+04 0.  0.
        1    1    3    3  502    0  0.35999285954E+03 -0.40398259045E+03  0.60036834589E+03  0.80823198593E+03  0.50400001928E-02 0.  1.
       -1    1    3    3    0  502 -0.35999285954E+03  0.40398259045E+03  0.15568512062E+04  0.16482058338E+04  0.50400001928E-02 0. -1.
</event>
<event>
 5   0  0.3731281E-03  0.1252607E+04  0.7818609E-02  0.9068016E-01
        1   -1    0    0  501    0  0.00000000000E+00  0.00000000000E+00  0.89307874897E+03  0.89307874898E+03  0.50400001928E-02 0.  1.
       -1   -1    0    0    0  501  0.00000000000E+00  0.00000000000E+00 -0.43921802664E+03  0.43921802667E+03  0.50400001928E-02 0. -1.
    10030    2    1    2    0    0  0.00000000000E+00  0.00000000000E+00  0.45386072233E+03  0.13322967756E+04  0.12526073380E+04 0.  0.
        5    1    3    3  502    0  0.23073849520E+02 -0.47683653354E+03 -0.20423389762E+03  0.51926780873E+03  0.46999998093E+01 0. -1.
       -5    1    3    3    0  502 -0.23073849520E+02  0.47683653354E+03  0.65809461995E+03  0.81302896692E+03  0.46999998093E+01 0.  1.
</event>
<event>
 5   0  0.6658994E-03  0.1207284E+04  0.7818609E-02  0.9106504E-01
        2   -1    0    0  501    0  0.00000000000E+00  0.00000000000E+00  0.84026394462E+03  0.84026394462E+03  0.25500000920E-02 0.  1.
       -2   -1    0    0    0  501  0.00000000000E+00  0.00000000000E+00 -0.43365402636E+03  0.43365402637E+03  0.25500000920E-02 0. -1.
    10030    2    1    2    0    0  0.00000000000E+00  0.00000000000E+00  0.40660991825E+03  0.12739179710E+04  0.12072842959E+04 0.  0.
        4    1    3    3  502    0 -0.27347516564E+02  0.92458276045E+02 -0.42547482697E+03  0.43626466824E+03  0.12699999809E+01 0. -1.
       -4    1    3    3    0  502  0.27347516564E+02 -0.92458276045E+02  0.83208474522E+03  0.83765330275E+03  0.12699999809E+01 0.  1.
</event>
<event>
 5   0  0.3701879E-03  0.1218114E+04  0.7818609E-02  0.9097147E-01
       -1   -1    0    0    0  501  0.00000000000E+00  0.00000000000E+00  0.48874554263E+03  0.48874554266E+03  0.50400001928E-02 0. -1.
        1   -1    0    0  501    0  0.00000000000E+00  0.00000000000E+00 -0.75898516917E+03  0.75898516918E+03  0.50400001928E-02 0.  1.
    10030    2    1    2    0    0  0.00000000000E+00  0.00000000000E+00 -0.27023962653E+03  0.12477307118E+04  0.12181143105E+04 0.  0.
        1    1    3    3  502    0 -0.13780517418E+03  0.45992745592E+03  0.24872728698E+03  0.54072987161E+03  0.50400001928E-02 0. -1.
       -1    1    3    3    0  502  0.13780517418E+03 -0.45992745592E+03 -0.51896691351E+03  0.70700084023E+03  0.50400001928E-02 0.  1.
</event>
<event>
 5   0  0.3731281E-03  0.1212960E+04  0.7818609E-02  0.9101588E-01
        1   -1    0    0  501    0  0.00000000000E+00  0.00000000000E+00  0.21139778822E+04  0.21139778822E+04  0.50400001928E-02 0.  1.
       -1   -1    0    0    0  501  0.00000000000E+00  0.00000000000E+00 -0.17399331745E+03  0.17399331753E+03  0.50400001928E-02 0. -1.
    10030    2    1    2    0    0  0.00000000000E+00  0.00000000000E+00  0.19399845648E+04  0.22879711998E+04  0.12129600568E+04 0.  0.
        5    1    3    3  502    0 -0.10963411163E+03  0.30492962864E+03  0.19369599583E+04  0.19638833180E+04  0.46999998093E+01 0.  1.
       -5    1    3    3    0  502  0.10963411163E+03 -0.30492962864E+03  0.30246065141E+01  0.32408788175E+03  0.46999998093E+01 0. -1.
</event>
<event>
 5   0  0.3701879E-03  0.1231465E+04  0.7818609E-02  0.9085753E-01
       -1   -1    0    0    0  501  0.00000000000E+00  0.00000000000E+00  0.59677014454E+03  0.59677014456E+03  0.50400001928E-02 0.  1.
        1   -1    0    0  501    0  0.00000000000E+00  0.00000000000E+00 -0.63529691969E+03  0.63529691971E+03  0.50400001928E-02 0. -1.
    10030    2    1    2    0    0  0.00000000000E+00  0.00000000000E+00 -0.38526775157E+02  0.12320670643E+04  0.12314645502E+04 0.  0.
        1    1    3    3  502    0  0.27694452973E+03 -0.26091783440E+03  0.46507040308E+03  0.60088839954E+03  0.50400001928E-02 0.  1.
       -1    1    3    3    0  502 -0.27694452973E+03  0.26091783440E+03 -0.50359717824E+03  0.63117866473E+03  0.50400001928E-02 0. -1.
</event>
<event>
 5   0  0.3648616E-03  0.1246753E+04  0.7818609E-02  0.9072890E-01
       -1   -1    0    0    0  501  0.00000000000E+00  0.00000000000E+00  0.28374158098E+03  0.28374158103E+03  0.50400001928E-02 0. -1.
        1   -1    0    0  501    0  0.00000000000E+00  0.00000000000E+00 -0.13695507139E+04  0.13695507140E+04  0.50400001928E-02 0.  1.
    10030    2    1    2    0    0  0.00000000000E+00  0.00000000000E+00 -0.10858091330E+04  0.16532922950E+04  0.12467533595E+04 0.  0.
        2    1    3    3  502    0  0.51197130203E+02 -0.26696265425E+02 -0.13659971237E+04  0.13672168733E+04  0.25500000920E-02 0.  1.
       -2    1    3    3    0  502 -0.51197130203E+02  0.26696265425E+02  0.28018799073E+03  0.28607542167E+03  0.25500000920E-02 0. -1.
</event>
<event>
 5   0  0.3648616E-03  0.1212311E+04  0.7818609E-02  0.9102149E-01
       -1   -1    0    0    0  501  0.00000000000E+00  0.00000000000E+00  0.26372628299E+03  0.26372628303E+03  0.50400001928E-02 0. -1.
        1   -1    0    0  501    0  0.00000000000E+00  0.00000000000E+00 -0.13932031216E+04  0.13932031216E+04  0.50400001928E-02 0.  1.
    10030    2    1    2    0    0  0.00000000000E+00  0.00000000000E+00 -0.11294768386E+04  0.16569294046E+04  0.12123106545E+04 0.  0.
        2    1    3    3  502    0  0.28372625416E+02 -0.32503446780E+03  0.13347297455E+03  0.35251588060E+03  0.25500000920E-02 0. -1.
       -2    1    3    3    0  502 -0.28372625416E+02  0.32503446780E+03 -0.12629498131E+04  0.13044135240E+04  0.25500000920E-02 0.  1.
</event>
<event>
 5   0  0.3731281E-03  0.1193168E+04  0.7818609E-02  0.9118858E-01
        1   -1    0    0  501    0  0.00000000000E+00  0.00000000000E+00  0.46275107422E+03  0.46275107425E+03  0.50400001928E-02 0.  1.
       -1   -1    0    0    0  501  0.00000000000E+00  0.00000000000E+00 -0.76912275920E+03  0.76912275922E+03  0.50400001928E-02 0. -1.
    10030    2    1    2    0    0  0.00000000000E+00  0.00000000000E+00 -0.30637168498E+03  0.12318738335E+04  0.11931678558E+04 0.  0.
        5    1    3    3  502    0  0.16410487395E+03 -0.15787001941E+03 -0.72246837997E+03  0.75751963852E+03  0.46999998093E+01 0. -1.
       -5    1    3    3    0  502 -0.16410487395E+03  0.15787001941E+03  0.41609669499E+03  0.47435419495E+03  0.46999998093E+01 0.  1.
</event>
<event>
 5   0  0.6349142E-03  0.1185953E+04  0.7818609E-02  0.9125241E-01
       -2   -1    0    0    0  501  0.00000000000E+00  0.00000000000E+00  0.36987444249E+03  0.36987444250E+03  0.25500000920E-02 0.  1.
        2   -1    0    0  501    0  0.00000000000E+00  0.00000000000E+00 -0.95065016634E+03  0.95065016635E+03  0.25500000920E-02 0. -1.
    10030    2    1    2    0    0  0.00000000000E+00  0.00000000000E+00 -0.58077572385E+03  0.13205246088E+04  0.11859531193E+04 0.  0.
        1    1    3    3  502    0 -0.47273098054E+03  0.19501793562E+03  0.43866141332E+02  0.51325511547E+03  0.50400001928E-02 0.  1.
       -1    1    3    3    0  502  0.47273098054E+03 -0.19501793562E+03 -0.62464186519E+03  0.80726949338E+03  0.50400001928E-02 0. -1.
</event>
<event>
 5   0  0.3648616E-03  0.1197791E+04  0.7818609E-02  0.9114792E-01
       -1   -1    0    0    0  501  0.00000000000E+00  0.00000000000E+00  0.40102211345E+03  0.40102211348E+03  0.50400001928E-02 0.  1.
        1   -1    0    0  501    0  0.00000000000E+00  0.00000000000E+00 -0.89440432724E+03  0.89440432725E+03  0.50400001928E-02 0. -1.
    10030    2    1    2    0    0  0.00000000000E+00  0.00000000000E+00 -0.49338221378E+03  0.12954264407E+04  0.11977911564E+04 0.  0.
        2    1    3    3  502    0  0.22185113961E+03  0.30668601531E+03  0.25525396118E+03  0.45654005831E+03  0.25500000920E-02 0.  1.
       -2    1    3    3    0  502 -0.22185113961E+03 -0.30668601531E+03 -0.74863617497E+03  0.83888638242E+03  0.25500000920E-02 0. -1.
</event>
<event>
 5   0  0.6493047E-03  0.1200026E+04  0.7818609E-02  0.9112834E-01
        2   -1    0    0  501    0  0.00000000000E+00  0.00000000000E+00  0.64367974499E+03  0.64367974500E+03  0.25500000920E-02 0.  1.
       -2   -1    0    0    0  501  0.00000000000E+00  0.00000000000E+00 -0.55930841360E+03  0.55930841361E+03  0.25500000920E-02 0. -1.
    10030    2    1    2    0    0  0.00000000000E+00  0.00000000000E+00  0.84371331391E+02  0.12029881586E+04  0.12000258281E+04 0.  0.
        3    1    3    3  502    0 -0.10567726588E+03 -0.33536356163E+02 -0.54895051300E+03  0.56003486287E+03  0.10100000352E+00 0. -1.
       -3    1    3    3    0  502  0.10567726588E+03  0.33536356163E+02  0.63332184439E+03  0.64295329573E+03  0.10100000352E+00 0.  1.
</event>
<event>
 5   0  0.3944074E-03  0.1198137E+04  0.7818609E-02  0.9114489E-01
        1   -1    0    0  501    0  0.00000000000E+00  0.00000000000E+00  0.72679428369E+03  0.72679428371E+03  0.50400001928E-02 0.  1.
       -1   -1    0    0    0  501  0.00000000000E+00  0.00000000000E+00 -0.49378867546E+03  0.49378867549E+03  0.50400001928E-02 0. -1.
    10030    2    1    2    0    0  0.00000000000E+00  0.00000000000E+00  0.23300560823E+03  0.12205829592E+04  0.11981365310E+04 0.  0.
        4    1    3    3  502    0  0.26270489976E+03 -0.26586237282E+03 -0.36043958194E+03  0.51924461554E+03  0.12699999809E+01 0. -1.
       -4    1    3    3    0  502 -0.26270489976E+03  0.26586237282E+03  0.59344519017E+03  0.70133834365E+03  0.12699999809E+01 0.  1.
</event>
<event>
 5   0  0.6349142E-03  0.1465326E+04  0.7818609E-02  0.8907844E-01
        2   -1    0    0  501    0  0.00000000000E+00  0.00000000000E+00  0.88046258252E+03  0.88046258253E+03  0.25500000920E-02 0.  1.
       -2   -1    0    0    0  501  0.00000000000E+00  0.00000000000E+00 -0.60967352112E+03  0.60967352113E+03  0.25500000920E-02 0. -1.
    10030    2    1    2    0    0  0.00000000000E+00  0.00000000000E+00  0.27078906140E+03  0.14901361037E+04  0.14653255241E+04 0.  0.
        1    1    3    3  502    0 -0.34967278732E+03 -0.41428525666E+03 -0.36579026034E+03  0.65399223746E+03  0.50400001928E-02 0.  1.
       -1    1    3    3    0  502  0.34967278732E+03  0.41428525666E+03  0.63657932174E+03  0.83614386619E+03  0.50400001928E-02 0. -1.
</event>
<event>
 5   0  0.3772254E-03  0.1237636E+04  0.7818609E-02  0.9080537E-01
        1   -1    0    0  501    0  0.00000000000E+00  0.00000000000E+00  0.78904017758E+03  0.78904017759E+03  0.50400001928E-02 0.  1.
       -1   -1    0    0    0  501  0.00000000000E+00  0.00000000000E+00 -0.48531859675E+03  0.48531859677E+03  0.50400001928E-02 0. -1.
    10030    2    1    2    0    0  0.00000000000E+00  0.00000000000E+00  0.30372158083E+03  0.12743587744E+04  0.12376362499E+04 0.  0.
        3    1    3    3  502    0 -0.43952283495E+03 -0.37789077666E+03 -0.71257643487E+02  0.58400293105E+03  0.10100000352E+00 0. -1.
       -3    1    3    3    0  502  0.43952283495E+03  0.37789077666E+03  0.37497922432E+03  0.69035584331E+03  0.10100000352E+00 0.  1.
</event>
<event>
 5   0  0.6658994E-03  0.1165933E+04  0.7818609E-02  0.9143209E-01
       -2   -1    0    0    0  501  0.00000000000E+00  0.00000000000E+00  0.47532179165E+03  0.47532179166E+03  0.25500000920E-02 0.  1.
        2   -1    0    0  501    0  0.00000000000E+00  0.00000000000E+00 -0.71498976327E+03  0.71498976327E+03  0.25500000920E-02 0. -1.
    10030    2    1    2    0    0  0.00000000000E+00  0.00000000000E+00 -0.23966797161E+03  0.11903115549E+04  0.11659334720E+04 0.  0.
        4    1    3    3  502    0 -0.39779355041E+03  0.42517852258E+03 -0.90384397424E+02  0.58922613402E+03  0.12699999809E+01 0.  1.
       -4    1    3    3    0  502  0.39779355041E+03 -0.42517852258E+03 -0.14928357419E+03  0.60108542091E+03  0.12699999809E+01 0. -1.
</event>
<event>
 5   0  0.2537625E-03  0.1053794E+04  0.7818609E-02  0.9251436E-01
        3   -1    0    0  501    0  0.00000000000E+00  0.00000000000E+00  0.24381804398E+03  0.24381806490E+03  0.10100000352E+00 0.  1.
       -3   -1    0    0    0  501  0.00000000000E+00  0.00000000000E+00 -0.11386377750E+04  0.11386377795E+04  0.10100000352E+00 0. -1.
    10030    2    1    2    0    0  0.00000000000E+00  0.00000000000E+00 -0.89481973101E+03  0.13824558444E+04  0.10537940077E+04 0.  0.
        4    1    3    3  502    0  0.16306823605E+03 -0.14653417285E+03 -0.10759589978E+04  0.10980677991E+04  0.12699999809E+01 0. -1.
       -4    1    3    3    0  502 -0.16306823605E+03  0.14653417285E+03  0.18113926683E+03  0.28438804530E+03  0.12699999809E+01 0.  1.
</event>
<event>
 5   0  0.6658994E-03  0.1148507E+04  0.7818609E-02  0.9159162E-01
        2   -1    0    0  501    0  0.00000000000E+00  0.00000000000E+00  0.18736899240E+04  0.18736899240E+04  0.25500000920E-02 0.  1.
       -2   -1    0    0    0  501  0.00000000000E+00  0.00000000000E+00 -0.17599872635E+03  0.17599872637E+03  0.25500000920E-02 0. -1.
    10030    2    1    2    0    0  0.00000000000E+00  0.00000000000E+00  0.16976911976E+04  0.20496886504E+04  0.11485069268E+04 0.  0.
        4    1    3    3  502    0 -0.39519208126E+03 -0.39004810630E+03  0.11102297638E+04  0.12413404238E+04  0.12699999809E+01 0.  1.
       -4    1    3    3    0  502  0.39519208126E+03  0.39004810630E+03  0.58746143380E+03  0.80834822658E+03  0.12699999809E+01 0. -1.
</event>
<event>
 5   0  0.6640844E-03  0.1257352E+04  0.7818609E-02  0.9064086E-01
       -2   -1    0    0    0  501  0.00000000000E+00  0.00000000000E+00  0.57592386933E+03  0.57592386933E+03  0.25500000920E-02 0.  1.
        2   -1    0    0  501    0  0.00000000000E+00  0.00000000000E+00 -0.68626052449E+03  0.68626052449E+03  0.25500000920E-02 0. -1.
    10030    2    1    2    0    0  0.00000000000E+00  0.00000000000E+00 -0.11033665516E+03  0.12621843938E+04  0.12573524830E+04 0.  0.
        5    1    3    3  502    0 -0.39287626134E+03  0.48613958712E+03 -0.12271936191E+03  0.63699732077E+03  0.46999998093E+01 0. -1.
       -5    1    3    3    0  502  0.39287626134E+03 -0.48613958712E+03  0.12382706747E+02  0.62518707305E+03  0.46999998093E+01 0.  1.
</event>
<event>
 5   0  0.6585930E-03  0.1165136E+04  0.7818609E-02  0.9143932E-01
       -2   -1    0    0    0  501  0.00000000000E+00  0.00000000000E+00  0.20027284084E+03  0.20027284086E+03  0.25500000920E-02 0.  1.
        2   -1    0    0  501    0  0.00000000000E+00  0.00000000000E+00 -0.16946164692E+04  0.16946164692E+04  0.25500000920E-02 0. -1.
    10030    2    1    2    0    0  0.00000000000E+00  0.00000000000E+00 -0.14943436283E+04  0.18948893100E+04  0.11651363086E+04 0.  0.
        2    1    3    3  502    0  0.34815826820E+03 -0.16207939646E+03 -0.34734643429E+02  0.38560394958E+03  0.25500000920E-02 0.  1.
       -2    1    3    3    0  502 -0.34815826820E+03  0.16207939646E+03 -0.14596089849E+04  0.15092853604E+04  0.25500000920E-02 0. -1.
</event>
<event>
 5   0  0.6493047E-03  0.1210932E+04  0.7818609E-02  0.9103341E-01
        2   -1    0    0  501    0  0.00000000000E+00  0.00000000000E+00  0.72882206082E+03  0.72882206082E+03  0.25500000920E-02 0.  1.
       -2   -1    0    0    0  501  0.00000000000E+00  0.00000000000E+00 -0.50298830215E+03  0.50298830216E+03  0.25500000920E-02 0. -1.
    10030    2    1    2    0    0  0.00000000000E+00  0.00000000000E+00  0.22583375866E+03  0.12318103630E+04  0.12109318246E+04 0.  0.
        3    1    3    3  502    0 -0.15454441864E+03  0.15843150522E+03 -0.46036398282E+03  0.51080282503E+03  0.10100000352E+00 0. -1.
       -3    1    3    3    0  502  0.15454441864E+03 -0.15843150522E+03  0.68619774148E+03  0.72100753796E+03  0.10100000352E+00 0.  1.
</event>
<event>
 5   0  0.6493047E-03  0.1184412E+04  0.7818609E-02  0.9126611E-01
        2   -1    0    0  501    0  0.00000000000E+00  0.00000000000E+00  0.70354815072E+03  0.70354815072E+03  0.25500000920E-02 0.  1.
       -2   -1    0    0    0  501  0.00000000000E+00  0.00000000000E+00 -0.49848473675E+03  0.49848473676E+03  0.25500000920E-02 0. -1.
    10030    2    1    2    0    0  0.00000000000E+00  0.00000000000E+00  0.20506341396E+03  0.12020328875E+04  0.11844121153E+04 0.  0.
        3    1    3    3  502    0  0.63888739704E+02  0.46095656627E+03 -0.26917568945E+03  0.53760421226E+03  0.10100000352E+00 0. -1.
       -3    1    3    3    0  502 -0.63888739704E+02 -0.46095656627E+03  0.47423910342E+03  0.66442867522E+03  0.10100000352E+00 0.  1.
</event>
<event>
 5   0  0.6585930E-03  0.6694989E+03  0.7818609E-02  0.9770863E-01
        2   -1    0    0  501    0  0.00000000000E+00  0.00000000000E+00  0.15563253954E+04  0.15563253954E+04  0.25500000920E-02 0.  1.
       -2   -1    0    0    0  501  0.00000000000E+00  0.00000000000E+00 -0.72001134952E+02  0.72001134998E+02  0.25500000920E-02 0. -1.
    10030    2    1    2    0    0  0.00000000000E+00  0.00000000000E+00  0.14843242605E+04  0.16283265304E+04  0.66949890176E+03 0.  0.
        2    1    3    3  502    0 -0.18291894357E+03  0.16824176887E+03  0.19672649237E+03  0.31696363437E+03  0.25500000920E-02 0. -1.
       -2    1    3    3    0  502  0.18291894357E+03 -0.16824176887E+03  0.12875977681E+04  0.13113628960E+04  0.25500000920E-02 0.  1.
</event>
<event>
 5   0  0.2537625E-03  0.1187361E+04  0.7818609E-02  0.9123992E-01
       -3   -1    0    0    0  501  0.00000000000E+00  0.00000000000E+00  0.17998777619E+04  0.17998777647E+04  0.10100000352E+00 0.  1.
        3   -1    0    0  501    0  0.00000000000E+00  0.00000000000E+00 -0.19582243130E+03  0.19582245734E+03  0.10100000352E+00 0. -1.
    10030    2    1    2    0    0  0.00000000000E+00  0.00000000000E+00  0.16040553306E+04  0.19957002220E+04  0.11873608856E+04 0.  0.
        2    1    3    3  502    0 -0.22128358833E+03  0.11958410164E+02  0.17277536341E+04  0.17419075895E+04  0.25500000920E-02 0.  1.
       -2    1    3    3    0  502  0.22128358833E+03 -0.11958410164E+02 -0.12369830355E+03  0.25379263257E+03  0.25500000920E-02 0. -1.
</event>
<event>
 5   0  0.6640844E-03  0.1175128E+04  0.7818609E-02  0.9134910E-01
       -2   -1    0    0    0  501  0.00000000000E+00  0.00000000000E+00  0.67161590132E+03  0.67161590132E+03  0.25500000920E-02 0. -1.
        2   -1    0    0  501    0  0.00000000000E+00  0.00000000000E+00 -0.51403094113E+03  0.51403094113E+03  0.25500000920E-02 0.  1.
    10030    2    1    2    0    0  0.00000000000E+00  0.00000000000E+00  0.15758496019E+03  0.11856468425E+04  0.11751278294E+04 0.  0.
        5    1    3    3  502    0 -0.17212826692E+03 -0.16152905144E+03 -0.46406601400E+03  0.52067180650E+03  0.46999998093E+01 0.  1.
       -5    1    3    3    0  502  0.17212826692E+03  0.16152905144E+03  0.62165097420E+03  0.66497503596E+03  0.46999998093E+01 0. -1.
</event>
<event>
 5   0  0.6493047E-03  0.1088798E+04  0.7818609E-02  0.9216179E-01
       -2   -1    0    0    0  501  0.00000000000E+00  0.00000000000E+00  0.22323628460E+03  0.22323628462E+03  0.25500000920E-02 0. -1.
        2   -1    0    0  501    0  0.00000000000E+00  0.00000000000E+00 -0.13276076744E+04  0.13276076744E+04  0.25500000920E-02 0.  1.
    10030    2    1    2    0    0  0.00000000000E+00  0.00000000000E+00 -0.11043713898E+04  0.15508439590E+04  0.10887978778E+04 0.  0.
        3    1    3    3  502    0  0.22745904878E+03  0.45474556842E+03 -0.82925659293E+03  0.97272691850E+03  0.10100000352E+00 0. -1.
       -3    1    3    3    0  502 -0.22745904878E+03 -0.45474556842E+03 -0.27511479685E+03  0.57811704050E+03  0.10100000352E+00 0.  1.
</event>
<event>
 5   0  0.3944074E-03  0.1163640E+04  0.7818609E-02  0.9145292E-01
       -1   -1    0    0    0  501  0.00000000000E+00  0.00000000000E+00  0.37969950760E+03  0.37969950763E+03  0.50400001928E-02 0.  1.
        1   -1    0    0  501    0  0.00000000000E+00  0.00000000000E+00 -0.89153229174E+03  0.89153229175E+03  0.50400001928E-02 0. -1.
    10030    2    1    2    0    0  0.00000000000E+00  0.00000000000E+00 -0.51183278414E+03  0.12712317994E+04  0.11636397591E+04 0.  0.
        4    1    3    3  502    0  0.54767989258E+03  0.18693670782E+03 -0.19023989300E+03  0.60917274008E+03  0.12699999809E+01 0.  1.
       -4    1    3    3    0  502 -0.54767989258E+03 -0.18693670782E+03 -0.32159289113E+03  0.66205905930E+03  0.12699999809E+01 0. -1.
</event>
<event>
 5   0  0.6349142E-03  0.1209366E+04  0.7818609E-02  0.9104698E-01
       -2   -1    0    0    0  501  0.00000000000E+00  0.00000000000E+00  0.32573950264E+03  0.32573950265E+03  0.25500000920E-02 0. -1.
        2   -1    0    0  501    0  0.00000000000E+00  0.00000000000E+00 -0.11224958667E+04  0.11224958667E+04  0.25500000920E-02 0.  1.
    10030    2    1    2    0    0  0.00000000000E+00  0.00000000000E+00 -0.79675636406E+03  0.14482353693E+04  0.12093655284E+04 0.  0.
        1    1    3    3  502    0 -0.18495004492E+03 -0.48525909635E+03 -0.27421739802E+02  0.52003351963E+03  0.50400001928E-02 0. -1.
       -1    1    3    3    0  502  0.18495004492E+03  0.48525909635E+03 -0.76933462425E+03  0.92820184971E+03  0.50400001928E-02 0.  1.
</event>
<event>
 5   0  0.6585930E-03  0.1189776E+04  0.7818609E-02  0.9121853E-01
       -2   -1    0    0    0  501  0.00000000000E+00  0.00000000000E+00  0.32623249285E+03  0.32623249286E+03  0.25500000920E-02 0. -1.
        2   -1    0    0  501    0  0.00000000000E+00  0.00000000000E+00 -0.10847833694E+04  0.10847833695E+04  0.25500000920E-02 0.  1.
    10030    2    1    2    0    0  0.00000000000E+00  0.00000000000E+00 -0.75855087659E+03  0.14110158623E+04  0.11897757483E+04 0.  0.
        2    1    3    3  502    0 -0.17871364457E+03 -0.55707301718E+02 -0.10489438268E+04  0.10655163171E+04  0.25500000920E-02 0.  1.
       -2    1    3    3    0  502  0.17871364457E+03  0.55707301718E+02  0.29039295020E+03  0.34549954522E+03  0.25500000920E-02 0. -1.
</event>
<event>
 5   0  0.3648616E-03  0.1173355E+04  0.7818609E-02  0.9136504E-01
       -1   -1    0    0    0  501  0.00000000000E+00  0.00000000000E+00  0.86371568675E+03  0.86371568676E+03  0.50400001928E-02 0.  1.
        1   -1    0    0  501    0  0.00000000000E+00  0.00000000000E+00 -0.39849970185E+03  0.39849970189E+03  0.50400001928E-02 0. -1.
    10030    2    1    2    0    0  0.00000000000E+00  0.00000000000E+00  0.46521598489E+03  0.12622153887E+04  0.11733549228E+04 0.  0.
        2    1    3    3  502    0 -0.11936368825E+03  0.12537235921E+03  0.83561743144E+03  0.85335948477E+03  0.25500000920E-02 0.  1.
       -2    1    3    3    0  502  0.11936368825E+03 -0.12537235921E+03 -0.37040144654E+03  0.40885590388E+03  0.25500000920E-02 0. -1.
</event>
<event>
 5   0  0.6640844E-03  0.1196928E+04  0.7818609E-02  0.9115550E-01
       -2   -1    0    0    0  501  0.00000000000E+00  0.00000000000E+00  0.28319157149E+03  0.28319157150E+03  0.25500000920E-02 0.  1.
        2   -1    0    0  501    0  0.00000000000E+00  0.00000000000E+00 -0.12647233661E+04  0.12647233661E+04  0.25500000920E-02 0. -1.
    10030    2    1    2    0    0  0.00000000000E+00  0.00000000000E+00 -0.98153179457E+03  0.15479149376E+04  0.11969277297E+04 0.  0.
        5    1    3    3  502    0 -0.11947446437E+02 -0.26486786259E+03 -0.11845975654E+04  0.12139156511E+04  0.46999998093E+01 0. -1.
       -5    1    3    3    0  502  0.11947446437E+02  0.26486786259E+03  0.20306577078E+03  0.33399928648E+03  0.46999998093E+01 0.  1.
</event>
<event>
 5   0  0.3772254E-03  0.1205440E+04  0.7818609E-02  0.9108109E-01
       -1   -1    0    0    0  501  0.00000000000E+00  0.00000000000E+00  0.11168027850E+04  0.11168027850E+04  0.50400001928E-02 0. -1.
        1   -1    0    0  501    0  0.00000000000E+00  0.00000000000E+00 -0.32527778118E+03  0.32527778122E+03  0.50400001928E-02 0.  1.
    10030    2    1    2    0    0  0.00000000000E+00  0.00000000000E+00  0.79152500382E+03  0.14420805662E+04  0.12054395579E+04 0.  0.
        3    1    3    3  502    0  0.97268369429E+02 -0.45080296321E+03  0.85999694194E+03  0.97584793778E+03  0.10100000352E+00 0. -1.
       -3    1    3    3    0  502 -0.97268369429E+02  0.45080296321E+03 -0.68471938121E+02  0.46623262846E+03  0.10100000352E+00 0.  1.
</event>
<event>
 5   0  0.3772254E-03  0.1166340E+04  0.7818609E-02  0.9142840E-01
       -1   -1    0    0    0  501  0.00000000000E+00  0.00000000000E+00  0.19313241229E+03  0.19313241236E+03  0.50400001928E-02 0. -1.
        1   -1    0    0  501    0  0.00000000000E+00  0.00000000000E+00 -0.17609011864E+04  0.17609011864E+04  0.50400001928E-02 0.  1.
    10030    2    1    2    0    0  0.00000000000E+00  0.00000000000E+00 -0.15677687741E+04  0.19540335988E+04  0.11663397344E+04 0.  0.
        3    1    3    3  502    0  0.37840908421E+03 -0.14629668532E+03 -0.14857182064E+04  0.15401151757E+04  0.10100000352E+00 0.  1.
       -3    1    3    3    0  502 -0.37840908421E+03  0.14629668532E+03 -0.82050567690E+02  0.41391842313E+03  0.10100000352E+00 0. -1.
</event>
<event>
 5   0  0.3944074E-03  0.1161513E+04  0.7818609E-02  0.9147228E-01
       -1   -1    0    0    0  501  0.00000000000E+00  0.00000000000E+00  0.48632540925E+03  0.48632540927E+03  0.50400001928E-02 0.  1.
        1   -1    0    0  501    0  0.00000000000E+00  0.00000000000E+00 -0.69352333658E+03  0.69352333660E+03  0.50400001928E-02 0. -1.
    10030    2    1    2    0    0  0.00000000000E+00  0.00000000000E+00 -0.20719792734E+03  0.11798487459E+04  0.11615128420E+04 0.  0.
        4    1    3    3  502    0  0.89726261644E+02  0.46631030253E+03 -0.44321248205E+03  0.64956525263E+03  0.12699999809E+01 0. -1.
       -4    1    3    3    0  502 -0.89726261644E+02 -0.46631030253E+03  0.23601455471E+03  0.53028349325E+03  0.12699999809E+01 0.  1.
</event>
<event>
 5   0  0.6658994E-03  0.1087840E+04  0.7818609E-02  0.9217126E-01
       -2   -1    0    0    0  501  0.00000000000E+00  0.00000000000E+00  0.20249656809E+03  0.20249656810E+03  0.25500000920E-02 0. -1.
        2   -1    0    0  501    0  0.00000000000E+00  0.00000000000E+00 -0.14610065925E+04  0.14610065925E+04  0.25500000920E-02 0.  1.
    10030    2    1    2    0    0  0.00000000000E+00  0.00000000000E+00 -0.12585100244E+04  0.16635031606E+04  0.10878397326E+04 0.  0.
        4    1    3    3  502    0  0.18428980141E+03  0.38013790119E+03 -0.10534689852E+03  0.43539308303E+03  0.12699999809E+01 0. -1.
       -4    1    3    3    0  502 -0.18428980141E+03 -0.38013790119E+03 -0.11531631259E+04  0.12281100776E+04  0.12699999809E+01 0.  1.
</event>
<event>
 5   0  0.6585930E-03  0.1187836E+04  0.7818609E-02  0.9123570E-01
       -2   -1    0    0    0  501  0.00000000000E+00  0.00000000000E+00  0.15293803350E+03  0.15293803352E+03  0.25500000920E-02 0. -1.
        2   -1    0    0  501    0  0.00000000000E+00  0.00000000000E+00 -0.23064164389E+04  0.23064164389E+04  0.25500000920E-02 0.  1.
    10030    2    1    2    0    0  0.00000000000E+00  0.00000000000E+00 -0.21534784054E+04  0.24593544724E+04  0.11878363433E+04 0.  0.
        2    1    3    3  502    0 -0.26047627178E+03  0.39324679094E+02  0.25363063322E+02  0.26464618557E+03  0.25500000920E-02 0. -1.
       -2    1    3    3    0  502  0.26047627178E+03 -0.39324679094E+02 -0.21788414687E+04  0.21947082868E+04  0.25500000920E-02 0.  1.
</event>
<event>
 5   0  0.6658994E-03  0.1254918E+04  0.7818609E-02  0.9066100E-01
       -2   -1    0    0    0  501  0.00000000000E+00  0.00000000000E+00  0.36555058101E+03  0.36555058102E+03  0.25500000920E-02 0.  1.
        2   -1    0    0  501    0  0.00000000000E+00  0.00000000000E+00 -0.10770180960E+04  0.10770180960E+04  0.25500000920E-02 0. -1.
    10030    2    1    2    0    0  0.00000000000E+00  0.00000000000E+00 -0.71146751502E+03  0.14425686771E+04  0.12549176718E+04 0.  0.
        4    1    3    3  502    0  0.41999663927E+03  0.18834957379E+03 -0.84591232419E+03  0.96303790791E+03  0.12699999809E+01 0. -1.
       -4    1    3    3    0  502 -0.41999663927E+03 -0.18834957379E+03  0.13444480917E+03  0.47953076915E+03  0.12699999809E+01 0.  1.
</event>
<event>
 5   0  0.6349142E-03  0.1209314E+04  0.7818609E-02  0.9104743E-01
        2   -1    0    0  501    0  0.00000000000E+00  0.00000000000E+00  0.77669409162E+03  0.77669409163E+03  0.25500000920E-02 0.  1.
       -2   -1    0    0    0  501  0.00000000000E+00  0.00000000000E+00 -0.47072615818E+03  0.47072615818E+03  0.25500000920E-02 0. -1.
    10030    2    1    2    0    0  0.00000000000E+00  0.00000000000E+00  0.30596793345E+03  0.12474202498E+04  0.12093142285E+04 0.  0.
        1    1    3    3  502    0  0.33942627968E+03  0.28906133261E+03 -0.26835183865E+03  0.52036464396E+03  0.50400001928E-02 0. -1.
       -1    1    3    3    0  502 -0.33942627968E+03 -0.28906133261E+03  0.57431977210E+03  0.72705560585E+03  0.50400001928E-02 0.  1.
</event>
<event>
 5   0  0.6493047E-03  0.1247534E+04  0.7818609E-02  0.9072238E-01
        2   -1    0    0  501    0  0.00000000000E+00  0.00000000000E+00  0.78862973020E+03  0.78862973020E+03  0.25500000920E-02 0.  1.
       -2   -1    0    0    0  501  0.00000000000E+00  0.00000000000E+00 -0.49336896793E+03  0.49336896794E+03  0.25500000920E-02 0. -1.
    10030    2    1    2    0    0  0.00000000000E+00  0.00000000000E+00  0.29526076227E+03  0.12819986981E+04  0.12475342658E+04 0.  0.
        3    1    3    3  502    0 -0.20993966361E+03 -0.65129584814E+02 -0.45225057864E+03  0.50283906099E+03  0.10100000352E+00 0. -1.
       -3    1    3    3    0  502  0.20993966361E+03  0.65129584814E+02  0.74751134091E+03  0.77915963715E+03  0.10100000352E+00 0.  1.
</event>
<event>
 5   0  0.3701879E-03  0.1238096E+04  0.7818609E-02  0.9080149E-01
       -1   -1    0    0    0  501  0.00000000000E+00  0.00000000000E+00  0.27069917297E+03  0.27069917302E+03  0.50400001928E-02 0.  1.
        1   -1    0    0  501    0  0.00000000000E+00  0.00000000000E+00 -0.14156694509E+04  0.14156694509E+04  0.50400001928E-02 0. -1.
    10030    2    1    2    0    0  0.00000000000E+00  0.00000000000E+00 -0.11449702779E+04  0.16863686239E+04  0.12380961992E+04 0.  0.
        1    1    3    3  502    0 -0.42142536751E+03 -0.44994532026E+03 -0.49579202301E+03  0.79111305242E+03  0.50400001928E-02 0.  1.
       -1    1    3    3    0  502  0.42142536751E+03  0.44994532026E+03 -0.64917825491E+03  0.89525557149E+03  0.50400001928E-02 0. -1.
</event>
<event>
 5   0  0.6585930E-03  0.8736261E+03  0.7818609E-02  0.9459164E-01
       -2   -1    0    0    0  501  0.00000000000E+00  0.00000000000E+00  0.14441614228E+03  0.14441614231E+03  0.25500000920E-02 0.  1.
        2   -1    0    0  501    0  0.00000000000E+00  0.00000000000E+00 -0.13212210595E+04  0.13212210595E+04  0.25500000920E-02 0. -1.
    10030    2    1    2    0    0  0.00000000000E+00  0.00000000000E+00 -0.11768049173E+04  0.14656372019E+04  0.87362611807E+03 0.  0.
        2    1    3    3  502    0 -0.27212281443E+02 -0.21132286175E+03  0.51324577462E+02  0.21916220573E+03  0.25500000920E-02 0.  1.
       -2    1    3    3    0  502  0.27212281443E+02  0.21132286175E+03 -0.12281294947E+04  0.12464749961E+04  0.25500000920E-02 0. -1.
</event>
<event>
 5   0  0.3648616E-03  0.1211468E+04  0.7818609E-02  0.9102878E-01
       -1   -1    0    0    0  501  0.00000000000E+00  0.00000000000E+00  0.24298264996E+03  0.24298265002E+03  0.50400001928E-02 0. -1.
        1   -1    0    0  501    0  0.00000000000E+00  0.00000000000E+00 -0.15100399397E+04  0.15100399397E+04  0.50400001928E-02 0.  1.
    10030    2    1    2    0    0  0.00000000000E+00  0.00000000000E+00 -0.12670572897E+04  0.17530225897E+04  0.12114677150E+04 0.  0.
        2    1    3    3  502    0  0.57427156726E+03 -0.34160610392E+02 -0.90792466942E+03  0.10748404466E+04  0.25500000920E-02 0.  1.
       -2    1    3    3    0  502 -0.57427156726E+03  0.34160610392E+02 -0.35913262028E+03  0.67818214310E+03  0.25500000920E-02 0. -1.
</event>
<event>
 5   0  0.6585930E-03  0.1199267E+04  0.7818609E-02  0.9113499E-01
       -2   -1    0    0    0  501  0.00000000000E+00  0.00000000000E+00  0.28283523574E+03  0.28283523575E+03  0.25500000920E-02 0.  1.
        2   -1    0    0  501    0  0.00000000000E+00  0.00000000000E+00 -0.12712708875E+04  0.12712708875E+04  0.25500000920E-02 0. -1.
    10030    2    1    2    0    0  0.00000000000E+00  0.00000000000E+00 -0.98843565175E+03  0.15541061232E+04  0.11992667779E+04 0.  0.
        2    1    3    3  502    0 -0.16175123192E+03 -0.94237510368E+01  0.25393047468E+03  0.30121911309E+03  0.25500000920E-02 0.  1.
       -2    1    3    3    0  502  0.16175123192E+03  0.94237510368E+01 -0.12423661264E+04  0.12528870102E+04  0.25500000920E-02 0. -1.
</event>
<event>
 5   0  0.6658994E-03  0.1160596E+04  0.7818609E-02  0.9148064E-01
       -2   -1    0    0    0  501  0.00000000000E+00  0.00000000000E+00  0.10398910126E+04  0.10398910126E+04  0.25500000920E-02 0.  1.
        2   -1    0    0  501    0  0.00000000000E+00  0.00000000000E+00 -0.32382779386E+03  0.32382779387E+03  0.25500000920E-02 0. -1.
    10030    2    1    2    0    0  0.00000000000E+00  0.00000000000E+00  0.71606321875E+03  0.13637188065E+04  0.11605957306E+04 0.  0.
        4    1    3    3  502    0  0.23938839979E+03 -0.46175832039E+03  0.66039332344E+03  0.84062387959E+03  0.12699999809E+01 0.  1.
       -4    1    3    3    0  502 -0.23938839979E+03  0.46175832039E+03  0.55669895311E+02  0.52309492690E+03  0.12699999809E+01 0. -1.
</event>
<event>
 5   0  0.3701879E-03  0.1145989E+04  0.7818609E-02  0.9161492E-01
        1   -1    0    0  501    0  0.00000000000E+00  0.00000000000E+00  0.42136081692E+03  0.42136081695E+03  0.50400001928E-02 0.  1.
       -1   -1    0    0    0  501  0.00000000000E+00  0.00000000000E+00 -0.77919556274E+03  0.77919556276E+03  0.50400001928E-02 0. -1.
    10030    2    1    2    0    0  0.00000000000E+00  0.00000000000E+00 -0.35783474582E+03  0.12005563797E+04  0.11459886193E+04 0.  0.
        1    1    3    3  502    0 -0.47874660820E+03  0.30497979073E+03 -0.97018890919E+02  0.57586773902E+03  0.50400001928E-02 0.  1.
       -1    1    3    3    0  502  0.47874660820E+03 -0.30497979073E+03 -0.26081585490E+03  0.62468864070E+03  0.50400001928E-02 0. -1.
</event>
<event>
 5   0  0.3772254E-03  0.1181491E+04  0.7818609E-02  0.9129213E-01
       -1   -1    0    0    0  501  0.00000000000E+00  0.00000000000E+00  0.19097990348E+04  0.19097990348E+04  0.50400001928E-02 0. -1.
        1   -1    0    0  501    0  0.00000000000E+00  0.00000000000E+00 -0.18273154256E+03  0.18273154263E+03  0.50400001928E-02 0.  1.
    10030    2    1    2    0    0  0.00000000000E+00  0.00000000000E+00  0.17270674923E+04  0.20925305775E+04  0.11814914705E+04 0.  0.
        3    1    3    3  502    0 -0.37432179091E+03  0.33094042970E+03  0.14217570759E+04  0.15069942150E+04  0.10100000352E+00 0. -1.
       -3    1    3    3    0  502  0.37432179091E+03 -0.33094042970E+03  0.30531041640E+03  0.58553636243E+03  0.10100000352E+00 0.  1.
</event>
<event>
 5   0  0.6493047E-03  0.1007385E+04  0.7818609E-02  0.9300482E-01
       -2   -1    0    0    0  501  0.00000000000E+00  0.00000000000E+00  0.42727233675E+03  0.42727233676E+03  0.25500000920E-02 0. -1.
        2   -1    0    0  501    0  0.00000000000E+00  0.00000000000E+00 -0.59378083529E+03  0.59378083530E+03  0.25500000920E-02 0.  1.
    10030    2    1    2    0    0  0.00000000000E+00  0.00000000000E+00 -0.16650849854E+03  0.10210531721E+04  0.10073849811E+04 0.  0.
        3    1    3    3  502    0  0.15482459251E+02  0.49760888742E+03 -0.57192562751E+01  0.49788254787E+03  0.10100000352E+00 0. -1.
       -3    1    3    3    0  502 -0.15482459251E+02 -0.49760888742E+03 -0.16078924227E+03  0.52317062419E+03  0.10100000352E+00 0.  1.
</event>
<event>
 5   0  0.3731281E-03  0.1195315E+04  0.7818609E-02  0.9116967E-01
       -1   -1    0    0    0  501  0.00000000000E+00  0.00000000000E+00  0.41649595997E+03  0.41649596000E+03  0.50400001928E-02 0. -1.
        1   -1    0    0  501    0  0.00000000000E+00  0.00000000000E+00 -0.85761818571E+03  0.85761818572E+03  0.50400001928E-02 0.  1.
    10030    2    1    2    0    0  0.00000000000E+00  0.00000000000E+00 -0.44112222574E+03  0.12741141457E+04  0.11953150372E+04 0.  0.
        5    1    3    3  502    0 -0.18962339555E+02 -0.47882686643E+03 -0.60122809826E+03  0.76885112634E+03  0.46999998093E+01 0.  1.
       -5    1    3    3    0  502  0.18962339555E+02  0.47882686643E+03  0.16010587252E+03  0.50526301938E+03  0.46999998093E+01 0. -1.
</event>
<event>
 5   0  0.3944074E-03  0.1237428E+04  0.7818609E-02  0.9080713E-01
       -1   -1    0    0    0  501  0.00000000000E+00  0.00000000000E+00  0.32657316508E+03  0.32657316512E+03  0.50400001928E-02 0. -1.
        1   -1    0    0  501    0  0.00000000000E+00  0.00000000000E+00 -0.11721930310E+04  0.11721930310E+04  0.50400001928E-02 0.  1.
    10030    2    1    2    0    0  0.00000000000E+00  0.00000000000E+00 -0.84561986594E+03  0.14987661961E+04  0.12374276355E+04 0.  0.
        4    1    3    3  502    0 -0.21616948889E+03  0.16697311468E+03  0.24958976753E+03  0.37000801871E+03  0.12699999809E+01 0. -1.
       -4    1    3    3    0  502  0.21616948889E+03 -0.16697311468E+03 -0.10952096335E+04  0.11287581774E+04  0.12699999809E+01 0.  1.
</event>
<event>
 5   0  0.6658994E-03  0.1187893E+04  0.7818609E-02  0.9123520E-01
       -2   -1    0    0    0  501  0.00000000000E+00  0.00000000000E+00  0.96241430650E+03  0.96241430650E+03  0.25500000920E-02 0. -1.
        2   -1    0    0  501    0  0.00000000000E+00  0.00000000000E+00 -0.36654940899E+03  0.36654940900E+03  0.25500000920E-02 0.  1.
    10030    2    1    2    0    0  0.00000000000E+00  0.00000000000E+00  0.59586489751E+03  0.13289637155E+04  0.11878929165E+04 0.  0.
        4    1    3    3  502    0 -0.58466292459E+03 -0.69953932107E+02  0.38492611955E+03  0.70348704211E+03  0.12699999809E+01 0.  1.
       -4    1    3    3    0  502  0.58466292459E+03  0.69953932107E+02  0.21093877796E+03  0.62547667339E+03  0.12699999809E+01 0. -1.
</event>
<event>
 5   0  0.6349142E-03  0.1188730E+04  0.7818609E-02  0.9122779E-01
        2   -1    0    0  501    0  0.00000000000E+00  0.00000000000E+00  0.10702907152E+04  0.10702907152E+04  0.25500000920E-02 0.  1.
       -2   -1    0    0    0  501  0.00000000000E+00  0.00000000000E+00 -0.33006881166E+03  0.33006881167E+03  0.25500000920E-02 0. -1.
    10030    2    1    2    0    0  0.00000000000E+00  0.00000000000E+00  0.74022190359E+03  0.14003595269E+04  0.11887297162E+04 0.  0.
        1    1    3    3  502    0  0.45325539925E+01 -0.45224049406E+03  0.82442083085E+03  0.94032532396E+03  0.50400001928E-02 0.  1.
       -1    1    3    3    0  502 -0.45325539925E+01  0.45224049406E+03 -0.84198927261E+02  0.46003420296E+03  0.50400001928E-02 0. -1.
</event>
<event>
 5   0  0.3648616E-03  0.1189716E+04  0.7818609E-02  0.9121906E-01
       -1   -1    0    0    0  501  0.00000000000E+00  0.00000000000E+00  0.59144195409E+03  0.59144195411E+03  0.50400001928E-02 0.  1.
        1   -1    0    0  501    0  0.00000000000E+00  0.00000000000E+00 -0.59829420812E+03  0.59829420814E+03  0.50400001928E-02 0. -1.
    10030    2    1    2    0    0  0.00000000000E+00  0.00000000000E+00 -0.68522540331E+01  0.11897361623E+04  0.11897164294E+04 0.  0.
        2    1    3    3  502    0 -0.73134656474E+02 -0.27612242840E+03  0.51837177818E+03  0.59186279986E+03  0.25500000920E-02 0.  1.
       -2    1    3    3    0  502  0.73134656474E+02  0.27612242840E+03 -0.52522403221E+03  0.59787336239E+03  0.25500000920E-02 0. -1.
</event>
<event>
 5   0  0.6585930E-03  0.1225406E+04  0.7818609E-02  0.9090905E-01
        2   -1    0    0  501    0  0.00000000000E+00  0.00000000000E+00  0.15150567709E+04  0.15150567709E+04  0.25500000920E-02 0. -1.
       -2   -1    0    0    0  501  0.00000000000E+00  0.00000000000E+00 -0.24778279771E+03  0.24778279773E+03  0.25500000920E-02 0.  1.
    10030    2    1    2    0    0  0.00000000000E+00  0.00000000000E+00  0.12672739732E+04  0.17628395687E+04  0.12254060640E+04 0.  0.
        2    1    3    3  502    0 -0.34083356179E+03  0.29198781474E+03  0.12336811046E+04  0.13127808151E+04  0.25500000920E-02 0. -1.
       -2    1    3    3    0  502  0.34083356179E+03 -0.29198781474E+03  0.33592868642E+02  0.45005875353E+03  0.25500000920E-02 0.  1.
</event>
<event>
 5   0  0.2537625E-03  0.1191567E+04  0.7818609E-02  0.9120270E-01
       -3   -1    0    0    0  501  0.00000000000E+00  0.00000000000E+00  0.57168496267E+03  0.57168497159E+03  0.10100000352E+00 0. -1.
        3   -1    0    0  501    0  0.00000000000E+00  0.00000000000E+00 -0.62089830256E+03  0.62089831078E+03  0.10100000352E+00 0.  1.
    10030    2    1    2    0    0  0.00000000000E+00  0.00000000000E+00 -0.49213339893E+02  0.11925832824E+04  0.11915674268E+04 0.  0.
        5    1    3    3  502    0 -0.46985232490E+03  0.20538548747E+03 -0.32816664274E+03  0.60881839746E+03  0.46999998093E+01 0.  1.
       -5    1    3    3    0  502  0.46985232490E+03 -0.20538548747E+03  0.27895330285E+03  0.58376488491E+03  0.46999998093E+01 0. -1.
</event>
<event>
 5   0  0.6349142E-03  0.1187237E+04  0.7818609E-02  0.9124102E-01
       -2   -1    0    0    0  501  0.00000000000E+00  0.00000000000E+00  0.71684681618E+03  0.71684681618E+03  0.25500000920E-02 0.  1.
        2   -1    0    0  501    0  0.00000000000E+00  0.00000000000E+00 -0.49157381807E+03  0.49157381808E+03  0.25500000920E-02 0. -1.
    10030    2    1    2    0    0  0.00000000000E+00  0.00000000000E+00  0.22527299810E+03  0.12084206343E+04  0.11872373417E+04 0.  0.
        1    1    3    3  502    0  0.14160202185E+03  0.57204932488E+03  0.40008149520E+02  0.59067098688E+03  0.50400001928E-02 0. -1.
       -1    1    3    3    0  502 -0.14160202185E+03 -0.57204932488E+03  0.18526484858E+03  0.61774964738E+03  0.50400001928E-02 0.  1.
</event>
<event>
 5   0  0.6493047E-03  0.1192151E+04  0.7818609E-02  0.9119755E-01
        2   -1    0    0  501    0  0.00000000000E+00  0.00000000000E+00  0.68262785031E+03  0.68262785031E+03  0.25500000920E-02 0. -1.
       -2   -1    0    0    0  501  0.00000000000E+00  0.00000000000E+00 -0.52049745267E+03  0.52049745267E+03  0.25500000920E-02 0.  1.
    10030    2    1    2    0    0  0.00000000000E+00  0.00000000000E+00  0.16213039764E+03  0.12031253030E+04  0.11921510931E+04 0.  0.
        3    1    3    3  502    0 -0.33171358335E+03  0.47010054407E+03  0.23831230092E+03  0.62275290917E+03  0.10100000352E+00 0. -1.
       -3    1    3    3    0  502  0.33171358335E+03 -0.47010054407E+03 -0.76181903284E+02  0.58037239381E+03  0.10100000352E+00 0.  1.
</event>
<event>
 5   0  0.6585930E-03  0.1131616E+04  0.7818609E-02  0.9174913E-01
        2   -1    0    0  501    0  0.00000000000E+00  0.00000000000E+00  0.18983701841E+04  0.18983701841E+04  0.25500000920E-02 0. -1.
       -2   -1    0    0    0  501  0.00000000000E+00  0.00000000000E+00 -0.16863868924E+03  0.16863868926E+03  0.25500000920E-02 0.  1.
    10030    2    1    2    0    0  0.00000000000E+00  0.00000000000E+00  0.17297314949E+04  0.20670088734E+04  0.11316159411E+04 0.  0.
        2    1    3    3  502    0 -0.46770921844E+03  0.13664387042E+03  0.13902002733E+04  0.14731192281E+04  0.25500000920E-02 0. -1.
       -2    1    3    3    0  502  0.46770921844E+03 -0.13664387042E+03  0.33953122163E+03  0.59388964531E+03  0.25500000920E-02 0.  1.
</event>
<event>
 5   0  0.3731281E-03  0.1216542E+04  0.7818609E-02  0.9098499E-01
       -1   -1    0    0    0  501  0.00000000000E+00  0.00000000000E+00  0.77919580451E+03  0.77919580453E+03  0.50400001928E-02 0.  1.
        1   -1    0    0  501    0  0.00000000000E+00  0.00000000000E+00 -0.47484050580E+03  0.47484050582E+03  0.50400001928E-02 0. -1.
    10030    2    1    2    0    0  0.00000000000E+00  0.00000000000E+00  0.30435529871E+03  0.12540363104E+04  0.12165421981E+04 0.  0.
        5    1    3    3  502    0  0.25364465118E+02 -0.60378307260E+03  0.22340341217E+03  0.64430468678E+03  0.46999998093E+01 0. -1.
       -5    1    3    3    0  502 -0.25364465118E+02  0.60378307260E+03  0.80951886541E+02  0.60973162357E+03  0.46999998093E+01 0.  1.
</event>
<event>
 5   0  0.6658994E-03  0.1197931E+04  0.7818609E-02  0.9114669E-01
       -2   -1    0    0    0  501  0.00000000000E+00  0.00000000000E+00  0.41672423416E+03  0.41672423416E+03  0.25500000920E-02 0.  1.
        2   -1    0    0  501    0  0.00000000000E+00  0.00000000000E+00 -0.86090424163E+03  0.86090424164E+03  0.25500000920E-02 0. -1.
    10030    2    1    2    0    0  0.00000000000E+00  0.00000000000E+00 -0.44418000748E+03  0.12776284758E+04  0.11979309843E+04 0.  0.
        4    1    3    3  502    0  0.31346316178E+03 -0.49365922993E+03 -0.83854235551E+02  0.59075522410E+03  0.12699999809E+01 0.  1.
       -4    1    3    3    0  502 -0.31346316178E+03  0.49365922993E+03 -0.36032577193E+03  0.68687325170E+03  0.12699999809E+01 0. -1.
</event>
<event>
 5   0  0.3772254E-03  0.1198606E+04  0.7818609E-02  0.9114078E-01
       -1   -1    0    0    0  501  0.00000000000E+00  0.00000000000E+00  0.19053065001E+03  0.19053065008E+03  0.50400001928E-02 0.  1.
        1   -1    0    0  501    0  0.00000000000E+00  0.00000000000E+00 -0.18850721854E+04  0.18850721855E+04  0.50400001928E-02 0. -1.
    10030    2    1    2    0    0  0.00000000000E+00  0.00000000000E+00 -0.16945415354E+04  0.20756028355E+04  0.11986059050E+04 0.  0.
        3    1    3    3  502    0  0.20308135846E+03 -0.16898491258E+03 -0.17787896288E+04  0.17983021138E+04  0.10100000352E+00 0. -1.
       -3    1    3    3    0  502 -0.20308135846E+03  0.16898491258E+03  0.84248093360E+02  0.27730072172E+03  0.10100000352E+00 0.  1.
</event>
<event>
 5   0  0.3701879E-03  0.1198140E+04  0.7818609E-02  0.9114486E-01
        1   -1    0    0  501    0  0.00000000000E+00  0.00000000000E+00  0.59315538045E+03  0.59315538047E+03  0.50400001928E-02 0. -1.
       -1   -1    0    0    0  501  0.00000000000E+00  0.00000000000E+00 -0.60504387225E+03  0.60504387227E+03  0.50400001928E-02 0.  1.
    10030    2    1    2    0    0  0.00000000000E+00  0.00000000000E+00 -0.11888491804E+02  0.11981992527E+04  0.11981402727E+04 0.  0.
        1    1    3    3  502    0  0.31590280159E+03  0.49954317749E+03 -0.10365812396E+03  0.60006914011E+03  0.50400001928E-02 0.  1.
       -1    1    3    3    0  502 -0.31590280159E+03 -0.49954317749E+03  0.91769632158E+02  0.59813011263E+03  0.50400001928E-02 0. -1.
</event>
<event>
 5   0  0.6493047E-03  0.1212141E+04  0.7818609E-02  0.9102295E-01
       -2   -1    0    0    0  501  0.00000000000E+00  0.00000000000E+00  0.56591249292E+03  0.56591249293E+03  0.25500000920E-02 0. -1.
        2   -1    0    0  501    0  0.00000000000E+00  0.00000000000E+00 -0.64907871451E+03  0.64907871452E+03  0.25500000920E-02 0.  1.
    10030    2    1    2    0    0  0.00000000000E+00  0.00000000000E+00 -0.83166221590E+02  0.12149912074E+04  0.12121414991E+04 0.  0.
        3    1    3    3  502    0 -0.35516737219E+03  0.96191148610E+01 -0.53374188090E+03  0.64118390128E+03  0.10100000352E+00 0.  1.
       -3    1    3    3    0  502  0.35516737219E+03 -0.96191148610E+01  0.45057565931E+03  0.57380730616E+03  0.10100000352E+00 0. -1.
</event>
<event>
 5   0  0.3731281E-03  0.7489761E+03  0.7818609E-02  0.9636958E-01
        1   -1    0    0  501    0  0.00000000000E+00  0.00000000000E+00  0.36442689735E+04  0.36442689735E+04  0.50400001928E-02 0.  1.
       -1   -1    0    0    0  501  0.00000000000E+00  0.00000000000E+00 -0.38482701550E+02  0.38482701880E+02  0.50400001928E-02 0. -1.
    10030    2    1    2    0    0  0.00000000000E+00  0.00000000000E+00  0.36057862719E+04  0.36827516753E+04  0.74897614351E+03 0.  0.
        5    1    3    3  502    0 -0.20799584021E+03  0.25313315364E+03  0.91128489732E+03  0.96840121700E+03  0.46999998093E+01 0. -1.
       -5    1    3    3    0  502  0.20799584021E+03 -0.25313315364E+03  0.26945013746E+04  0.27143504583E+04  0.46999998093E+01 0.  1.
</event>
<event>
 5   0  0.3772254E-03  0.1197765E+04  0.7818609E-02  0.9114815E-01
       -1   -1    0    0    0  501  0.00000000000E+00  0.00000000000E+00  0.14889670138E+03  0.14889670146E+03  0.50400001928E-02 0. -1.
        1   -1    0    0  501    0  0.00000000000E+00  0.00000000000E+00 -0.24087859900E+04  0.24087859900E+04  0.50400001928E-02 0.  1.
    10030    2    1    2    0    0  0.00000000000E+00  0.00000000000E+00 -0.22598892887E+04  0.25576826915E+04  0.11977650660E+04 0.  0.
        3    1    3    3  502    0  0.80178491206E+02 -0.22028851369E+03 -0.23067394667E+04  0.23186208395E+04  0.10100000352E+00 0.  1.
       -3    1    3    3    0  502 -0.80178491206E+02  0.22028851369E+03  0.46850178052E+02  0.23906185204E+03  0.10100000352E+00 0. -1.
</event>
<event>
 5   0  0.3944074E-03  0.1200343E+04  0.7818609E-02  0.9112556E-01
        1   -1    0    0  501    0  0.00000000000E+00  0.00000000000E+00  0.14304612660E+04  0.14304612661E+04  0.50400001928E-02 0.  1.
       -1   -1    0    0    0  501  0.00000000000E+00  0.00000000000E+00 -0.25181098760E+03  0.25181098765E+03  0.50400001928E-02 0. -1.
    10030    2    1    2    0    0  0.00000000000E+00  0.00000000000E+00  0.11786502784E+04  0.16822722537E+04  0.12003430579E+04 0.  0.
        4    1    3    3  502    0 -0.57689940776E+02  0.31610217609E+03 -0.12110256086E+03  0.34338922252E+03  0.12699999809E+01 0. -1.
       -4    1    3    3    0  502  0.57689940776E+02 -0.31610217609E+03  0.12997528393E+04  0.13388830312E+04  0.12699999809E+01 0.  1.
</event>
<event>
 5   0  0.3731281E-03  0.1199540E+04  0.7818609E-02  0.9113259E-01
        1   -1    0    0  501    0  0.00000000000E+00  0.00000000000E+00  0.23130227949E+04  0.23130227949E+04  0.50400001928E-02 0.  1.
       -1   -1    0    0    0  501  0.00000000000E+00  0.00000000000E+00 -0.15552120540E+03  0.15552120548E+03  0.50400001928E-02 0. -1.
    10030    2    1    2    0    0  0.00000000000E+00  0.00000000000E+00  0.21575015895E+04  0.24685440004E+04  0.11995400674E+04 0.  0.
        5    1    3    3  502    0  0.23415369421E+03  0.41340560251E+03  0.32551723193E+03  0.57594765646E+03  0.46999998093E+01 0. -1.
       -5    1    3    3    0  502 -0.23415369421E+03 -0.41340560251E+03  0.18319843576E+04  0.18925963440E+04  0.46999998093E+01 0.  1.
</event>
<event>
 5   0  0.3944074E-03  0.1191357E+04  0.7818609E-02  0.9120456E-01
       -1   -1    0    0    0  501  0.00000000000E+00  0.00000000000E+00  0.54773107412E+03  0.54773107414E+03  0.50400001928E-02 0.  1.
        1   -1    0    0  501    0  0.00000000000E+00  0.00000000000E+00 -0.64782270154E+03  0.64782270156E+03  0.50400001928E-02 0. -1.
    10030    2    1    2    0    0  0.00000000000E+00  0.00000000000E+00 -0.10009162743E+03  0.11955537757E+04  0.11913565783E+04 0.  0.
        4    1    3    3  502    0  0.15506986293E+02  0.48970079102E+03  0.28994518571E+03  0.56931287968E+03  0.12699999809E+01 0.  1.
       -4    1    3    3    0  502 -0.15506986293E+02 -0.48970079102E+03 -0.39003681314E+03  0.62624089602E+03  0.12699999809E+01 0. -1.
</event>
<event>
 5   0  0.6349142E-03  0.1296902E+04  0.7818609E-02  0.9032025E-01
        2   -1    0    0  501    0  0.00000000000E+00  0.00000000000E+00  0.11540111995E+04  0.11540111995E+04  0.25500000920E-02 0. -1.
       -2   -1    0    0    0  501  0.00000000000E+00  0.00000000000E+00 -0.36437155530E+03  0.36437155530E+03  0.25500000920E-02 0.  1.
    10030    2    1    2    0    0  0.00000000000E+00  0.00000000000E+00  0.78963964423E+03  0.15183827548E+04  0.12969022409E+04 0.  0.
        1    1    3    3  502    0  0.51370017449E+03 -0.56174856652E+02 -0.63797990707E+02  0.52068576649E+03  0.50400001928E-02 0. -1.
       -1    1    3    3    0  502 -0.51370017449E+03  0.56174856652E+02  0.85343763493E+03  0.99769698833E+03  0.50400001928E-02 0.  1.
</event>
<event>
 5   0  0.3944074E-03  0.1216834E+04  0.7818609E-02  0.9098248E-01
       -1   -1    0    0    0  501  0.00000000000E+00  0.00000000000E+00  0.89180186523E+03  0.89180186524E+03  0.50400001928E-02 0.  1.
        1   -1    0    0  501    0  0.00000000000E+00  0.00000000000E+00 -0.41508250723E+03  0.41508250726E+03  0.50400001928E-02 0. -1.
    10030    2    1    2    0    0  0.00000000000E+00  0.00000000000E+00  0.47671935799E+03  0.13068843725E+04  0.12168341780E+04 0.  0.
        4    1    3    3  502    0 -0.41880436961E+03  0.15615567902E+03 -0.20496848826E+03  0.49172694677E+03  0.12699999809E+01 0. -1.
       -4    1    3    3    0  502  0.41880436961E+03 -0.15615567902E+03  0.68168784625E+03  0.81515742573E+03  0.12699999809E+01 0.  1.
</event>
<event>
 5   0  0.6493047E-03  0.1213925E+04  0.7818609E-02  0.9100755E-01
       -2   -1    0    0    0  501  0.00000000000E+00  0.00000000000E+00  0.13072638094E+04  0.13072638094E+04  0.25500000920E-02 0.  1.
        2   -1    0    0  501    0  0.00000000000E+00  0.00000000000E+00 -0.28181242893E+03  0.28181242894E+03  0.25500000920E-02 0. -1.
    10030    2    1    2    0    0  0.00000000000E+00  0.00000000000E+00  0.10254513805E+04  0.15890762384E+04  0.12139245271E+04 0.  0.
        3    1    3    3  502    0 -0.23710973037E+03 -0.47983646162E+01 -0.21865092217E+03  0.32257136343E+03  0.10100000352E+00 0. -1.
       -3    1    3    3    0  502  0.23710973037E+03  0.47983646162E+01  0.12441023027E+04  0.12665048749E+04  0.10100000352E+00 0.  1.
</event>
<event>
 5   0  0.6658994E-03  0.1235579E+04  0.7818609E-02  0.9082272E-01
       -2   -1    0    0    0  501  0.00000000000E+00  0.00000000000E+00  0.32951725441E+03  0.32951725442E+03  0.25500000920E-02 0.  1.
        2   -1    0    0  501    0  0.00000000000E+00  0.00000000000E+00 -0.11582518394E+04  0.11582518394E+04  0.25500000920E-02 0. -1.
    10030    2    1    2    0    0  0.00000000000E+00  0.00000000000E+00 -0.82873458503E+03  0.14877690939E+04  0.12355791615E+04 0.  0.
        4    1    3    3  502    0 -0.26976994199E+03  0.53708797459E+03 -0.58644521023E+03  0.83973740631E+03  0.12699999809E+01 0. -1.
       -4    1    3    3    0  502  0.26976994199E+03 -0.53708797459E+03 -0.24228937480E+03  0.64803168756E+03  0.12699999809E+01 0.  1.
</event>
<event>
 5   0  0.3944074E-03  0.1206427E+04  0.7818609E-02  0.9107249E-01
       -1   -1    0    0    0  501  0.00000000000E+00  0.00000000000E+00  0.50429917466E+03  0.50429917468E+03  0.50400001928E-02 0.  1.
        1   -1    0    0  501    0  0.00000000000E+00  0.00000000000E+00 -0.72152947294E+03  0.72152947296E+03  0.50400001928E-02 0. -1.
    10030    2    1    2    0    0  0.00000000000E+00  0.00000000000E+00 -0.21723029829E+03  0.12258286476E+04  0.12064273169E+04 0.  0.
        4    1    3    3  502    0  0.51234114487E+03 -0.70512902210E+02 -0.42409105085E+03  0.66882011813E+03  0.12699999809E+01 0. -1.
       -4    1    3    3    0  502 -0.51234114487E+03  0.70512902210E+02  0.20686075256E+03  0.55700852952E+03  0.12699999809E+01 0.  1.
</event>
<event>
 5   0  0.3701879E-03  0.1228354E+04  0.7818609E-02  0.9088394E-01
       -1   -1    0    0    0  501  0.00000000000E+00  0.00000000000E+00  0.47008305188E+03  0.47008305191E+03  0.50400001928E-02 0. -1.
        1   -1    0    0  501    0  0.00000000000E+00  0.00000000000E+00 -0.80243956401E+03  0.80243956402E+03  0.50400001928E-02 0.  1.
    10030    2    1    2    0    0  0.00000000000E+00  0.00000000000E+00 -0.33235651212E+03  0.12725226159E+04  0.12283537589E+04 0.  0.
        1    1    3    3  502    0  0.51030053759E+02  0.25481255838E+03 -0.74267710209E+03  0.78683084859E+03  0.50400001928E-02 0.  1.
       -1    1    3    3    0  502 -0.51030053759E+02 -0.25481255838E+03  0.41032058997E+03  0.48569176735E+03  0.50400001928E-02 0. -1.
</event>
<event>
 5   0  0.6585930E-03  0.1061230E+04  0.7818609E-02  0.9243826E-01
        2   -1    0    0  501    0  0.00000000000E+00  0.00000000000E+00  0.48169428365E+03  0.48169428366E+03  0.25500000920E-02 0. -1.
       -2   -1    0    0    0  501  0.00000000000E+00  0.00000000000E+00 -0.58450420572E+03  0.58450420572E+03  0.25500000920E-02 0.  1.
    10030    2    1    2    0    0  0.00000000000E+00  0.00000000000E+00 -0.10280992207E+03  0.10661984894E+04  0.10612301064E+04 0.  0.
        2    1    3    3  502    0 -0.86062589913E+02  0.28868125936E+03 -0.49026656117E+03  0.57541718770E+03  0.25500000920E-02 0.  1.
       -2    1    3    3    0  502  0.86062589913E+02 -0.28868125936E+03  0.38745663911E+03  0.49078130168E+03  0.25500000920E-02 0. -1.
</event>
<event>
 5   0  0.6493047E-03  0.1235314E+04  0.7818609E-02  0.9082495E-01
        2   -1    0    0  501    0  0.00000000000E+00  0.00000000000E+00  0.54621870452E+03  0.54621870452E+03  0.25500000920E-02 0.  1.
       -2   -1    0    0    0  501  0.00000000000E+00  0.00000000000E+00 -0.69843883854E+03  0.69843883854E+03  0.25500000920E-02 0. -1.
    10030    2    1    2    0    0  0.00000000000E+00  0.00000000000E+00 -0.15222013402E+03  0.12446575431E+04  0.12353143043E+04 0.  0.
        3    1    3    3  502    0  0.26469903162E+03 -0.41719745075E+03  0.29734282937E+03  0.57665592742E+03  0.10100000352E+00 0.  1.
       -3    1    3    3    0  502 -0.26469903162E+03  0.41719745075E+03 -0.44956296339E+03  0.66800161565E+03  0.10100000352E+00 0. -1.
</event>
<event>
 5   0  0.3944074E-03  0.1045467E+04  0.7818609E-02  0.9260036E-01
       -1   -1    0    0    0  501  0.00000000000E+00  0.00000000000E+00  0.44858179886E+03  0.44858179889E+03  0.50400001928E-02 0.  1.
        1   -1    0    0  501    0  0.00000000000E+00  0.00000000000E+00 -0.60914289367E+03  0.60914289369E+03  0.50400001928E-02 0. -1.
    10030    2    1    2    0    0  0.00000000000E+00  0.00000000000E+00 -0.16056109481E+03  0.10577246926E+04  0.10454671971E+04 0.  0.
        4    1    3    3  502    0  0.45760358507E+03  0.20416991899E+03  0.70335302962E+02  0.50599907572E+03  0.12699999809E+01 0.  1.
       -4    1    3    3    0  502 -0.45760358507E+03 -0.20416991899E+03 -0.23089639777E+03  0.55172561685E+03  0.12699999809E+01 0. -1.
</event>
<event>
 5   0  0.3648616E-03  0.1237498E+04  0.7818609E-02  0.9080653E-01
        1   -1    0    0  501    0  0.00000000000E+00  0.00000000000E+00  0.28973377454E+04  0.28973377454E+04  0.50400001928E-02 0. -1.
       -1   -1    0    0    0  501  0.00000000000E+00  0.00000000000E+00 -0.13213871494E+03  0.13213871503E+03  0.50400001928E-02 0.  1.
    10030    2    1    2    0    0  0.00000000000E+00  0.00000000000E+00  0.27651990304E+04  0.30294764604E+04  0.12374982611E+04 0.  0.
        2    1    3    3  502    0 -0.25216228642E+02 -0.61729998826E+03  0.12993885982E+04  0.14387862464E+04  0.25500000920E-02 0. -1.
       -2    1    3    3    0  502  0.25216228642E+02  0.61729998826E+03  0.14658104322E+04  0.15906902140E+04  0.25500000920E-02 0.  1.
</event>
<event>
 5   0  0.3701879E-03  0.1188572E+04  0.7818609E-02  0.9122919E-01
        1   -1    0    0  501    0  0.00000000000E+00  0.00000000000E+00  0.86020959568E+03  0.86020959570E+03  0.50400001928E-02 0. -1.
       -1   -1    0    0    0  501  0.00000000000E+00  0.00000000000E+00 -0.41056924776E+03  0.41056924779E+03  0.50400001928E-02 0.  1.
    10030    2    1    2    0    0  0.00000000000E+00  0.00000000000E+00  0.44964034792E+03  0.12707788435E+04  0.11885715908E+04 0.  0.
        1    1    3    3  502    0  0.12675959168E+03  0.52040808937E+03  0.50008189244E+03  0.73278542066E+03  0.50400001928E-02 0. -1.
       -1    1    3    3    0  502 -0.12675959168E+03 -0.52040808937E+03 -0.50441544516E+02  0.53799342282E+03  0.50400001928E-02 0.  1.
</event>
<event>
 5   0  0.6585930E-03  0.1177992E+04  0.7818609E-02  0.9132342E-01
        2   -1    0    0  501    0  0.00000000000E+00  0.00000000000E+00  0.13498555057E+04  0.13498555057E+04  0.25500000920E-02 0.  1.
       -2   -1    0    0    0  501  0.00000000000E+00  0.00000000000E+00 -0.25700235313E+03  0.25700235315E+03  0.25500000920E-02 0. -1.
    10030    2    1    2    0    0  0.00000000000E+00  0.00000000000E+00  0.10928531526E+04  0.16068578589E+04  0.11779915813E+04 0.  0.
        2    1    3    3  502    0 -0.17235245353E+03 -0.49436955780E+03  0.91449540634E+03  0.10537592117E+04  0.25500000920E-02 0.  1.
       -2    1    3    3    0  502  0.17235245353E+03  0.49436955780E+03  0.17835774627E+03  0.55309864724E+03  0.25500000920E-02 0. -1.
</event>
<event>
 5   0  0.3731281E-03  0.1170082E+04  0.7818609E-02  0.9139454E-01
        1   -1    0    0  501    0  0.00000000000E+00  0.00000000000E+00  0.40898265434E+03  0.40898265437E+03  0.50400001928E-02 0. -1.
       -1   -1    0    0    0  501  0.00000000000E+00  0.00000000000E+00 -0.83688888673E+03  0.83688888675E+03  0.50400001928E-02 0.  1.
    10030    2    1    2    0    0  0.00000000000E+00  0.00000000000E+00 -0.42790623239E+03  0.12458715411E+04  0.11700821139E+04 0.  0.
        5    1    3    3  502    0 -0.15252001778E+02 -0.35089908108E+03  0.28420597428E+03  0.45183837207E+03  0.46999998093E+01 0. -1.
       -5    1    3    3    0  502  0.15252001778E+02  0.35089908108E+03 -0.71211220667E+03  0.79403316905E+03  0.46999998093E+01 0.  1.
</event>
<event>
 5   0  0.3772254E-03  0.1213173E+04  0.7818609E-02  0.9101403E-01
       -1   -1    0    0    0  501  0.00000000000E+00  0.00000000000E+00  0.31163388731E+03  0.31163388735E+03  0.50400001928E-02 0. -1.
        1   -1    0    0  501    0  0.00000000000E+00  0.00000000000E+00 -0.11807039560E+04  0.11807039560E+04  0.50400001928E-02 0.  1.
    10030    2    1    2    0    0  0.00000000000E+00  0.00000000000E+00 -0.86907006868E+03  0.14923378434E+04  0.12131732994E+04 0.  0.
        3    1    3    3  502    0 -0.22883700553E+02  0.60615278927E+03 -0.43647444885E+03  0.74729834898E+03  0.10100000352E+00 0. -1.
       -3    1    3    3    0  502  0.22883700553E+02 -0.60615278927E+03 -0.43259561983E+03  0.74503949438E+03  0.10100000352E+00 0.  1.
</event>
<event>
 5   0  0.6493047E-03  0.1112573E+04  0.7818609E-02  0.9193024E-01
       -2   -1    0    0    0  501  0.00000000000E+00  0.00000000000E+00  0.80867884729E+03  0.80867884729E+03  0.25500000920E-02 0. -1.
        2   -1    0    0  501    0  0.00000000000E+00  0.00000000000E+00 -0.38266673824E+03  0.38266673825E+03  0.25500000920E-02 0.  1.
    10030    2    1    2    0    0  0.00000000000E+00  0.00000000000E+00  0.42601210904E+03  0.11913455855E+04  0.11125726885E+04 0.  0.
        3    1    3    3  502    0 -0.17293903807E+03  0.27808157435E+03  0.69453059593E+03  0.76786068513E+03  0.10100000352E+00 0. -1.
       -3    1    3    3    0  502  0.17293903807E+03 -0.27808157435E+03 -0.26851848688E+03  0.42348490042E+03  0.10100000352E+00 0.  1.
</event>
<event>
 5   0  0.6493047E-03  0.7277694E+03  0.7818609E-02  0.9670887E-01
       -2   -1    0    0    0  501  0.00000000000E+00  0.00000000000E+00  0.35255143715E+03  0.35255143716E+03  0.25500000920E-02 0.  1.
        2   -1    0    0  501    0  0.00000000000E+00  0.00000000000E+00 -0.37558231455E+03  0.37558231456E+03  0.25500000920E-02 0. -1.
    10030    2    1    2    0    0  0.00000000000E+00  0.00000000000E+00 -0.23030877407E+02  0.72813375172E+03  0.72776942714E+03 0.  0.
        3    1    3    3  502    0 -0.16357238510E+03 -0.30496728136E+03 -0.12404888383E+03  0.36762630978E+03  0.10100000352E+00 0. -1.
       -3    1    3    3    0  502  0.16357238510E+03  0.30496728136E+03  0.10101800642E+03  0.36050744193E+03  0.10100000352E+00 0.  1.
</event>
<event>
 5   0  0.3701879E-03  0.1205100E+04  0.7818609E-02  0.9108404E-01
        1   -1    0    0  501    0  0.00000000000E+00  0.00000000000E+00  0.35030269495E+03  0.35030269498E+03  0.50400001928E-02 0. -1.
       -1   -1    0    0    0  501  0.00000000000E+00  0.00000000000E+00 -0.10364370815E+04  0.10364370815E+04  0.50400001928E-02 0.  1.
    10030    2    1    2    0    0  0.00000000000E+00  0.00000000000E+00 -0.68613438651E+03  0.13867397765E+04  0.12051003324E+04 0.  0.
        1    1    3    3  502    0  0.15865433316E+03 -0.40267928396E+03  0.13933928522E+03  0.45468366982E+03  0.50400001928E-02 0. -1.
       -1    1    3    3    0  502 -0.15865433316E+03  0.40267928396E+03 -0.82547367174E+03  0.93205610664E+03  0.50400001928E-02 0.  1.
</event>
<event>
 5   0  0.6349142E-03  0.1191862E+04  0.7818609E-02  0.9120010E-01
        2   -1    0    0  501    0  0.00000000000E+00  0.00000000000E+00  0.11512971687E+04  0.11512971687E+04  0.25500000920E-02 0.  1.
       -2   -1    0    0    0  501  0.00000000000E+00  0.00000000000E+00 -0.30846398140E+03  0.30846398141E+03  0.25500000920E-02 0. -1.
    10030    2    1    2    0    0  0.00000000000E+00  0.00000000000E+00  0.84283318730E+03  0.14597611501E+04  0.11918619189E+04 0.  0.
        1    1    3    3  502    0 -0.58448350661E+02 -0.41429510314E+03 -0.98322112138E+02  0.42979516045E+03  0.50400001928E-02 0. -1.
       -1    1    3    3    0  502  0.58448350661E+02  0.41429510314E+03  0.94115529944E+03  0.10299659897E+04  0.50400001928E-02 0.  1.
</event>
<event>
 5   0  0.3648616E-03  0.9621227E+03  0.7818609E-02  0.9351092E-01
        1   -1    0    0  501    0  0.00000000000E+00  0.00000000000E+00  0.24220081804E+03  0.24220081809E+03  0.50400001928E-02 0. -1.
       -1   -1    0    0    0  501  0.00000000000E+00  0.00000000000E+00 -0.95548820303E+03  0.95548820304E+03  0.50400001928E-02 0.  1.
    10030    2    1    2    0    0  0.00000000000E+00  0.00000000000E+00 -0.71328738498E+03  0.11976890211E+04  0.96212270411E+03 0.  0.
        2    1    3    3  502    0  0.30055764800E+03  0.34227485381E+03 -0.54922433056E+03  0.71353650265E+03  0.25500000920E-02 0.  1.
       -2    1    3    3    0  502 -0.30055764800E+03 -0.34227485381E+03 -0.16406305443E+03  0.48415251849E+03  0.25500000920E-02 0. -1.
</event>
<event>
 5   0  0.3701879E-03  0.1190024E+04  0.7818609E-02  0.9121634E-01
       -1   -1    0    0    0  501  0.00000000000E+00  0.00000000000E+00  0.32045270349E+03  0.32045270353E+03  0.50400001928E-02 0.  1.
        1   -1    0    0  501    0  0.00000000000E+00  0.00000000000E+00 -0.11048091132E+04  0.11048091132E+04  0.50400001928E-02 0. -1.
    10030    2    1    2    0    0  0.00000000000E+00  0.00000000000E+00 -0.78435640973E+03  0.14252618168E+04  0.11900236421E+04 0.  0.
        1    1    3    3  502    0  0.12057922614E+03 -0.24003219351E+03 -0.10280571961E+04  0.10625706575E+04  0.50400001928E-02 0. -1.
       -1    1    3    3    0  502 -0.12057922614E+03  0.24003219351E+03  0.24370078637E+03  0.36269115925E+03  0.50400001928E-02 0.  1.
</event>
<event>
 5   0  0.2537625E-03  0.1197749E+04  0.7818609E-02  0.9114829E-01
       -4   -1    0    0    0  501  0.00000000000E+00  0.00000000000E+00  0.12667412285E+04  0.12667418652E+04  0.12699999809E+01 0.  1.
        4   -1    0    0  501    0  0.00000000000E+00  0.00000000000E+00 -0.28312647849E+03  0.28312932684E+03  0.12699999809E+01 0. -1.
    10030    2    1    2    0    0  0.00000000000E+00  0.00000000000E+00  0.98361475005E+03  0.15498711920E+04  0.11977490285E+04 0.  0.
        2    1    3    3  502    0  0.90781875188E+02  0.26296327252E+03 -0.19444442472E+03  0.33941076275E+03  0.25500000920E-02 0. -1.
       -2    1    3    3    0  502 -0.90781875188E+02 -0.26296327252E+03  0.11780591748E+04  0.12104604293E+04  0.25500000920E-02 0.  1.
</event>
<event>
 5   0  0.6349142E-03  0.1288539E+04  0.7818609E-02  0.9038704E-01
       -2   -1    0    0    0  501  0.00000000000E+00  0.00000000000E+00  0.31624648172E+03  0.31624648173E+03  0.25500000920E-02 0. -1.
        2   -1    0    0  501    0  0.00000000000E+00  0.00000000000E+00 -0.13125296958E+04  0.13125296958E+04  0.25500000920E-02 0.  1.
    10030    2    1    2    0    0  0.00000000000E+00  0.00000000000E+00 -0.99628321410E+03  0.16287761775E+04  0.12885385496E+04 0.  0.
        1    1    3    3  502    0 -0.63564643393E+03 -0.98297085171E+02 -0.54500004226E+03  0.84305026660E+03  0.50400001928E-02 0.  1.
       -1    1    3    3    0  502  0.63564643393E+03  0.98297085171E+02 -0.45128317184E+03  0.78572591095E+03  0.50400001928E-02 0. -1.
</event>
<event>
 5   0  0.3648616E-03  0.1205957E+04  0.7818609E-02  0.9107658E-01
        1   -1    0    0  501    0  0.00000000000E+00  0.00000000000E+00  0.64481074850E+03  0.64481074852E+03  0.50400001928E-02 0.  1.
       -1   -1    0    0    0  501  0.00000000000E+00  0.00000000000E+00 -0.56386019020E+03  0.56386019022E+03  0.50400001928E-02 0. -1.
    10030    2    1    2    0    0  0.00000000000E+00  0.00000000000E+00  0.80950558302E+02  0.12086709387E+04  0.12059570661E+04 0.  0.
        2    1    3    3  502    0  0.40958585531E+03  0.41918260365E+03  0.18259877791E+03  0.61385416979E+03  0.25500000920E-02 0. -1.
       -2    1    3    3    0  502 -0.40958585531E+03 -0.41918260365E+03 -0.10164821961E+03  0.59481676895E+03  0.25500000920E-02 0.  1.
</event>
<event>
 5   0  0.3648616E-03  0.1216461E+04  0.7818609E-02  0.9098569E-01
        1   -1    0    0  501    0  0.00000000000E+00  0.00000000000E+00  0.41161088615E+03  0.41161088618E+03  0.50400001928E-02 0.  1.
       -1   -1    0    0    0  501  0.00000000000E+00  0.00000000000E+00 -0.89877132067E+03  0.89877132068E+03  0.50400001928E-02 0. -1.
    10030    2    1    2    0    0  0.00000000000E+00  0.00000000000E+00 -0.48716043452E+03  0.13103822069E+04  0.12164605374E+04 0.  0.
        2    1    3    3  502    0 -0.95083480016E+02 -0.29267215844E+03  0.32156574353E+03  0.44508694422E+03  0.25500000920E-02 0.  1.
       -2    1    3    3    0  502  0.95083480016E+02  0.29267215844E+03 -0.80872617805E+03  0.86529526265E+03  0.25500000920E-02 0. -1.
</event>
<event>
 5   0  0.6585930E-03  0.1189444E+04  0.7818609E-02  0.9122146E-01
        2   -1    0    0  501    0  0.00000000000E+00  0.00000000000E+00  0.13470217518E+04  0.13470217518E+04  0.25500000920E-02 0. -1.
       -2   -1    0    0    0  501  0.00000000000E+00  0.00000000000E+00 -0.26257522525E+03  0.26257522526E+03  0.25500000920E-02 0.  1.
    10030    2    1    2    0    0  0.00000000000E+00  0.00000000000E+00  0.10844465265E+04  0.16095969770E+04  0.11894444752E+04 0.  0.
        2    1    3    3  502    0  0.21757937701E+03 -0.28710777960E+03  0.11825803313E+04  0.12362313304E+04  0.25500000920E-02 0. -1.
       -2    1    3    3    0  502 -0.21757937701E+03  0.28710777960E+03 -0.98133804777E+02  0.37336564659E+03  0.25500000920E-02 0.  1.
</event>
<event>
 5   0  0.2537625E-03  0.8390108E+03  0.7818609E-02  0.9505206E-01
       -3   -1    0    0    0  501  0.00000000000E+00  0.00000000000E+00  0.82728240746E+03  0.82728241362E+03  0.10100000352E+00 0.  1.
        3   -1    0    0  501    0  0.00000000000E+00  0.00000000000E+00 -0.21272637079E+03  0.21272639477E+03  0.10100000352E+00 0. -1.
    10030    2    1    2    0    0  0.00000000000E+00  0.00000000000E+00  0.61455603666E+03  0.10400088084E+04  0.83901084578E+03 0.  0.
        1    1    3    3  502    0 -0.10150833454E+03  0.83950716032E+01  0.81172231975E+03  0.81808773589E+03  0.50400001928E-02 0.  1.
       -1    1    3    3    0  502  0.10150833454E+03 -0.83950716032E+01 -0.19716628309E+03  0.22192107250E+03  0.50400001928E-02 0. -1.
</event>
<event>
 5   0  0.3772254E-03  0.1243704E+04  0.7818609E-02  0.9075439E-01
        1   -1    0    0  501    0  0.00000000000E+00  0.00000000000E+00  0.94699080023E+03  0.94699080024E+03  0.50400001928E-02 0.  1.
       -1   -1    0    0    0  501  0.00000000000E+00  0.00000000000E+00 -0.40834624070E+03  0.40834624073E+03  0.50400001928E-02 0. -1.
    10030    2    1    2    0    0  0.00000000000E+00  0.00000000000E+00  0.53864455953E+03  0.13553370410E+04  0.12437043592E+04 0.  0.
        3    1    3    3  502    0  0.44436388288E+03 -0.36620588892E+03  0.52520463158E+03  0.77936251432E+03  0.10100000352E+00 0.  1.
       -3    1    3    3    0  502 -0.44436388288E+03  0.36620588892E+03  0.13439927950E+02  0.57597452665E+03  0.10100000352E+00 0. -1.
</event>
<event>
 5   0  0.6640844E-03  0.1223819E+04  0.7818609E-02  0.9092260E-01
        2   -1    0    0  501    0  0.00000000000E+00  0.00000000000E+00  0.16433753575E+04  0.16433753575E+04  0.25500000920E-02 0. -1.
       -2   -1    0    0    0  501  0.00000000000E+00  0.00000000000E+00 -0.22784383609E+03  0.22784383610E+03  0.25500000920E-02 0.  1.
    10030    2    1    2    0    0  0.00000000000E+00  0.00000000000E+00  0.14155315214E+04  0.18712191936E+04  0.12238185251E+04 0.  0.
        5    1    3    3  502    0  0.41518275786E+03 -0.43790705523E+03  0.55280365495E+03  0.81838455653E+03  0.46999998093E+01 0.  1.
       -5    1    3    3    0  502 -0.41518275786E+03  0.43790705523E+03  0.86272786645E+03  0.10528346371E+04  0.46999998093E+01 0. -1.
</event>
<event>
 5   0  0.3772254E-03  0.1131115E+04  0.7818609E-02  0.9175385E-01
       -1   -1    0    0    0  501  0.00000000000E+00  0.00000000000E+00  0.14367437691E+03  0.14367437700E+03  0.50400001928E-02 0. -1.
        1   -1    0    0  501    0  0.00000000000E+00  0.00000000000E+00 -0.22262499618E+04  0.22262499618E+04  0.50400001928E-02 0.  1.
    10030    2    1    2    0    0  0.00000000000E+00  0.00000000000E+00 -0.20825755849E+04  0.23699243388E+04  0.11311146294E+04 0.  0.
        3    1    3    3  502    0 -0.53150614524E+03  0.17716039322E+03 -0.87939316492E+03  0.10426969531E+04  0.10100000352E+00 0. -1.
       -3    1    3    3    0  502  0.53150614524E+03 -0.17716039322E+03 -0.12031824200E+04  0.13272273857E+04  0.10100000352E+00 0.  1.
</event>
<event>
 5   0  0.6585930E-03  0.1290231E+04  0.7818609E-02  0.9037348E-01
       -2   -1    0    0    0  501  0.00000000000E+00  0.00000000000E+00  0.24190455913E+03  0.24190455915E+03  0.25500000920E-02 0.  1.
        2   -1    0    0  501    0  0.00000000000E+00  0.00000000000E+00 -0.17204064665E+04  0.17204064665E+04  0.25500000920E-02 0. -1.
    10030    2    1    2    0    0  0.00000000000E+00  0.00000000000E+00 -0.14785019074E+04  0.19623110257E+04  0.12902312472E+04 0.  0.
        2    1    3    3  502    0 -0.51260981000E+03  0.32379948412E+03 -0.10743986585E+04  0.12336723230E+04  0.25500000920E-02 0. -1.
       -2    1    3    3    0  502  0.51260981000E+03 -0.32379948412E+03 -0.40410324892E+03  0.72863870267E+03  0.25500000920E-02 0.  1.
</event>
<event>
 5   0  0.6585930E-03  0.6020287E+03  0.7818609E-02  0.9901206E-01
        2   -1    0    0  501    0  0.00000000000E+00  0.00000000000E+00  0.71992776464E+03  0.71992776464E+03  0.25500000920E-02 0.  1.
       -2   -1    0    0    0  501  0.00000000000E+00  0.00000000000E+00 -0.12585932875E+03  0.12585932878E+03  0.25500000920E-02 0. -1.
    10030    2    1    2    0    0  0.00000000000E+00  0.00000000000E+00  0.59406843589E+03  0.84578709342E+03  0.60202865454E+03 0.  0.
        2    1    3    3  502    0  0.22523911578E+03 -0.99364447527E+02  0.53684358853E+02  0.25196817875E+03  0.25500000920E-02 0. -1.
       -2    1    3    3    0  502 -0.22523911578E+03  0.99364447527E+02  0.54038407703E+03  0.59381891467E+03  0.25500000920E-02 0.  1.
</event>
<event>
 5   0  0.3701879E-03  0.1081144E+04  0.7818609E-02  0.9223768E-01
       -1   -1    0    0    0  501  0.00000000000E+00  0.00000000000E+00  0.10068253656E+04  0.10068253656E+04  0.50400001928E-02 0.  1.
        1   -1    0    0  501    0  0.00000000000E+00  0.00000000000E+00 -0.29023688948E+03  0.29023688952E+03  0.50400001928E-02 0. -1.
    10030    2    1    2    0    0  0.00000000000E+00  0.00000000000E+00  0.71658847615E+03  0.12970622552E+04  0.10811435842E+04 0.  0.
        1    1    3    3  502    0 -0.40451849023E+03  0.32089348694E+03  0.16630254682E+03  0.54246140508E+03  0.50400001928E-02 0. -1.
       -1    1    3    3    0  502  0.40451849023E+03 -0.32089348694E+03  0.55028592933E+03  0.75460085008E+03  0.50400001928E-02 0.  1.
</event>
<event>
 5   0  0.6493047E-03  0.1194707E+04  0.7818609E-02  0.9117502E-01
        2   -1    0    0  501    0  0.00000000000E+00  0.00000000000E+00  0.27594616779E+04  0.27594616779E+04  0.25500000920E-02 0. -1.
       -2   -1    0    0    0  501  0.00000000000E+00  0.00000000000E+00 -0.12931192017E+03  0.12931192020E+03  0.25500000920E-02 0.  1.
    10030    2    1    2    0    0  0.00000000000E+00  0.00000000000E+00  0.26301497577E+04  0.28887735981E+04  0.11947071411E+04 0.  0.
        3    1    3    3  502    0  0.19376981160E+03 -0.39617940413E+03  0.34087818999E+03  0.55740722166E+03  0.10100000352E+00 0. -1.
       -3    1    3    3    0  502 -0.19376981160E+03  0.39617940413E+03  0.22892715677E+04  0.23313663764E+04  0.10100000352E+00 0.  1.
</event>
<event>
 5   0  0.6585930E-03  0.1208070E+04  0.7818609E-02  0.9105822E-01
        2   -1    0    0  501    0  0.00000000000E+00  0.00000000000E+00  0.10042077423E+04  0.10042077423E+04  0.25500000920E-02 0.  1.
       -2   -1    0    0    0  501  0.00000000000E+00  0.00000000000E+00 -0.36332976856E+03  0.36332976857E+03  0.25500000920E-02 0. -1.
    10030    2    1    2    0    0  0.00000000000E+00  0.00000000000E+00  0.64087797378E+03  0.13675375109E+04  0.12080704725E+04 0.  0.
        2    1    3    3  502    0  0.43097866275E+03 -0.32825314495E+03  0.18031775159E+02  0.54204970237E+03  0.25500000920E-02 0. -1.
       -2    1    3    3    0  502 -0.43097866275E+03  0.32825314495E+03  0.62284619862E+03  0.82548780855E+03  0.25500000920E-02 0.  1.
</event>
<event>
 5   0  0.3772254E-03  0.1198412E+04  0.7818609E-02  0.9114247E-01
       -1   -1    0    0    0  501  0.00000000000E+00  0.00000000000E+00  0.34581143588E+03  0.34581143592E+03  0.50400001928E-02 0.  1.
        1   -1    0    0  501    0  0.00000000000E+00  0.00000000000E+00 -0.10382767802E+04  0.10382767802E+04  0.50400001928E-02 0. -1.
    10030    2    1    2    0    0  0.00000000000E+00  0.00000000000E+00 -0.69246534427E+03  0.13840882161E+04  0.11984122566E+04 0.  0.
        3    1    3    3  502    0 -0.31922451302E+03  0.35152612845E+03 -0.76833424974E+03  0.90322336010E+03  0.10100000352E+00 0. -1.
       -3    1    3    3    0  502  0.31922451302E+03 -0.35152612845E+03  0.75868905469E+02  0.48086485598E+03  0.10100000352E+00 0.  1.
</event>
<event>
 5   0  0.3772254E-03  0.1214352E+04  0.7818609E-02  0.9100386E-01
       -1   -1    0    0    0  501  0.00000000000E+00  0.00000000000E+00  0.96128983361E+03  0.96128983362E+03  0.50400001928E-02 0.  1.
        1   -1    0    0  501    0  0.00000000000E+00  0.00000000000E+00 -0.38350842679E+03  0.38350842682E+03  0.50400001928E-02 0. -1.
    10030    2    1    2    0    0  0.00000000000E+00  0.00000000000E+00  0.57778140682E+03  0.13447982604E+04  0.12143520936E+04 0.  0.
        3    1    3    3  502    0  0.50277501913E+03 -0.19389018066E+03  0.59874411560E+03  0.80552507607E+03  0.10100000352E+00 0.  1.
       -3    1    3    3    0  502 -0.50277501913E+03  0.19389018066E+03 -0.20962708779E+02  0.53927318437E+03  0.10100000352E+00 0. -1.
</event>
<event>
 5   0  0.3944074E-03  0.1200236E+04  0.7818609E-02  0.9112650E-01
        1   -1    0    0  501    0  0.00000000000E+00  0.00000000000E+00  0.43409515570E+03  0.43409515573E+03  0.50400001928E-02 0. -1.
       -1   -1    0    0    0  501  0.00000000000E+00  0.00000000000E+00 -0.82963754822E+03  0.82963754824E+03  0.50400001928E-02 0.  1.
    10030    2    1    2    0    0  0.00000000000E+00  0.00000000000E+00 -0.39554239252E+03  0.12637327040E+04  0.12002360446E+04 0.  0.
        4    1    3    3  502    0 -0.18184785815E+03 -0.10136061286E+03  0.39485298879E+03  0.44637776940E+03  0.12699999809E+01 0. -1.
       -4    1    3    3    0  502  0.18184785815E+03  0.10136061286E+03 -0.79039538132E+03  0.81735493457E+03  0.12699999809E+01 0.  1.
</event>
<event>
 5   0  0.6493047E-03  0.1164892E+04  0.7818609E-02  0.9144154E-01
        2   -1    0    0  501    0  0.00000000000E+00  0.00000000000E+00  0.63485754804E+03  0.63485754805E+03  0.25500000920E-02 0. -1.
       -2   -1    0    0    0  501  0.00000000000E+00  0.00000000000E+00 -0.53436106050E+03  0.53436106051E+03  0.25500000920E-02 0.  1.
    10030    2    1    2    0    0  0.00000000000E+00  0.00000000000E+00  0.10049648754E+03  0.11692186086E+04  0.11648916733E+04 0.  0.
        3    1    3    3  502    0 -0.34085735172E+03 -0.10281141394E+03  0.51292601019E+03  0.62437730835E+03  0.10100000352E+00 0. -1.
       -3    1    3    3    0  502  0.34085735172E+03  0.10281141394E+03 -0.41242952264E+03  0.54484130020E+03  0.10100000352E+00 0.  1.
</event>
<event>
 5   0  0.6585930E-03  0.1204752E+04  0.7818609E-02  0.9108707E-01
       -2   -1    0    0    0  501  0.00000000000E+00  0.00000000000E+00  0.63316809732E+03  0.63316809733E+03  0.25500000920E-02 0.  1.
        2   -1    0    0  501    0  0.00000000000E+00  0.00000000000E+00 -0.57308120006E+03  0.57308120006E+03  0.25500000920E-02 0. -1.
    10030    2    1    2    0    0  0.00000000000E+00  0.00000000000E+00  0.60086897269E+02  0.12062492974E+04  0.12047518135E+04 0.  0.
        2    1    3    3  502    0 -0.59415317015E+03 -0.91650774222E+02  0.68023157128E+02  0.60501653195E+03  0.25500000920E-02 0.  1.
       -2    1    3    3    0  502  0.59415317015E+03  0.91650774222E+02 -0.79362598594E+01  0.60123276544E+03  0.25500000920E-02 0. -1.
</event>
<event>
 5   0  0.6658994E-03  0.1177556E+04  0.7818609E-02  0.9132732E-01
        2   -1    0    0  501    0  0.00000000000E+00  0.00000000000E+00  0.12647074634E+04  0.12647074634E+04  0.25500000920E-02 0. -1.
       -2   -1    0    0    0  501  0.00000000000E+00  0.00000000000E+00 -0.27410251208E+03  0.27410251209E+03  0.25500000920E-02 0.  1.
    10030    2    1    2    0    0  0.00000000000E+00  0.00000000000E+00  0.99060495137E+03  0.15388099755E+04  0.11775559312E+04 0.  0.
        4    1    3    3  502    0  0.70801604446E+02 -0.69067620913E+02  0.12537711200E+04  0.12576672206E+04  0.12699999809E+01 0. -1.
       -4    1    3    3    0  502 -0.70801604446E+02  0.69067620913E+02 -0.26316616864E+03  0.28114275496E+03  0.12699999809E+01 0.  1.
</event>
<event>
 5   0  0.3648616E-03  0.1210110E+04  0.7818609E-02  0.9104053E-01
        1   -1    0    0  501    0  0.00000000000E+00  0.00000000000E+00  0.57018058602E+03  0.57018058604E+03  0.50400001928E-02 0.  1.
       -1   -1    0    0    0  501  0.00000000000E+00  0.00000000000E+00 -0.64206299542E+03  0.64206299544E+03  0.50400001928E-02 0. -1.
    10030    2    1    2    0    0  0.00000000000E+00  0.00000000000E+00 -0.71882409404E+02  0.12122435815E+04  0.12101104991E+04 0.  0.
        2    1    3    3  502    0 -0.15564051300E+03 -0.47151479425E+03 -0.38229866786E+03  0.62665974973E+03  0.25500000920E-02 0. -1.
       -2    1    3    3    0  502  0.15564051300E+03  0.47151479425E+03  0.31041625846E+03  0.58558383175E+03  0.25500000920E-02 0.  1.
</event>
<event>
 5   0  0.2537625E-03  0.1203838E+04  0.7818609E-02  0.9109504E-01
        3   -1    0    0  501    0  0.00000000000E+00  0.00000000000E+00  0.53902580000E+03  0.53902580946E+03  0.10100000352E+00 0. -1.
       -3   -1    0    0    0  501  0.00000000000E+00  0.00000000000E+00 -0.67215023059E+03  0.67215023818E+03  0.10100000352E+00 0.  1.
    10030    2    1    2    0    0  0.00000000000E+00  0.00000000000E+00 -0.13312443059E+03  0.12111760476E+04  0.12038377400E+04 0.  0.
        2    1    3    3  502    0  0.20852795043E+03  0.30827517420E+03 -0.54250914432E+03  0.65790095061E+03  0.25500000920E-02 0.  1.
       -2    1    3    3    0  502 -0.20852795043E+03 -0.30827517420E+03  0.40938471373E+03  0.55327509702E+03  0.25500000920E-02 0. -1.
</event>
<event>
 5   0  0.6349142E-03  0.1128267E+04  0.7818609E-02  0.9178070E-01
        2   -1    0    0  501    0  0.00000000000E+00  0.00000000000E+00  0.81764582970E+03  0.81764582970E+03  0.25500000920E-02 0. -1.
       -2   -1    0    0    0  501  0.00000000000E+00  0.00000000000E+00 -0.38922337925E+03  0.38922337926E+03  0.25500000920E-02 0.  1.
    10030    2    1    2    0    0  0.00000000000E+00  0.00000000000E+00  0.42842245045E+03  0.12068692090E+04  0.11282674734E+04 0.  0.
        1    1    3    3  502    0  0.16399827604E+03 -0.32449023673E+03  0.67560502944E+03  0.76722324268E+03  0.50400001928E-02 0. -1.
       -1    1    3    3    0  502 -0.16399827604E+03  0.32449023673E+03 -0.24718257900E+03  0.43964596628E+03  0.50400001928E-02 0.  1.
</event>
<event>
 5   0  0.6585930E-03  0.1218727E+04  0.7818609E-02  0.9096621E-01
        2   -1    0    0  501    0  0.00000000000E+00  0.00000000000E+00  0.73489900034E+03  0.73489900035E+03  0.25500000920E-02 0. -1.
       -2   -1    0    0    0  501  0.00000000000E+00  0.00000000000E+00 -0.50527221549E+03  0.50527221549E+03  0.25500000920E-02 0.  1.
    10030    2    1    2    0    0  0.00000000000E+00  0.00000000000E+00  0.22962678486E+03  0.12401712158E+04  0.12187272805E+04 0.  0.
        2    1    3    3  502    0  0.24891152941E+03 -0.12670531057E+03  0.66592640757E+03  0.72212821957E+03  0.25500000920E-02 0. -1.
       -2    1    3    3    0  502 -0.24891152941E+03  0.12670531057E+03 -0.43629962271E+03  0.51804299627E+03  0.25500000920E-02 0.  1.
</event>
<event>
 5   0  0.3701879E-03  0.1191215E+04  0.7818609E-02  0.9120581E-01
       -1   -1    0    0    0  501  0.00000000000E+00  0.00000000000E+00  0.44886655691E+03  0.44886655693E+03  0.50400001928E-02 0. -1.
        1   -1    0    0  501    0  0.00000000000E+00  0.00000000000E+00 -0.79032032870E+03  0.79032032872E+03  0.50400001928E-02 0.  1.
    10030    2    1    2    0    0  0.00000000000E+00  0.00000000000E+00 -0.34145377180E+03  0.12391868857E+04  0.11912151188E+04 0.  0.
        1    1    3    3  502    0  0.56587158544E+03  0.12803568656E+03 -0.31085330717E+03  0.65820480615E+03  0.50400001928E-02 0.  1.
       -1    1    3    3    0  502 -0.56587158544E+03 -0.12803568656E+03 -0.30600464626E+02  0.58098207950E+03  0.50400001928E-02 0. -1.
</event>
<event>
 5   0  0.3772254E-03  0.1187126E+04  0.7818609E-02  0.9124200E-01
        1   -1    0    0  501    0  0.00000000000E+00  0.00000000000E+00  0.34382284044E+03  0.34382284048E+03  0.50400001928E-02 0. -1.
       -1   -1    0    0    0  501  0.00000000000E+00  0.00000000000E+00 -0.10247052114E+04  0.10247052115E+04  0.50400001928E-02 0.  1.
    10030    2    1    2    0    0  0.00000000000E+00  0.00000000000E+00 -0.68088237100E+03  0.13685280519E+04  0.11871260362E+04 0.  0.
        3    1    3    3  502    0  0.58274523248E+02 -0.10888466862E+03  0.32884809243E+03  0.35127321164E+03  0.10100000352E+00 0. -1.
       -3    1    3    3    0  502 -0.58274523248E+02  0.10888466862E+03 -0.10097304634E+04  0.10172548403E+04  0.10100000352E+00 0.  1.
</event>
<event>
 5   0  0.3944074E-03  0.1200756E+04  0.7818609E-02  0.9112195E-01
        1   -1    0    0  501    0  0.00000000000E+00  0.00000000000E+00  0.77053045695E+03  0.77053045696E+03  0.50400001928E-02 0. -1.
       -1   -1    0    0    0  501  0.00000000000E+00  0.00000000000E+00 -0.46779928502E+03  0.46779928504E+03  0.50400001928E-02 0.  1.
    10030    2    1    2    0    0  0.00000000000E+00  0.00000000000E+00  0.30273117193E+03  0.12383297420E+04  0.12007557568E+04 0.  0.
        4    1    3    3  502    0  0.46497076704E+03  0.36099128006E+03  0.27312559928E+03  0.64893121697E+03  0.12699999809E+01 0. -1.
       -4    1    3    3    0  502 -0.46497076704E+03 -0.36099128006E+03  0.29605572657E+02  0.58939852504E+03  0.12699999809E+01 0.  1.
</event>
<event>
 5   0  0.2537625E-03  0.9885567E+03  0.7818609E-02  0.9321185E-01
        3   -1    0    0  501    0  0.00000000000E+00  0.00000000000E+00  0.62411530585E+03  0.62411531403E+03  0.10100000352E+00 0.  1.
       -3   -1    0    0    0  501  0.00000000000E+00  0.00000000000E+00 -0.39145183507E+03  0.39145184810E+03  0.10100000352E+00 0. -1.
    10030    2    1    2    0    0  0.00000000000E+00  0.00000000000E+00  0.23266347078E+03  0.10155671621E+04  0.98855671065E+03 0.  0.
        1    1    3    3  502    0 -0.45453154087E+03  0.28590957445E+02 -0.80996493427E+02  0.46257626016E+03  0.50400001928E-02 0. -1.
       -1    1    3    3    0  502  0.45453154087E+03 -0.28590957445E+02  0.31365996421E+03  0.55299090197E+03  0.50400001928E-02 0.  1.
</event>
<event>
 5   0  0.3701879E-03  0.1215907E+04  0.7818609E-02  0.9099046E-01
       -1   -1    0    0    0  501  0.00000000000E+00  0.00000000000E+00  0.18115880323E+03  0.18115880330E+03  0.50400001928E-02 0. -1.
        1   -1    0    0  501    0  0.00000000000E+00  0.00000000000E+00 -0.20402394641E+04  0.20402394641E+04  0.50400001928E-02 0.  1.
    10030    2    1    2    0    0  0.00000000000E+00  0.00000000000E+00 -0.18590806609E+04  0.22213982674E+04  0.12159068052E+04 0.  0.
        1    1    3    3  502    0 -0.40707368799E+02 -0.18228983636E+03  0.12744121021E+03  0.22611487434E+03  0.50400001928E-02 0. -1.
       -1    1    3    3    0  502  0.40707368799E+02  0.18228983636E+03 -0.19865218711E+04  0.19952833931E+04  0.50400001928E-02 0.  1.
</event>
<event>
 5   0  0.6493047E-03  0.1243677E+04  0.7818609E-02  0.9075462E-01
        2   -1    0    0  501    0  0.00000000000E+00  0.00000000000E+00  0.52645545634E+03  0.52645545634E+03  0.25500000920E-02 0. -1.
       -2   -1    0    0    0  501  0.00000000000E+00  0.00000000000E+00 -0.73450333863E+03  0.73450333864E+03  0.25500000920E-02 0.  1.
    10030    2    1    2    0    0  0.00000000000E+00  0.00000000000E+00 -0.20804788230E+03  0.12609587950E+04  0.12436772738E+04 0.  0.
        3    1    3    3  502    0  0.13627444427E+03  0.49442262171E+03 -0.46056188717E+03  0.68930524091E+03  0.10100000352E+00 0.  1.
       -3    1    3    3    0  502 -0.13627444427E+03 -0.49442262171E+03  0.25251400488E+03  0.57165355407E+03  0.10100000352E+00 0. -1.
</event>
<event>
 5   0  0.3648616E-03  0.1204248E+04  0.7818609E-02  0.9109146E-01
        1   -1    0    0  501    0  0.00000000000E+00  0.00000000000E+00  0.98990059424E+03  0.98990059425E+03  0.50400001928E-02 0. -1.
       -1   -1    0    0    0  501  0.00000000000E+00  0.00000000000E+00 -0.36625219148E+03  0.36625219151E+03  0.50400001928E-02 0.  1.
    10030    2    1    2    0    0  0.00000000000E+00  0.00000000000E+00  0.62364840276E+03  0.13561527858E+04  0.12042479180E+04 0.  0.
        2    1    3    3  502    0 -0.56865362742E+03  0.64183292558E+02  0.10094152629E+03  0.58109864460E+03  0.25500000920E-02 0.  1.
       -2    1    3    3    0  502  0.56865362742E+03 -0.64183292558E+02  0.52270687648E+03  0.77505414117E+03  0.25500000920E-02 0. -1.
</event>
<event>
 5   0  0.6349142E-03  0.1201919E+04  0.7818609E-02  0.9111179E-01
       -2   -1    0    0    0  501  0.00000000000E+00  0.00000000000E+00  0.19104235215E+03  0.19104235216E+03  0.25500000920E-02 0.  1.
        2   -1    0    0  501    0  0.00000000000E+00  0.00000000000E+00 -0.18904304711E+04  0.18904304711E+04  0.25500000920E-02 0. -1.
    10030    2    1    2    0    0  0.00000000000E+00  0.00000000000E+00 -0.16993881190E+04  0.20814728233E+04  0.12019189387E+04 0.  0.
        1    1    3    3  502    0  0.15209407423E+03  0.28556764833E+03  0.27336093736E+02  0.32469793845E+03  0.50400001928E-02 0.  1.
       -1    1    3    3    0  502 -0.15209407423E+03 -0.28556764833E+03 -0.17267242127E+04  0.17567748848E+04  0.50400001928E-02 0. -1.
</event>
<event>
 5   0  0.3648616E-03  0.1237544E+04  0.7818609E-02  0.9080615E-01
       -1   -1    0    0    0  501  0.00000000000E+00  0.00000000000E+00  0.30118164246E+03  0.30118164251E+03  0.50400001928E-02 0.  1.
        1   -1    0    0  501    0  0.00000000000E+00  0.00000000000E+00 -0.12712552024E+04  0.12712552024E+04  0.50400001928E-02 0. -1.
    10030    2    1    2    0    0  0.00000000000E+00  0.00000000000E+00 -0.97007355989E+03  0.15724368449E+04  0.12375439061E+04 0.  0.
        2    1    3    3  502    0  0.51991174661E+03  0.32723728142E+03 -0.57915009591E+03  0.84427915775E+03  0.25500000920E-02 0.  1.
       -2    1    3    3    0  502 -0.51991174661E+03 -0.32723728142E+03 -0.39092346398E+03  0.72815768712E+03  0.25500000920E-02 0. -1.
</event>
<event>
 5   0  0.3772254E-03  0.1229549E+04  0.7818609E-02  0.9087378E-01
        1   -1    0    0  501    0  0.00000000000E+00  0.00000000000E+00  0.63247882076E+03  0.63247882078E+03  0.50400001928E-02 0. -1.
       -1   -1    0    0    0  501  0.00000000000E+00  0.00000000000E+00 -0.59756588534E+03  0.59756588536E+03  0.50400001928E-02 0.  1.
    10030    2    1    2    0    0  0.00000000000E+00  0.00000000000E+00  0.34912935425E+02  0.12300447061E+04  0.12295491312E+04 0.  0.
        3    1    3    3  502    0 -0.52119395273E+03  0.22845765749E+03 -0.21525654737E+03  0.60841715049E+03  0.10100000352E+00 0.  1.
       -3    1    3    3    0  502  0.52119395273E+03 -0.22845765749E+03  0.25016948279E+03  0.62162755565E+03  0.10100000352E+00 0. -1.
</event>
<event>
 5   0  0.6658994E-03  0.1155501E+04  0.7818609E-02  0.9152723E-01
       -2   -1    0    0    0  501  0.00000000000E+00  0.00000000000E+00  0.32416172396E+03  0.32416172397E+03  0.25500000920E-02 0. -1.
        2   -1    0    0  501    0  0.00000000000E+00  0.00000000000E+00 -0.10297201049E+04  0.10297201049E+04  0.25500000920E-02 0.  1.
    10030    2    1    2    0    0  0.00000000000E+00  0.00000000000E+00 -0.70555838096E+03  0.13538818289E+04  0.11555013534E+04 0.  0.
        4    1    3    3  502    0  0.16125786224E+03  0.16640964179E+01 -0.10028126234E+04  0.10156976115E+04  0.12699999809E+01 0.  1.
       -4    1    3    3    0  502 -0.16125786224E+03 -0.16640964179E+01  0.29725424246E+03  0.33818421742E+03  0.12699999809E+01 0. -1.
</event>
<event>
 5   0  0.3944074E-03  0.1227173E+04  0.7818609E-02  0.9089399E-01
       -1   -1    0    0    0  501  0.00000000000E+00  0.00000000000E+00  0.16889385285E+03  0.16889385292E+03  0.50400001928E-02 0. -1.
        1   -1    0    0  501    0  0.00000000000E+00  0.00000000000E+00 -0.22291425293E+04  0.22291425293E+04  0.50400001928E-02 0.  1.
    10030    2    1    2    0    0  0.00000000000E+00  0.00000000000E+00 -0.20602486764E+04  0.23980363822E+04  0.12271731262E+04 0.  0.
        4    1    3    3  502    0 -0.22415436400E+03  0.51606145030E+03 -0.55177627794E+03  0.78805029864E+03  0.12699999809E+01 0. -1.
       -4    1    3    3    0  502  0.22415436400E+03 -0.51606145030E+03 -0.15084723985E+04  0.16099860836E+04  0.12699999809E+01 0.  1.
</event>
<event>
 5   0  0.6585930E-03  0.1195471E+04  0.7818609E-02  0.9116830E-01
       -2   -1    0    0    0  501  0.00000000000E+00  0.00000000000E+00  0.16884802260E+03  0.16884802262E+03  0.25500000920E-02 0. -1.
        2   -1    0    0  501    0  0.00000000000E+00  0.00000000000E+00 -0.21160331112E+04  0.21160331112E+04  0.25500000920E-02 0.  1.
    10030    2    1    2    0    0  0.00000000000E+00  0.00000000000E+00 -0.19471850886E+04  0.22848811338E+04  0.11954714662E+04 0.  0.
        2    1    3    3  502    0  0.32903890990E+03 -0.39956938129E+03 -0.40223251292E+03  0.65552520100E+03  0.25500000920E-02 0. -1.
       -2    1    3    3    0  502 -0.32903890990E+03  0.39956938129E+03 -0.15449525757E+04  0.16293559329E+04  0.25500000920E-02 0.  1.
</event>
<event>
 5   0  0.3772254E-03  0.1219333E+04  0.7818609E-02  0.9096101E-01
       -1   -1    0    0    0  501  0.00000000000E+00  0.00000000000E+00  0.48067171728E+03  0.48067171730E+03  0.50400001928E-02 0. -1.
        1   -1    0    0  501    0  0.00000000000E+00  0.00000000000E+00 -0.77327832371E+03  0.77327832373E+03  0.50400001928E-02 0.  1.
    10030    2    1    2    0    0  0.00000000000E+00  0.00000000000E+00 -0.29260660643E+03  0.12539500410E+04  0.12193326368E+04 0.  0.
        3    1    3    3  502    0  0.24327287448E+03 -0.13917447739E+03  0.41049371157E+03  0.49704760743E+03  0.10100000352E+00 0. -1.
       -3    1    3    3    0  502 -0.24327287448E+03  0.13917447739E+03 -0.70310031800E+03  0.75690243360E+03  0.10100000352E+00 0.  1.
</event>
<event>
 5   0  0.6493047E-03  0.1429698E+04  0.7818609E-02  0.8932598E-01
       -2   -1    0    0    0  501  0.00000000000E+00  0.00000000000E+00  0.48027886772E+03  0.48027886773E+03  0.25500000920E-02 0. -1.
        2   -1    0    0  501    0  0.00000000000E+00  0.00000000000E+00 -0.10639844150E+04  0.10639844150E+04  0.25500000920E-02 0.  1.
    10030    2    1    2    0    0  0.00000000000E+00  0.00000000000E+00 -0.58370554724E+03  0.15442632827E+04  0.14296981921E+04 0.  0.
        3    1    3    3  502    0 -0.33058392926E+03 -0.99103696686E+02 -0.96803801240E+03  0.10277182886E+04  0.10100000352E+00 0.  1.
       -3    1    3    3    0  502  0.33058392926E+03  0.99103696686E+02  0.38433246516E+03  0.51654499413E+03  0.10100000352E+00 0. -1.
</event>
<event>
 5   0  0.3648616E-03  0.1212040E+04  0.7818609E-02  0.9102383E-01
       -1   -1    0    0    0  501  0.00000000000E+00  0.00000000000E+00  0.35142138175E+03  0.35142138179E+03  0.50400001928E-02 0. -1.
        1   -1    0    0  501    0  0.00000000000E+00  0.00000000000E+00 -0.10450707017E+04  0.10450707017E+04  0.50400001928E-02 0.  1.
    10030    2    1    2    0    0  0.00000000000E+00  0.00000000000E+00 -0.69364931993E+03  0.13964920835E+04  0.12120399169E+04 0.  0.
        2    1    3    3  502    0 -0.76640875473E+02 -0.34348610663E+03 -0.91526528458E+03  0.98059526330E+03  0.25500000920E-02 0.  1.
       -2    1    3    3    0  502  0.76640875473E+02  0.34348610663E+03  0.22161596465E+03  0.41589682018E+03  0.25500000920E-02 0. -1.
</event>
<event>
 5   0  0.6585930E-03  0.1191400E+04  0.7818609E-02  0.9120417E-01
       -2   -1    0    0    0  501  0.00000000000E+00  0.00000000000E+00  0.91929167655E+03  0.91929167655E+03  0.25500000920E-02 0. -1.
        2   -1    0    0  501    0  0.00000000000E+00  0.00000000000E+00 -0.38601308864E+03  0.38601308865E+03  0.25500000920E-02 0.  1.
    10030    2    1    2    0    0  0.00000000000E+00  0.00000000000E+00  0.53327858790E+03  0.13053047652E+04  0.11914002173E+04 0.  0.
        2    1    3    3  502    0 -0.16550894308E+03 -0.51212909341E+03 -0.13092658829E+02  0.53836868063E+03  0.25500000920E-02 0.  1.
       -2    1    3    3    0  502  0.16550894308E+03  0.51212909341E+03  0.54637124673E+03  0.76693608457E+03  0.25500000920E-02 0. -1.
</event>
<event>
 5   0  0.6349142E-03  0.1201378E+04  0.7818609E-02  0.9111651E-01
        2   -1    0    0  501    0  0.00000000000E+00  0.00000000000E+00  0.30705831752E+03  0.30705831753E+03  0.25500000920E-02 0.  1.
       -2   -1    0    0    0  501  0.00000000000E+00  0.00000000000E+00 -0.11751098046E+04  0.11751098046E+04  0.25500000920E-02 0. -1.
    10030    2    1    2    0    0  0.00000000000E+00  0.00000000000E+00 -0.86805148705E+03  0.14821681221E+04  0.12013779414E+04 0.  0.
        1    1    3    3  502    0 -0.44393093799E+03  0.24683269004E+03 -0.82963794366E+03  0.97277961131E+03  0.50400001928E-02 0. -1.
       -1    1    3    3    0  502  0.44393093799E+03 -0.24683269004E+03 -0.38413543382E+02  0.50938851079E+03  0.50400001928E-02 0.  1.
</event>
<event>
 5   0  0.3701879E-03  0.1186160E+04  0.7818609E-02  0.9125058E-01
        1   -1    0    0  501    0  0.00000000000E+00  0.00000000000E+00  0.93673871988E+03  0.93673871989E+03  0.50400001928E-02 0. -1.
       -1   -1    0    0    0  501  0.00000000000E+00  0.00000000000E+00 -0.37549827679E+03  0.37549827683E+03  0.50400001928E-02 0.  1.
    10030    2    1    2    0    0  0.00000000000E+00  0.00000000000E+00  0.56124044309E+03  0.13122369967E+04  0.11861598124E+04 0.  0.
        1    1    3    3  502    0  0.15156917458E+03  0.15457899179E+03 -0.33022420649E+03  0.39486188214E+03  0.50400001928E-02 0.  1.
       -1    1    3    3    0  502 -0.15156917458E+03 -0.15457899179E+03  0.89146464958E+03  0.91737511459E+03  0.50400001928E-02 0. -1.
</event>
<event>
 5   0  0.3648616E-03  0.1174581E+04  0.7818609E-02  0.9135401E-01
        1   -1    0    0  501    0  0.00000000000E+00  0.00000000000E+00  0.15442776709E+04  0.15442776709E+04  0.50400001928E-02 0.  1.
       -1   -1    0    0    0  501  0.00000000000E+00  0.00000000000E+00 -0.22334725721E+03  0.22334725726E+03  0.50400001928E-02 0. -1.
    10030    2    1    2    0    0  0.00000000000E+00  0.00000000000E+00  0.13209304136E+04  0.17676249281E+04  0.11745810865E+04 0.  0.
        2    1    3    3  502    0 -0.51778561931E+03 -0.26425445734E+03  0.78617435506E+03  0.97775379434E+03  0.25500000920E-02 0. -1.
       -2    1    3    3    0  502  0.51778561931E+03  0.26425445734E+03  0.53475605858E+03  0.78987113378E+03  0.25500000920E-02 0.  1.
</event>
<event>
 5   0  0.6585930E-03  0.1221460E+04  0.7818609E-02  0.9094278E-01
        2   -1    0    0  501    0  0.00000000000E+00  0.00000000000E+00  0.90196140779E+03  0.90196140780E+03  0.25500000920E-02 0.  1.
       -2   -1    0    0    0  501  0.00000000000E+00  0.00000000000E+00 -0.41353311098E+03  0.41353311098E+03  0.25500000920E-02 0. -1.
    10030    2    1    2    0    0  0.00000000000E+00  0.00000000000E+00  0.48842829682E+03  0.13154945188E+04  0.12214596300E+04 0.  0.
        2    1    3    3  502    0 -0.28814552060E+03  0.21614292687E+03  0.77538245599E+03  0.85496406881E+03  0.25500000920E-02 0.  1.
       -2    1    3    3    0  502  0.28814552060E+03 -0.21614292687E+03 -0.28695415918E+03  0.46053044997E+03  0.25500000920E-02 0. -1.
</event>
<event>
 5   0  0.6658994E-03  0.1192871E+04  0.7818609E-02  0.9119119E-01
       -2   -1    0    0    0  501  0.00000000000E+00  0.00000000000E+00  0.55502269844E+03  0.55502269844E+03  0.25500000920E-02 0. -1.
        2   -1    0    0  501    0  0.00000000000E+00  0.00000000000E+00 -0.64093859643E+03  0.64093859644E+03  0.25500000920E-02 0.  1.
    10030    2    1    2    0    0  0.00000000000E+00  0.00000000000E+00 -0.85915897994E+02  0.11959612949E+04  0.11928712744E+04 0.  0.
        4    1    3    3  502    0 -0.15590553917E+01 -0.54705138690E+03  0.19528378859E+03  0.58086575174E+03  0.12699999809E+01 0. -1.
       -4    1    3    3    0  502  0.15590553917E+01  0.54705138690E+03 -0.28119968658E+03  0.61509554314E+03  0.12699999809E+01 0.  1.
</event>
<event>
 5   0  0.6493047E-03  0.1205224E+04  0.7818609E-02  0.9108296E-01
       -2   -1    0    0    0  501  0.00000000000E+00  0.00000000000E+00  0.20189648725E+03  0.20189648726E+03  0.25500000920E-02 0.  1.
        2   -1    0    0  501    0  0.00000000000E+00  0.00000000000E+00 -0.17986512508E+04  0.17986512508E+04  0.25500000920E-02 0. -1.
    10030    2    1    2    0    0  0.00000000000E+00  0.00000000000E+00 -0.15967547635E+04  0.20005477381E+04  0.12052242436E+04 0.  0.
        3    1    3    3  502    0 -0.48935474822E+03  0.15625704023E+03 -0.13213292168E+04  0.14176724733E+04  0.10100000352E+00 0. -1.
       -3    1    3    3    0  502  0.48935474822E+03 -0.15625704023E+03 -0.27542554672E+03  0.58287526472E+03  0.10100000352E+00 0.  1.
</event>
<event>
 5   0  0.6640844E-03  0.1084090E+04  0.7818609E-02  0.9220839E-01
        2   -1    0    0  501    0  0.00000000000E+00  0.00000000000E+00  0.25380187081E+03  0.25380187082E+03  0.25500000920E-02 0. -1.
       -2   -1    0    0    0  501  0.00000000000E+00  0.00000000000E+00 -0.11576455556E+04  0.11576455556E+04  0.25500000920E-02 0.  1.
    10030    2    1    2    0    0  0.00000000000E+00  0.00000000000E+00 -0.90384368478E+03  0.14114474264E+04  0.10840896785E+04 0.  0.
        5    1    3    3  502    0  0.38693284898E+03 -0.33889746363E+03 -0.22935808496E+03  0.56320133310E+03  0.46999998093E+01 0. -1.
       -5    1    3    3    0  502 -0.38693284898E+03  0.33889746363E+03 -0.67448559982E+03  0.84824609332E+03  0.46999998093E+01 0.  1.
</event>
<event>
 5   0  0.3944074E-03  0.1238103E+04  0.7818609E-02  0.9080143E-01
       -1   -1    0    0    0  501  0.00000000000E+00  0.00000000000E+00  0.22006447410E+03  0.22006447416E+03  0.50400001928E-02 0. -1.
        1   -1    0    0  501    0  0.00000000000E+00  0.00000000000E+00 -0.17414213166E+04  0.17414213166E+04  0.50400001928E-02 0.  1.
    10030    2    1    2    0    0  0.00000000000E+00  0.00000000000E+00 -0.15213568425E+04  0.19614857908E+04  0.12381033338E+04 0.  0.
        4    1    3    3  502    0  0.14680714003E+03 -0.29237582004E+03 -0.15932665260E+04  0.16265103111E+04  0.12699999809E+01 0.  1.
       -4    1    3    3    0  502 -0.14680714003E+03  0.29237582004E+03  0.71909683451E+02  0.33497547967E+03  0.12699999809E+01 0. -1.
</event>
<event>
 5   0  0.3772254E-03  0.1083506E+04  0.7818609E-02  0.9221419E-01
        1   -1    0    0  501    0  0.00000000000E+00  0.00000000000E+00  0.83141951966E+03  0.83141951967E+03  0.50400001928E-02 0. -1.
       -1   -1    0    0    0  501  0.00000000000E+00  0.00000000000E+00 -0.35300643773E+03  0.35300643777E+03  0.50400001928E-02 0.  1.
    10030    2    1    2    0    0  0.00000000000E+00  0.00000000000E+00  0.47841308193E+03  0.11844259574E+04  0.10835062398E+04 0.  0.
        3    1    3    3  502    0  0.43022214201E+03  0.20754553261E+03  0.51861108893E+03  0.70507000457E+03  0.10100000352E+00 0.  1.
       -3    1    3    3    0  502 -0.43022214201E+03 -0.20754553261E+03 -0.40198007003E+02  0.47935595287E+03  0.10100000352E+00 0. -1.
</event>
<event>
 5   0  0.3701879E-03  0.1215905E+04  0.7818609E-02  0.9099047E-01
        1   -1    0    0  501    0  0.00000000000E+00  0.00000000000E+00  0.14031429479E+04  0.14031429479E+04  0.50400001928E-02 0.  1.
       -1   -1    0    0    0  501  0.00000000000E+00  0.00000000000E+00 -0.26341322767E+03  0.26341322772E+03  0.50400001928E-02 0. -1.
    10030    2    1    2    0    0  0.00000000000E+00  0.00000000000E+00  0.11397297202E+04  0.16665561756E+04  0.12159052806E+04 0.  0.
        1    1    3    3  502    0  0.38450355519E+03  0.39192984068E+03  0.92768703736E+03  0.10779866526E+04  0.50400001928E-02 0.  1.
       -1    1    3    3    0  502 -0.38450355519E+03 -0.39192984068E+03  0.21204268283E+03  0.58856952295E+03  0.50400001928E-02 0. -1.
</event>
<event>
 5   0  0.6658994E-03  0.1178658E+04  0.7818609E-02  0.9131745E-01
       -2   -1    0    0    0  501  0.00000000000E+00  0.00000000000E+00  0.32183897879E+03  0.32183897880E+03  0.25500000920E-02 0.  1.
        2   -1    0    0  501    0  0.00000000000E+00  0.00000000000E+00 -0.10791372935E+04  0.10791372935E+04  0.25500000920E-02 0. -1.
    10030    2    1    2    0    0  0.00000000000E+00  0.00000000000E+00 -0.75729831469E+03  0.14009762723E+04  0.11786576170E+04 0.  0.
        4    1    3    3  502    0 -0.11636325893E+03  0.85957937168E+02 -0.10577016108E+04  0.10675502262E+04  0.12699999809E+01 0. -1.
       -4    1    3    3    0  502  0.11636325893E+03 -0.85957937168E+02  0.30040329614E+03  0.33342604610E+03  0.12699999809E+01 0.  1.
</event>
<event>
 5   0  0.6658994E-03  0.1205708E+04  0.7818609E-02  0.9107875E-01
        2   -1    0    0  501    0  0.00000000000E+00  0.00000000000E+00  0.65161477350E+03  0.65161477350E+03  0.25500000920E-02 0.  1.
       -2   -1    0    0    0  501  0.00000000000E+00  0.00000000000E+00 -0.55774229777E+03  0.55774229778E+03  0.25500000920E-02 0. -1.
    10030    2    1    2    0    0  0.00000000000E+00  0.00000000000E+00  0.93872475725E+02  0.12093570713E+04  0.12057082915E+04 0.  0.
        4    1    3    3  502    0  0.11428753788E+03  0.20991604456E+03 -0.50818702826E+03  0.56158886712E+03  0.12699999809E+01 0. -1.
       -4    1    3    3    0  502 -0.11428753788E+03 -0.20991604456E+03  0.60205950399E+03  0.64776820416E+03  0.12699999809E+01 0.  1.
</event>
<event>
 5   0  0.3731281E-03  0.9851850E+03  0.7818609E-02  0.9324944E-01
       -1   -1    0    0    0  501  0.00000000000E+00  0.00000000000E+00  0.27843225036E+03  0.27843225041E+03  0.50400001928E-02 0. -1.
        1   -1    0    0  501    0  0.00000000000E+00  0.00000000000E+00 -0.87147733369E+03  0.87147733371E+03  0.50400001928E-02 0.  1.
    10030    2    1    2    0    0  0.00000000000E+00  0.00000000000E+00 -0.59304508333E+03  0.11499095841E+04  0.98518504900E+03 0.  0.
        5    1    3    3  502    0  0.11694962972E+03 -0.47816838707E+03 -0.31684267760E+03  0.58543453488E+03  0.46999998093E+01 0.  1.
       -5    1    3    3    0  502 -0.11694962972E+03  0.47816838707E+03 -0.27620240573E+03  0.56447504923E+03  0.46999998093E+01 0. -1.
</event>
<event>
 5   0  0.6585930E-03  0.1023454E+04  0.7818609E-02  0.9283189E-01
       -2   -1    0    0    0  501  0.00000000000E+00  0.00000000000E+00  0.23881966638E+03  0.23881966639E+03  0.25500000920E-02 0.  1.
        2   -1    0    0  501    0  0.00000000000E+00  0.00000000000E+00 -0.10964942255E+04  0.10964942255E+04  0.25500000920E-02 0. -1.
    10030    2    1    2    0    0  0.00000000000E+00  0.00000000000E+00 -0.85767455916E+03  0.13353138919E+04  0.10234537315E+04 0.  0.
        2    1    3    3  502    0  0.36844194758E+03  0.11194669638E+03  0.10877983811E+02  0.38522702671E+03  0.25500000920E-02 0.  1.
       -2    1    3    3    0  502 -0.36844194758E+03 -0.11194669638E+03 -0.86855254297E+03  0.95008686522E+03  0.25500000920E-02 0. -1.
</event>
<event>
 5   0  0.3648616E-03  0.6570361E+03  0.7818609E-02  0.9793665E-01
        1   -1    0    0  501    0  0.00000000000E+00  0.00000000000E+00  0.17415013203E+04  0.17415013203E+04  0.50400001928E-02 0. -1.
       -1   -1    0    0    0  501  0.00000000000E+00  0.00000000000E+00 -0.61971869916E+02  0.61971870121E+02  0.50400001928E-02 0.  1.
    10030    2    1    2    0    0  0.00000000000E+00  0.00000000000E+00  0.16795294504E+04  0.18034731904E+04  0.65703605220E+03 0.  0.
        2    1    3    3  502    0 -0.24551983193E+03  0.41318185713E+02  0.25146127640E+03  0.35386431563E+03  0.25500000920E-02 0.  1.
       -2    1    3    3    0  502  0.24551983193E+03 -0.41318185713E+02  0.14280681740E+04  0.14496088748E+04  0.25500000920E-02 0. -1.
</event>
<event>
 5   0  0.3772254E-03  0.1011293E+04  0.7818609E-02  0.9296245E-01
       -1   -1    0    0    0  501  0.00000000000E+00  0.00000000000E+00  0.20520899012E+03  0.20520899018E+03  0.50400001928E-02 0.  1.
        1   -1    0    0  501    0  0.00000000000E+00  0.00000000000E+00 -0.12459415962E+04  0.12459415962E+04  0.50400001928E-02 0. -1.
    10030    2    1    2    0    0  0.00000000000E+00  0.00000000000E+00 -0.10407326061E+04  0.14511505864E+04  0.10112930668E+04 0.  0.
        3    1    3    3  502    0 -0.37449358403E+03  0.21553429544E+03 -0.14349720433E+03  0.45529324050E+03  0.10100000352E+00 0.  1.
       -3    1    3    3    0  502  0.37449358403E+03 -0.21553429544E+03 -0.89723540173E+03  0.99585734587E+03  0.10100000352E+00 0. -1.
</event>
<event>
 5   0  0.6640844E-03  0.1170584E+04  0.7818609E-02  0.9139001E-01
        2   -1    0    0  501    0  0.00000000000E+00  0.00000000000E+00  0.96224310795E+03  0.96224310795E+03  0.25500000920E-02 0. -1.
       -2   -1    0    0    0  501  0.00000000000E+00  0.00000000000E+00 -0.35600871100E+03  0.35600871101E+03  0.25500000920E-02 0.  1.
    10030    2    1    2    0    0  0.00000000000E+00  0.00000000000E+00  0.60623439695E+03  0.13182518190E+04  0.11705843473E+04 0.  0.
        5    1    3    3  502    0 -0.10220345498E+03 -0.54792307042E+03  0.10204496276E+03  0.56665730537E+03  0.46999998093E+01 0.  1.
       -5    1    3    3    0  502  0.10220345498E+03  0.54792307042E+03  0.50418943418E+03  0.75159451358E+03  0.46999998093E+01 0. -1.
</event>
<event>
 5   0  0.6349142E-03  0.1195606E+04  0.7818609E-02  0.9116711E-01
        2   -1    0    0  501    0  0.00000000000E+00  0.00000000000E+00  0.13146389666E+04  0.13146389666E+04  0.25500000920E-02 0.  1.
       -2   -1    0    0    0  501  0.00000000000E+00  0.00000000000E+00 -0.27183784479E+03  0.27183784480E+03  0.25500000920E-02 0. -1.
    10030    2    1    2    0    0  0.00000000000E+00  0.00000000000E+00  0.10428011218E+04  0.15864768114E+04  0.11956063288E+04 0.  0.
        1    1    3    3  502    0  0.15466845518E+03  0.54189920603E+03  0.78609262008E+03  0.96722215023E+03  0.50400001928E-02 0.  1.
       -1    1    3    3    0  502 -0.15466845518E+03 -0.54189920603E+03  0.25670850177E+03  0.61925466121E+03  0.50400001928E-02 0. -1.
</event>
<event>
 5   0  0.3944074E-03  0.1180035E+04  0.7818609E-02  0.9130513E-01
       -1   -1    0    0    0  501  0.00000000000E+00  0.00000000000E+00  0.43819032660E+03  0.43819032663E+03  0.50400001928E-02 0.  1.
        1   -1    0    0  501    0  0.00000000000E+00  0.00000000000E+00 -0.79445139684E+03  0.79445139686E+03  0.50400001928E-02 0. -1.
    10030    2    1    2    0    0  0.00000000000E+00  0.00000000000E+00 -0.35626107024E+03  0.12326417235E+04  0.11800354521E+04 0.  0.
        4    1    3    3  502    0  0.27959791168E+03  0.51729842158E+03 -0.12752868092E+03  0.60169579236E+03  0.12699999809E+01 0.  1.
       -4    1    3    3    0  502 -0.27959791168E+03 -0.51729842158E+03 -0.22873238932E+03  0.63094593113E+03  0.12699999809E+01 0. -1.
</event>
<event>
 5   0  0.3944074E-03  0.1368316E+04  0.7818609E-02  0.8977078E-01
       -1   -1    0    0    0  501  0.00000000000E+00  0.00000000000E+00  0.86481443187E+03  0.86481443188E+03  0.50400001928E-02 0. -1.
        1   -1    0    0  501    0  0.00000000000E+00  0.00000000000E+00 -0.54123999036E+03  0.54123999038E+03  0.50400001928E-02 0.  1.
    10030    2    1    2    0    0  0.00000000000E+00  0.00000000000E+00  0.32357444151E+03  0.14060544223E+04  0.13683159793E+04 0.  0.
        4    1    3    3  502    0  0.22452080292E+03 -0.25362329703E+03 -0.44902790506E+03  0.56246070099E+03  0.12699999809E+01 0.  1.
       -4    1    3    3    0  502 -0.22452080292E+03  0.25362329703E+03  0.77260234657E+03  0.84359372127E+03  0.12699999809E+01 0. -1.
</event>
<event>
 5   0  0.3772254E-03  0.1222637E+04  0.7818609E-02  0.9093270E-01
       -1   -1    0    0    0  501  0.00000000000E+00  0.00000000000E+00  0.47120288445E+03  0.47120288447E+03  0.50400001928E-02 0.  1.
        1   -1    0    0  501    0  0.00000000000E+00  0.00000000000E+00 -0.79309836145E+03  0.79309836146E+03  0.50400001928E-02 0. -1.
    10030    2    1    2    0    0  0.00000000000E+00  0.00000000000E+00 -0.32189547700E+03  0.12643012459E+04  0.12226368808E+04 0.  0.
        3    1    3    3  502    0 -0.84787775200E+02 -0.39154884750E+03  0.31653495102E+03  0.51058187612E+03  0.10100000352E+00 0.  1.
       -3    1    3    3    0  502  0.84787775200E+02  0.39154884750E+03 -0.63843042802E+03  0.75371936981E+03  0.10100000352E+00 0. -1.
</event>
<event>
 5   0  0.6658994E-03  0.1248952E+04  0.7818609E-02  0.9071056E-01
        2   -1    0    0  501    0  0.00000000000E+00  0.00000000000E+00  0.92632178273E+03  0.92632178273E+03  0.25500000920E-02 0. -1.
       -2   -1    0    0    0  501  0.00000000000E+00  0.00000000000E+00 -0.42098786813E+03  0.42098786813E+03  0.25500000920E-02 0.  1.
    10030    2    1    2    0    0  0.00000000000E+00  0.00000000000E+00  0.50533391460E+03  0.13473096509E+04  0.12489519327E+04 0.  0.
        4    1    3    3  502    0  0.34917794479E+03 -0.44985322403E+03 -0.23787283054E+02  0.56996544460E+03  0.12699999809E+01 0.  1.
       -4    1    3    3    0  502 -0.34917794479E+03  0.44985322403E+03  0.52912119766E+03  0.77734420627E+03  0.12699999809E+01 0. -1.
</event>
<event>
 5   0  0.3731281E-03  0.1198932E+04  0.7818609E-02  0.9113792E-01
       -1   -1    0    0    0  501  0.00000000000E+00  0.00000000000E+00  0.28616194516E+03  0.28616194521E+03  0.50400001928E-02 0. -1.
        1   -1    0    0  501    0  0.00000000000E+00  0.00000000000E+00 -0.12557907563E+04  0.12557907563E+04  0.50400001928E-02 0.  1.
    10030    2    1    2    0    0  0.00000000000E+00  0.00000000000E+00 -0.96962881112E+03  0.15419527015E+04  0.11989320674E+04 0.  0.
        5    1    3    3  502    0  0.34949956868E+03  0.32634207458E+03 -0.94975224429E+03  0.10633440241E+04  0.46999998093E+01 0.  1.
       -5    1    3    3    0  502 -0.34949956868E+03 -0.32634207458E+03 -0.19876566840E+02  0.47860867737E+03  0.46999998093E+01 0. -1.
</event>
<event>
 5   0  0.6493047E-03  0.1195735E+04  0.7818609E-02  0.9116598E-01
        2   -1    0    0  501    0  0.00000000000E+00  0.00000000000E+00  0.56580866698E+03  0.56580866699E+03  0.25500000920E-02 0.  1.
       -2   -1    0    0    0  501  0.00000000000E+00  0.00000000000E+00 -0.63174232660E+03  0.63174232661E+03  0.25500000920E-02 0. -1.
    10030    2    1    2    0    0  0.00000000000E+00  0.00000000000E+00 -0.65933659622E+02  0.11975509936E+04  0.11957345587E+04 0.  0.
        3    1    3    3  502    0  0.70869676427E+02  0.12276617177E+03  0.54873493695E+03  0.56674869669E+03  0.10100000352E+00 0.  1.
       -3    1    3    3    0  502 -0.70869676427E+02 -0.12276617177E+03 -0.61466859657E+03  0.63080229690E+03  0.10100000352E+00 0. -1.
</event>
<event>
 5   0  0.6493047E-03  0.1202611E+04  0.7818609E-02  0.9110574E-01
        2   -1    0    0  501    0  0.00000000000E+00  0.00000000000E+00  0.49873934622E+03  0.49873934623E+03  0.25500000920E-02 0. -1.
       -2   -1    0    0    0  501  0.00000000000E+00  0.00000000000E+00 -0.72496425592E+03  0.72496425593E+03  0.25500000920E-02 0.  1.
    10030    2    1    2    0    0  0.00000000000E+00  0.00000000000E+00 -0.22622490970E+03  0.12237036022E+04  0.12026108249E+04 0.  0.
        3    1    3    3  502    0 -0.19134474234E+03 -0.16362160730E+03 -0.66875158549E+03  0.71457227353E+03  0.10100000352E+00 0.  1.
       -3    1    3    3    0  502  0.19134474234E+03  0.16362160730E+03  0.44252667579E+03  0.50913132862E+03  0.10100000352E+00 0. -1.
</event>
<event>
 5   0  0.3731281E-03  0.1165564E+04  0.7818609E-02  0.9143544E-01
        1   -1    0    0  501    0  0.00000000000E+00  0.00000000000E+00  0.50222533603E+03  0.50222533606E+03  0.50400001928E-02 0.  1.
       -1   -1    0    0    0  501  0.00000000000E+00  0.00000000000E+00 -0.67626045698E+03  0.67626045700E+03  0.50400001928E-02 0. -1.
    10030    2    1    2    0    0  0.00000000000E+00  0.00000000000E+00 -0.17403512095E+03  0.11784857931E+04  0.11655644732E+04 0.  0.
        5    1    3    3  502    0  0.50000565677E+03 -0.21380528954E+03 -0.29885076025E+03  0.62052576541E+03  0.46999998093E+01 0. -1.
       -5    1    3    3    0  502 -0.50000565677E+03  0.21380528954E+03  0.12481563930E+03  0.55796002765E+03  0.46999998093E+01 0.  1.
</event>
<event>
 5   0  0.2537625E-03  0.1148107E+04  0.7818609E-02  0.9159531E-01
        3   -1    0    0  501    0  0.00000000000E+00  0.00000000000E+00  0.79251343592E+03  0.79251344236E+03  0.10100000352E+00 0.  1.
       -3   -1    0    0    0  501  0.00000000000E+00  0.00000000000E+00 -0.41581338396E+03  0.41581339622E+03  0.10100000352E+00 0. -1.
    10030    2    1    2    0    0  0.00000000000E+00  0.00000000000E+00  0.37670005197E+03  0.12083268386E+04  0.11481074948E+04 0.  0.
        5    1    3    3  502    0  0.45618957004E+03  0.31380188963E+03  0.34773664532E+03  0.65385274661E+03  0.46999998093E+01 0. -1.
       -5    1    3    3    0  502 -0.45618957004E+03 -0.31380188963E+03  0.28963406649E+02  0.55447409198E+03  0.46999998093E+01 0.  1.
</event>
<event>
 5   0  0.3731281E-03  0.1208579E+04  0.7818609E-02  0.9105380E-01
       -1   -1    0    0    0  501  0.00000000000E+00  0.00000000000E+00  0.39692512683E+03  0.39692512686E+03  0.50400001928E-02 0. -1.
        1   -1    0    0  501    0  0.00000000000E+00  0.00000000000E+00 -0.91998682105E+03  0.91998682107E+03  0.50400001928E-02 0.  1.
    10030    2    1    2    0    0  0.00000000000E+00  0.00000000000E+00 -0.52306169423E+03  0.13169119479E+04  0.12085791421E+04 0.  0.
        5    1    3    3  502    0  0.28590769532E+03 -0.69210493761E+02  0.31361816402E+03  0.43001365733E+03  0.46999998093E+01 0. -1.
       -5    1    3    3    0  502 -0.28590769532E+03  0.69210493761E+02 -0.83667985824E+03  0.88689829060E+03  0.46999998093E+01 0.  1.
</event>
<event>
 5   0  0.6493047E-03  0.1207904E+04  0.7818609E-02  0.9105966E-01
       -2   -1    0    0    0  501  0.00000000000E+00  0.00000000000E+00  0.78394457553E+03  0.78394457553E+03  0.25500000920E-02 0.  1.
        2   -1    0    0  501    0  0.00000000000E+00  0.00000000000E+00 -0.46528555787E+03  0.46528555787E+03  0.25500000920E-02 0. -1.
    10030    2    1    2    0    0  0.00000000000E+00  0.00000000000E+00  0.31865901766E+03  0.12492301334E+04  0.12079041173E+04 0.  0.
        3    1    3    3  502    0  0.12063393586E+03  0.16230565095E+03 -0.42922983703E+03  0.47448280686E+03  0.10100000352E+00 0. -1.
       -3    1    3    3    0  502 -0.12063393586E+03 -0.16230565095E+03  0.74788885469E+03  0.77474732654E+03  0.10100000352E+00 0.  1.
</event>
<event>
 5   0  0.2537625E-03  0.1162117E+04  0.7818609E-02  0.9146677E-01
       -3   -1    0    0    0  501  0.00000000000E+00  0.00000000000E+00  0.16534733548E+04  0.16534733579E+04  0.10100000352E+00 0. -1.
        3   -1    0    0  501    0  0.00000000000E+00  0.00000000000E+00 -0.20419372434E+03  0.20419374932E+03  0.10100000352E+00 0.  1.
    10030    2    1    2    0    0  0.00000000000E+00  0.00000000000E+00  0.14492796305E+04  0.18576671072E+04  0.11621168762E+04 0.  0.
        2    1    3    3  502    0 -0.30659798899E+03  0.48902564249E+03  0.83163924182E+03  0.10123103449E+04  0.25500000920E-02 0. -1.
       -2    1    3    3    0  502  0.30659798899E+03 -0.48902564249E+03  0.61764038864E+03  0.84535676229E+03  0.25500000920E-02 0.  1.
</event>
<event>
 5   0  0.6585930E-03  0.1179447E+04  0.7818609E-02  0.9131039E-01
       -2   -1    0    0    0  501  0.00000000000E+00  0.00000000000E+00  0.30576969659E+03  0.30576969660E+03  0.25500000920E-02 0. -1.
        2   -1    0    0  501    0  0.00000000000E+00  0.00000000000E+00 -0.11373725239E+04  0.11373725239E+04  0.25500000920E-02 0.  1.
    10030    2    1    2    0    0  0.00000000000E+00  0.00000000000E+00 -0.83160282731E+03  0.14431422205E+04  0.11794474156E+04 0.  0.
        2    1    3    3  502    0 -0.46177961361E+03  0.55350893041E+02 -0.85945474461E+03  0.97722392057E+03  0.25500000920E-02 0.  1.
       -2    1    3    3    0  502  0.46177961361E+03 -0.55350893041E+02  0.27851917297E+02  0.46591829993E+03  0.25500000920E-02 0. -1.
</event>
<event>
 5   0  0.6349142E-03  0.9932182E+03  0.7818609E-02  0.9316014E-01
       -2   -1    0    0    0  501  0.00000000000E+00  0.00000000000E+00  0.34651683990E+03  0.34651683991E+03  0.25500000920E-02 0. -1.
        2   -1    0    0  501    0  0.00000000000E+00  0.00000000000E+00 -0.71171313222E+03  0.71171313222E+03  0.25500000920E-02 0.  1.
    10030    2    1    2    0    0  0.00000000000E+00  0.00000000000E+00 -0.36519629231E+03  0.10582299721E+04  0.99321817443E+03 0.  0.
        1    1    3    3  502    0  0.31884854866E+03 -0.26492610100E+03  0.10874184674E+03  0.42857324371E+03  0.50400001928E-02 0. -1.
       -1    1    3    3    0  502 -0.31884854866E+03  0.26492610100E+03 -0.47393813906E+03  0.62965672842E+03  0.50400001928E-02 0.  1.
</event>
<event>
 5   0  0.3701879E-03  0.1173734E+04  0.7818609E-02  0.9136163E-01
       -1   -1    0    0    0  501  0.00000000000E+00  0.00000000000E+00  0.41253625251E+03  0.41253625254E+03  0.50400001928E-02 0. -1.
        1   -1    0    0  501    0  0.00000000000E+00  0.00000000000E+00 -0.83486626845E+03  0.83486626847E+03  0.50400001928E-02 0.  1.
    10030    2    1    2    0    0  0.00000000000E+00  0.00000000000E+00 -0.42233001595E+03  0.12474025210E+04  0.11737335332E+04 0.  0.
        1    1    3    3  502    0  0.33405680014E+03 -0.37743740012E+03 -0.53063083661E+03  0.73186202355E+03  0.50400001928E-02 0.  1.
       -1    1    3    3    0  502 -0.33405680014E+03  0.37743740012E+03  0.10830082067E+03  0.51554049745E+03  0.50400001928E-02 0. -1.
</event>
<event>
 5   0  0.6658994E-03  0.1157895E+04  0.7818609E-02  0.9150531E-01
       -2   -1    0    0    0  501  0.00000000000E+00  0.00000000000E+00  0.35769055763E+03  0.35769055763E+03  0.25500000920E-02 0. -1.
        2   -1    0    0  501    0  0.00000000000E+00  0.00000000000E+00 -0.93706766446E+03  0.93706766446E+03  0.25500000920E-02 0.  1.
    10030    2    1    2    0    0  0.00000000000E+00  0.00000000000E+00 -0.57937710683E+03  0.12947582221E+04  0.11578950824E+04 0.  0.
        4    1    3    3  502    0  0.48386106484E+03 -0.27431819730E+03 -0.11005593836E+03  0.56699728915E+03  0.12699999809E+01 0.  1.
       -4    1    3    3    0  502 -0.48386106484E+03  0.27431819730E+03 -0.46932116847E+03  0.72776093294E+03  0.12699999809E+01 0. -1.
</event>
<event>
 5   0  0.6658994E-03  0.1208243E+04  0.7818609E-02  0.9105672E-01
        2   -1    0    0  501    0  0.00000000000E+00  0.00000000000E+00  0.24016583791E+04  0.24016583791E+04  0.25500000920E-02 0. -1.
       -2   -1    0    0    0  501  0.00000000000E+00  0.00000000000E+00 -0.15196286373E+03  0.15196286375E+03  0.25500000920E-02 0.  1.
    10030    2    1    2    0    0  0.00000000000E+00  0.00000000000E+00  0.22496955154E+04  0.25536212429E+04  0.12082431626E+04 0.  0.
        4    1    3    3  502    0  0.26447883447E+03 -0.26722484455E+03  0.12544384111E+03  0.39635330401E+03  0.12699999809E+01 0.  1.
       -4    1    3    3    0  502 -0.26447883447E+03  0.26722484455E+03  0.21242516743E+04  0.21572679389E+04  0.12699999809E+01 0. -1.
</event>
<event>
 5   0  0.6493047E-03  0.1209476E+04  0.7818609E-02  0.9104602E-01
       -2   -1    0    0    0  501  0.00000000000E+00  0.00000000000E+00  0.17201422171E+03  0.17201422173E+03  0.25500000920E-02 0.  1.
        2   -1    0    0  501    0  0.00000000000E+00  0.00000000000E+00 -0.21260336982E+04  0.21260336982E+04  0.25500000920E-02 0. -1.
    10030    2    1    2    0    0  0.00000000000E+00  0.00000000000E+00 -0.19540194765E+04  0.22980479200E+04  0.12094759724E+04 0.  0.
        3    1    3    3  502    0  0.44755027473E+03 -0.34276524355E+03 -0.13929343562E+04  0.15026827315E+04  0.10100000352E+00 0. -1.
       -3    1    3    3    0  502 -0.44755027473E+03  0.34276524355E+03 -0.56108512029E+03  0.79536518846E+03  0.10100000352E+00 0.  1.
</event>
<event>
 5   0  0.3944074E-03  0.1180959E+04  0.7818609E-02  0.9129688E-01
        1   -1    0    0  501    0  0.00000000000E+00  0.00000000000E+00  0.35072075071E+03  0.35072075074E+03  0.50400001928E-02 0. -1.
       -1   -1    0    0    0  501  0.00000000000E+00  0.00000000000E+00 -0.99414136718E+03  0.99414136720E+03  0.50400001928E-02 0.  1.
    10030    2    1    2    0    0  0.00000000000E+00  0.00000000000E+00 -0.64342061648E+03  0.13448621179E+04  0.11809589436E+04 0.  0.
        4    1    3    3  502    0 -0.31080215231E+03 -0.45130722933E+03 -0.71207443209E+02  0.55258330231E+03  0.12699999809E+01 0. -1.
       -4    1    3    3    0  502  0.31080215231E+03  0.45130722933E+03 -0.57221317327E+03  0.79227881563E+03  0.12699999809E+01 0.  1.
</event>
<event>
 5   0  0.3648616E-03  0.1206441E+04  0.7818609E-02  0.9107237E-01
        1   -1    0    0  501    0  0.00000000000E+00  0.00000000000E+00  0.12910808720E+04  0.12910808720E+04  0.50400001928E-02 0. -1.
       -1   -1    0    0    0  501  0.00000000000E+00  0.00000000000E+00 -0.28183759717E+03  0.28183759722E+03  0.50400001928E-02 0.  1.
    10030    2    1    2    0    0  0.00000000000E+00  0.00000000000E+00  0.10092432748E+04  0.15729184692E+04  0.12064412638E+04 0.  0.
        2    1    3    3  502    0  0.57815629707E+03 -0.12757859267E+03  0.65517219389E+03  0.88305809820E+03  0.25500000920E-02 0. -1.
       -2    1    3    3    0  502 -0.57815629707E+03  0.12757859267E+03  0.35407108092E+03  0.68986037101E+03  0.25500000920E-02 0.  1.
</event>
<event>
 5   0  0.6493047E-03  0.1069282E+04  0.7818609E-02  0.9235660E-01
       -2   -1    0    0    0  501  0.00000000000E+00  0.00000000000E+00  0.31957191846E+03  0.31957191847E+03  0.25500000920E-02 0.  1.
        2   -1    0    0  501    0  0.00000000000E+00  0.00000000000E+00 -0.89445018778E+03  0.89445018778E+03  0.25500000920E-02 0. -1.
    10030    2    1    2    0    0  0.00000000000E+00  0.00000000000E+00 -0.57487826932E+03  0.12140221062E+04  0.10692823060E+04 0.  0.
        3    1    3    3  502    0  0.21527257300E+03  0.48244756923E+03 -0.38067171484E+03  0.65115965970E+03  0.10100000352E+00 0. -1.
       -3    1    3    3    0  502 -0.21527257300E+03 -0.48244756923E+03 -0.19420655448E+03  0.56286244655E+03  0.10100000352E+00 0.  1.
</event>
<event>
 5   0  0.6658994E-03  0.1132028E+04  0.7818609E-02  0.9174525E-01
        2   -1    0    0  501    0  0.00000000000E+00  0.00000000000E+00  0.15234922257E+04  0.15234922257E+04  0.25500000920E-02 0.  1.
       -2   -1    0    0    0  501  0.00000000000E+00  0.00000000000E+00 -0.21028786704E+03  0.21028786706E+03  0.25500000920E-02 0. -1.
    10030    2    1    2    0    0  0.00000000000E+00  0.00000000000E+00  0.13132043587E+04  0.17337800928E+04  0.11320281456E+04 0.  0.
        4    1    3    3  502    0  0.43333102503E+01  0.21498588415E+02  0.15228390767E+04  0.15229975158E+04  0.12699999809E+01 0.  1.
       -4    1    3    3    0  502 -0.43333102503E+01 -0.21498588415E+02 -0.20963471797E+03  0.21078257698E+03  0.12699999809E+01 0. -1.
</event>
<event>
 5   0  0.6658994E-03  0.1213340E+04  0.7818609E-02  0.9101259E-01
       -2   -1    0    0    0  501  0.00000000000E+00  0.00000000000E+00  0.33653266838E+03  0.33653266839E+03  0.25500000920E-02 0. -1.
        2   -1    0    0  501    0  0.00000000000E+00  0.00000000000E+00 -0.10936491782E+04  0.10936491782E+04  0.25500000920E-02 0.  1.
    10030    2    1    2    0    0  0.00000000000E+00  0.00000000000E+00 -0.75711650982E+03  0.14301818466E+04  0.12133403088E+04 0.  0.
        4    1    3    3  502    0  0.23675585026E+03  0.55152166818E+03 -0.27433975718E+03  0.65991923625E+03  0.12699999809E+01 0.  1.
       -4    1    3    3    0  502 -0.23675585026E+03 -0.55152166818E+03 -0.48277675265E+03  0.77026261035E+03  0.12699999809E+01 0. -1.
</event>
<event>
 5   0  0.3772254E-03  0.1199985E+04  0.7818609E-02  0.9112869E-01
        1   -1    0    0  501    0  0.00000000000E+00  0.00000000000E+00  0.29492617322E+03  0.29492617326E+03  0.50400001928E-02 0. -1.
       -1   -1    0    0    0  501  0.00000000000E+00  0.00000000000E+00 -0.12206143491E+04  0.12206143491E+04  0.50400001928E-02 0.  1.
    10030    2    1    2    0    0  0.00000000000E+00  0.00000000000E+00 -0.92568817586E+03  0.15155405223E+04  0.11999851982E+04 0.  0.
        3    1    3    3  502    0 -0.33636700011E+02 -0.12037422118E+03  0.27830255833E+03  0.30507983363E+03  0.10100000352E+00 0. -1.
       -3    1    3    3    0  502  0.33636700011E+02  0.12037422118E+03 -0.12039907342E+04  0.12104606887E+04  0.10100000352E+00 0.  1.
</event>
<event>
 5   0  0.3701879E-03  0.9846765E+03  0.7818609E-02  0.9325513E-01
        1   -1    0    0  501    0  0.00000000000E+00  0.00000000000E+00  0.97832204539E+03  0.97832204541E+03  0.50400001928E-02 0.  1.
       -1   -1    0    0    0  501  0.00000000000E+00  0.00000000000E+00 -0.24776806446E+03  0.24776806451E+03  0.50400001928E-02 0. -1.
    10030    2    1    2    0    0  0.00000000000E+00  0.00000000000E+00  0.73055398094E+03  0.12260901099E+04  0.98467651468E+03 0.  0.
        1    1    3    3  502    0  0.13656312676E+03 -0.40277141130E+03  0.67412611149E+03  0.79706982854E+03  0.50400001928E-02 0.  1.
       -1    1    3    3    0  502 -0.13656312676E+03  0.40277141130E+03  0.56427869448E+02  0.42902028137E+03  0.50400001928E-02 0. -1.
</event>
<event>
 5   0  0.3648616E-03  0.1180923E+04  0.7818609E-02  0.9129721E-01
       -1   -1    0    0    0  501  0.00000000000E+00  0.00000000000E+00  0.46684810047E+03  0.46684810050E+03  0.50400001928E-02 0. -1.
        1   -1    0    0  501    0  0.00000000000E+00  0.00000000000E+00 -0.74680530712E+03  0.74680530713E+03  0.50400001928E-02 0.  1.
    10030    2    1    2    0    0  0.00000000000E+00  0.00000000000E+00 -0.27995720665E+03  0.12136534076E+04  0.11809227563E+04 0.  0.
        2    1    3    3  502    0  0.14237679433E+03 -0.19048612808E+02  0.44861718810E+03  0.47105348176E+03  0.25500000920E-02 0. -1.
       -2    1    3    3    0  502 -0.14237679433E+03  0.19048612808E+02 -0.72857439475E+03  0.74259992587E+03  0.25500000920E-02 0.  1.
</event>
<event>
 5   0  0.6349142E-03  0.1213692E+04  0.7818609E-02  0.9100956E-01
       -2   -1    0    0    0  501  0.00000000000E+00  0.00000000000E+00  0.39686951939E+03  0.39686951940E+03  0.25500000920E-02 0.  1.
        2   -1    0    0  501    0  0.00000000000E+00  0.00000000000E+00 -0.92791661554E+03  0.92791661555E+03  0.25500000920E-02 0. -1.
    10030    2    1    2    0    0  0.00000000000E+00  0.00000000000E+00 -0.53104709616E+03  0.13247861349E+04  0.12136915939E+04 0.  0.
        1    1    3    3  502    0  0.52228199064E+03  0.26800128100E+03 -0.97630593094E+02  0.59509234333E+03  0.50400001928E-02 0. -1.
       -1    1    3    3    0  502 -0.52228199064E+03 -0.26800128100E+03 -0.43341650306E+03  0.72969379161E+03  0.50400001928E-02 0.  1.
</event>
<event>
 5   0  0.6658994E-03  0.1215700E+04  0.7818609E-02  0.9099224E-01
        2   -1    0    0  501    0  0.00000000000E+00  0.00000000000E+00  0.64718654059E+03  0.64718654060E+03  0.25500000920E-02 0. -1.
       -2   -1    0    0    0  501  0.00000000000E+00  0.00000000000E+00 -0.57090473985E+03  0.57090473985E+03  0.25500000920E-02 0.  1.
    10030    2    1    2    0    0  0.00000000000E+00  0.00000000000E+00  0.76281800745E+02  0.12180912805E+04  0.12157003966E+04 0.  0.
        4    1    3    3  502    0  0.40395709616E+03  0.68807645444E+02  0.48798312257E+03  0.63721657890E+03  0.12699999809E+01 0. -1.
       -4    1    3    3    0  502 -0.40395709616E+03 -0.68807645444E+02 -0.41170132182E+03  0.58087470155E+03  0.12699999809E+01 0.  1.
</event>
<event>
 5   0  0.3731281E-03  0.1196020E+04  0.7818609E-02  0.9116347E-01
       -1   -1    0    0    0  501  0.00000000000E+00  0.00000000000E+00  0.39854828347E+03  0.39854828350E+03  0.50400001928E-02 0. -1.
        1   -1    0    0  501    0  0.00000000000E+00  0.00000000000E+00 -0.89729632348E+03  0.89729632350E+03  0.50400001928E-02 0.  1.
    10030    2    1    2    0    0  0.00000000000E+00  0.00000000000E+00 -0.49874804001E+03  0.12958446070E+04  0.11960199154E+04 0.  0.
        5    1    3    3  502    0 -0.21159197176E+03  0.55631819950E+03 -0.18682596746E+03  0.62384864649E+03  0.46999998093E+01 0. -1.
       -5    1    3    3    0  502  0.21159197176E+03 -0.55631819950E+03 -0.31192207255E+03  0.67199596052E+03  0.46999998093E+01 0.  1.
</event>
<event>
 5   0  0.6349142E-03  0.1174405E+04  0.7818609E-02  0.9135559E-01
        2   -1    0    0  501    0  0.00000000000E+00  0.00000000000E+00  0.92430530994E+03  0.92430530995E+03  0.25500000920E-02 0. -1.
       -2   -1    0    0    0  501  0.00000000000E+00  0.00000000000E+00 -0.37304440746E+03  0.37304440747E+03  0.25500000920E-02 0.  1.
    10030    2    1    2    0    0  0.00000000000E+00  0.00000000000E+00  0.55126090248E+03  0.12973497174E+04  0.11744052566E+04 0.  0.
        1    1    3    3  502    0  0.48031088403E+02  0.14892022335E+03 -0.34958965940E+03  0.38301063740E+03  0.50400001928E-02 0.  1.
       -1    1    3    3    0  502 -0.48031088403E+02 -0.14892022335E+03  0.90085056188E+03  0.91433908002E+03  0.50400001928E-02 0. -1.
</event>
<event>
 5   0  0.3772254E-03  0.1187941E+04  0.7818609E-02  0.9123478E-01
        1   -1    0    0  501    0  0.00000000000E+00  0.00000000000E+00  0.83351094454E+03  0.83351094456E+03  0.50400001928E-02 0.  1.
       -1   -1    0    0    0  501  0.00000000000E+00  0.00000000000E+00 -0.42327097133E+03  0.42327097136E+03  0.50400001928E-02 0. -1.
    10030    2    1    2    0    0  0.00000000000E+00  0.00000000000E+00  0.41023997321E+03  0.12567819159E+04  0.11879410543E+04 0.  0.
        3    1    3    3  502    0  0.72959229707E+02 -0.31175275847E+03 -0.32415963313E+03  0.45562299060E+03  0.10100000352E+00 0. -1.
       -3    1    3    3    0  502 -0.72959229707E+02  0.31175275847E+03  0.73439960634E+03  0.80115892531E+03  0.10100000352E+00 0.  1.
</event>
<event>
 5   0  0.3731281E-03  0.1220400E+04  0.7818609E-02  0.9095186E-01
        1   -1    0    0  501    0  0.00000000000E+00  0.00000000000E+00  0.71364289814E+03  0.71364289816E+03  0.50400001928E-02 0. -1.
       -1   -1    0    0    0  501  0.00000000000E+00  0.00000000000E+00 -0.52175118453E+03  0.52175118455E+03  0.50400001928E-02 0.  1.
    10030    2    1    2    0    0  0.00000000000E+00  0.00000000000E+00  0.19189171361E+03  0.12353940827E+04  0.12203999794E+04 0.  0.
        5    1    3    3  502    0 -0.37131379754E+03 -0.48232911929E+03  0.13897245004E+03  0.62438029071E+03  0.46999998093E+01 0. -1.
       -5    1    3    3    0  502  0.37131379754E+03  0.48232911929E+03  0.52919263566E+02  0.61101379200E+03  0.46999998093E+01 0.  1.
</event>
<event>
 5   0  0.3731281E-03  0.1230816E+04  0.7818609E-02  0.9086303E-01
       -1   -1    0    0    0  501  0.00000000000E+00  0.00000000000E+00  0.25215065623E+03  0.25215065628E+03  0.50400001928E-02 0.  1.
        1   -1    0    0  501    0  0.00000000000E+00  0.00000000000E+00 -0.15019873615E+04  0.15019873615E+04  0.50400001928E-02 0. -1.
    10030    2    1    2    0    0  0.00000000000E+00  0.00000000000E+00 -0.12498367053E+04  0.17541380178E+04  0.12308161502E+04 0.  0.
        5    1    3    3  502    0  0.27357236934E+02 -0.18923941502E+03  0.20871617807E+03  0.28309805297E+03  0.46999998093E+01 0.  1.
       -5    1    3    3    0  502 -0.27357236934E+02  0.18923941502E+03 -0.14585528834E+04  0.14710399648E+04  0.46999998093E+01 0. -1.
</event>
<event>
 5   0  0.6640844E-03  0.1206463E+04  0.7818609E-02  0.9107218E-01
        2   -1    0    0  501    0  0.00000000000E+00  0.00000000000E+00  0.48165599286E+03  0.48165599286E+03  0.25500000920E-02 0.  1.
       -2   -1    0    0    0  501  0.00000000000E+00  0.00000000000E+00 -0.75549407735E+03  0.75549407736E+03  0.25500000920E-02 0. -1.
    10030    2    1    2    0    0  0.00000000000E+00  0.00000000000E+00 -0.27383808449E+03  0.12371500702E+04  0.12064630122E+04 0.  0.
        5    1    3    3  502    0 -0.26839995812E+03 -0.37889321621E+03  0.25793031239E+03  0.53117675293E+03  0.46999998093E+01 0.  1.
       -5    1    3    3    0  502  0.26839995812E+03  0.37889321621E+03 -0.53176839689E+03  0.70597331729E+03  0.46999998093E+01 0. -1.
</event>
<event>
 5   0  0.6640844E-03  0.1210549E+04  0.7818609E-02  0.9103672E-01
        2   -1    0    0  501    0  0.00000000000E+00  0.00000000000E+00  0.22667071509E+04  0.22667071509E+04  0.25500000920E-02 0. -1.
       -2   -1    0    0    0  501  0.00000000000E+00  0.00000000000E+00 -0.16162542732E+03  0.16162542734E+03  0.25500000920E-02 0.  1.
    10030    2    1    2    0    0  0.00000000000E+00  0.00000000000E+00  0.21050817236E+04  0.24283325783E+04  0.12105494817E+04 0.  0.
        5    1    3    3  502    0  0.91449435252E+02 -0.22483936872E+03 -0.59681068401E+02  0.24999932171E+03  0.46999998093E+01 0.  1.
       -5    1    3    3    0  502 -0.91449435252E+02  0.22483936872E+03  0.21647627920E+04  0.21783332566E+04  0.46999998093E+01 0. -1.
</event>
<event>
 5   0  0.6658994E-03  0.1190756E+04  0.7818609E-02  0.9120987E-01
        2   -1    0    0  501    0  0.00000000000E+00  0.00000000000E+00  0.13520500391E+04  0.13520500391E+04  0.25500000920E-02 0.  1.
       -2   -1    0    0    0  501  0.00000000000E+00  0.00000000000E+00 -0.26217584912E+03  0.26217584914E+03  0.25500000920E-02 0. -1.
    10030    2    1    2    0    0  0.00000000000E+00  0.00000000000E+00  0.10898741899E+04  0.16142258882E+04  0.11907558391E+04 0.  0.
        4    1    3    3  502    0  0.27273413276E+03  0.67964749726E+02 -0.16656937385E+03  0.32672631296E+03  0.12699999809E+01 0. -1.
       -4    1    3    3    0  502 -0.27273413276E+03 -0.67964749726E+02  0.12564435638E+04  0.12874995752E+04  0.12699999809E+01 0.  1.
</event>
<event>
 5   0  0.3701879E-03  0.1213677E+04  0.7818609E-02  0.9100969E-01
       -1   -1    0    0    0  501  0.00000000000E+00  0.00000000000E+00  0.15014926980E+03  0.15014926989E+03  0.50400001928E-02 0.  1.
        1   -1    0    0  501    0  0.00000000000E+00  0.00000000000E+00 -0.24525778790E+04  0.24525778790E+04  0.50400001928E-02 0. -1.
    10030    2    1    2    0    0  0.00000000000E+00  0.00000000000E+00 -0.23024286092E+04  0.26027271489E+04  0.12136766914E+04 0.  0.
        1    1    3    3  502    0 -0.12596091513E+03 -0.57288432654E+03 -0.81767645284E+03  0.10063087922E+04  0.50400001928E-02 0.  1.
       -1    1    3    3    0  502  0.12596091513E+03  0.57288432654E+03 -0.14847521564E+04  0.15964183567E+04  0.50400001928E-02 0. -1.
</event>
<event>
 5   0  0.6640844E-03  0.1161779E+04  0.7818609E-02  0.9146985E-01
       -2   -1    0    0    0  501  0.00000000000E+00  0.00000000000E+00  0.42562144030E+03  0.42562144031E+03  0.25500000920E-02 0. -1.
        2   -1    0    0  501    0  0.00000000000E+00  0.00000000000E+00 -0.79280003131E+03  0.79280003132E+03  0.25500000920E-02 0.  1.
    10030    2    1    2    0    0  0.00000000000E+00  0.00000000000E+00 -0.36717859101E+03  0.12184214716E+04  0.11617791377E+04 0.  0.
        5    1    3    3  502    0 -0.10806813491E+03 -0.56952599255E+03 -0.14474254438E+03  0.59750403524E+03  0.46999998093E+01 0.  1.
       -5    1    3    3    0  502  0.10806813491E+03  0.56952599255E+03 -0.22243604663E+03  0.62091743639E+03  0.46999998093E+01 0. -1.
</event>
<event>
 5   0  0.3731281E-03  0.1197583E+04  0.7818609E-02  0.9114975E-01
        1   -1    0    0  501    0  0.00000000000E+00  0.00000000000E+00  0.14533223839E+04  0.14533223840E+04  0.50400001928E-02 0.  1.
       -1   -1    0    0    0  501  0.00000000000E+00  0.00000000000E+00 -0.24671127042E+03  0.24671127047E+03  0.50400001928E-02 0. -1.
    10030    2    1    2    0    0  0.00000000000E+00  0.00000000000E+00  0.12066111135E+04  0.17000336544E+04  0.11975825846E+04 0.  0.
        5    1    3    3  502    0  0.36320461208E+03  0.74619179304E+02  0.12707125213E+04  0.13237137205E+04  0.46999998093E+01 0.  1.
       -5    1    3    3    0  502 -0.36320461208E+03 -0.74619179304E+02 -0.64101407785E+02  0.37631993388E+03  0.46999998093E+01 0. -1.
</event>
<event>
 5   0  0.6493047E-03  0.1164921E+04  0.7818609E-02  0.9144127E-01
       -2   -1    0    0    0  501  0.00000000000E+00  0.00000000000E+00  0.11018808368E+04  0.11018808368E+04  0.25500000920E-02 0.  1.
        2   -1    0    0  501    0  0.00000000000E+00  0.00000000000E+00 -0.30789203568E+03  0.30789203569E+03  0.25500000920E-02 0. -1.
    10030    2    1    2    0    0  0.00000000000E+00  0.00000000000E+00  0.79398880117E+03  0.14097728725E+04  0.11649211715E+04 0.  0.
        3    1    3    3  502    0  0.10953093890E+03  0.57205581281E+03  0.39223847270E+03  0.70220788177E+03  0.10100000352E+00 0.  1.
       -3    1    3    3    0  502 -0.10953093890E+03 -0.57205581281E+03  0.40175032846E+03  0.70756499077E+03  0.10100000352E+00 0. -1.
</event>
<event>
 5   0  0.6640844E-03  0.1217035E+04  0.7818609E-02  0.9098075E-01
       -2   -1    0    0    0  501  0.00000000000E+00  0.00000000000E+00  0.40695638311E+03  0.40695638311E+03  0.25500000920E-02 0. -1.
        2   -1    0    0  501    0  0.00000000000E+00  0.00000000000E+00 -0.90990945526E+03  0.90990945526E+03  0.25500000920E-02 0.  1.
    10030    2    1    2    0    0  0.00000000000E+00  0.00000000000E+00 -0.50295307215E+03  0.13168658384E+04  0.12170348571E+04 0.  0.
        5    1    3    3  502    0  0.15619278873E+03 -0.47450698095E+03 -0.62742220464E+03  0.80201856281E+03  0.46999998093E+01 0.  1.
       -5    1    3    3    0  502 -0.15619278873E+03  0.47450698095E+03  0.12446913249E+03  0.51484727557E+03  0.46999998093E+01 0. -1.
</event>
<event>
 5   0  0.3944074E-03  0.1203845E+04  0.7818609E-02  0.9109498E-01
       -1   -1    0    0    0  501  0.00000000000E+00  0.00000000000E+00  0.45388754200E+03  0.45388754203E+03  0.50400001928E-02 0.  1.
        1   -1    0    0  501    0  0.00000000000E+00  0.00000000000E+00 -0.79823893044E+03  0.79823893045E+03  0.50400001928E-02 0. -1.
    10030    2    1    2    0    0  0.00000000000E+00  0.00000000000E+00 -0.34435138844E+03  0.12521264725E+04  0.12038450168E+04 0.  0.
        4    1    3    3  502    0 -0.30417593399E+03 -0.24954185407E+03 -0.64598361967E+03  0.75636670044E+03  0.12699999809E+01 0. -1.
       -4    1    3    3    0  502  0.30417593399E+03  0.24954185407E+03  0.30163223123E+03  0.49575977204E+03  0.12699999809E+01 0.  1.
</event>
<event>
 5   0  0.6493047E-03  0.1218176E+04  0.7818609E-02  0.9097094E-01
       -2   -1    0    0    0  501  0.00000000000E+00  0.00000000000E+00  0.29735960852E+03  0.29735960853E+03  0.25500000920E-02 0.  1.
        2   -1    0    0  501    0  0.00000000000E+00  0.00000000000E+00 -0.12476086726E+04  0.12476086726E+04  0.25500000920E-02 0. -1.
    10030    2    1    2    0    0  0.00000000000E+00  0.00000000000E+00 -0.95024906403E+03  0.15449682811E+04  0.12181763854E+04 0.  0.
        3    1    3    3  502    0  0.25803531939E+03  0.50441178358E+03 -0.19160332827E+03  0.59810142875E+03  0.10100000352E+00 0.  1.
       -3    1    3    3    0  502 -0.25803531939E+03 -0.50441178358E+03 -0.75864573576E+03  0.94686685234E+03  0.10100000352E+00 0. -1.
</event>
<event>
 5   0  0.6585930E-03  0.1191334E+04  0.7818609E-02  0.9120476E-01
       -2   -1    0    0    0  501  0.00000000000E+00  0.00000000000E+00  0.35884844495E+03  0.35884844496E+03  0.25500000920E-02 0.  1.
        2   -1    0    0  501    0  0.00000000000E+00  0.00000000000E+00 -0.98877128363E+03  0.98877128363E+03  0.25500000920E-02 0. -1.
    10030    2    1    2    0    0  0.00000000000E+00  0.00000000000E+00 -0.62992283868E+03  0.13476197286E+04  0.11913337694E+04 0.  0.
        2    1    3    3  502    0 -0.35374890191E+03 -0.23403131792E+03 -0.78804877929E+03  0.89494682630E+03  0.25500000920E-02 0. -1.
       -2    1    3    3    0  502  0.35374890191E+03  0.23403131792E+03  0.15812594061E+03  0.45267290229E+03  0.25500000920E-02 0.  1.
</event>
<event>
 5   0  0.6658994E-03  0.1236099E+04  0.7818609E-02  0.9081833E-01
       -2   -1    0    0    0  501  0.00000000000E+00  0.00000000000E+00  0.36424418348E+03  0.36424418349E+03  0.25500000920E-02 0.  1.
        2   -1    0    0  501    0  0.00000000000E+00  0.00000000000E+00 -0.10487060022E+04  0.10487060022E+04  0.25500000920E-02 0. -1.
    10030    2    1    2    0    0  0.00000000000E+00  0.00000000000E+00 -0.68446181875E+03  0.14129501857E+04  0.12360988011E+04 0.  0.
        4    1    3    3  502    0 -0.18012211722E+03 -0.58781644276E+03 -0.26983462159E+03  0.67140485804E+03  0.12699999809E+01 0.  1.
       -4    1    3    3    0  502  0.18012211722E+03  0.58781644276E+03 -0.41462719715E+03  0.74154532768E+03  0.12699999809E+01 0. -1.
</event>
<event>
 5   0  0.6493047E-03  0.1226408E+04  0.7818609E-02  0.9090051E-01
       -2   -1    0    0    0  501  0.00000000000E+00  0.00000000000E+00  0.32392876724E+03  0.32392876725E+03  0.25500000920E-02 0.  1.
        2   -1    0    0  501    0  0.00000000000E+00  0.00000000000E+00 -0.11608080391E+04  0.11608080391E+04  0.25500000920E-02 0. -1.
    10030    2    1    2    0    0  0.00000000000E+00  0.00000000000E+00 -0.83687927182E+03  0.14847368063E+04  0.12264079535E+04 0.  0.
        3    1    3    3  502    0 -0.52207574492E+03  0.39077460091E+02 -0.80495196001E+03  0.96022799347E+03  0.10100000352E+00 0. -1.
       -3    1    3    3    0  502  0.52207574492E+03 -0.39077460091E+02 -0.31927311812E+02  0.52450881285E+03  0.10100000352E+00 0.  1.
</event>
<event>
 5   0  0.6349142E-03  0.1132724E+04  0.7818609E-02  0.9173871E-01
        2   -1    0    0  501    0  0.00000000000E+00  0.00000000000E+00  0.84212759566E+03  0.84212759567E+03  0.25500000920E-02 0. -1.
       -2   -1    0    0    0  501  0.00000000000E+00  0.00000000000E+00 -0.38089930676E+03  0.38089930677E+03  0.25500000920E-02 0.  1.
    10030    2    1    2    0    0  0.00000000000E+00  0.00000000000E+00  0.46122828891E+03  0.12230269024E+04  0.11327238276E+04 0.  0.
        1    1    3    3  502    0  0.24970109762E+03 -0.50813144367E+03  0.21468631629E+03  0.60550674367E+03  0.50400001928E-02 0.  1.
       -1    1    3    3    0  502 -0.24970109762E+03  0.50813144367E+03  0.24654197262E+03  0.61752015877E+03  0.50400001928E-02 0. -1.
</event>
<event>
 5   0  0.6349142E-03  0.1207703E+04  0.7818609E-02  0.9106141E-01
        2   -1    0    0  501    0  0.00000000000E+00  0.00000000000E+00  0.10665412541E+04  0.10665412541E+04  0.25500000920E-02 0. -1.
       -2   -1    0    0    0  501  0.00000000000E+00  0.00000000000E+00 -0.34188679266E+03  0.34188679267E+03  0.25500000920E-02 0.  1.
    10030    2    1    2    0    0  0.00000000000E+00  0.00000000000E+00  0.72465446140E+03  0.14084280467E+04  0.12077025604E+04 0.  0.
        1    1    3    3  502    0 -0.20619565368E+03 -0.56550595784E+03  0.30612231668E+03  0.67529586756E+03  0.50400001928E-02 0. -1.
       -1    1    3    3    0  502  0.20619565368E+03  0.56550595784E+03  0.41853214471E+03  0.73313217917E+03  0.50400001928E-02 0.  1.
</event>
<event>
 5   0  0.3701879E-03  0.1182263E+04  0.7818609E-02  0.9128525E-01
        1   -1    0    0  501    0  0.00000000000E+00  0.00000000000E+00  0.69169493612E+03  0.69169493614E+03  0.50400001928E-02 0. -1.
       -1   -1    0    0    0  501  0.00000000000E+00  0.00000000000E+00 -0.50518860831E+03  0.50518860834E+03  0.50400001928E-02 0.  1.
    10030    2    1    2    0    0  0.00000000000E+00  0.00000000000E+00  0.18650632780E+03  0.11968835445E+04  0.11822629186E+04 0.  0.
        1    1    3    3  502    0 -0.12939687214E+03 -0.31972458209E+03  0.57926195752E+03  0.67417488412E+03  0.50400001928E-02 0. -1.
       -1    1    3    3    0  502  0.12939687214E+03  0.31972458209E+03 -0.39275562972E+03  0.52270866036E+03  0.50400001928E-02 0.  1.
</event>
<event>
 5   0  0.3648616E-03  0.1240646E+04  0.7818609E-02  0.9078005E-01
        1   -1    0    0  501    0  0.00000000000E+00  0.00000000000E+00  0.70214662613E+03  0.70214662615E+03  0.50400001928E-02 0. -1.
       -1   -1    0    0    0  501  0.00000000000E+00  0.00000000000E+00 -0.54803459420E+03  0.54803459423E+03  0.50400001928E-02 0.  1.
    10030    2    1    2    0    0  0.00000000000E+00  0.00000000000E+00  0.15411203193E+03  0.12501812204E+04  0.12406460274E+04 0.  0.
        2    1    3    3  502    0  0.10951313587E+03  0.29408409392E+03 -0.46214721600E+03  0.55862208199E+03  0.25500000920E-02 0.  1.
       -2    1    3    3    0  502 -0.10951313587E+03 -0.29408409392E+03  0.61625924793E+03  0.69155913839E+03  0.25500000920E-02 0. -1.
</event>
<event>
 5   0  0.6349142E-03  0.1301668E+04  0.7818609E-02  0.9028244E-01
        2   -1    0    0  501    0  0.00000000000E+00  0.00000000000E+00  0.70538505678E+03  0.70538505678E+03  0.25500000920E-02 0. -1.
       -2   -1    0    0    0  501  0.00000000000E+00  0.00000000000E+00 -0.60050129263E+03  0.60050129263E+03  0.25500000920E-02 0.  1.
    10030    2    1    2    0    0  0.00000000000E+00  0.00000000000E+00  0.10488376415E+03  0.13058863494E+04  0.13016676049E+04 0.  0.
        1    1    3    3  502    0  0.62805701818E+02  0.61235758666E+03 -0.15956805871E+03  0.63591535247E+03  0.50400001928E-02 0.  1.
       -1    1    3    3    0  502 -0.62805701818E+02 -0.61235758666E+03  0.26445182285E+03  0.66997099695E+03  0.50400001928E-02 0. -1.
</event>
<event>
 5   0  0.3772254E-03  0.1208316E+04  0.7818609E-02  0.9105608E-01
        1   -1    0    0  501    0  0.00000000000E+00  0.00000000000E+00  0.86113462493E+03  0.86113462494E+03  0.50400001928E-02 0. -1.
       -1   -1    0    0    0  501  0.00000000000E+00  0.00000000000E+00 -0.42386762879E+03  0.42386762882E+03  0.50400001928E-02 0.  1.
    10030    2    1    2    0    0  0.00000000000E+00  0.00000000000E+00  0.43726699614E+03  0.12850022538E+04  0.12083163353E+04 0.  0.
        3    1    3    3  502    0  0.46489061406E+03  0.26746283704E+03  0.51439809263E+03  0.74314538291E+03  0.10100000352E+00 0. -1.
       -3    1    3    3    0  502 -0.46489061406E+03 -0.26746283704E+03 -0.77131096487E+02  0.54185687085E+03  0.10100000352E+00 0.  1.
</event>
<event>
 5   0  0.6640844E-03  0.1096568E+04  0.7818609E-02  0.9208544E-01
       -2   -1    0    0    0  501  0.00000000000E+00  0.00000000000E+00  0.30287246401E+03  0.30287246402E+03  0.25500000920E-02 0. -1.
        2   -1    0    0  501    0  0.00000000000E+00  0.00000000000E+00 -0.99254680535E+03  0.99254680535E+03  0.25500000920E-02 0.  1.
    10030    2    1    2    0    0  0.00000000000E+00  0.00000000000E+00 -0.68967434134E+03  0.12954192694E+04  0.10965675476E+04 0.  0.
        5    1    3    3  502    0 -0.37734694444E+03 -0.38880981368E+03 -0.24579309622E+03  0.59497909530E+03  0.46999998093E+01 0.  1.
       -5    1    3    3    0  502  0.37734694444E+03  0.38880981368E+03 -0.44388124512E+03  0.70044017407E+03  0.46999998093E+01 0. -1.
</event>
<event>
 5   0  0.3772254E-03  0.1205921E+04  0.7818609E-02  0.9107689E-01
       -1   -1    0    0    0  501  0.00000000000E+00  0.00000000000E+00  0.75020141892E+03  0.75020141893E+03  0.50400001928E-02 0. -1.
        1   -1    0    0  501    0  0.00000000000E+00  0.00000000000E+00 -0.48461859485E+03  0.48461859488E+03  0.50400001928E-02 0.  1.
    10030    2    1    2    0    0  0.00000000000E+00  0.00000000000E+00  0.26558282407E+03  0.12348200138E+04  0.12059213200E+04 0.  0.
        3    1    3    3  502    0 -0.26247797807E+03 -0.39419456907E+02 -0.42158175429E+03  0.49817644294E+03  0.10100000352E+00 0.  1.
       -3    1    3    3    0  502  0.26247797807E+03  0.39419456907E+02  0.68716457835E+03  0.73664357087E+03  0.10100000352E+00 0. -1.
</event>
<event>
 5   0  0.6585930E-03  0.1219302E+04  0.7818609E-02  0.9096127E-01
       -2   -1    0    0    0  501  0.00000000000E+00  0.00000000000E+00  0.10846368891E+04  0.10846368891E+04  0.25500000920E-02 0.  1.
        2   -1    0    0  501    0  0.00000000000E+00  0.00000000000E+00 -0.34267168284E+03  0.34267168285E+03  0.25500000920E-02 0. -1.
    10030    2    1    2    0    0  0.00000000000E+00  0.00000000000E+00  0.74196520629E+03  0.14273085720E+04  0.12193020103E+04 0.  0.
        2    1    3    3  502    0  0.18272986473E+03 -0.15380391645E+02 -0.30962297640E+03  0.35985156306E+03  0.25500000920E-02 0. -1.
       -2    1    3    3    0  502 -0.18272986473E+03  0.15380391645E+02  0.10515881827E+04  0.10674570089E+04  0.25500000920E-02 0.  1.
</event>
<event>
 5   0  0.3944074E-03  0.1172950E+04  0.7818609E-02  0.9136868E-01
        1   -1    0    0  501    0  0.00000000000E+00  0.00000000000E+00  0.29121231928E+03  0.29121231932E+03  0.50400001928E-02 0. -1.
       -1   -1    0    0    0  501  0.00000000000E+00  0.00000000000E+00 -0.11811069872E+04  0.11811069872E+04  0.50400001928E-02 0.  1.
    10030    2    1    2    0    0  0.00000000000E+00  0.00000000000E+00 -0.88989466795E+03  0.14723193066E+04  0.11729499650E+04 0.  0.
        4    1    3    3  502    0  0.11803664701E+02 -0.26158644076E+03 -0.11036543153E+04  0.11342932836E+04  0.12699999809E+01 0.  1.
       -4    1    3    3    0  502 -0.11803664701E+02  0.26158644076E+03  0.21375964737E+03  0.33802602301E+03  0.12699999809E+01 0. -1.
</event>
<event>
 5   0  0.3731281E-03  0.1211415E+04  0.7818609E-02  0.9102923E-01
       -1   -1    0    0    0  501  0.00000000000E+00  0.00000000000E+00  0.41924509817E+03  0.41924509820E+03  0.50400001928E-02 0.  1.
        1   -1    0    0  501    0  0.00000000000E+00  0.00000000000E+00 -0.87510012533E+03  0.87510012534E+03  0.50400001928E-02 0. -1.
    10030    2    1    2    0    0  0.00000000000E+00  0.00000000000E+00 -0.45585502716E+03  0.12943452235E+04  0.12114147729E+04 0.  0.
        5    1    3    3  502    0  0.29038709286E+03 -0.36479511958E+03  0.18513767299E+03  0.50169531683E+03  0.46999998093E+01 0.  1.
       -5    1    3    3    0  502 -0.29038709286E+03  0.36479511958E+03 -0.64099270015E+03  0.79264990671E+03  0.46999998093E+01 0. -1.
</event>
<event>
 5   0  0.3701879E-03  0.1203939E+04  0.7818609E-02  0.9109416E-01
       -1   -1    0    0    0  501  0.00000000000E+00  0.00000000000E+00  0.59673420438E+03  0.59673420440E+03  0.50400001928E-02 0.  1.
        1   -1    0    0  501    0  0.00000000000E+00  0.00000000000E+00 -0.60725031954E+03  0.60725031956E+03  0.50400001928E-02 0. -1.
    10030    2    1    2    0    0  0.00000000000E+00  0.00000000000E+00 -0.10516115155E+02  0.12039845240E+04  0.12039385970E+04 0.  0.
        1    1    3    3  502    0  0.51544280141E+03 -0.31027335145E+03 -0.25659868683E+02  0.60217046011E+03  0.50400001928E-02 0. -1.
       -1    1    3    3    0  502 -0.51544280141E+03  0.31027335145E+03  0.15143753528E+02  0.60181406385E+03  0.50400001928E-02 0.  1.
</event>
<event>
 5   0  0.3648616E-03  0.1199106E+04  0.7818609E-02  0.9113639E-01
        1   -1    0    0  501    0  0.00000000000E+00  0.00000000000E+00  0.62295544803E+03  0.62295544805E+03  0.50400001928E-02 0.  1.
       -1   -1    0    0    0  501  0.00000000000E+00  0.00000000000E+00 -0.57703006452E+03  0.57703006454E+03  0.50400001928E-02 0. -1.
    10030    2    1    2    0    0  0.00000000000E+00  0.00000000000E+00  0.45925383511E+02  0.11999855126E+04  0.11991063712E+04 0.  0.
        2    1    3    3  502    0  0.49089578323E+03  0.21450674577E+03  0.29236669202E+03  0.61030328246E+03  0.25500000920E-02 0.  1.
       -2    1    3    3    0  502 -0.49089578323E+03 -0.21450674577E+03 -0.24644130851E+03  0.58968223012E+03  0.25500000920E-02 0. -1.
</event>
<event>
 5   0  0.6493047E-03  0.1186933E+04  0.7818609E-02  0.9124371E-01
        2   -1    0    0  501    0  0.00000000000E+00  0.00000000000E+00  0.70842078010E+03  0.70842078010E+03  0.25500000920E-02 0. -1.
       -2   -1    0    0    0  501  0.00000000000E+00  0.00000000000E+00 -0.49716586154E+03  0.49716586155E+03  0.25500000920E-02 0.  1.
    10030    2    1    2    0    0  0.00000000000E+00  0.00000000000E+00  0.21125491855E+03  0.12055866417E+04  0.11869332373E+04 0.  0.
        3    1    3    3  502    0  0.33291873649E+03 -0.46300125549E+03  0.27251905625E+03  0.63203773139E+03  0.10100000352E+00 0. -1.
       -3    1    3    3    0  502 -0.33291873649E+03  0.46300125549E+03 -0.61264137697E+02  0.57354891026E+03  0.10100000352E+00 0.  1.
</event>
<event>
 5   0  0.6349142E-03  0.1159760E+04  0.7818609E-02  0.9148827E-01
        2   -1    0    0  501    0  0.00000000000E+00  0.00000000000E+00  0.81579344318E+03  0.81579344319E+03  0.25500000920E-02 0.  1.
       -2   -1    0    0    0  501  0.00000000000E+00  0.00000000000E+00 -0.41218853007E+03  0.41218853008E+03  0.25500000920E-02 0. -1.
    10030    2    1    2    0    0  0.00000000000E+00  0.00000000000E+00  0.40360491311E+03  0.12279819733E+04  0.11597598031E+04 0.  0.
        1    1    3    3  502    0 -0.57975520828E+02 -0.47997756913E+03 -0.13722159465E+03  0.50256282587E+03  0.50400001928E-02 0. -1.
       -1    1    3    3    0  502  0.57975520828E+02  0.47997756913E+03  0.54082650776E+03  0.72541914739E+03  0.50400001928E-02 0.  1.
</event>
<event>
 5   0  0.3648616E-03  0.1186263E+04  0.7818609E-02  0.9124966E-01
        1   -1    0    0  501    0  0.00000000000E+00  0.00000000000E+00  0.73158740655E+03  0.73158740656E+03  0.50400001928E-02 0.  1.
       -1   -1    0    0    0  501  0.00000000000E+00  0.00000000000E+00 -0.48087922443E+03  0.48087922445E+03  0.50400001928E-02 0. -1.
    10030    2    1    2    0    0  0.00000000000E+00  0.00000000000E+00  0.25070818212E+03  0.12124666310E+04  0.11862633513E+04 0.  0.
        2    1    3    3  502    0 -0.78182735373E+01 -0.33439221641E+03  0.62599605820E+03  0.70975372115E+03  0.25500000920E-02 0.  1.
       -2    1    3    3    0  502  0.78182735373E+01  0.33439221641E+03 -0.37528787608E+03  0.50271290986E+03  0.25500000920E-02 0. -1.
</event>
<event>
 5   0  0.3648616E-03  0.1058418E+04  0.7818609E-02  0.9246696E-01
        1   -1    0    0  501    0  0.00000000000E+00  0.00000000000E+00  0.70027024119E+03  0.70027024121E+03  0.50400001928E-02 0. -1.
       -1   -1    0    0    0  501  0.00000000000E+00  0.00000000000E+00 -0.39993416718E+03  0.39993416722E+03  0.50400001928E-02 0.  1.
    10030    2    1    2    0    0  0.00000000000E+00  0.00000000000E+00  0.30033607401E+03  0.11002044084E+04  0.10584176789E+04 0.  0.
        2    1    3    3  502    0 -0.46608517391E+03 -0.68200930605E+02 -0.10054988827E+03  0.48166070663E+03  0.25500000920E-02 0.  1.
       -2    1    3    3    0  502  0.46608517391E+03  0.68200930605E+02  0.40088596229E+03  0.61854370180E+03  0.25500000920E-02 0. -1.
</event>
<event>
 5   0  0.3772254E-03  0.1184757E+04  0.7818609E-02  0.9126305E-01
        1   -1    0    0  501    0  0.00000000000E+00  0.00000000000E+00  0.11807274496E+04  0.11807274496E+04  0.50400001928E-02 0.  1.
       -1   -1    0    0    0  501  0.00000000000E+00  0.00000000000E+00 -0.29719992580E+03  0.29719992584E+03  0.50400001928E-02 0. -1.
    10030    2    1    2    0    0  0.00000000000E+00  0.00000000000E+00  0.88352752383E+03  0.14779273755E+04  0.11847567015E+04 0.  0.
        3    1    3    3  502    0 -0.29861852115E+03  0.18201739592E+03  0.10382086778E+04  0.10955275544E+04  0.10100000352E+00 0.  1.
       -3    1    3    3    0  502  0.29861852115E+03 -0.18201739592E+03 -0.15468115395E+03  0.38239982110E+03  0.10100000352E+00 0. -1.
</event>
<event>
 5   0  0.3944074E-03  0.1201755E+04  0.7818609E-02  0.9111322E-01
       -1   -1    0    0    0  501  0.00000000000E+00  0.00000000000E+00  0.25071962786E+03  0.25071962792E+03  0.50400001928E-02 0. -1.
        1   -1    0    0  501    0  0.00000000000E+00  0.00000000000E+00 -0.14400686342E+04  0.14400686342E+04  0.50400001928E-02 0.  1.
    10030    2    1    2    0    0  0.00000000000E+00  0.00000000000E+00 -0.11893490063E+04  0.16907882621E+04  0.12017545042E+04 0.  0.
        4    1    3    3  502    0  0.56705758960E+02  0.41025234589E+03 -0.12071823797E+04  0.12762497566E+04  0.12699999809E+01 0.  1.
       -4    1    3    3    0  502 -0.56705758960E+02 -0.41025234589E+03  0.17833373439E+02  0.41453850547E+03  0.12699999809E+01 0. -1.
</event>
<event>
 5   0  0.6585930E-03  0.1220637E+04  0.7818609E-02  0.9094982E-01
        2   -1    0    0  501    0  0.00000000000E+00  0.00000000000E+00  0.49204397465E+03  0.49204397465E+03  0.25500000920E-02 0. -1.
       -2   -1    0    0    0  501  0.00000000000E+00  0.00000000000E+00 -0.75702340456E+03  0.75702340456E+03  0.25500000920E-02 0.  1.
    10030    2    1    2    0    0  0.00000000000E+00  0.00000000000E+00 -0.26497942991E+03  0.12490673792E+04  0.12206372186E+04 0.  0.
        2    1    3    3  502    0  0.60023299346E+03  0.10035470012E+03 -0.85173225701E+02  0.61449588336E+03  0.25500000920E-02 0. -1.
       -2    1    3    3    0  502 -0.60023299346E+03 -0.10035470012E+03 -0.17980620421E+03  0.63457149586E+03  0.25500000920E-02 0.  1.
</event>
<event>
 5   0  0.6349142E-03  0.1130988E+04  0.7818609E-02  0.9175504E-01
        2   -1    0    0  501    0  0.00000000000E+00  0.00000000000E+00  0.14279242122E+04  0.14279242122E+04  0.25500000920E-02 0.  1.
       -2   -1    0    0    0  501  0.00000000000E+00  0.00000000000E+00 -0.22394981528E+03  0.22394981530E+03  0.25500000920E-02 0. -1.
    10030    2    1    2    0    0  0.00000000000E+00  0.00000000000E+00  0.12039743969E+04  0.16518740275E+04  0.11309878223E+04 0.  0.
        1    1    3    3  502    0  0.40308555540E+03  0.36535831117E+03  0.82739972708E+03  0.99022975562E+03  0.50400001928E-02 0.  1.
       -1    1    3    3    0  502 -0.40308555540E+03 -0.36535831117E+03  0.37657466982E+03  0.66164427186E+03  0.50400001928E-02 0. -1.
</event>
<event>
 5   0  0.2537625E-03  0.9874122E+03  0.7818609E-02  0.9322460E-01
        3   -1    0    0  501    0  0.00000000000E+00  0.00000000000E+00  0.71776203433E+03  0.71776204144E+03  0.10100000352E+00 0.  1.
       -3   -1    0    0    0  501  0.00000000000E+00  0.00000000000E+00 -0.33959125386E+03  0.33959126888E+03  0.10100000352E+00 0. -1.
    10030    2    1    2    0    0  0.00000000000E+00  0.00000000000E+00  0.37817078047E+03  0.10573533103E+04  0.98741221566E+03 0.  0.
        1    1    3    3  502    0  0.27952871591E+03 -0.10080072143E+03  0.61128233517E+03  0.67967873423E+03  0.50400001928E-02 0.  1.
       -1    1    3    3    0  502 -0.27952871591E+03  0.10080072143E+03 -0.23311155470E+03  0.37767457608E+03  0.50400001928E-02 0. -1.
</event>
<event>
 5   0  0.3701879E-03  0.1237339E+04  0.7818609E-02  0.9080788E-01
        1   -1    0    0  501    0  0.00000000000E+00  0.00000000000E+00  0.18840235853E+04  0.18840235853E+04  0.50400001928E-02 0.  1.
       -1   -1    0    0    0  501  0.00000000000E+00  0.00000000000E+00 -0.20315657530E+03  0.20315657536E+03  0.50400001928E-02 0. -1.
    10030    2    1    2    0    0  0.00000000000E+00  0.00000000000E+00  0.16808670100E+04  0.20871801607E+04  0.12373387239E+04 0.  0.
        1    1    3    3  502    0  0.11834458514E+03 -0.53357641421E+03  0.13294471085E+04  0.14374069865E+04  0.50400001928E-02 0. -1.
       -1    1    3    3    0  502 -0.11834458514E+03  0.53357641421E+03  0.35141990153E+03  0.64977317415E+03  0.50400001928E-02 0.  1.
</event>
<event>
 5   0  0.6585930E-03  0.8420341E+03  0.7818609E-02  0.9501091E-01
        2   -1    0    0  501    0  0.00000000000E+00  0.00000000000E+00  0.52744191309E+03  0.52744191310E+03  0.25500000920E-02 0. -1.
       -2   -1    0    0    0  501  0.00000000000E+00  0.00000000000E+00 -0.33606607951E+03  0.33606607952E+03  0.25500000920E-02 0.  1.
    10030    2    1    2    0    0  0.00000000000E+00  0.00000000000E+00  0.19137583358E+03  0.86350799262E+03  0.84203405135E+03 0.  0.
        2    1    3    3  502    0  0.99548946087E+02  0.40854437902E+03  0.11712149736E+03  0.43650423532E+03  0.25500000920E-02 0. -1.
       -2    1    3    3    0  502 -0.99548946087E+02 -0.40854437902E+03  0.74254336210E+02  0.42700375730E+03  0.25500000920E-02 0.  1.
</event>
<event>
 5   0  0.3701879E-03  0.1196586E+04  0.7818609E-02  0.9115850E-01
       -1   -1    0    0    0  501  0.00000000000E+00  0.00000000000E+00  0.56943952321E+03  0.56943952323E+03  0.50400001928E-02 0.  1.
        1   -1    0    0  501    0  0.00000000000E+00  0.00000000000E+00 -0.62860822769E+03  0.62860822771E+03  0.50400001928E-02 0. -1.
    10030    2    1    2    0    0  0.00000000000E+00  0.00000000000E+00 -0.59168704477E+02  0.11980477509E+04  0.11965857587E+04 0.  0.
        1    1    3    3  502    0  0.56303922683E+03  0.19942406232E+03 -0.63849577827E+02  0.60071615276E+03  0.50400001928E-02 0.  1.
       -1    1    3    3    0  502 -0.56303922683E+03 -0.19942406232E+03  0.46808733501E+01  0.59733159818E+03  0.50400001928E-02 0. -1.
</event>
<event>
 5   0  0.6349142E-03  0.9112411E+03  0.7818609E-02  0.9411638E-01
        2   -1    0    0  501    0  0.00000000000E+00  0.00000000000E+00  0.61157608789E+03  0.61157608790E+03  0.25500000920E-02 0.  1.
       -2   -1    0    0    0  501  0.00000000000E+00  0.00000000000E+00 -0.33943459306E+03  0.33943459307E+03  0.25500000920E-02 0. -1.
    10030    2    1    2    0    0  0.00000000000E+00  0.00000000000E+00  0.27214149484E+03  0.95101068096E+03  0.91124108890E+03 0.  0.
        1    1    3    3  502    0  0.64016358910E+02 -0.19169936396E+01 -0.33471340401E+03  0.34078560991E+03  0.50400001928E-02 0. -1.
       -1    1    3    3    0  502 -0.64016358910E+02  0.19169936396E+01  0.60685489884E+03  0.61022507106E+03  0.50400001928E-02 0.  1.
</event>
<event>
 5   0  0.3772254E-03  0.1200888E+04  0.7818609E-02  0.9112080E-01
        1   -1    0    0  501    0  0.00000000000E+00  0.00000000000E+00  0.13902620610E+04  0.13902620610E+04  0.50400001928E-02 0.  1.
       -1   -1    0    0    0  501  0.00000000000E+00  0.00000000000E+00 -0.25932719784E+03  0.25932719789E+03  0.50400001928E-02 0. -1.
    10030    2    1    2    0    0  0.00000000000E+00  0.00000000000E+00  0.11309348632E+04  0.16495892589E+04  0.12008876127E+04 0.  0.
        3    1    3    3  502    0 -0.28240213877E+03 -0.10052978675E+03 -0.14919008803E+03  0.33483562919E+03  0.10100000352E+00 0. -1.
       -3    1    3    3    0  502  0.28240213877E+03  0.10052978675E+03  0.12801249512E+04  0.13147536297E+04  0.10100000352E+00 0.  1.
</event>
<event>
 5   0  0.6640844E-03  0.1219129E+04  0.7818609E-02  0.9096276E-01
        2   -1    0    0  501    0  0.00000000000E+00  0.00000000000E+00  0.24498269302E+04  0.24498269302E+04  0.25500000920E-02 0. -1.
       -2   -1    0    0    0  501  0.00000000000E+00  0.00000000000E+00 -0.15167143660E+03  0.15167143662E+03  0.25500000920E-02 0.  1.
    10030    2    1    2    0    0  0.00000000000E+00  0.00000000000E+00  0.22981554936E+04  0.26014983668E+04  0.12191288200E+04 0.  0.
        5    1    3    3  502    0 -0.40076456294E+03  0.37235024382E+03  0.17228140012E+04  0.18075859901E+04  0.46999998093E+01 0. -1.
       -5    1    3    3    0  502  0.40076456294E+03 -0.37235024382E+03  0.57534149241E+03  0.79391237669E+03  0.46999998093E+01 0.  1.
</event>
<event>
 5   0  0.6349142E-03  0.1174721E+04  0.7818609E-02  0.9135276E-01
       -2   -1    0    0    0  501  0.00000000000E+00  0.00000000000E+00  0.39991740147E+03  0.39991740148E+03  0.25500000920E-02 0. -1.
        2   -1    0    0  501    0  0.00000000000E+00  0.00000000000E+00 -0.86265835284E+03  0.86265835284E+03  0.25500000920E-02 0.  1.
    10030    2    1    2    0    0  0.00000000000E+00  0.00000000000E+00 -0.46274095137E+03  0.12625757543E+04  0.11747205401E+04 0.  0.
        1    1    3    3  502    0 -0.76566127231E+02  0.55851547893E+03 -0.40859706603E+03  0.69624239632E+03  0.50400001928E-02 0.  1.
       -1    1    3    3    0  502  0.76566127231E+02 -0.55851547893E+03 -0.54143885342E+02  0.56633335800E+03  0.50400001928E-02 0. -1.
</event>
<event>
 5   0  0.3648616E-03  0.1103162E+04  0.7818609E-02  0.9202116E-01
       -1   -1    0    0    0  501  0.00000000000E+00  0.00000000000E+00  0.35177488038E+03  0.35177488042E+03  0.50400001928E-02 0.  1.
        1   -1    0    0  501    0  0.00000000000E+00  0.00000000000E+00 -0.86487569693E+03  0.86487569694E+03  0.50400001928E-02 0. -1.
    10030    2    1    2    0    0  0.00000000000E+00  0.00000000000E+00 -0.51310081655E+03  0.12166505774E+04  0.11031619008E+04 0.  0.
        2    1    3    3  502    0 -0.20123760887E+03  0.35279761777E+03 -0.66814450439E+03  0.78190780344E+03  0.25500000920E-02 0. -1.
       -2    1    3    3    0  502  0.20123760887E+03 -0.35279761777E+03  0.15504368784E+03  0.43474277392E+03  0.25500000920E-02 0.  1.
</event>
<event>
 5   0  0.6585930E-03  0.1168156E+04  0.7818609E-02  0.9141196E-01
        2   -1    0    0  501    0  0.00000000000E+00  0.00000000000E+00  0.15275255024E+04  0.15275255024E+04  0.25500000920E-02 0. -1.
       -2   -1    0    0    0  501  0.00000000000E+00  0.00000000000E+00 -0.22333310332E+03  0.22333310334E+03  0.25500000920E-02 0.  1.
    10030    2    1    2    0    0  0.00000000000E+00  0.00000000000E+00  0.13041923991E+04  0.17508586057E+04  0.11681558301E+04 0.  0.
        2    1    3    3  502    0 -0.23007818089E+03  0.93680792757E+02 -0.14020562639E+03  0.28525370801E+03  0.25500000920E-02 0.  1.
       -2    1    3    3    0  502  0.23007818089E+03 -0.93680792757E+02  0.14443980255E+04  0.14656048977E+04  0.25500000920E-02 0. -1.
</event>
<event>
 5   0  0.6349142E-03  0.1185041E+04  0.7818609E-02  0.9126052E-01
        2   -1    0    0  501    0  0.00000000000E+00  0.00000000000E+00  0.19828425506E+04  0.19828425506E+04  0.25500000920E-02 0.  1.
       -2   -1    0    0    0  501  0.00000000000E+00  0.00000000000E+00 -0.17705918138E+03  0.17705918139E+03  0.25500000920E-02 0. -1.
    10030    2    1    2    0    0  0.00000000000E+00  0.00000000000E+00  0.18057833693E+04  0.21599017320E+04  0.11850408918E+04 0.  0.
        1    1    3    3  502    0  0.23688584095E+03  0.34887722164E+03  0.14424842197E+03  0.44568803517E+03  0.50400001928E-02 0. -1.
       -1    1    3    3    0  502 -0.23688584095E+03 -0.34887722164E+03  0.16615349473E+04  0.17142136969E+04  0.50400001928E-02 0.  1.
</event>
<event>
 5   0  0.3648616E-03  0.1195628E+04  0.7818609E-02  0.9116692E-01
       -1   -1    0    0    0  501  0.00000000000E+00  0.00000000000E+00  0.23028530749E+03  0.23028530754E+03  0.50400001928E-02 0.  1.
        1   -1    0    0  501    0  0.00000000000E+00  0.00000000000E+00 -0.15519089421E+04  0.15519089421E+04  0.50400001928E-02 0. -1.
    10030    2    1    2    0    0  0.00000000000E+00  0.00000000000E+00 -0.13216236346E+04  0.17821942496E+04  0.11956284172E+04 0.  0.
        2    1    3    3  502    0 -0.21934112689E+03  0.31065843052E+03  0.26741674825E+02  0.38122736992E+03  0.25500000920E-02 0.  1.
       -2    1    3    3    0  502  0.21934112689E+03 -0.31065843052E+03 -0.13483653094E+04  0.14009668797E+04  0.25500000920E-02 0. -1.
</event>
<event>
 5   0  0.3944074E-03  0.1163577E+04  0.7818609E-02  0.9145349E-01
        1   -1    0    0  501    0  0.00000000000E+00  0.00000000000E+00  0.24622350846E+03  0.24622350851E+03  0.50400001928E-02 0. -1.
       -1   -1    0    0    0  501  0.00000000000E+00  0.00000000000E+00 -0.13746778113E+04  0.13746778113E+04  0.50400001928E-02 0.  1.
    10030    2    1    2    0    0  0.00000000000E+00  0.00000000000E+00 -0.11284543028E+04  0.16209013198E+04  0.11635772321E+04 0.  0.
        4    1    3    3  502    0  0.35437729901E+03 -0.79044726608E+02 -0.11974751940E+04  0.12513112291E+04  0.12699999809E+01 0.  1.
       -4    1    3    3    0  502 -0.35437729901E+03  0.79044726608E+02  0.69020891173E+02  0.36959009074E+03  0.12699999809E+01 0. -1.
</event>
<event>
 5   0  0.6640844E-03  0.1207207E+04  0.7818609E-02  0.9106572E-01
       -2   -1    0    0    0  501  0.00000000000E+00  0.00000000000E+00  0.96788317247E+03  0.96788317248E+03  0.25500000920E-02 0.  1.
        2   -1    0    0  501    0  0.00000000000E+00  0.00000000000E+00 -0.37642676987E+03  0.37642676988E+03  0.25500000920E-02 0. -1.
    10030    2    1    2    0    0  0.00000000000E+00  0.00000000000E+00  0.59145640260E+03  0.13443099424E+04  0.12072069189E+04 0.  0.
        5    1    3    3  502    0 -0.42446848701E+03  0.20153871519E+03  0.71759903358E+03  0.85776559337E+03  0.46999998093E+01 0.  1.
       -5    1    3    3    0  502  0.42446848701E+03 -0.20153871519E+03 -0.12614263098E+03  0.48654434899E+03  0.46999998093E+01 0. -1.
</event>
<event>
 5   0  0.3772254E-03  0.1211703E+04  0.7818609E-02  0.9102674E-01
        1   -1    0    0  501    0  0.00000000000E+00  0.00000000000E+00  0.10595333745E+04  0.10595333745E+04  0.50400001928E-02 0.  1.
       -1   -1    0    0    0  501  0.00000000000E+00  0.00000000000E+00 -0.34643177305E+03  0.34643177309E+03  0.50400001928E-02 0. -1.
    10030    2    1    2    0    0  0.00000000000E+00  0.00000000000E+00  0.71310160147E+03  0.14059651476E+04  0.12117029761E+04 0.  0.
        3    1    3    3  502    0  0.23955971897E+03  0.12417623425E+03 -0.27286075453E+03  0.38374678848E+03  0.10100000352E+00 0. -1.
       -3    1    3    3    0  502 -0.23955971897E+03 -0.12417623425E+03  0.98596235600E+03  0.10222183591E+04  0.10100000352E+00 0.  1.
</event>
<event>
 5   0  0.3701879E-03  0.1192804E+04  0.7818609E-02  0.9119179E-01
       -1   -1    0    0    0  501  0.00000000000E+00  0.00000000000E+00  0.11539713417E+04  0.11539713417E+04  0.50400001928E-02 0.  1.
        1   -1    0    0  501    0  0.00000000000E+00  0.00000000000E+00 -0.30823579424E+03  0.30823579428E+03  0.50400001928E-02 0. -1.
    10030    2    1    2    0    0  0.00000000000E+00  0.00000000000E+00  0.84573554744E+03  0.14622071360E+04  0.11928038784E+04 0.  0.
        1    1    3    3  502    0  0.35416777490E+03  0.41179051595E+03  0.72485944045E+03  0.90577450298E+03  0.50400001928E-02 0.  1.
       -1    1    3    3    0  502 -0.35416777490E+03 -0.41179051595E+03  0.12087610699E+03  0.55643263300E+03  0.50400001928E-02 0. -1.
</event>
<event>
 5   0  0.6493047E-03  0.8868898E+03  0.7818609E-02  0.9442120E-01
        2   -1    0    0  501    0  0.00000000000E+00  0.00000000000E+00  0.44896829481E+03  0.44896829482E+03  0.25500000920E-02 0. -1.
       -2   -1    0    0    0  501  0.00000000000E+00  0.00000000000E+00 -0.43798944912E+03  0.43798944913E+03  0.25500000920E-02 0.  1.
    10030    2    1    2    0    0  0.00000000000E+00  0.00000000000E+00  0.10978845689E+02  0.88695774395E+03  0.88688979276E+03 0.  0.
        3    1    3    3  502    0 -0.17323062470E+03 -0.39244087611E+03  0.11785761213E+03  0.44486977590E+03  0.10100000352E+00 0. -1.
       -3    1    3    3    0  502  0.17323062470E+03  0.39244087611E+03 -0.10687876644E+03  0.44208796805E+03  0.10100000352E+00 0.  1.
</event>
<event>
 5   0  0.6640844E-03  0.1131327E+04  0.7818609E-02  0.9175185E-01
        2   -1    0    0  501    0  0.00000000000E+00  0.00000000000E+00  0.79792005897E+03  0.79792005897E+03  0.25500000920E-02 0. -1.
       -2   -1    0    0    0  501  0.00000000000E+00  0.00000000000E+00 -0.40101133546E+03  0.40101133547E+03  0.25500000920E-02 0.  1.
    10030    2    1    2    0    0  0.00000000000E+00  0.00000000000E+00  0.39690872351E+03  0.11989313944E+04  0.11313266344E+04 0.  0.
        5    1    3    3  502    0 -0.42829290862E+03 -0.96147395756E+02 -0.17961872235E+03  0.47430381899E+03  0.46999998093E+01 0.  1.
       -5    1    3    3    0  502  0.42829290862E+03  0.96147395756E+02  0.57652744585E+03  0.72462757545E+03  0.46999998093E+01 0. -1.
</event>
<event>
 5   0  0.3731281E-03  0.1130094E+04  0.7818609E-02  0.9176347E-01
       -1   -1    0    0    0  501  0.00000000000E+00  0.00000000000E+00  0.64908086290E+03  0.64908086292E+03  0.50400001928E-02 0.  1.
        1   -1    0    0  501    0  0.00000000000E+00  0.00000000000E+00 -0.49189237959E+03  0.49189237961E+03  0.50400001928E-02 0. -1.
    10030    2    1    2    0    0  0.00000000000E+00  0.00000000000E+00  0.15718848332E+03  0.11409732425E+04  0.11300936779E+04 0.  0.
        5    1    3    3  502    0 -0.47985299391E+03  0.21434719275E+03  0.28808208084E+03  0.59934713656E+03  0.46999998093E+01 0. -1.
       -5    1    3    3    0  502  0.47985299391E+03 -0.21434719275E+03 -0.13089359752E+03  0.54162610597E+03  0.46999998093E+01 0.  1.
</event>
<event>
 5   0  0.3648616E-03  0.1199114E+04  0.7818609E-02  0.9113633E-01
       -1   -1    0    0    0  501  0.00000000000E+00  0.00000000000E+00  0.51581200117E+03  0.51581200119E+03  0.50400001928E-02 0.  1.
        1   -1    0    0  501    0  0.00000000000E+00  0.00000000000E+00 -0.69689812983E+03  0.69689812984E+03  0.50400001928E-02 0. -1.
    10030    2    1    2    0    0  0.00000000000E+00  0.00000000000E+00 -0.18108612866E+03  0.12127101310E+04  0.11991137043E+04 0.  0.
        2    1    3    3  502    0  0.27910704662E+03 -0.21833726627E+03 -0.57965528446E+03  0.67939101711E+03  0.25500000920E-02 0. -1.
       -2    1    3    3    0  502 -0.27910704662E+03  0.21833726627E+03  0.39856915581E+03  0.53331911393E+03  0.25500000920E-02 0.  1.
</event>
<event>
 5   0  0.6658994E-03  0.1219352E+04  0.7818609E-02  0.9096084E-01
        2   -1    0    0  501    0  0.00000000000E+00  0.00000000000E+00  0.99711434088E+03  0.99711434089E+03  0.25500000920E-02 0. -1.
       -2   -1    0    0    0  501  0.00000000000E+00  0.00000000000E+00 -0.37278051284E+03  0.37278051285E+03  0.25500000920E-02 0.  1.
    10030    2    1    2    0    0  0.00000000000E+00  0.00000000000E+00  0.62433382804E+03  0.13698948537E+04  0.12193519514E+04 0.  0.
        4    1    3    3  502    0  0.43050277243E+01 -0.36772914347E+03  0.85847412298E+03  0.93392863161E+03  0.12699999809E+01 0. -1.
       -4    1    3    3    0  502 -0.43050277243E+01  0.36772914347E+03 -0.23414029494E+03  0.43596622213E+03  0.12699999809E+01 0.  1.
</event>
<event>
 5   0  0.6640844E-03  0.1196769E+04  0.7818609E-02  0.9115690E-01
       -2   -1    0    0    0  501  0.00000000000E+00  0.00000000000E+00  0.30104763119E+03  0.30104763120E+03  0.25500000920E-02 0. -1.
        2   -1    0    0  501    0  0.00000000000E+00  0.00000000000E+00 -0.11893922405E+04  0.11893922405E+04  0.25500000920E-02 0.  1.
    10030    2    1    2    0    0  0.00000000000E+00  0.00000000000E+00 -0.88834460932E+03  0.14904398717E+04  0.11967685099E+04 0.  0.
        5    1    3    3  502    0  0.30016124593E+03 -0.15426571612E+03 -0.10595332805E+04  0.11119926021E+04  0.46999998093E+01 0.  1.
       -5    1    3    3    0  502 -0.30016124593E+03  0.15426571612E+03  0.17118867116E+03  0.37844726959E+03  0.46999998093E+01 0. -1.
</event>
<event>
 5   0  0.3701879E-03  0.1208860E+04  0.7818609E-02  0.9105137E-01
       -1   -1    0    0    0  501  0.00000000000E+00  0.00000000000E+00  0.20102118525E+03  0.20102118531E+03  0.50400001928E-02 0. -1.
        1   -1    0    0  501    0  0.00000000000E+00  0.00000000000E+00 -0.18173975466E+04  0.18173975466E+04  0.50400001928E-02 0.  1.
    10030    2    1    2    0    0  0.00000000000E+00  0.00000000000E+00 -0.16163763613E+04  0.20184187319E+04  0.12088596427E+04 0.  0.
        1    1    3    3  502    0  0.20461364408E+03 -0.47182906593E+03 -0.13384187022E+04  0.14338249660E+04  0.50400001928E-02 0.  1.
       -1    1    3    3    0  502 -0.20461364408E+03  0.47182906593E+03 -0.27795765913E+03  0.58459376587E+03  0.50400001928E-02 0. -1.
</event>
<event>
 5   0  0.6585930E-03  0.1180212E+04  0.7818609E-02  0.9130355E-01
        2   -1    0    0  501    0  0.00000000000E+00  0.00000000000E+00  0.10411853793E+04  0.10411853793E+04  0.25500000920E-02 0.  1.
       -2   -1    0    0    0  501  0.00000000000E+00  0.00000000000E+00 -0.33445068107E+03  0.33445068108E+03  0.25500000920E-02 0. -1.
    10030    2    1    2    0    0  0.00000000000E+00  0.00000000000E+00  0.70673469823E+03  0.13756360604E+04  0.11802121152E+04 0.  0.
        2    1    3    3  502    0 -0.36740195114E+03 -0.40324966608E+03  0.91096313890E+02  0.55307596704E+03  0.25500000920E-02 0. -1.
       -2    1    3    3    0  502  0.36740195114E+03  0.40324966608E+03  0.61563838434E+03  0.82256009336E+03  0.25500000920E-02 0.  1.
</event>
<event>
 5   0  0.3648616E-03  0.1161747E+04  0.7818609E-02  0.9147014E-01
        1   -1    0    0  501    0  0.00000000000E+00  0.00000000000E+00  0.66391554250E+03  0.66391554252E+03  0.50400001928E-02 0.  1.
       -1   -1    0    0    0  501  0.00000000000E+00  0.00000000000E+00 -0.50821860347E+03  0.50821860350E+03  0.50400001928E-02 0. -1.
    10030    2    1    2    0    0  0.00000000000E+00  0.00000000000E+00  0.15569693903E+03  0.11721341460E+04  0.11617473561E+04 0.  0.
        2    1    3    3  502    0 -0.29857194588E+03  0.49711886892E+03  0.11194190391E+03  0.59059577256E+03  0.25500000920E-02 0. -1.
       -2    1    3    3    0  502  0.29857194588E+03 -0.49711886892E+03  0.43755035117E+02  0.58153837346E+03  0.25500000920E-02 0.  1.
</event>
<event>
 5   0  0.6349142E-03  0.1430259E+04  0.7818609E-02  0.8932202E-01
       -2   -1    0    0    0  501  0.00000000000E+00  0.00000000000E+00  0.45462296583E+03  0.45462296584E+03  0.25500000920E-02 0. -1.
        2   -1    0    0  501    0  0.00000000000E+00  0.00000000000E+00 -0.11249113673E+04  0.11249113673E+04  0.25500000920E-02 0.  1.
    10030    2    1    2    0    0  0.00000000000E+00  0.00000000000E+00 -0.67028840148E+03  0.15795343332E+04  0.14302594759E+04 0.  0.
        1    1    3    3  502    0  0.37286854214E+03 -0.15548942629E+03 -0.98681800006E+03  0.10663103097E+04  0.50400001928E-02 0.  1.
       -1    1    3    3    0  502 -0.37286854214E+03  0.15548942629E+03  0.31652959857E+03  0.51322402341E+03  0.50400001928E-02 0. -1.
</event>
<event>
 5   0  0.3701879E-03  0.1186647E+04  0.7818609E-02  0.9124625E-01
       -1   -1    0    0    0  501  0.00000000000E+00  0.00000000000E+00  0.25048295960E+03  0.25048295965E+03  0.50400001928E-02 0. -1.
        1   -1    0    0  501    0  0.00000000000E+00  0.00000000000E+00 -0.14054157826E+04  0.14054157826E+04  0.50400001928E-02 0.  1.
    10030    2    1    2    0    0  0.00000000000E+00  0.00000000000E+00 -0.11549328230E+04  0.16558987423E+04  0.11866468805E+04 0.  0.
        1    1    3    3  502    0 -0.46676250096E+03 -0.29749825423E+03 -0.27928437955E+03  0.61997758690E+03  0.50400001928E-02 0. -1.
       -1    1    3    3    0  502  0.46676250096E+03  0.29749825423E+03 -0.87564844345E+03  0.10359211554E+04  0.50400001928E-02 0.  1.
</event>
<event>
 5   0  0.3772254E-03  0.1160533E+04  0.7818609E-02  0.9148121E-01
       -1   -1    0    0    0  501  0.00000000000E+00  0.00000000000E+00  0.62566824260E+03  0.62566824262E+03  0.50400001928E-02 0.  1.
        1   -1    0    0  501    0  0.00000000000E+00  0.00000000000E+00 -0.53815904192E+03  0.53815904194E+03  0.50400001928E-02 0. -1.
    10030    2    1    2    0    0  0.00000000000E+00  0.00000000000E+00  0.87509200685E+02  0.11638272846E+04  0.11605326743E+04 0.  0.
        3    1    3    3  502    0 -0.45293323738E+03 -0.35438062844E+03  0.12127128538E+03  0.58774219024E+03  0.10100000352E+00 0.  1.
       -3    1    3    3    0  502  0.45293323738E+03  0.35438062844E+03 -0.33762084693E+02  0.57608509432E+03  0.10100000352E+00 0. -1.
</event>
<event>
 5   0  0.6658994E-03  0.1210871E+04  0.7818609E-02  0.9103394E-01
       -2   -1    0    0    0  501  0.00000000000E+00  0.00000000000E+00  0.98586387338E+03  0.98586387338E+03  0.25500000920E-02 0.  1.
        2   -1    0    0  501    0  0.00000000000E+00  0.00000000000E+00 -0.37180834153E+03  0.37180834154E+03  0.25500000920E-02 0. -1.
    10030    2    1    2    0    0  0.00000000000E+00  0.00000000000E+00  0.61405553184E+03  0.13576722149E+04  0.12108714411E+04 0.  0.
        4    1    3    3  502    0 -0.29085134190E+03  0.87544033793E+02  0.89425167793E+03  0.94442900068E+03  0.12699999809E+01 0.  1.
       -4    1    3    3    0  502  0.29085134190E+03 -0.87544033793E+02 -0.28019614609E+03  0.41324321425E+03  0.12699999809E+01 0. -1.
</event>
<event>
 5   0  0.6349142E-03  0.1193990E+04  0.7818609E-02  0.9118134E-01
        2   -1    0    0  501    0  0.00000000000E+00  0.00000000000E+00  0.36868078662E+03  0.36868078663E+03  0.25500000920E-02 0. -1.
       -2   -1    0    0    0  501  0.00000000000E+00  0.00000000000E+00 -0.96669748117E+03  0.96669748117E+03  0.25500000920E-02 0.  1.
    10030    2    1    2    0    0  0.00000000000E+00  0.00000000000E+00 -0.59801669454E+03  0.13353782678E+04  0.11939895942E+04 0.  0.
        1    1    3    3  502    0 -0.73212908164E+02 -0.36970092363E+03 -0.81682924328E+03  0.89958263409E+03  0.50400001928E-02 0.  1.
       -1    1    3    3    0  502  0.73212908164E+02  0.36970092363E+03  0.21881254873E+03  0.43579563371E+03  0.50400001928E-02 0. -1.
</event>
<event>
 5   0  0.2537625E-03  0.1188303E+04  0.7818609E-02  0.9123157E-01
        4   -1    0    0  501    0  0.00000000000E+00  0.00000000000E+00  0.73690436047E+03  0.73690545484E+03  0.12699999809E+01 0.  1.
       -4   -1    0    0    0  501  0.00000000000E+00  0.00000000000E+00 -0.47905039593E+03  0.47905207937E+03  0.12699999809E+01 0. -1.
    10030    2    1    2    0    0  0.00000000000E+00  0.00000000000E+00  0.25785396453E+03  0.12159575342E+04  0.11883030161E+04 0.  0.
        2    1    3    3  502    0 -0.40640032014E+03 -0.39426805371E+03  0.31313729816E+03  0.64704210519E+03  0.25500000920E-02 0.  1.
       -2    1    3    3    0  502  0.40640032014E+03  0.39426805371E+03 -0.55283333631E+02  0.56891542901E+03  0.25500000920E-02 0. -1.
</event>
<event>
 5   0  0.3944074E-03  0.1206615E+04  0.7818609E-02  0.9107086E-01
        1   -1    0    0  501    0  0.00000000000E+00  0.00000000000E+00  0.15602583901E+04  0.15602583901E+04  0.50400001928E-02 0.  1.
       -1   -1    0    0    0  501  0.00000000000E+00  0.00000000000E+00 -0.23328169453E+03  0.23328169459E+03  0.50400001928E-02 0. -1.
    10030    2    1    2    0    0  0.00000000000E+00  0.00000000000E+00  0.13269766955E+04  0.17935400847E+04  0.12066146381E+04 0.  0.
        4    1    3    3  502    0  0.43325949869E+03 -0.40687271620E+03  0.81738095854E+03  0.10106297268E+04  0.12699999809E+01 0.  1.
       -4    1    3    3    0  502 -0.43325949869E+03  0.40687271620E+03  0.50959573701E+03  0.78291035788E+03  0.12699999809E+01 0. -1.
</event>
<event>
 5   0  0.3731281E-03  0.1234333E+04  0.7818609E-02  0.9083325E-01
       -1   -1    0    0    0  501  0.00000000000E+00  0.00000000000E+00  0.84651427360E+03  0.84651427362E+03  0.50400001928E-02 0. -1.
        1   -1    0    0  501    0  0.00000000000E+00  0.00000000000E+00 -0.44995611341E+03  0.44995611344E+03  0.50400001928E-02 0.  1.
    10030    2    1    2    0    0  0.00000000000E+00  0.00000000000E+00  0.39655816019E+03  0.12964703871E+04  0.12343326497E+04 0.  0.
        5    1    3    3  502    0 -0.56306648290E+03  0.19319151312E+03  0.27278643688E+02  0.59593039804E+03  0.46999998093E+01 0. -1.
       -5    1    3    3    0  502  0.56306648290E+03 -0.19319151312E+03  0.36927951650E+03  0.70053998902E+03  0.46999998093E+01 0.  1.
</event>
<event>
 5   0  0.6585930E-03  0.9214006E+03  0.7818609E-02  0.9399218E-01
        2   -1    0    0  501    0  0.00000000000E+00  0.00000000000E+00  0.13264558845E+04  0.13264558845E+04  0.25500000920E-02 0. -1.
       -2   -1    0    0    0  501  0.00000000000E+00  0.00000000000E+00 -0.16000892205E+03  0.16000892207E+03  0.25500000920E-02 0.  1.
    10030    2    1    2    0    0  0.00000000000E+00  0.00000000000E+00  0.11664469625E+04  0.14864648066E+04  0.92140062133E+03 0.  0.
        2    1    3    3  502    0 -0.41894050466E+02  0.15245413216E+03  0.12813176838E+04  0.12910353909E+04  0.25500000920E-02 0. -1.
       -2    1    3    3    0  502  0.41894050466E+02 -0.15245413216E+03 -0.11487072132E+03  0.19542941565E+03  0.25500000920E-02 0.  1.
</event>
<event>
 5   0  0.3944074E-03  0.1218250E+04  0.7818609E-02  0.9097031E-01
        1   -1    0    0  501    0  0.00000000000E+00  0.00000000000E+00  0.86564742915E+03  0.86564742917E+03  0.50400001928E-02 0.  1.
       -1   -1    0    0    0  501  0.00000000000E+00  0.00000000000E+00 -0.42861935434E+03  0.42861935437E+03  0.50400001928E-02 0. -1.
    10030    2    1    2    0    0  0.00000000000E+00  0.00000000000E+00  0.43702807482E+03  0.12942667835E+04  0.12182499615E+04 0.  0.
        4    1    3    3  502    0  0.27697308197E+03  0.13395861084E+03 -0.34000105870E+03  0.45854261565E+03  0.12699999809E+01 0. -1.
       -4    1    3    3    0  502 -0.27697308197E+03 -0.13395861084E+03  0.77702913351E+03  0.83572416788E+03  0.12699999809E+01 0.  1.
</event>
<event>
 5   0  0.6640844E-03  0.1316830E+04  0.7818609E-02  0.9016324E-01
        2   -1    0    0  501    0  0.00000000000E+00  0.00000000000E+00  0.18642494762E+04  0.18642494762E+04  0.25500000920E-02 0. -1.
       -2   -1    0    0    0  501  0.00000000000E+00  0.00000000000E+00 -0.23253871310E+03  0.23253871311E+03  0.25500000920E-02 0.  1.
    10030    2    1    2    0    0  0.00000000000E+00  0.00000000000E+00  0.16317107631E+04  0.20967881893E+04  0.13168297902E+04 0.  0.
        5    1    3    3  502    0  0.76232372519E+02  0.41880377881E+03  0.16082968420E+02  0.42601494297E+03  0.46999998093E+01 0.  1.
       -5    1    3    3    0  502 -0.76232372519E+02 -0.41880377881E+03  0.16156277947E+04  0.16707732464E+04  0.46999998093E+01 0. -1.
</event>
<event>
 5   0  0.3731281E-03  0.1213135E+04  0.7818609E-02  0.9101437E-01
       -1   -1    0    0    0  501  0.00000000000E+00  0.00000000000E+00  0.36125496380E+03  0.36125496383E+03  0.50400001928E-02 0. -1.
        1   -1    0    0  501    0  0.00000000000E+00  0.00000000000E+00 -0.10184610660E+04  0.10184610660E+04  0.50400001928E-02 0.  1.
    10030    2    1    2    0    0  0.00000000000E+00  0.00000000000E+00 -0.65720610220E+03  0.13797160298E+04  0.12131349728E+04 0.  0.
        5    1    3    3  502    0 -0.80402759949E+02 -0.50910725629E+03  0.35066004393E+02  0.51662996126E+03  0.46999998093E+01 0. -1.
       -5    1    3    3    0  502  0.80402759949E+02  0.50910725629E+03 -0.69227210660E+03  0.86308606858E+03  0.46999998093E+01 0.  1.
</event>
<event>
 5   0  0.3701879E-03  0.8921392E+03  0.7818609E-02  0.9435462E-01
       -1   -1    0    0    0  501  0.00000000000E+00  0.00000000000E+00  0.44468671212E+03  0.44468671215E+03  0.50400001928E-02 0.  1.
        1   -1    0    0  501    0  0.00000000000E+00  0.00000000000E+00 -0.44745674210E+03  0.44745674212E+03  0.50400001928E-02 0. -1.
    10030    2    1    2    0    0  0.00000000000E+00  0.00000000000E+00 -0.27700299742E+01  0.89214345427E+03  0.89213915391E+03 0.  0.
        1    1    3    3  502    0  0.13763632379E+03 -0.23165171977E+03  0.35410480042E+03  0.44496796133E+03  0.50400001928E-02 0.  1.
       -1    1    3    3    0  502 -0.13763632379E+03  0.23165171977E+03 -0.35687483039E+03  0.44717549295E+03  0.50400001928E-02 0. -1.
</event>
<event>
 5   0  0.6585930E-03  0.1054557E+04  0.7818609E-02  0.9250652E-01
       -2   -1    0    0    0  501  0.00000000000E+00  0.00000000000E+00  0.10305724128E+04  0.10305724128E+04  0.25500000920E-02 0. -1.
        2   -1    0    0  501    0  0.00000000000E+00  0.00000000000E+00 -0.26977494454E+03  0.26977494455E+03  0.25500000920E-02 0.  1.
    10030    2    1    2    0    0  0.00000000000E+00  0.00000000000E+00  0.76079746828E+03  0.13003473574E+04  0.10545569980E+04 0.  0.
        2    1    3    3  502    0  0.14971642078E+03 -0.50557647514E+03  0.38063481537E+03  0.65031180332E+03  0.25500000920E-02 0. -1.
       -2    1    3    3    0  502 -0.14971642078E+03  0.50557647514E+03  0.38016265291E+03  0.65003555406E+03  0.25500000920E-02 0.  1.
</event>
<event>
 5   0  0.3731281E-03  0.1160997E+04  0.7818609E-02  0.9147698E-01
        1   -1    0    0  501    0  0.00000000000E+00  0.00000000000E+00  0.64951203966E+03  0.64951203968E+03  0.50400001928E-02 0.  1.
       -1   -1    0    0    0  501  0.00000000000E+00  0.00000000000E+00 -0.51881819348E+03  0.51881819351E+03  0.50400001928E-02 0. -1.
    10030    2    1    2    0    0  0.00000000000E+00  0.00000000000E+00  0.13069384617E+03  0.11683302332E+04  0.11609972663E+04 0.  0.
        5    1    3    3  502    0 -0.43850454404E+03  0.33443024017E+03  0.24767282802E+03  0.60456078307E+03  0.46999998093E+01 0.  1.
       -5    1    3    3    0  502  0.43850454404E+03 -0.33443024017E+03 -0.11697898185E+03  0.56376945011E+03  0.46999998093E+01 0. -1.
</event>
<event>
 5   0  0.6349142E-03  0.1209753E+04  0.7818609E-02  0.9104362E-01
        2   -1    0    0  501    0  0.00000000000E+00  0.00000000000E+00  0.95766330627E+03  0.95766330627E+03  0.25500000920E-02 0.  1.
       -2   -1    0    0    0  501  0.00000000000E+00  0.00000000000E+00 -0.38205033936E+03  0.38205033937E+03  0.25500000920E-02 0. -1.
    10030    2    1    2    0    0  0.00000000000E+00  0.00000000000E+00  0.57561296691E+03  0.13397136456E+04  0.12097530180E+04 0.  0.
        1    1    3    3  502    0  0.16693231914E+03  0.23999070001E+03  0.87423468352E+03  0.92181788720E+03  0.50400001928E-02 0.  1.
       -1    1    3    3    0  502 -0.16693231914E+03 -0.23999070001E+03 -0.29862171661E+03  0.41789575844E+03  0.50400001928E-02 0. -1.
</event>
<event>
 5   0  0.3701879E-03  0.1199664E+04  0.7818609E-02  0.9113151E-01
        1   -1    0    0  501    0  0.00000000000E+00  0.00000000000E+00  0.64408846542E+03  0.64408846544E+03  0.50400001928E-02 0.  1.
       -1   -1    0    0    0  501  0.00000000000E+00  0.00000000000E+00 -0.55861625824E+03  0.55861625826E+03  0.50400001928E-02 0. -1.
    10030    2    1    2    0    0  0.00000000000E+00  0.00000000000E+00  0.85472207185E+02  0.12027047237E+04  0.11996637671E+04 0.  0.
        1    1    3    3  502    0 -0.23745121784E+03  0.33713392279E+03  0.47945013717E+03  0.63238816941E+03  0.50400001928E-02 0.  1.
       -1    1    3    3    0  502  0.23745121784E+03 -0.33713392279E+03 -0.39397792999E+03  0.57031655429E+03  0.50400001928E-02 0. -1.
</event>
<event>
 5   0  0.3648616E-03  0.1157401E+04  0.7818609E-02  0.9150983E-01
        1   -1    0    0  501    0  0.00000000000E+00  0.00000000000E+00  0.80670324376E+03  0.80670324377E+03  0.50400001928E-02 0.  1.
       -1   -1    0    0    0  501  0.00000000000E+00  0.00000000000E+00 -0.41513946260E+03  0.41513946263E+03  0.50400001928E-02 0. -1.
    10030    2    1    2    0    0  0.00000000000E+00  0.00000000000E+00  0.39156378116E+03  0.12218427064E+04  0.11574011424E+04 0.  0.
        2    1    3    3  502    0  0.10859581383E+03  0.25427175478E+03  0.73246421090E+03  0.78291187009E+03  0.25500000920E-02 0.  1.
       -2    1    3    3    0  502 -0.10859581383E+03 -0.25427175478E+03 -0.34090042974E+03  0.43893083631E+03  0.25500000920E-02 0. -1.
</event>
<event>
 5   0  0.6658994E-03  0.1165349E+04  0.7818609E-02  0.9143739E-01
        2   -1    0    0  501    0  0.00000000000E+00  0.00000000000E+00  0.37461283375E+03  0.37461283375E+03  0.25500000920E-02 0.  1.
       -2   -1    0    0    0  501  0.00000000000E+00  0.00000000000E+00 -0.90629395071E+03  0.90629395072E+03  0.25500000920E-02 0. -1.
    10030    2    1    2    0    0  0.00000000000E+00  0.00000000000E+00 -0.53168111697E+03  0.12809067845E+04  0.11653486089E+04 0.  0.
        4    1    3    3  502    0 -0.39692836314E+03 -0.19464952040E+03  0.15135932440E+03  0.46728130632E+03  0.12699999809E+01 0.  1.
       -4    1    3    3    0  502  0.39692836314E+03  0.19464952040E+03 -0.68304044137E+03  0.81362547815E+03  0.12699999809E+01 0. -1.
</event>
<event>
 5   0  0.6585930E-03  0.1194595E+04  0.7818609E-02  0.9117601E-01
        2   -1    0    0  501    0  0.00000000000E+00  0.00000000000E+00  0.16236803456E+04  0.16236803456E+04  0.25500000920E-02 0. -1.
       -2   -1    0    0    0  501  0.00000000000E+00  0.00000000000E+00 -0.21972559940E+03  0.21972559941E+03  0.25500000920E-02 0.  1.
    10030    2    1    2    0    0  0.00000000000E+00  0.00000000000E+00  0.14039547462E+04  0.18434059450E+04  0.11945947216E+04 0.  0.
        2    1    3    3  502    0 -0.53442058160E+03  0.25122005210E+03  0.84040556054E+03  0.10271311400E+04  0.25500000920E-02 0. -1.
       -2    1    3    3    0  502  0.53442058160E+03 -0.25122005210E+03  0.56354918569E+03  0.81627480502E+03  0.25500000920E-02 0.  1.
</event>
<event>
 5   0  0.6658994E-03  0.1195083E+04  0.7818609E-02  0.9117171E-01
       -2   -1    0    0    0  501  0.00000000000E+00  0.00000000000E+00  0.15753057089E+03  0.15753057091E+03  0.25500000920E-02 0.  1.
        2   -1    0    0  501    0  0.00000000000E+00  0.00000000000E+00 -0.22665817017E+04  0.22665817017E+04  0.25500000920E-02 0. -1.
    10030    2    1    2    0    0  0.00000000000E+00  0.00000000000E+00 -0.21090511308E+04  0.24241122726E+04  0.11950831092E+04 0.  0.
        4    1    3    3  502    0  0.49296413407E+03  0.29751077889E+03 -0.73043754395E+03  0.93008973736E+03  0.12699999809E+01 0.  1.
       -4    1    3    3    0  502 -0.49296413407E+03 -0.29751077889E+03 -0.13786135869E+04  0.14940225352E+04  0.12699999809E+01 0. -1.
</event>
<event>
 5   0  0.3648616E-03  0.1182119E+04  0.7818609E-02  0.9128653E-01
        1   -1    0    0  501    0  0.00000000000E+00  0.00000000000E+00  0.84936752210E+03  0.84936752211E+03  0.50400001928E-02 0.  1.
       -1   -1    0    0    0  501  0.00000000000E+00  0.00000000000E+00 -0.41130764896E+03  0.41130764899E+03  0.50400001928E-02 0. -1.
    10030    2    1    2    0    0  0.00000000000E+00  0.00000000000E+00  0.43805987313E+03  0.12606751711E+04  0.11821190442E+04 0.  0.
        2    1    3    3  502    0  0.48387110312E+03 -0.26113945280E+03  0.45029625798E+03  0.71069809216E+03  0.25500000920E-02 0.  1.
       -2    1    3    3    0  502 -0.48387110312E+03  0.26113945280E+03 -0.12236384853E+02  0.54997707894E+03  0.25500000920E-02 0. -1.
</event>
<event>
 5   0  0.6349142E-03  0.1219091E+04  0.7818609E-02  0.9096309E-01
        2   -1    0    0  501    0  0.00000000000E+00  0.00000000000E+00  0.67884339989E+03  0.67884339989E+03  0.25500000920E-02 0. -1.
       -2   -1    0    0    0  501  0.00000000000E+00  0.00000000000E+00 -0.54732158182E+03  0.54732158183E+03  0.25500000920E-02 0.  1.
    10030    2    1    2    0    0  0.00000000000E+00  0.00000000000E+00  0.13152181807E+03  0.12261649817E+04  0.12190908800E+04 0.  0.
        1    1    3    3  502    0  0.19035037207E+03 -0.48795567630E+03  0.37935794942E+03  0.64671976929E+03  0.50400001928E-02 0. -1.
       -1    1    3    3    0  502 -0.19035037207E+03  0.48795567630E+03 -0.24783613135E+03  0.57944521243E+03  0.50400001928E-02 0.  1.
</event>
<event>
 5   0  0.3944074E-03  0.1147975E+04  0.7818609E-02  0.9159654E-01
       -1   -1    0    0    0  501  0.00000000000E+00  0.00000000000E+00  0.10709472531E+04  0.10709472531E+04  0.50400001928E-02 0. -1.
        1   -1    0    0  501    0  0.00000000000E+00  0.00000000000E+00 -0.30763555118E+03  0.30763555122E+03  0.50400001928E-02 0.  1.
    10030    2    1    2    0    0  0.00000000000E+00  0.00000000000E+00  0.76331170190E+03  0.13785828043E+04  0.11479746487E+04 0.  0.
        4    1    3    3  502    0  0.46586108900E+03 -0.32886970437E+03  0.30311042568E+03  0.64580134697E+03  0.12699999809E+01 0. -1.
       -4    1    3    3    0  502 -0.46586108900E+03  0.32886970437E+03  0.46020127622E+03  0.73278145734E+03  0.12699999809E+01 0.  1.
</event>
<event>
 5   0  0.3648616E-03  0.1192442E+04  0.7818609E-02  0.9119498E-01
       -1   -1    0    0    0  501  0.00000000000E+00  0.00000000000E+00  0.14611106287E+04  0.14611106287E+04  0.50400001928E-02 0. -1.
        1   -1    0    0  501    0  0.00000000000E+00  0.00000000000E+00 -0.24329418499E+03  0.24329418504E+03  0.50400001928E-02 0.  1.
    10030    2    1    2    0    0  0.00000000000E+00  0.00000000000E+00  0.12178164437E+04  0.17044048137E+04  0.11924424005E+04 0.  0.
        2    1    3    3  502    0 -0.51008164196E+03 -0.10044105495E+03  0.10261383017E+04  0.11503180000E+04  0.25500000920E-02 0.  1.
       -2    1    3    3    0  502  0.51008164196E+03  0.10044105495E+03  0.19167814198E+03  0.55408681369E+03  0.25500000920E-02 0. -1.
</event>
<event>
 5   0  0.3701879E-03  0.1197234E+04  0.7818609E-02  0.9115281E-01
       -1   -1    0    0    0  501  0.00000000000E+00  0.00000000000E+00  0.27385565946E+03  0.27385565951E+03  0.50400001928E-02 0.  1.
        1   -1    0    0  501    0  0.00000000000E+00  0.00000000000E+00 -0.13085086470E+04  0.13085086470E+04  0.50400001928E-02 0. -1.
    10030    2    1    2    0    0  0.00000000000E+00  0.00000000000E+00 -0.10346529875E+04  0.15823643065E+04  0.11972343104E+04 0.  0.
        1    1    3    3  502    0  0.45903118547E+03 -0.18488716593E+03 -0.72153492147E+02  0.50009901002E+03  0.50400001928E-02 0.  1.
       -1    1    3    3    0  502 -0.45903118547E+03  0.18488716593E+03 -0.96249949537E+03  0.10822652965E+04  0.50400001928E-02 0. -1.
</event>
<event>
 5   0  0.6349142E-03  0.8031190E+03  0.7818609E-02  0.9555513E-01
       -2   -1    0    0    0  501  0.00000000000E+00  0.00000000000E+00  0.34549944092E+03  0.34549944093E+03  0.25500000920E-02 0. -1.
        2   -1    0    0  501    0  0.00000000000E+00  0.00000000000E+00 -0.46671573899E+03  0.46671573900E+03  0.25500000920E-02 0.  1.
    10030    2    1    2    0    0  0.00000000000E+00  0.00000000000E+00 -0.12121629807E+03  0.81221517993E+03  0.80311898719E+03 0.  0.
        1    1    3    3  502    0  0.54019209371E+02  0.22586228933E+03  0.27069674716E+03  0.35666311510E+03  0.50400001928E-02 0. -1.
       -1    1    3    3    0  502 -0.54019209371E+02 -0.22586228933E+03 -0.39191304524E+03  0.45555206483E+03  0.50400001928E-02 0.  1.
</event>
<event>
 5   0  0.3701879E-03  0.1183967E+04  0.7818609E-02  0.9127007E-01
       -1   -1    0    0    0  501  0.00000000000E+00  0.00000000000E+00  0.31943145565E+03  0.31943145569E+03  0.50400001928E-02 0. -1.
        1   -1    0    0  501    0  0.00000000000E+00  0.00000000000E+00 -0.10970881229E+04  0.10970881229E+04  0.50400001928E-02 0.  1.
    10030    2    1    2    0    0  0.00000000000E+00  0.00000000000E+00 -0.77765666723E+03  0.14165195786E+04  0.11839669862E+04 0.  0.
        1    1    3    3  502    0 -0.12498673747E+03 -0.40925692863E+02 -0.10793884666E+04  0.10873711688E+04  0.50400001928E-02 0.  1.
       -1    1    3    3    0  502  0.12498673747E+03  0.40925692863E+02  0.30173179937E+03  0.32914840977E+03  0.50400001928E-02 0. -1.
</event>
<event>
 5   0  0.3731281E-03  0.1196468E+04  0.7818609E-02  0.9115953E-01
       -1   -1    0    0    0  501  0.00000000000E+00  0.00000000000E+00  0.16401964616E+03  0.16401964624E+03  0.50400001928E-02 0.  1.
        1   -1    0    0  501    0  0.00000000000E+00  0.00000000000E+00 -0.21819593489E+04  0.21819593489E+04  0.50400001928E-02 0. -1.
    10030    2    1    2    0    0  0.00000000000E+00  0.00000000000E+00 -0.20179397027E+04  0.23459789951E+04  0.11964684709E+04 0.  0.
        5    1    3    3  502    0 -0.54218874302E+03  0.21671624248E+03 -0.12640753872E+04  0.13924235122E+04  0.46999998093E+01 0. -1.
       -5    1    3    3    0  502  0.54218874302E+03 -0.21671624248E+03 -0.75386431556E+03  0.95355548296E+03  0.46999998093E+01 0.  1.
</event>
<event>
 5   0  0.3772254E-03  0.1184213E+04  0.7818609E-02  0.9126788E-01
       -1   -1    0    0    0  501  0.00000000000E+00  0.00000000000E+00  0.33657993560E+03  0.33657993563E+03  0.50400001928E-02 0.  1.
        1   -1    0    0  501    0  0.00000000000E+00  0.00000000000E+00 -0.10416247197E+04  0.10416247197E+04  0.50400001928E-02 0. -1.
    10030    2    1    2    0    0  0.00000000000E+00  0.00000000000E+00 -0.70504478407E+03  0.13782046553E+04  0.11842127868E+04 0.  0.
        3    1    3    3  502    0  0.17479802908E+03  0.55033940528E+03 -0.20005747351E+03  0.61110622226E+03  0.10100000352E+00 0. -1.
       -3    1    3    3    0  502 -0.17479802908E+03 -0.55033940528E+03 -0.50498731056E+03  0.76709843306E+03  0.10100000352E+00 0.  1.
</event>
<event>
 5   0  0.6585930E-03  0.1098145E+04  0.7818609E-02  0.9207002E-01
        2   -1    0    0  501    0  0.00000000000E+00  0.00000000000E+00  0.11811436837E+04  0.11811436837E+04  0.25500000920E-02 0. -1.
       -2   -1    0    0    0  501  0.00000000000E+00  0.00000000000E+00 -0.25524464789E+03  0.25524464791E+03  0.25500000920E-02 0.  1.
    10030    2    1    2    0    0  0.00000000000E+00  0.00000000000E+00  0.92589903579E+03  0.14363883316E+04  0.10981449880E+04 0.  0.
        2    1    3    3  502    0 -0.17996638665E+03  0.21224132358E+03 -0.15617940961E+03  0.31910231549E+03  0.25500000920E-02 0.  1.
       -2    1    3    3    0  502  0.17996638665E+03 -0.21224132358E+03  0.10820784454E+04  0.11172860161E+04  0.25500000920E-02 0. -1.
</event>
<event>
 5   0  0.6585930E-03  0.1070538E+04  0.7818609E-02  0.9234393E-01
        2   -1    0    0  501    0  0.00000000000E+00  0.00000000000E+00  0.12966517607E+04  0.12966517607E+04  0.25500000920E-02 0. -1.
       -2   -1    0    0    0  501  0.00000000000E+00  0.00000000000E+00 -0.22096352075E+03  0.22096352077E+03  0.25500000920E-02 0.  1.
    10030    2    1    2    0    0  0.00000000000E+00  0.00000000000E+00  0.10756882399E+04  0.15176152815E+04  0.10705376934E+04 0.  0.
        2    1    3    3  502    0 -0.10333778585E+03  0.72428382239E+02  0.12752627922E+04  0.12814912242E+04  0.25500000920E-02 0. -1.
       -2    1    3    3    0  502  0.10333778585E+03 -0.72428382239E+02 -0.19957455222E+03  0.23612405730E+03  0.25500000920E-02 0.  1.
</event>
<event>
 5   0  0.6658994E-03  0.1176158E+04  0.7818609E-02  0.9133985E-01
       -2   -1    0    0    0  501  0.00000000000E+00  0.00000000000E+00  0.35416925439E+03  0.35416925440E+03  0.25500000920E-02 0.  1.
        2   -1    0    0  501    0  0.00000000000E+00  0.00000000000E+00 -0.97647418073E+03  0.97647418073E+03  0.25500000920E-02 0. -1.
    10030    2    1    2    0    0  0.00000000000E+00  0.00000000000E+00 -0.62230492634E+03  0.13306434351E+04  0.11761583780E+04 0.  0.
        4    1    3    3  502    0 -0.55010557181E+03  0.64321100037E+02 -0.53481088441E+03  0.76992054072E+03  0.12699999809E+01 0.  1.
       -4    1    3    3    0  502  0.55010557181E+03 -0.64321100037E+02 -0.87494041924E+02  0.56072289441E+03  0.12699999809E+01 0. -1.
</event>
<event>
 5   0  0.3731281E-03  0.1059571E+04  0.7818609E-02  0.9245518E-01
        1   -1    0    0  501    0  0.00000000000E+00  0.00000000000E+00  0.97148249011E+03  0.97148249012E+03  0.50400001928E-02 0. -1.
       -1   -1    0    0    0  501  0.00000000000E+00  0.00000000000E+00 -0.28891163614E+03  0.28891163619E+03  0.50400001928E-02 0.  1.
    10030    2    1    2    0    0  0.00000000000E+00  0.00000000000E+00  0.68257085397E+03  0.12603941263E+04  0.10595708485E+04 0.  0.
        5    1    3    3  502    0 -0.46920684751E+02  0.51821845418E+03  0.45963399614E+03  0.69428914533E+03  0.46999998093E+01 0. -1.
       -5    1    3    3    0  502  0.46920684751E+02 -0.51821845418E+03  0.22293685782E+03  0.56610498098E+03  0.46999998093E+01 0.  1.
</event>
<event>
 5   0  0.3772254E-03  0.1208832E+04  0.7818609E-02  0.9105161E-01
       -1   -1    0    0    0  501  0.00000000000E+00  0.00000000000E+00  0.35138334649E+03  0.35138334653E+03  0.50400001928E-02 0. -1.
        1   -1    0    0  501    0  0.00000000000E+00  0.00000000000E+00 -0.10396577084E+04  0.10396577084E+04  0.50400001928E-02 0.  1.
    10030    2    1    2    0    0  0.00000000000E+00  0.00000000000E+00 -0.68827436190E+03  0.13910410549E+04  0.12088315099E+04 0.  0.
        3    1    3    3  502    0  0.25448971562E+03  0.10836086586E+03 -0.96255396519E+03  0.10015074831E+04  0.10100000352E+00 0.  1.
       -3    1    3    3    0  502 -0.25448971562E+03 -0.10836086586E+03  0.27427960329E+03  0.38953357184E+03  0.10100000352E+00 0. -1.
</event>
<event>
 5   0  0.3648616E-03  0.1112090E+04  0.7818609E-02  0.9193488E-01
       -1   -1    0    0    0  501  0.00000000000E+00  0.00000000000E+00  0.56131989255E+03  0.56131989257E+03  0.50400001928E-02 0.  1.
        1   -1    0    0  501    0  0.00000000000E+00  0.00000000000E+00 -0.55081936988E+03  0.55081936990E+03  0.50400001928E-02 0. -1.
    10030    2    1    2    0    0  0.00000000000E+00  0.00000000000E+00  0.10500522676E+02  0.11121392625E+04  0.11120896898E+04 0.  0.
        2    1    3    3  502    0  0.12719578123E+02 -0.27047887417E+03 -0.48043100132E+03  0.55148395813E+03  0.25500000920E-02 0. -1.
       -2    1    3    3    0  502 -0.12719578123E+02  0.27047887417E+03  0.49093152399E+03  0.56065530435E+03  0.25500000920E-02 0.  1.
</event>
<event>
 5   0  0.6640844E-03  0.1192691E+04  0.7818609E-02  0.9119278E-01
       -2   -1    0    0    0  501  0.00000000000E+00  0.00000000000E+00  0.78282788348E+03  0.78282788348E+03  0.25500000920E-02 0. -1.
        2   -1    0    0  501    0  0.00000000000E+00  0.00000000000E+00 -0.45428628320E+03  0.45428628321E+03  0.25500000920E-02 0.  1.
    10030    2    1    2    0    0  0.00000000000E+00  0.00000000000E+00  0.32854160027E+03  0.12371141667E+04  0.11926910238E+04 0.  0.
        5    1    3    3  502    0 -0.24774096064E+03  0.26974897404E+03 -0.32385880835E+03  0.48892403328E+03  0.46999998093E+01 0.  1.
       -5    1    3    3    0  502  0.24774096064E+03 -0.26974897404E+03  0.65240040862E+03  0.74819013341E+03  0.46999998093E+01 0. -1.
</event>
<event>
 5   0  0.3772254E-03  0.1235383E+04  0.7818609E-02  0.9082437E-01
        1   -1    0    0  501    0  0.00000000000E+00  0.00000000000E+00  0.10824365605E+04  0.10824365605E+04  0.50400001928E-02 0. -1.
       -1   -1    0    0    0  501  0.00000000000E+00  0.00000000000E+00 -0.35248509372E+03  0.35248509376E+03  0.50400001928E-02 0.  1.
    10030    2    1    2    0    0  0.00000000000E+00  0.00000000000E+00  0.72995146674E+03  0.14349216542E+04  0.12353829406E+04 0.  0.
        3    1    3    3  502    0  0.11138640867E+02  0.52565048336E+03 -0.11597206006E+02  0.52589638273E+03  0.10100000352E+00 0.  1.
       -3    1    3    3    0  502 -0.11138640867E+02 -0.52565048336E+03  0.74154867275E+03  0.90902527151E+03  0.10100000352E+00 0. -1.
</event>
<event>
 5   0  0.3648616E-03  0.1197237E+04  0.7818609E-02  0.9115279E-01
       -1   -1    0    0    0  501  0.00000000000E+00  0.00000000000E+00  0.31841033863E+03  0.31841033867E+03  0.50400001928E-02 0. -1.
        1   -1    0    0  501    0  0.00000000000E+00  0.00000000000E+00 -0.11254151400E+04  0.11254151400E+04  0.50400001928E-02 0.  1.
    10030    2    1    2    0    0  0.00000000000E+00  0.00000000000E+00 -0.80700480134E+03  0.14438254786E+04  0.11972365111E+04 0.  0.
        2    1    3    3  502    0 -0.43712928376E+03 -0.20109672260E+03 -0.83297147794E+03  0.96195809973E+03  0.25500000920E-02 0.  1.
       -2    1    3    3    0  502  0.43712928376E+03  0.20109672260E+03  0.25966676602E+02  0.48186737891E+03  0.25500000920E-02 0. -1.
</event>
<event>
 5   0  0.6493047E-03  0.1313550E+04  0.7818609E-02  0.9018888E-01
       -2   -1    0    0    0  501  0.00000000000E+00  0.00000000000E+00  0.18285276478E+03  0.18285276479E+03  0.25500000920E-02 0.  1.
        2   -1    0    0  501    0  0.00000000000E+00  0.00000000000E+00 -0.23590201285E+04  0.23590201285E+04  0.25500000920E-02 0. -1.
    10030    2    1    2    0    0  0.00000000000E+00  0.00000000000E+00 -0.21761673638E+04  0.25418728933E+04  0.13135499270E+04 0.  0.
        3    1    3    3  502    0 -0.55770905527E+03 -0.34495504723E+03 -0.10177782511E+04  0.12107460318E+04  0.10100000352E+00 0.  1.
       -3    1    3    3    0  502  0.55770905527E+03  0.34495504723E+03 -0.11583891126E+04  0.13311268615E+04  0.10100000352E+00 0. -1.
</event>
<event>
 5   0  0.3772254E-03  0.1216997E+04  0.7818609E-02  0.9098108E-01
       -1   -1    0    0    0  501  0.00000000000E+00  0.00000000000E+00  0.72890179179E+03  0.72890179181E+03  0.50400001928E-02 0.  1.
        1   -1    0    0  501    0  0.00000000000E+00  0.00000000000E+00 -0.50798406083E+03  0.50798406086E+03  0.50400001928E-02 0. -1.
    10030    2    1    2    0    0  0.00000000000E+00  0.00000000000E+00  0.22091773096E+03  0.12368858527E+04  0.12169971112E+04 0.  0.
        3    1    3    3  502    0  0.70277015055E+02 -0.45728423615E+03  0.51216846931E+03  0.69019148259E+03  0.10100000352E+00 0.  1.
       -3    1    3    3    0  502 -0.70277015055E+02  0.45728423615E+03 -0.29125073836E+03  0.54669437007E+03  0.10100000352E+00 0. -1.
</event>
<event>
 5   0  0.3772254E-03  0.1220898E+04  0.7818609E-02  0.9094759E-01
       -1   -1    0    0    0  501  0.00000000000E+00  0.00000000000E+00  0.28901255936E+03  0.28901255941E+03  0.50400001928E-02 0.  1.
        1   -1    0    0  501    0  0.00000000000E+00  0.00000000000E+00 -0.12893836480E+04  0.12893836480E+04  0.50400001928E-02 0. -1.
    10030    2    1    2    0    0  0.00000000000E+00  0.00000000000E+00 -0.10003710886E+04  0.15783962074E+04  0.12208981418E+04 0.  0.
        3    1    3    3  502    0  0.47885325696E+02 -0.54528397795E+03 -0.84953398538E+03  0.10106115097E+04  0.10100000352E+00 0. -1.
       -3    1    3    3    0  502 -0.47885325696E+02  0.54528397795E+03 -0.15083710325E+03  0.56778469770E+03  0.10100000352E+00 0.  1.
</event>
<event>
 5   0  0.3772254E-03  0.1163888E+04  0.7818609E-02  0.9145066E-01
       -1   -1    0    0    0  501  0.00000000000E+00  0.00000000000E+00  0.51982671313E+03  0.51982671315E+03  0.50400001928E-02 0.  1.
        1   -1    0    0  501    0  0.00000000000E+00  0.00000000000E+00 -0.65148386796E+03  0.65148386798E+03  0.50400001928E-02 0. -1.
    10030    2    1    2    0    0  0.00000000000E+00  0.00000000000E+00 -0.13165715483E+03  0.11713105811E+04  0.11638878258E+04 0.  0.
        3    1    3    3  502    0 -0.12466295508E+03 -0.11820938313E+02  0.50610750012E+03  0.52136877431E+03  0.10100000352E+00 0.  1.
       -3    1    3    3    0  502  0.12466295508E+03  0.11820938313E+02 -0.63776465495E+03  0.64994180682E+03  0.10100000352E+00 0. -1.
</event>
<event>
 5   0  0.2537625E-03  0.1015408E+04  0.7818609E-02  0.9291806E-01
        4   -1    0    0  501    0  0.00000000000E+00  0.00000000000E+00  0.13551364993E+04  0.13551370944E+04  0.12699999809E+01 0. -1.
       -4   -1    0    0    0  501  0.00000000000E+00  0.00000000000E+00 -0.19020916756E+03  0.19021340732E+03  0.12699999809E+01 0.  1.
    10030    2    1    2    0    0  0.00000000000E+00  0.00000000000E+00  0.11649273317E+04  0.15453505017E+04  0.10154075462E+04 0.  0.
        2    1    3    3  502    0 -0.36799216350E+03 -0.85294128566E+01  0.50293696017E+02  0.37151102157E+03  0.25500000920E-02 0.  1.
       -2    1    3    3    0  502  0.36799216350E+03  0.85294128566E+01  0.11146336357E+04  0.11738394801E+04  0.25500000920E-02 0. -1.
</event>
<event>
 5   0  0.3944074E-03  0.1231594E+04  0.7818609E-02  0.9085643E-01
        1   -1    0    0  501    0  0.00000000000E+00  0.00000000000E+00  0.30533941333E+03  0.30533941337E+03  0.50400001928E-02 0. -1.
       -1   -1    0    0    0  501  0.00000000000E+00  0.00000000000E+00 -0.12419168630E+04  0.12419168630E+04  0.50400001928E-02 0.  1.
    10030    2    1    2    0    0  0.00000000000E+00  0.00000000000E+00 -0.93657744964E+03  0.15472562763E+04  0.12315943592E+04 0.  0.
        4    1    3    3  502    0  0.24924146263E+03  0.11009605814E+03 -0.11620618941E+04  0.11935794517E+04  0.12699999809E+01 0.  1.
       -4    1    3    3    0  502 -0.24924146263E+03 -0.11009605814E+03  0.22548444450E+03  0.35367682469E+03  0.12699999809E+01 0. -1.
</event>
<event>
 5   0  0.3648616E-03  0.1233802E+04  0.7818609E-02  0.9083773E-01
       -1   -1    0    0    0  501  0.00000000000E+00  0.00000000000E+00  0.39995864744E+03  0.39995864747E+03  0.50400001928E-02 0. -1.
        1   -1    0    0  501    0  0.00000000000E+00  0.00000000000E+00 -0.95151574510E+03  0.95151574512E+03  0.50400001928E-02 0.  1.
    10030    2    1    2    0    0  0.00000000000E+00  0.00000000000E+00 -0.55155709766E+03  0.13514743926E+04  0.12338021729E+04 0.  0.
        2    1    3    3  502    0 -0.19293796732E+03  0.38843089654E+03  0.20476891341E+03  0.47961852396E+03  0.25500000920E-02 0. -1.
       -2    1    3    3    0  502  0.19293796732E+03 -0.38843089654E+03 -0.75632601108E+03  0.87185586863E+03  0.25500000920E-02 0.  1.
</event>
<event>
 5   0  0.6493047E-03  0.1179629E+04  0.7818609E-02  0.9130876E-01
        2   -1    0    0  501    0  0.00000000000E+00  0.00000000000E+00  0.92410578258E+03  0.92410578258E+03  0.25500000920E-02 0. -1.
       -2   -1    0    0    0  501  0.00000000000E+00  0.00000000000E+00 -0.37645193621E+03  0.37645193621E+03  0.25500000920E-02 0.  1.
    10030    2    1    2    0    0  0.00000000000E+00  0.00000000000E+00  0.54765384637E+03  0.13005577188E+04  0.11796294522E+04 0.  0.
        3    1    3    3  502    0  0.24074708967E+03  0.56035152381E+02 -0.31659190243E+03  0.40165848973E+03  0.10100000352E+00 0.  1.
       -3    1    3    3    0  502 -0.24074708967E+03 -0.56035152381E+02  0.86424574880E+03  0.89889922906E+03  0.10100000352E+00 0. -1.
</event>
<event>
 5   0  0.6658994E-03  0.1225172E+04  0.7818609E-02  0.9091104E-01
        2   -1    0    0  501    0  0.00000000000E+00  0.00000000000E+00  0.15161829625E+04  0.15161829625E+04  0.25500000920E-02 0. -1.
       -2   -1    0    0    0  501  0.00000000000E+00  0.00000000000E+00 -0.24750421621E+03  0.24750421622E+03  0.25500000920E-02 0.  1.
    10030    2    1    2    0    0  0.00000000000E+00  0.00000000000E+00  0.12686787463E+04  0.17636871787E+04  0.12251721116E+04 0.  0.
        4    1    3    3  502    0 -0.26229551029E+03 -0.10370834347E+03  0.14171456673E+04  0.14449421478E+04  0.12699999809E+01 0. -1.
       -4    1    3    3    0  502  0.26229551029E+03  0.10370834347E+03 -0.14846692099E+03  0.31874503094E+03  0.12699999809E+01 0.  1.
</event>
<event>
 5   0  0.6658994E-03  0.1225190E+04  0.7818609E-02  0.9091089E-01
       -2   -1    0    0    0  501  0.00000000000E+00  0.00000000000E+00  0.11994496791E+03  0.11994496793E+03  0.25500000920E-02 0. -1.
        2   -1    0    0  501    0  0.00000000000E+00  0.00000000000E+00 -0.31287068169E+04  0.31287068169E+04  0.25500000920E-02 0.  1.
    10030    2    1    2    0    0  0.00000000000E+00  0.00000000000E+00 -0.30087618490E+04  0.32486517848E+04  0.12251900078E+04 0.  0.
        4    1    3    3  502    0 -0.39576328680E+03 -0.27676021997E+03 -0.25037239101E+04  0.25498744732E+04  0.12699999809E+01 0.  1.
       -4    1    3    3    0  502  0.39576328680E+03  0.27676021997E+03 -0.50503793891E+03  0.69877731158E+03  0.12699999809E+01 0. -1.
</event>
<event>
 5   0  0.3731281E-03  0.1193273E+04  0.7818609E-02  0.9118765E-01
       -1   -1    0    0    0  501  0.00000000000E+00  0.00000000000E+00  0.28644605216E+03  0.28644605220E+03  0.50400001928E-02 0.  1.
        1   -1    0    0  501    0  0.00000000000E+00  0.00000000000E+00 -0.12427294497E+04  0.12427294497E+04  0.50400001928E-02 0. -1.
    10030    2    1    2    0    0  0.00000000000E+00  0.00000000000E+00 -0.95628339757E+03  0.15291755019E+04  0.11932727179E+04 0.  0.
        5    1    3    3  502    0 -0.36559356990E+03 -0.11140891197E+03 -0.10652327720E+04  0.11317303356E+04  0.46999998093E+01 0. -1.
       -5    1    3    3    0  502  0.36559356990E+03  0.11140891197E+03  0.10894937446E+03  0.39744516629E+03  0.46999998093E+01 0.  1.
</event>
<event>
 5   0  0.3772254E-03  0.1150250E+04  0.7818609E-02  0.9157553E-01
       -1   -1    0    0    0  501  0.00000000000E+00  0.00000000000E+00  0.45616625370E+03  0.45616625373E+03  0.50400001928E-02 0.  1.
        1   -1    0    0  501    0  0.00000000000E+00  0.00000000000E+00 -0.72510510543E+03  0.72510510545E+03  0.50400001928E-02 0. -1.
    10030    2    1    2    0    0  0.00000000000E+00  0.00000000000E+00 -0.26893885173E+03  0.11812713592E+04  0.11502495025E+04 0.  0.
        3    1    3    3  502    0  0.11380179073E+03  0.22485313967E+03 -0.66538264103E+03  0.71150815258E+03  0.10100000352E+00 0. -1.
       -3    1    3    3    0  502 -0.11380179073E+03 -0.22485313967E+03  0.39644378931E+03  0.46976320660E+03  0.10100000352E+00 0.  1.
</event>
<event>
 5   0  0.6658994E-03  0.1093347E+04  0.7818609E-02  0.9211701E-01
       -2   -1    0    0    0  501  0.00000000000E+00  0.00000000000E+00  0.19673880495E+03  0.19673880497E+03  0.25500000920E-02 0.  1.
        2   -1    0    0  501    0  0.00000000000E+00  0.00000000000E+00 -0.15190277843E+04  0.15190277843E+04  0.25500000920E-02 0. -1.
    10030    2    1    2    0    0  0.00000000000E+00  0.00000000000E+00 -0.13222889793E+04  0.17157665893E+04  0.10933466257E+04 0.  0.
        4    1    3    3  502    0 -0.65721430183E+02  0.35359382541E+03 -0.13072270306E+04  0.13557994033E+04  0.12699999809E+01 0. -1.
       -4    1    3    3    0  502  0.65721430183E+02 -0.35359382541E+03 -0.15061948791E+02  0.35996718594E+03  0.12699999809E+01 0.  1.
</event>
<event>
 5   0  0.6640844E-03  0.1184760E+04  0.7818609E-02  0.9126301E-01
        2   -1    0    0  501    0  0.00000000000E+00  0.00000000000E+00  0.21602713802E+04  0.21602713803E+04  0.25500000920E-02 0. -1.
       -2   -1    0    0    0  501  0.00000000000E+00  0.00000000000E+00 -0.16243986080E+03  0.16243986082E+03  0.25500000920E-02 0.  1.
    10030    2    1    2    0    0  0.00000000000E+00  0.00000000000E+00  0.19978315194E+04  0.23227112411E+04  0.11847601991E+04 0.  0.
        5    1    3    3  502    0  0.34449142765E+03  0.29903894893E+03  0.25808515116E+03  0.52414565910E+03  0.46999998093E+01 0.  1.
       -5    1    3    3    0  502 -0.34449142765E+03 -0.29903894893E+03  0.17397463683E+04  0.17985655820E+04  0.46999998093E+01 0. -1.
</event>
<event>
 5   0  0.3731281E-03  0.1062656E+04  0.7818609E-02  0.9242374E-01
       -1   -1    0    0    0  501  0.00000000000E+00  0.00000000000E+00  0.69117042378E+03  0.69117042380E+03  0.50400001928E-02 0.  1.
        1   -1    0    0  501    0  0.00000000000E+00  0.00000000000E+00 -0.40845127262E+03  0.40845127265E+03  0.50400001928E-02 0. -1.
    10030    2    1    2    0    0  0.00000000000E+00  0.00000000000E+00  0.28271915116E+03  0.10996216965E+04  0.10626559918E+04 0.  0.
        5    1    3    3  502    0  0.98407781087E+01  0.47640651740E+03  0.38453946801E+03  0.61233381680E+03  0.46999998093E+01 0.  1.
       -5    1    3    3    0  502 -0.98407781087E+01 -0.47640651740E+03 -0.10182031685E+03  0.48728787965E+03  0.46999998093E+01 0. -1.
</event>
<event>
 5   0  0.3772254E-03  0.8128173E+03  0.7818609E-02  0.9541648E-01
       -1   -1    0    0    0  501  0.00000000000E+00  0.00000000000E+00  0.11642459277E+03  0.11642459288E+03  0.50400001928E-02 0.  1.
        1   -1    0    0  501    0  0.00000000000E+00  0.00000000000E+00 -0.14186693442E+04  0.14186693442E+04  0.50400001928E-02 0. -1.
    10030    2    1    2    0    0  0.00000000000E+00  0.00000000000E+00 -0.13022447514E+04  0.15350939371E+04  0.81281732454E+03 0.  0.
        3    1    3    3  502    0 -0.20033731849E+03  0.18007526961E+03 -0.76395894667E+02  0.27999729789E+03  0.10100000352E+00 0.  1.
       -3    1    3    3    0  502  0.20033731849E+03 -0.18007526961E+03 -0.12258488567E+04  0.12550966392E+04  0.10100000352E+00 0. -1.
</event>
<event>
 5   0  0.6585930E-03  0.1196267E+04  0.7818609E-02  0.9116130E-01
       -2   -1    0    0    0  501  0.00000000000E+00  0.00000000000E+00  0.39836645640E+03  0.39836645641E+03  0.25500000920E-02 0.  1.
        2   -1    0    0  501    0  0.00000000000E+00  0.00000000000E+00 -0.89807730407E+03  0.89807730408E+03  0.25500000920E-02 0. -1.
    10030    2    1    2    0    0  0.00000000000E+00  0.00000000000E+00 -0.49971084767E+03  0.12964437605E+04  0.11962673166E+04 0.  0.
        2    1    3    3  502    0 -0.40774243528E+03  0.24588920964E+03 -0.64217631248E+03  0.79944093794E+03  0.25500000920E-02 0.  1.
       -2    1    3    3    0  502  0.40774243528E+03 -0.24588920964E+03  0.14246546481E+03  0.49700282254E+03  0.25500000920E-02 0. -1.
</event>
<event>
 5   0  0.6640844E-03  0.1173666E+04  0.7818609E-02  0.9136224E-01
        2   -1    0    0  501    0  0.00000000000E+00  0.00000000000E+00  0.13163078141E+04  0.13163078141E+04  0.25500000920E-02 0. -1.
       -2   -1    0    0    0  501  0.00000000000E+00  0.00000000000E+00 -0.26162018906E+03  0.26162018907E+03  0.25500000920E-02 0.  1.
    10030    2    1    2    0    0  0.00000000000E+00  0.00000000000E+00  0.10546876251E+04  0.15779280032E+04  0.11736655387E+04 0.  0.
        5    1    3    3  502    0  0.48851340314E+02  0.57529601400E+03  0.38634593939E+03  0.69472097425E+03  0.46999998093E+01 0.  1.
       -5    1    3    3    0  502 -0.48851340314E+02 -0.57529601400E+03  0.66834168570E+03  0.88320702897E+03  0.46999998093E+01 0. -1.
</event>
<event>
 5   0  0.6349142E-03  0.1132864E+04  0.7818609E-02  0.9173739E-01
       -2   -1    0    0    0  501  0.00000000000E+00  0.00000000000E+00  0.11034389215E+04  0.11034389215E+04  0.25500000920E-02 0. -1.
        2   -1    0    0  501    0  0.00000000000E+00  0.00000000000E+00 -0.29076865242E+03  0.29076865243E+03  0.25500000920E-02 0.  1.
    10030    2    1    2    0    0  0.00000000000E+00  0.00000000000E+00  0.81267026909E+03  0.13942075739E+04  0.11328644195E+04 0.  0.
        1    1    3    3  502    0  0.40032302870E+03  0.29359348598E+03  0.74200020855E+03  0.89275975034E+03  0.50400001928E-02 0. -1.
       -1    1    3    3    0  502 -0.40032302870E+03 -0.29359348598E+03  0.70670060540E+02  0.50144782360E+03  0.50400001928E-02 0.  1.
</event>
<event>
 5   0  0.6658994E-03  0.1186111E+04  0.7818609E-02  0.9125101E-01
        2   -1    0    0  501    0  0.00000000000E+00  0.00000000000E+00  0.10306710889E+04  0.10306710889E+04  0.25500000920E-02 0.  1.
       -2   -1    0    0    0  501  0.00000000000E+00  0.00000000000E+00 -0.34124857789E+03  0.34124857790E+03  0.25500000920E-02 0. -1.
    10030    2    1    2    0    0  0.00000000000E+00  0.00000000000E+00  0.68942251100E+03  0.13719196668E+04  0.11861113664E+04 0.  0.
        4    1    3    3  502    0 -0.46840131666E+03 -0.24760166126E+02  0.76446738186E+03  0.89689734647E+03  0.12699999809E+01 0.  1.
       -4    1    3    3    0  502  0.46840131666E+03  0.24760166126E+02 -0.75044870855E+02  0.47502232033E+03  0.12699999809E+01 0. -1.
</event>
<event>
 5   0  0.6640844E-03  0.1028775E+04  0.7818609E-02  0.9277536E-01
       -2   -1    0    0    0  501  0.00000000000E+00  0.00000000000E+00  0.21558496783E+03  0.21558496784E+03  0.25500000920E-02 0.  1.
        2   -1    0    0  501    0  0.00000000000E+00  0.00000000000E+00 -0.12273337271E+04  0.12273337271E+04  0.25500000920E-02 0. -1.
    10030    2    1    2    0    0  0.00000000000E+00  0.00000000000E+00 -0.10117487593E+04  0.14429186949E+04  0.10287753926E+04 0.  0.
        5    1    3    3  502    0 -0.34222506535E+03 -0.33179875653E+03 -0.77698663359E+03  0.91155840678E+03  0.46999998093E+01 0. -1.
       -5    1    3    3    0  502  0.34222506535E+03  0.33179875653E+03 -0.23476212568E+03  0.53136028817E+03  0.46999998093E+01 0.  1.
</event>
<event>
 5   0  0.6493047E-03  0.1205363E+04  0.7818609E-02  0.9108176E-01
       -2   -1    0    0    0  501  0.00000000000E+00  0.00000000000E+00  0.43643700077E+03  0.43643700078E+03  0.25500000920E-02 0.  1.
        2   -1    0    0  501    0  0.00000000000E+00  0.00000000000E+00 -0.83225005099E+03  0.83225005099E+03  0.25500000920E-02 0. -1.
    10030    2    1    2    0    0  0.00000000000E+00  0.00000000000E+00 -0.39581305022E+03  0.12686870518E+04  0.12053625449E+04 0.  0.
        3    1    3    3  502    0 -0.19088595216E+02  0.32148107692E+03  0.33827774888E+03  0.46706134809E+03  0.10100000352E+00 0.  1.
       -3    1    3    3    0  502  0.19088595216E+02 -0.32148107692E+03 -0.73409079910E+03  0.80162570369E+03  0.10100000352E+00 0. -1.
</event>
<event>
 5   0  0.3648616E-03  0.1194099E+04  0.7818609E-02  0.9118038E-01
       -1   -1    0    0    0  501  0.00000000000E+00  0.00000000000E+00  0.71753548332E+03  0.71753548334E+03  0.50400001928E-02 0. -1.
        1   -1    0    0  501    0  0.00000000000E+00  0.00000000000E+00 -0.49679492868E+03  0.49679492870E+03  0.50400001928E-02 0.  1.
    10030    2    1    2    0    0  0.00000000000E+00  0.00000000000E+00  0.22074055464E+03  0.12143304120E+04  0.11940988054E+04 0.  0.
        2    1    3    3  502    0 -0.36506650798E+02  0.12646582351E+03  0.70259587070E+03  0.71481976582E+03  0.25500000920E-02 0. -1.
       -2    1    3    3    0  502  0.36506650798E+02 -0.12646582351E+03 -0.48185531606E+03  0.49951064622E+03  0.25500000920E-02 0.  1.
</event>
<event>
 5   0  0.6640844E-03  0.1192572E+04  0.7818609E-02  0.9119383E-01
        2   -1    0    0  501    0  0.00000000000E+00  0.00000000000E+00  0.28690949815E+03  0.28690949816E+03  0.25500000920E-02 0.  1.
       -2   -1    0    0    0  501  0.00000000000E+00  0.00000000000E+00 -0.12392653824E+04  0.12392653824E+04  0.25500000920E-02 0. -1.
    10030    2    1    2    0    0  0.00000000000E+00  0.00000000000E+00 -0.95235588427E+03  0.15261748806E+04  0.11925720254E+04 0.  0.
        5    1    3    3  502    0  0.58401052045E+03  0.10688692121E+03 -0.40559719891E+03  0.71904400400E+03  0.46999998093E+01 0.  1.
       -5    1    3    3    0  502 -0.58401052045E+03 -0.10688692121E+03 -0.54675868535E+03  0.80713087658E+03  0.46999998093E+01 0. -1.
</event>
<event>
 5   0  0.3731281E-03  0.1205189E+04  0.7818609E-02  0.9108326E-01
        1   -1    0    0  501    0  0.00000000000E+00  0.00000000000E+00  0.40533593844E+03  0.40533593847E+03  0.50400001928E-02 0.  1.
       -1   -1    0    0    0  501  0.00000000000E+00  0.00000000000E+00 -0.89585022249E+03  0.89585022250E+03  0.50400001928E-02 0. -1.
    10030    2    1    2    0    0  0.00000000000E+00  0.00000000000E+00 -0.49051428405E+03  0.13011861610E+04  0.12051892642E+04 0.  0.
        5    1    3    3  502    0 -0.36061843509E+03 -0.46933926799E+03 -0.36727797270E+03  0.69659184853E+03  0.46999998093E+01 0.  1.
       -5    1    3    3    0  502  0.36061843509E+03  0.46933926799E+03 -0.12323631135E+03  0.60459431244E+03  0.46999998093E+01 0. -1.
</event>
<event>
 5   0  0.3731281E-03  0.1203180E+04  0.7818609E-02  0.9110078E-01
        1   -1    0    0  501    0  0.00000000000E+00  0.00000000000E+00  0.54512629146E+03  0.54512629148E+03  0.50400001928E-02 0.  1.
       -1   -1    0    0    0  501  0.00000000000E+00  0.00000000000E+00 -0.66390198422E+03  0.66390198424E+03  0.50400001928E-02 0. -1.
    10030    2    1    2    0    0  0.00000000000E+00  0.00000000000E+00 -0.11877569276E+03  0.12090282757E+04  0.12031798312E+04 0.  0.
        5    1    3    3  502    0  0.34625351523E+03 -0.48514245315E+03 -0.14123090693E+03  0.61255445123E+03  0.46999998093E+01 0.  1.
       -5    1    3    3    0  502 -0.34625351523E+03  0.48514245315E+03  0.22455214170E+02  0.59647382449E+03  0.46999998093E+01 0. -1.
</event>
<event>
 5   0  0.3731281E-03  0.1182567E+04  0.7818609E-02  0.9128254E-01
       -1   -1    0    0    0  501  0.00000000000E+00  0.00000000000E+00  0.45009155214E+03  0.45009155217E+03  0.50400001928E-02 0. -1.
        1   -1    0    0  501    0  0.00000000000E+00  0.00000000000E+00 -0.77676689711E+03  0.77676689713E+03  0.50400001928E-02 0.  1.
    10030    2    1    2    0    0  0.00000000000E+00  0.00000000000E+00 -0.32667534497E+03  0.12268584493E+04  0.11825670694E+04 0.  0.
        5    1    3    3  502    0  0.45052358941E+03  0.13444168884E+03  0.20862677674E+03  0.51438632786E+03  0.46999998093E+01 0. -1.
       -5    1    3    3    0  502 -0.45052358941E+03 -0.13444168884E+03 -0.53530212171E+03  0.71247212144E+03  0.46999998093E+01 0.  1.
</event>
<event>
 5   0  0.3944074E-03  0.1213943E+04  0.7818609E-02  0.9100739E-01
        1   -1    0    0  501    0  0.00000000000E+00  0.00000000000E+00  0.10432032653E+04  0.10432032653E+04  0.50400001928E-02 0. -1.
       -1   -1    0    0    0  501  0.00000000000E+00  0.00000000000E+00 -0.35315659195E+03  0.35315659198E+03  0.50400001928E-02 0.  1.
    10030    2    1    2    0    0  0.00000000000E+00  0.00000000000E+00  0.69004667339E+03  0.13963598573E+04  0.12139425191E+04 0.  0.
        4    1    3    3  502    0  0.34873141627E+03 -0.27366472331E+03 -0.13189651563E+03  0.46249787590E+03  0.12699999809E+01 0.  1.
       -4    1    3    3    0  502 -0.34873141627E+03  0.27366472331E+03  0.82194318902E+03  0.93386198143E+03  0.12699999809E+01 0. -1.
</event>
<event>
 5   0  0.6493047E-03  0.1062897E+04  0.7818609E-02  0.9242129E-01
       -2   -1    0    0    0  501  0.00000000000E+00  0.00000000000E+00  0.67504687299E+03  0.67504687300E+03  0.25500000920E-02 0.  1.
        2   -1    0    0  501    0  0.00000000000E+00  0.00000000000E+00 -0.41839676413E+03  0.41839676414E+03  0.25500000920E-02 0. -1.
    10030    2    1    2    0    0  0.00000000000E+00  0.00000000000E+00  0.25665010887E+03  0.10934436371E+04  0.10628968479E+04 0.  0.
        3    1    3    3  502    0 -0.30068838480E+02 -0.13153457237E+03 -0.40048284966E+03  0.42260146929E+03  0.10100000352E+00 0. -1.
       -3    1    3    3    0  502  0.30068838480E+02  0.13153457237E+03  0.65713295852E+03  0.67084216784E+03  0.10100000352E+00 0.  1.
</event>
<event>
 5   0  0.6640844E-03  0.1288179E+04  0.7818609E-02  0.9038992E-01
        2   -1    0    0  501    0  0.00000000000E+00  0.00000000000E+00  0.88879087811E+03  0.88879087811E+03  0.25500000920E-02 0. -1.
       -2   -1    0    0    0  501  0.00000000000E+00  0.00000000000E+00 -0.46675943721E+03  0.46675943722E+03  0.25500000920E-02 0.  1.
    10030    2    1    2    0    0  0.00000000000E+00  0.00000000000E+00  0.42203144089E+03  0.13555503153E+04  0.12881793820E+04 0.  0.
        5    1    3    3  502    0  0.97291684204E+02  0.70324551270E+02 -0.45486465704E+03  0.47046270899E+03  0.46999998093E+01 0.  1.
       -5    1    3    3    0  502 -0.97291684204E+02 -0.70324551270E+02  0.87689609793E+03  0.88508760634E+03  0.46999998093E+01 0. -1.
</event>
<event>
 5   0  0.3944074E-03  0.1218327E+04  0.7818609E-02  0.9096964E-01
       -1   -1    0    0    0  501  0.00000000000E+00  0.00000000000E+00  0.77547909795E+03  0.77547909797E+03  0.50400001928E-02 0.  1.
        1   -1    0    0  501    0  0.00000000000E+00  0.00000000000E+00 -0.47851747673E+03  0.47851747676E+03  0.50400001928E-02 0. -1.
    10030    2    1    2    0    0  0.00000000000E+00  0.00000000000E+00  0.29696162122E+03  0.12539965747E+04  0.12183272159E+04 0.  0.
        4    1    3    3  502    0 -0.50304551937E+03  0.29228722309E+03  0.33429907379E+03  0.67100230922E+03  0.12699999809E+01 0.  1.
       -4    1    3    3    0  502  0.50304551937E+03 -0.29228722309E+03 -0.37337452575E+02  0.58299426550E+03  0.12699999809E+01 0. -1.
</event>
<event>
 5   0  0.6585930E-03  0.1194127E+04  0.7818609E-02  0.9118013E-01
       -2   -1    0    0    0  501  0.00000000000E+00  0.00000000000E+00  0.86342505094E+03  0.86342505095E+03  0.25500000920E-02 0. -1.
        2   -1    0    0  501    0  0.00000000000E+00  0.00000000000E+00 -0.41287275942E+03  0.41287275942E+03  0.25500000920E-02 0.  1.
    10030    2    1    2    0    0  0.00000000000E+00  0.00000000000E+00  0.45055229153E+03  0.12762978104E+04  0.11941267660E+04 0.  0.
        2    1    3    3  502    0  0.55281718560E+02  0.59440071648E+03  0.23680759787E+03  0.64221968093E+03  0.25500000920E-02 0. -1.
       -2    1    3    3    0  502 -0.55281718560E+02 -0.59440071648E+03  0.21374469365E+03  0.63407812944E+03  0.25500000920E-02 0.  1.
</event>
<event>
 5   0  0.6585930E-03  0.1343954E+04  0.7818609E-02  0.8995417E-01
        2   -1    0    0  501    0  0.00000000000E+00  0.00000000000E+00  0.10560219955E+04  0.10560219955E+04  0.25500000920E-02 0. -1.
       -2   -1    0    0    0  501  0.00000000000E+00  0.00000000000E+00 -0.42759841894E+03  0.42759841895E+03  0.25500000920E-02 0.  1.
    10030    2    1    2    0    0  0.00000000000E+00  0.00000000000E+00  0.62842357660E+03  0.14836204145E+04  0.13439543678E+04 0.  0.
        2    1    3    3  502    0 -0.64090768569E+03  0.19735043672E+02  0.92322967910E+02  0.64782379080E+03  0.25500000920E-02 0.  1.
       -2    1    3    3    0  502  0.64090768569E+03 -0.19735043672E+02  0.53610060869E+03  0.83579662368E+03  0.25500000920E-02 0. -1.
</event>
<event>
 5   0  0.3944074E-03  0.1199197E+04  0.7818609E-02  0.9113560E-01
        1   -1    0    0  501    0  0.00000000000E+00  0.00000000000E+00  0.11603903431E+04  0.11603903431E+04  0.50400001928E-02 0. -1.
       -1   -1    0    0    0  501  0.00000000000E+00  0.00000000000E+00 -0.30982532487E+03  0.30982532491E+03  0.50400001928E-02 0.  1.
    10030    2    1    2    0    0  0.00000000000E+00  0.00000000000E+00  0.85056501824E+03  0.14702156680E+04  0.11991969231E+04 0.  0.
        4    1    3    3  502    0 -0.59373318206E+03  0.78463560620E+02  0.38972680510E+03  0.71453776481E+03  0.12699999809E+01 0.  1.
       -4    1    3    3    0  502  0.59373318206E+03 -0.78463560620E+02  0.46083821314E+03  0.75567790322E+03  0.12699999809E+01 0. -1.
</event>
<event>
 5   0  0.6640844E-03  0.1187528E+04  0.7818609E-02  0.9123844E-01
       -2   -1    0    0    0  501  0.00000000000E+00  0.00000000000E+00  0.14649404661E+04  0.14649404661E+04  0.25500000920E-02 0.  1.
        2   -1    0    0  501    0  0.00000000000E+00  0.00000000000E+00 -0.24066221851E+03  0.24066221852E+03  0.25500000920E-02 0. -1.
    10030    2    1    2    0    0  0.00000000000E+00  0.00000000000E+00  0.12242782475E+04  0.17056026846E+04  0.11875282271E+04 0.  0.
        5    1    3    3  502    0  0.39203682925E+01 -0.56324303845E+03  0.88189530088E+03  0.10464317949E+04  0.46999998093E+01 0.  1.
       -5    1    3    3    0  502 -0.39203682925E+01  0.56324303845E+03  0.34238294667E+03  0.65917088969E+03  0.46999998093E+01 0. -1.
</event>
<event>
 5   0  0.3772254E-03  0.1206348E+04  0.7818609E-02  0.9107318E-01
       -1   -1    0    0    0  501  0.00000000000E+00  0.00000000000E+00  0.94519765203E+03  0.94519765205E+03  0.50400001928E-02 0.  1.
        1   -1    0    0  501    0  0.00000000000E+00  0.00000000000E+00 -0.38491292337E+03  0.38491292340E+03  0.50400001928E-02 0. -1.
    10030    2    1    2    0    0  0.00000000000E+00  0.00000000000E+00  0.56028472867E+03  0.13301105754E+04  0.12063478627E+04 0.  0.
        3    1    3    3  502    0  0.20945526240E+02 -0.59026568086E+03  0.14525377939E+03  0.60823594081E+03  0.10100000352E+00 0. -1.
       -3    1    3    3    0  502 -0.20945526240E+02  0.59026568086E+03  0.41503094927E+03  0.72187463463E+03  0.10100000352E+00 0.  1.
</event>
<event>
 5   0  0.6658994E-03  0.1188575E+04  0.7818609E-02  0.9122916E-01
       -2   -1    0    0    0  501  0.00000000000E+00  0.00000000000E+00  0.32592098891E+03  0.32592098892E+03  0.25500000920E-02 0. -1.
        2   -1    0    0  501    0  0.00000000000E+00  0.00000000000E+00 -0.10836294478E+04  0.10836294478E+04  0.25500000920E-02 0.  1.
    10030    2    1    2    0    0  0.00000000000E+00  0.00000000000E+00 -0.75770845886E+03  0.14095504367E+04  0.11885749135E+04 0.  0.
        4    1    3    3  502    0 -0.42463775501E+03 -0.55081199681E+02 -0.86756805519E+03  0.96748493777E+03  0.12699999809E+01 0.  1.
       -4    1    3    3    0  502  0.42463775501E+03  0.55081199681E+02  0.10985959633E+03  0.44206549892E+03  0.12699999809E+01 0. -1.
</event>
<event>
 5   0  0.2537625E-03  0.1191421E+04  0.7818609E-02  0.9120399E-01
       -3   -1    0    0    0  501  0.00000000000E+00  0.00000000000E+00  0.13303765223E+04  0.13303765261E+04  0.10100000352E+00 0.  1.
        3   -1    0    0  501    0  0.00000000000E+00  0.00000000000E+00 -0.26674491156E+03  0.26674493068E+03  0.10100000352E+00 0. -1.
    10030    2    1    2    0    0  0.00000000000E+00  0.00000000000E+00  0.10636316107E+04  0.15971214568E+04  0.11914213127E+04 0.  0.
        4    1    3    3  502    0 -0.41461608607E+03 -0.32548146506E+03  0.90385451018E+03  0.10463265606E+04  0.12699999809E+01 0. -1.
       -4    1    3    3    0  502  0.41461608607E+03  0.32548146506E+03  0.15977710052E+03  0.55079489619E+03  0.12699999809E+01 0.  1.
</event>
<event>
 5   0  0.6640844E-03  0.1192728E+04  0.7818609E-02  0.9119245E-01
       -2   -1    0    0    0  501  0.00000000000E+00  0.00000000000E+00  0.21431491383E+03  0.21431491384E+03  0.25500000920E-02 0.  1.
        2   -1    0    0  501    0  0.00000000000E+00  0.00000000000E+00 -0.16594747060E+04  0.16594747060E+04  0.25500000920E-02 0. -1.
    10030    2    1    2    0    0  0.00000000000E+00  0.00000000000E+00 -0.14451597921E+04  0.18737896198E+04  0.11927282652E+04 0.  0.
        5    1    3    3  502    0  0.35272321962E+03  0.48081450071E+03 -0.71371587268E+03  0.93005843401E+03  0.46999998093E+01 0. -1.
       -5    1    3    3    0  502 -0.35272321962E+03 -0.48081450071E+03 -0.73144391945E+03  0.94373118580E+03  0.46999998093E+01 0.  1.
</event>
<event>
 5   0  0.3701879E-03  0.1171733E+04  0.7818609E-02  0.9137965E-01
        1   -1    0    0  501    0  0.00000000000E+00  0.00000000000E+00  0.30905392017E+03  0.30905392021E+03  0.50400001928E-02 0.  1.
       -1   -1    0    0    0  501  0.00000000000E+00  0.00000000000E+00 -0.11106140116E+04  0.11106140116E+04  0.50400001928E-02 0. -1.
    10030    2    1    2    0    0  0.00000000000E+00  0.00000000000E+00 -0.80156009140E+03  0.14196679318E+04  0.11717330995E+04 0.  0.
        1    1    3    3  502    0 -0.43622794139E+03  0.61375790762E+02 -0.86874161330E+03  0.97405020161E+03  0.50400001928E-02 0. -1.
       -1    1    3    3    0  502  0.43622794139E+03 -0.61375790762E+02  0.67181521908E+02  0.44561773019E+03  0.50400001928E-02 0.  1.
</event>
<event>
 5   0  0.3701879E-03  0.1197834E+04  0.7818609E-02  0.9114754E-01
        1   -1    0    0  501    0  0.00000000000E+00  0.00000000000E+00  0.74580316256E+03  0.74580316258E+03  0.50400001928E-02 0.  1.
       -1   -1    0    0    0  501  0.00000000000E+00  0.00000000000E+00 -0.48096036185E+03  0.48096036187E+03  0.50400001928E-02 0. -1.
    10030    2    1    2    0    0  0.00000000000E+00  0.00000000000E+00  0.26484280071E+03  0.12267635245E+04  0.11978343107E+04 0.  0.
        1    1    3    3  502    0 -0.10378848951E+03  0.13293930546E+01 -0.47167849330E+03  0.48296420044E+03  0.50400001928E-02 0. -1.
       -1    1    3    3    0  502  0.10378848951E+03 -0.13293930546E+01  0.73652129401E+03  0.74379932401E+03  0.50400001928E-02 0.  1.
</event>
<event>
 5   0  0.3772254E-03  0.1177738E+04  0.7818609E-02  0.9132569E-01
       -1   -1    0    0    0  501  0.00000000000E+00  0.00000000000E+00  0.54717045015E+03  0.54717045017E+03  0.50400001928E-02 0. -1.
        1   -1    0    0  501    0  0.00000000000E+00  0.00000000000E+00 -0.63374513214E+03  0.63374513216E+03  0.50400001928E-02 0.  1.
    10030    2    1    2    0    0  0.00000000000E+00  0.00000000000E+00 -0.86574681995E+02  0.11809155823E+04  0.11777378473E+04 0.  0.
        3    1    3    3  502    0  0.48084497242E+01 -0.13820549440E+03 -0.61723261269E+03  0.63253457474E+03  0.10100000352E+00 0.  1.
       -3    1    3    3    0  502 -0.48084497242E+01  0.13820549440E+03  0.53065793070E+03  0.54838100759E+03  0.10100000352E+00 0. -1.
</event>
<event>
 5   0  0.6658994E-03  0.1188849E+04  0.7818609E-02  0.9122673E-01
       -2   -1    0    0    0  501  0.00000000000E+00  0.00000000000E+00  0.20675809206E+03  0.20675809208E+03  0.25500000920E-02 0. -1.
        2   -1    0    0  501    0  0.00000000000E+00  0.00000000000E+00 -0.17089555617E+04  0.17089555617E+04  0.25500000920E-02 0.  1.
    10030    2    1    2    0    0  0.00000000000E+00  0.00000000000E+00 -0.15021974697E+04  0.19157136538E+04  0.11888488405E+04 0.  0.
        4    1    3    3  502    0  0.20664783661E+03 -0.20599198073E+02  0.14639750784E+03  0.25408954827E+03  0.12699999809E+01 0. -1.
       -4    1    3    3    0  502 -0.20664783661E+03  0.20599198073E+02 -0.16485949775E+04  0.16616241056E+04  0.12699999809E+01 0.  1.
</event>
<event>
 5   0  0.6349142E-03  0.1160887E+04  0.7818609E-02  0.9147798E-01
        2   -1    0    0  501    0  0.00000000000E+00  0.00000000000E+00  0.68575738903E+03  0.68575738903E+03  0.25500000920E-02 0. -1.
       -2   -1    0    0    0  501  0.00000000000E+00  0.00000000000E+00 -0.49130319899E+03  0.49130319900E+03  0.25500000920E-02 0.  1.
    10030    2    1    2    0    0  0.00000000000E+00  0.00000000000E+00  0.19445419004E+03  0.11770605880E+04  0.11608872451E+04 0.  0.
        1    1    3    3  502    0  0.10493729954E+03  0.97627241841E+02 -0.47307861383E+03  0.49431395901E+03  0.50400001928E-02 0.  1.
       -1    1    3    3    0  502 -0.10493729954E+03 -0.97627241841E+02  0.66753280386E+03  0.68274662902E+03  0.50400001928E-02 0. -1.
</event>
<event>
 5   0  0.6640844E-03  0.9259634E+03  0.7818609E-02  0.9393695E-01
        2   -1    0    0  501    0  0.00000000000E+00  0.00000000000E+00  0.70831332956E+03  0.70831332957E+03  0.25500000920E-02 0.  1.
       -2   -1    0    0    0  501  0.00000000000E+00  0.00000000000E+00 -0.30262323667E+03  0.30262323668E+03  0.25500000920E-02 0. -1.
    10030    2    1    2    0    0  0.00000000000E+00  0.00000000000E+00  0.40569009290E+03  0.10109365662E+04  0.92596343853E+03 0.  0.
        5    1    3    3  502    0  0.51186860745E+02 -0.45523395957E+03  0.12983585291E+03  0.47616960356E+03  0.46999998093E+01 0.  1.
       -5    1    3    3    0  502 -0.51186860745E+02  0.45523395957E+03  0.27585423999E+03  0.53476696268E+03  0.46999998093E+01 0. -1.
</event>
<event>
 5   0  0.3648616E-03  0.1203123E+04  0.7818609E-02  0.9110127E-01
       -1   -1    0    0    0  501  0.00000000000E+00  0.00000000000E+00  0.50512257595E+03  0.50512257597E+03  0.50400001928E-02 0.  1.
        1   -1    0    0  501    0  0.00000000000E+00  0.00000000000E+00 -0.71641326798E+03  0.71641326800E+03  0.50400001928E-02 0. -1.
    10030    2    1    2    0    0  0.00000000000E+00  0.00000000000E+00 -0.21129069203E+03  0.12215358440E+04  0.12031234607E+04 0.  0.
        2    1    3    3  502    0  0.52454118791E+03 -0.38466316982E+02 -0.40209563210E+03  0.66204532527E+03  0.25500000920E-02 0. -1.
       -2    1    3    3    0  502 -0.52454118791E+03  0.38466316982E+02  0.19080494007E+03  0.55949051870E+03  0.25500000920E-02 0.  1.
</event>
<event>
 5   0  0.3731281E-03  0.1207944E+04  0.7818609E-02  0.9105931E-01
       -1   -1    0    0    0  501  0.00000000000E+00  0.00000000000E+00  0.10716214159E+04  0.10716214159E+04  0.50400001928E-02 0. -1.
        1   -1    0    0  501    0  0.00000000000E+00  0.00000000000E+00 -0.34040214907E+03  0.34040214911E+03  0.50400001928E-02 0.  1.
    10030    2    1    2    0    0  0.00000000000E+00  0.00000000000E+00  0.73121926681E+03  0.14120235650E+04  0.12079440931E+04 0.  0.
        5    1    3    3  502    0  0.11980307719E+03  0.59168791017E+03  0.34493601781E+03  0.69530590874E+03  0.46999998093E+01 0. -1.
       -5    1    3    3    0  502 -0.11980307719E+03 -0.59168791017E+03  0.38628324900E+03  0.71671765626E+03  0.46999998093E+01 0.  1.
</event>
<event>
 5   0  0.6658994E-03  0.1182093E+04  0.7818609E-02  0.9128676E-01
        2   -1    0    0  501    0  0.00000000000E+00  0.00000000000E+00  0.13848891773E+04  0.13848891773E+04  0.25500000920E-02 0.  1.
       -2   -1    0    0    0  501  0.00000000000E+00  0.00000000000E+00 -0.25224853027E+03  0.25224853029E+03  0.25500000920E-02 0. -1.
    10030    2    1    2    0    0  0.00000000000E+00  0.00000000000E+00  0.11326406470E+04  0.16371377076E+04  0.11820934981E+04 0.  0.
        4    1    3    3  502    0 -0.38657558107E+03 -0.21475960703E+03  0.23229572117E+02  0.44283585516E+03  0.12699999809E+01 0. -1.
       -4    1    3    3    0  502  0.38657558107E+03  0.21475960703E+03  0.11094110749E+04  0.11943018524E+04  0.12699999809E+01 0.  1.
</event>
<event>
 5   0  0.3772254E-03  0.1165293E+04  0.7818609E-02  0.9143790E-01
       -1   -1    0    0    0  501  0.00000000000E+00  0.00000000000E+00  0.15592778225E+04  0.15592778225E+04  0.50400001928E-02 0. -1.
        1   -1    0    0  501    0  0.00000000000E+00  0.00000000000E+00 -0.21771431784E+03  0.21771431790E+03  0.50400001928E-02 0.  1.
    10030    2    1    2    0    0  0.00000000000E+00  0.00000000000E+00  0.13415635047E+04  0.17769921404E+04  0.11652932807E+04 0.  0.
        3    1    3    3  502    0  0.32776340319E+03  0.43753732980E+03  0.36348130143E+03  0.65649556749E+03  0.10100000352E+00 0.  1.
       -3    1    3    3    0  502 -0.32776340319E+03 -0.43753732980E+03  0.97808220323E+03  0.11204965729E+04  0.10100000352E+00 0. -1.
</event>
<event>
 5   0  0.6658994E-03  0.6045688E+03  0.7818609E-02  0.9895972E-01
        2   -1    0    0  501    0  0.00000000000E+00  0.00000000000E+00  0.61695485183E+03  0.61695485184E+03  0.25500000920E-02 0.  1.
       -2   -1    0    0    0  501  0.00000000000E+00  0.00000000000E+00 -0.14810785595E+03  0.14810785598E+03  0.25500000920E-02 0. -1.
    10030    2    1    2    0    0  0.00000000000E+00  0.00000000000E+00  0.46884699588E+03  0.76506270781E+03  0.60456880613E+03 0.  0.
        4    1    3    3  502    0 -0.25723095904E+03 -0.15604403254E+03  0.27146393380E+03  0.40523053516E+03  0.12699999809E+01 0.  1.
       -4    1    3    3    0  502  0.25723095904E+03  0.15604403254E+03  0.19738306208E+03  0.35983217265E+03  0.12699999809E+01 0. -1.
</event>
<event>
 5   0  0.3701879E-03  0.1160270E+04  0.7818609E-02  0.9148361E-01
       -1   -1    0    0    0  501  0.00000000000E+00  0.00000000000E+00  0.19811967646E+03  0.19811967653E+03  0.50400001928E-02 0. -1.
        1   -1    0    0  501    0  0.00000000000E+00  0.00000000000E+00 -0.16987539606E+04  0.16987539606E+04  0.50400001928E-02 0.  1.
    10030    2    1    2    0    0  0.00000000000E+00  0.00000000000E+00 -0.15006342841E+04  0.18968736371E+04  0.11602699430E+04 0.  0.
        1    1    3    3  502    0 -0.10296777181E+03  0.21781142318E+01  0.18305429035E+03  0.21003804287E+03  0.50400001928E-02 0. -1.
       -1    1    3    3    0  502  0.10296777181E+03 -0.21781142318E+01 -0.16836885745E+04  0.16868355943E+04  0.50400001928E-02 0.  1.
</event>
<event>
 5   0  0.3701879E-03  0.1110202E+04  0.7818609E-02  0.9195305E-01
        1   -1    0    0  501    0  0.00000000000E+00  0.00000000000E+00  0.92115511812E+03  0.92115511814E+03  0.50400001928E-02 0.  1.
       -1   -1    0    0    0  501  0.00000000000E+00  0.00000000000E+00 -0.33451191706E+03  0.33451191710E+03  0.50400001928E-02 0. -1.
    10030    2    1    2    0    0  0.00000000000E+00  0.00000000000E+00  0.58664320106E+03  0.12556670352E+04  0.11102024401E+04 0.  0.
        1    1    3    3  502    0 -0.39385858427E+02 -0.25086219528E+03 -0.26496773958E+03  0.36700271104E+03  0.50400001928E-02 0. -1.
       -1    1    3    3    0  502  0.39385858427E+02  0.25086219528E+03  0.85161094064E+03  0.88866432420E+03  0.50400001928E-02 0.  1.
</event>
<event>
 5   0  0.6658994E-03  0.1193268E+04  0.7818609E-02  0.9118770E-01
        2   -1    0    0  501    0  0.00000000000E+00  0.00000000000E+00  0.10122768027E+04  0.10122768027E+04  0.25500000920E-02 0. -1.
       -2   -1    0    0    0  501  0.00000000000E+00  0.00000000000E+00 -0.35165472287E+03  0.35165472287E+03  0.25500000920E-02 0.  1.
    10030    2    1    2    0    0  0.00000000000E+00  0.00000000000E+00  0.66062207983E+03  0.13639315256E+04  0.11932676456E+04 0.  0.
        4    1    3    3  502    0 -0.22287273733E+03  0.10041894577E+03  0.95240724819E+03  0.98327890297E+03  0.12699999809E+01 0. -1.
       -4    1    3    3    0  502  0.22287273733E+03 -0.10041894577E+03 -0.29178516836E+03  0.38065262260E+03  0.12699999809E+01 0.  1.
</event>
<event>
 5   0  0.6349142E-03  0.8667692E+03  0.7818609E-02  0.9468102E-01
       -2   -1    0    0    0  501  0.00000000000E+00  0.00000000000E+00  0.49183728070E+03  0.49183728070E+03  0.25500000920E-02 0. -1.
        2   -1    0    0  501    0  0.00000000000E+00  0.00000000000E+00 -0.38187878215E+03  0.38187878216E+03  0.25500000920E-02 0.  1.
    10030    2    1    2    0    0  0.00000000000E+00  0.00000000000E+00  0.10995849855E+03  0.87371606286E+03  0.86676922367E+03 0.  0.
        1    1    3    3  502    0 -0.10467306560E+02  0.22025962392E+03  0.43106241126E+03  0.48418867073E+03  0.50400001928E-02 0. -1.
       -1    1    3    3    0  502  0.10467306560E+02 -0.22025962392E+03 -0.32110391271E+03  0.38952739213E+03  0.50400001928E-02 0.  1.
</event>
<event>
 5   0  0.6585930E-03  0.1014326E+04  0.7818609E-02  0.9292970E-01
       -2   -1    0    0    0  501  0.00000000000E+00  0.00000000000E+00  0.64135204472E+03  0.64135204473E+03  0.25500000920E-02 0.  1.
        2   -1    0    0  501    0  0.00000000000E+00  0.00000000000E+00 -0.40105044772E+03  0.40105044773E+03  0.25500000920E-02 0. -1.
    10030    2    1    2    0    0  0.00000000000E+00  0.00000000000E+00  0.24030159700E+03  0.10424024925E+04  0.10143264261E+04 0.  0.
        2    1    3    3  502    0 -0.23079885715E+03  0.10680649966E+03  0.57108877640E+03  0.62515448600E+03  0.25500000920E-02 0.  1.
       -2    1    3    3    0  502  0.23079885715E+03 -0.10680649966E+03 -0.33078717940E+03  0.41724800646E+03  0.25500000920E-02 0. -1.
</event>
<event>
 5   0  0.6658994E-03  0.1188343E+04  0.7818609E-02  0.9123122E-01
        2   -1    0    0  501    0  0.00000000000E+00  0.00000000000E+00  0.97027270610E+03  0.97027270610E+03  0.25500000920E-02 0. -1.
       -2   -1    0    0    0  501  0.00000000000E+00  0.00000000000E+00 -0.36385616309E+03  0.36385616310E+03  0.25500000920E-02 0.  1.
    10030    2    1    2    0    0  0.00000000000E+00  0.00000000000E+00  0.60641654301E+03  0.13341288692E+04  0.11883428866E+04 0.  0.
        4    1    3    3  502    0  0.46236735763E+03  0.20142558579E+03 -0.49467426914E+02  0.50675879789E+03  0.12699999809E+01 0.  1.
       -4    1    3    3    0  502 -0.46236735763E+03 -0.20142558579E+03  0.65588396992E+03  0.82737007132E+03  0.12699999809E+01 0. -1.
</event>
<event>
 5   0  0.3701879E-03  0.1142460E+04  0.7818609E-02  0.9164767E-01
        1   -1    0    0  501    0  0.00000000000E+00  0.00000000000E+00  0.98682155880E+03  0.98682155882E+03  0.50400001928E-02 0.  1.
       -1   -1    0    0    0  501  0.00000000000E+00  0.00000000000E+00 -0.33066155628E+03  0.33066155632E+03  0.50400001928E-02 0. -1.
    10030    2    1    2    0    0  0.00000000000E+00  0.00000000000E+00  0.65616000253E+03  0.13174831151E+04  0.11424604193E+04 0.  0.
        1    1    3    3  502    0 -0.15146145346E+03  0.51742438436E+03  0.11038691576E+03  0.55032157564E+03  0.50400001928E-02 0. -1.
       -1    1    3    3    0  502  0.15146145346E+03 -0.51742438436E+03  0.54577308676E+03  0.76716153949E+03  0.50400001928E-02 0.  1.
</event>
<event>
 5   0  0.3772254E-03  0.1221365E+04  0.7818609E-02  0.9094358E-01
        1   -1    0    0  501    0  0.00000000000E+00  0.00000000000E+00  0.41076199109E+03  0.41076199112E+03  0.50400001928E-02 0. -1.
       -1   -1    0    0    0  501  0.00000000000E+00  0.00000000000E+00 -0.90790620439E+03  0.90790620440E+03  0.50400001928E-02 0.  1.
    10030    2    1    2    0    0  0.00000000000E+00  0.00000000000E+00 -0.49714421330E+03  0.13186681955E+04  0.12213654003E+04 0.  0.
        3    1    3    3  502    0  0.14598276104E+03 -0.49337419638E+03 -0.60372237772E+03  0.79322744767E+03  0.10100000352E+00 0.  1.
       -3    1    3    3    0  502 -0.14598276104E+03  0.49337419638E+03  0.10657816442E+03  0.52544074785E+03  0.10100000352E+00 0. -1.
</event>
<event>
 5   0  0.6585930E-03  0.1202901E+04  0.7818609E-02  0.9110321E-01
       -2   -1    0    0    0  501  0.00000000000E+00  0.00000000000E+00  0.33421824830E+03  0.33421824831E+03  0.25500000920E-02 0.  1.
        2   -1    0    0  501    0  0.00000000000E+00  0.00000000000E+00 -0.10823548872E+04  0.10823548872E+04  0.25500000920E-02 0. -1.
    10030    2    1    2    0    0  0.00000000000E+00  0.00000000000E+00 -0.74813663890E+03  0.14165731355E+04  0.12029010840E+04 0.  0.
        2    1    3    3  502    0 -0.34132965537E+03 -0.46460451422E+03 -0.57591937989E+03  0.81489043461E+03  0.25500000920E-02 0. -1.
       -2    1    3    3    0  502  0.34132965537E+03  0.46460451422E+03 -0.17221725901E+03  0.60168270092E+03  0.25500000920E-02 0.  1.
</event>
<event>
 5   0  0.2537625E-03  0.1212758E+04  0.7818609E-02  0.9101762E-01
        3   -1    0    0  501    0  0.00000000000E+00  0.00000000000E+00  0.25526263858E+03  0.25526265856E+03  0.10100000352E+00 0.  1.
       -3   -1    0    0    0  501  0.00000000000E+00  0.00000000000E+00 -0.14404600994E+04  0.14404601029E+04  0.10100000352E+00 0. -1.
    10030    2    1    2    0    0  0.00000000000E+00  0.00000000000E+00 -0.11851974608E+04  0.16957227615E+04  0.12127582870E+04 0.  0.
        5    1    3    3  502    0  0.45061310052E+02 -0.37422019145E+03 -0.12567276047E+04  0.13120433056E+04  0.46999998093E+01 0. -1.
       -5    1    3    3    0  502 -0.45061310052E+02  0.37422019145E+03  0.71530143934E+02  0.38367945585E+03  0.46999998093E+01 0.  1.
</event>
<event>
 5   0  0.3648616E-03  0.1230517E+04  0.7818609E-02  0.9086556E-01
        1   -1    0    0  501    0  0.00000000000E+00  0.00000000000E+00  0.19864886186E+04  0.19864886186E+04  0.50400001928E-02 0. -1.
       -1   -1    0    0    0  501  0.00000000000E+00  0.00000000000E+00 -0.19055891118E+03  0.19055891125E+03  0.50400001928E-02 0.  1.
    10030    2    1    2    0    0  0.00000000000E+00  0.00000000000E+00  0.17959297074E+04  0.21770475298E+04  0.12305171406E+04 0.  0.
        2    1    3    3  502    0  0.24062390273E+03  0.15441543846E+03  0.18618195022E+04  0.18836443000E+04  0.25500000920E-02 0. -1.
       -2    1    3    3    0  502 -0.24062390273E+03 -0.15441543846E+03 -0.65889794800E+02  0.29340322982E+03  0.25500000920E-02 0.  1.
</event>
<event>
 5   0  0.3648616E-03  0.1181865E+04  0.7818609E-02  0.9128880E-01
        1   -1    0    0  501    0  0.00000000000E+00  0.00000000000E+00  0.49071250451E+03  0.49071250454E+03  0.50400001928E-02 0.  1.
       -1   -1    0    0    0  501  0.00000000000E+00  0.00000000000E+00 -0.71162061189E+03  0.71162061191E+03  0.50400001928E-02 0. -1.
    10030    2    1    2    0    0  0.00000000000E+00  0.00000000000E+00 -0.22090810738E+03  0.12023331164E+04  0.11818648531E+04 0.  0.
        2    1    3    3  502    0  0.30331216805E+03 -0.28430394845E+03  0.31678842840E+03  0.52266807322E+03  0.25500000920E-02 0.  1.
       -2    1    3    3    0  502 -0.30331216805E+03  0.28430394845E+03 -0.53769653578E+03  0.67966504322E+03  0.25500000920E-02 0. -1.
</event>
<event>
 5   0  0.3944074E-03  0.1150830E+04  0.7818609E-02  0.9157018E-01
        1   -1    0    0  501    0  0.00000000000E+00  0.00000000000E+00  0.48384956235E+03  0.48384956237E+03  0.50400001928E-02 0. -1.
       -1   -1    0    0    0  501  0.00000000000E+00  0.00000000000E+00 -0.68430883575E+03  0.68430883577E+03  0.50400001928E-02 0.  1.
    10030    2    1    2    0    0  0.00000000000E+00  0.00000000000E+00 -0.20045927340E+03  0.11681583981E+04  0.11508301885E+04 0.  0.
        4    1    3    3  502    0 -0.15988871059E+03  0.36255536170E+03  0.32329391087E+03  0.51140136467E+03  0.12699999809E+01 0. -1.
       -4    1    3    3    0  502  0.15988871059E+03 -0.36255536170E+03 -0.52375318428E+03  0.65675703347E+03  0.12699999809E+01 0.  1.
</event>
<event>
 5   0  0.6585930E-03  0.1189528E+04  0.7818609E-02  0.9122073E-01
        2   -1    0    0  501    0  0.00000000000E+00  0.00000000000E+00  0.17829838717E+04  0.17829838717E+04  0.25500000920E-02 0. -1.
       -2   -1    0    0    0  501  0.00000000000E+00  0.00000000000E+00 -0.19840003179E+03  0.19840003181E+03  0.25500000920E-02 0.  1.
    10030    2    1    2    0    0  0.00000000000E+00  0.00000000000E+00  0.15845838399E+04  0.19813839035E+04  0.11895277329E+04 0.  0.
        2    1    3    3  502    0  0.45999029551E+02 -0.44229227760E+03  0.14501985672E+04  0.15168435166E+04  0.25500000920E-02 0. -1.
       -2    1    3    3    0  502 -0.45999029551E+02  0.44229227760E+03  0.13438527273E+03  0.46454038692E+03  0.25500000920E-02 0.  1.
</event>
<event>
 5   0  0.3701879E-03  0.1216868E+04  0.7818609E-02  0.9098219E-01
        1   -1    0    0  501    0  0.00000000000E+00  0.00000000000E+00  0.73475808712E+03  0.73475808714E+03  0.50400001928E-02 0. -1.
       -1   -1    0    0    0  501  0.00000000000E+00  0.00000000000E+00 -0.50382841467E+03  0.50382841470E+03  0.50400001928E-02 0.  1.
    10030    2    1    2    0    0  0.00000000000E+00  0.00000000000E+00  0.23092967245E+03  0.12385865018E+04  0.12168681148E+04 0.  0.
        1    1    3    3  502    0  0.54990879010E+02 -0.53499059746E+03  0.40506545282E+03  0.67328816805E+03  0.50400001928E-02 0.  1.
       -1    1    3    3    0  502 -0.54990879010E+02  0.53499059746E+03 -0.17413578037E+03  0.56529833378E+03  0.50400001928E-02 0. -1.
</event>
<event>
 5   0  0.6585930E-03  0.1220962E+04  0.7818609E-02  0.9094704E-01
       -2   -1    0    0    0  501  0.00000000000E+00  0.00000000000E+00  0.62265515107E+03  0.62265515107E+03  0.25500000920E-02 0. -1.
        2   -1    0    0  501    0  0.00000000000E+00  0.00000000000E+00 -0.59854510580E+03  0.59854510580E+03  0.25500000920E-02 0.  1.
    10030    2    1    2    0    0  0.00000000000E+00  0.00000000000E+00  0.24110045271E+02  0.12212002569E+04  0.12209622325E+04 0.  0.
        2    1    3    3  502    0  0.19637591172E+02 -0.53226645300E+03 -0.28632172431E+03  0.60470930354E+03  0.25500000920E-02 0.  1.
       -2    1    3    3    0  502 -0.19637591172E+02  0.53226645300E+03  0.31043176958E+03  0.61649095333E+03  0.25500000920E-02 0. -1.
</event>
<event>
 5   0  0.6585930E-03  0.1187582E+04  0.7818609E-02  0.9123796E-01
       -2   -1    0    0    0  501  0.00000000000E+00  0.00000000000E+00  0.13143310455E+03  0.13143310458E+03  0.25500000920E-02 0.  1.
        2   -1    0    0  501    0  0.00000000000E+00  0.00000000000E+00 -0.26826395073E+04  0.26826395073E+04  0.25500000920E-02 0. -1.
    10030    2    1    2    0    0  0.00000000000E+00  0.00000000000E+00 -0.25512064028E+04  0.28140726119E+04  0.11875818100E+04 0.  0.
        2    1    3    3  502    0  0.21866264542E+03 -0.32036391589E+03 -0.23409701848E+04  0.23728859638E+04  0.25500000920E-02 0. -1.
       -2    1    3    3    0  502 -0.21866264542E+03  0.32036391589E+03 -0.21023621796E+03  0.44118664809E+03  0.25500000920E-02 0.  1.
</event>
<event>
 5   0  0.6585930E-03  0.1196185E+04  0.7818609E-02  0.9116202E-01
       -2   -1    0    0    0  501  0.00000000000E+00  0.00000000000E+00  0.30003036922E+03  0.30003036923E+03  0.25500000920E-02 0. -1.
        2   -1    0    0  501    0  0.00000000000E+00  0.00000000000E+00 -0.11922613456E+04  0.11922613456E+04  0.25500000920E-02 0.  1.
    10030    2    1    2    0    0  0.00000000000E+00  0.00000000000E+00 -0.89223097636E+03  0.14922917148E+04  0.11961849552E+04 0.  0.
        2    1    3    3  502    0 -0.52892922287E+03 -0.12027904075E+03 -0.13179059172E+03  0.55821315868E+03  0.25500000920E-02 0. -1.
       -2    1    3    3    0  502  0.52892922287E+03  0.12027904075E+03 -0.76044038464E+03  0.93407855614E+03  0.25500000920E-02 0.  1.
</event>
<event>
 5   0  0.6349142E-03  0.1225735E+04  0.7818609E-02  0.9090624E-01
       -2   -1    0    0    0  501  0.00000000000E+00  0.00000000000E+00  0.75928623022E+03  0.75928623023E+03  0.25500000920E-02 0. -1.
        2   -1    0    0  501    0  0.00000000000E+00  0.00000000000E+00 -0.49468370561E+03  0.49468370562E+03  0.25500000920E-02 0.  1.
    10030    2    1    2    0    0  0.00000000000E+00  0.00000000000E+00  0.26460252461E+03  0.12539699358E+04  0.12257349240E+04 0.  0.
        1    1    3    3  502    0  0.28835040719E+03 -0.10292375433E+03 -0.41084011364E+03  0.51237569764E+03  0.50400001928E-02 0.  1.
       -1    1    3    3    0  502 -0.28835040719E+03  0.10292375433E+03  0.67544263825E+03  0.74159423820E+03  0.50400001928E-02 0. -1.
</event>
<event>
 5   0  0.3648616E-03  0.1203311E+04  0.7818609E-02  0.9109963E-01
        1   -1    0    0  501    0  0.00000000000E+00  0.00000000000E+00  0.16903597691E+04  0.16903597691E+04  0.50400001928E-02 0.  1.
       -1   -1    0    0    0  501  0.00000000000E+00  0.00000000000E+00 -0.21414936131E+03  0.21414936137E+03  0.50400001928E-02 0. -1.
    10030    2    1    2    0    0  0.00000000000E+00  0.00000000000E+00  0.14762104078E+04  0.19045091305E+04  0.12033112066E+04 0.  0.
        2    1    3    3  502    0 -0.53584821548E+03 -0.17002576754E+03  0.39884295480E+03  0.68928787474E+03  0.25500000920E-02 0. -1.
       -2    1    3    3    0  502  0.53584821548E+03  0.17002576754E+03  0.10773674530E+04  0.12152212557E+04  0.25500000920E-02 0.  1.
</event>
<event>
 5   0  0.6658994E-03  0.1261958E+04  0.7818609E-02  0.9060289E-01
        2   -1    0    0  501    0  0.00000000000E+00  0.00000000000E+00  0.14135587726E+04  0.14135587726E+04  0.25500000920E-02 0. -1.
       -2   -1    0    0    0  501  0.00000000000E+00  0.00000000000E+00 -0.28165408906E+03  0.28165408907E+03  0.25500000920E-02 0.  1.
    10030    2    1    2    0    0  0.00000000000E+00  0.00000000000E+00  0.11319046836E+04  0.16952128617E+04  0.12619581743E+04 0.  0.
        4    1    3    3  502    0  0.53025767888E+03  0.33644664710E+03  0.64836083246E+03  0.90263111753E+03  0.12699999809E+01 0.  1.
       -4    1    3    3    0  502 -0.53025767888E+03 -0.33644664710E+03  0.48354385110E+03  0.79258174417E+03  0.12699999809E+01 0. -1.
</event>
<event>
 5   0  0.6640844E-03  0.1170462E+04  0.7818609E-02  0.9139111E-01
       -2   -1    0    0    0  501  0.00000000000E+00  0.00000000000E+00  0.35807286859E+03  0.35807286860E+03  0.25500000920E-02 0.  1.
        2   -1    0    0  501    0  0.00000000000E+00  0.00000000000E+00 -0.95649638559E+03  0.95649638559E+03  0.25500000920E-02 0. -1.
    10030    2    1    2    0    0  0.00000000000E+00  0.00000000000E+00 -0.59842351700E+03  0.13145692542E+04  0.11704621388E+04 0.  0.
        5    1    3    3  502    0  0.29998297131E+02  0.45710643666E+03 -0.70822962010E+03  0.84347938745E+03  0.46999998093E+01 0. -1.
       -5    1    3    3    0  502 -0.29998297131E+02 -0.45710643666E+03  0.10980610311E+03  0.47108986674E+03  0.46999998093E+01 0.  1.
</event>
<event>
 5   0  0.3772254E-03  0.1193199E+04  0.7818609E-02  0.9118831E-01
        1   -1    0    0  501    0  0.00000000000E+00  0.00000000000E+00  0.26500821598E+03  0.26500821602E+03  0.50400001928E-02 0.  1.
       -1   -1    0    0    0  501  0.00000000000E+00  0.00000000000E+00 -0.13430931514E+04  0.13430931514E+04  0.50400001928E-02 0. -1.
    10030    2    1    2    0    0  0.00000000000E+00  0.00000000000E+00 -0.10780849354E+04  0.16081013675E+04  0.11931985920E+04 0.  0.
        3    1    3    3  502    0 -0.51617335130E+03  0.36530052579E+02 -0.13887684971E+03  0.53577622467E+03  0.10100000352E+00 0.  1.
       -3    1    3    3    0  502  0.51617335130E+03 -0.36530052579E+02 -0.93920808574E+03  0.10723251428E+04  0.10100000352E+00 0. -1.
</event>
<event>
 5   0  0.6640844E-03  0.1202125E+04  0.7818609E-02  0.9110999E-01
       -2   -1    0    0    0  501  0.00000000000E+00  0.00000000000E+00  0.85924930795E+03  0.85924930795E+03  0.25500000920E-02 0. -1.
        2   -1    0    0  501    0  0.00000000000E+00  0.00000000000E+00 -0.42045538572E+03  0.42045538573E+03  0.25500000920E-02 0.  1.
    10030    2    1    2    0    0  0.00000000000E+00  0.00000000000E+00  0.43879392222E+03  0.12797046937E+04  0.12021247842E+04 0.  0.
        5    1    3    3  502    0 -0.19311519571E+03 -0.46074469516E+03  0.57514107123E+03  0.76183232719E+03  0.46999998093E+01 0. -1.
       -5    1    3    3    0  502  0.19311519571E+03  0.46074469516E+03 -0.13634714901E+03  0.51787236649E+03  0.46999998093E+01 0.  1.
</event>
<event>
 5   0  0.3731281E-03  0.1220552E+04  0.7818609E-02  0.9095055E-01
       -1   -1    0    0    0  501  0.00000000000E+00  0.00000000000E+00  0.29663309215E+03  0.29663309219E+03  0.50400001928E-02 0.  1.
        1   -1    0    0  501    0  0.00000000000E+00  0.00000000000E+00 -0.12555469136E+04  0.12555469136E+04  0.50400001928E-02 0. -1.
    10030    2    1    2    0    0  0.00000000000E+00  0.00000000000E+00 -0.95891382145E+03  0.15521800058E+04  0.12205519462E+04 0.  0.
        5    1    3    3  502    0 -0.34718661428E+02 -0.17324716832E+03  0.26336885558E+03  0.31718324494E+03  0.46999998093E+01 0.  1.
       -5    1    3    3    0  502  0.34718661428E+02  0.17324716832E+03 -0.12222826770E+04  0.12349967609E+04  0.46999998093E+01 0. -1.
</event>
<event>
 5   0  0.6640844E-03  0.1050450E+04  0.7818609E-02  0.9254880E-01
       -2   -1    0    0    0  501  0.00000000000E+00  0.00000000000E+00  0.50338163928E+03  0.50338163928E+03  0.25500000920E-02 0. -1.
        2   -1    0    0  501    0  0.00000000000E+00  0.00000000000E+00 -0.54801578770E+03  0.54801578770E+03  0.25500000920E-02 0.  1.
    10030    2    1    2    0    0  0.00000000000E+00  0.00000000000E+00 -0.44634148421E+02  0.10513974270E+04  0.10504495905E+04 0.  0.
        5    1    3    3  502    0 -0.10371876533E+03 -0.48595009109E+03 -0.19257029984E+03  0.53292633984E+03  0.46999998093E+01 0. -1.
       -5    1    3    3    0  502  0.10371876533E+03  0.48595009109E+03  0.14793615142E+03  0.51847108715E+03  0.46999998093E+01 0.  1.
</event>
<event>
 5   0  0.6585930E-03  0.1209360E+04  0.7818609E-02  0.9104703E-01
       -2   -1    0    0    0  501  0.00000000000E+00  0.00000000000E+00  0.11920975425E+04  0.11920975426E+04  0.25500000920E-02 0. -1.
        2   -1    0    0  501    0  0.00000000000E+00  0.00000000000E+00 -0.30671788606E+03  0.30671788607E+03  0.25500000920E-02 0.  1.
    10030    2    1    2    0    0  0.00000000000E+00  0.00000000000E+00  0.88537965649E+03  0.14988154286E+04  0.12093595631E+04 0.  0.
        2    1    3    3  502    0  0.32953718130E+03 -0.37868554864E+03  0.86048035776E+03  0.99620477046E+03  0.25500000920E-02 0. -1.
       -2    1    3    3    0  502 -0.32953718130E+03  0.37868554864E+03  0.24899298736E+02  0.50261065815E+03  0.25500000920E-02 0.  1.
</event>
<event>
 5   0  0.3701879E-03  0.1223348E+04  0.7818609E-02  0.9092662E-01
       -1   -1    0    0    0  501  0.00000000000E+00  0.00000000000E+00  0.12698916930E+04  0.12698916930E+04  0.50400001928E-02 0.  1.
        1   -1    0    0  501    0  0.00000000000E+00  0.00000000000E+00 -0.29462769542E+03  0.29462769546E+03  0.50400001928E-02 0. -1.
    10030    2    1    2    0    0  0.00000000000E+00  0.00000000000E+00  0.97526399760E+03  0.15645193885E+04  0.12233482954E+04 0.  0.
        1    1    3    3  502    0  0.60618860416E+03  0.44410134685E+02  0.57538592153E+03  0.83696227071E+03  0.50400001928E-02 0. -1.
       -1    1    3    3    0  502 -0.60618860416E+03 -0.44410134685E+02  0.39987807607E+03  0.72755711778E+03  0.50400001928E-02 0.  1.
</event>
<event>
 5   0  0.3701879E-03  0.1225228E+04  0.7818609E-02  0.9091056E-01
       -1   -1    0    0    0  501  0.00000000000E+00  0.00000000000E+00  0.57014731931E+03  0.57014731933E+03  0.50400001928E-02 0.  1.
        1   -1    0    0  501    0  0.00000000000E+00  0.00000000000E+00 -0.65824412576E+03  0.65824412578E+03  0.50400001928E-02 0. -1.
    10030    2    1    2    0    0  0.00000000000E+00  0.00000000000E+00 -0.88096806450E+02  0.12283914451E+04  0.12252283441E+04 0.  0.
        1    1    3    3  502    0 -0.20196409699E+03 -0.38579774732E+03  0.38795462100E+03  0.58321367122E+03  0.50400001928E-02 0.  1.
       -1    1    3    3    0  502  0.20196409699E+03  0.38579774732E+03 -0.47605142745E+03  0.64517777389E+03  0.50400001928E-02 0. -1.
</event>
<event>
 5   0  0.6658994E-03  0.1092800E+04  0.7818609E-02  0.9212238E-01
        2   -1    0    0  501    0  0.00000000000E+00  0.00000000000E+00  0.16282435426E+04  0.16282435426E+04  0.25500000920E-02 0.  1.
       -2   -1    0    0    0  501  0.00000000000E+00  0.00000000000E+00 -0.18335891580E+03  0.18335891582E+03  0.25500000920E-02 0. -1.
    10030    2    1    2    0    0  0.00000000000E+00  0.00000000000E+00  0.14448846267E+04  0.18116024584E+04  0.10928000195E+04 0.  0.
        4    1    3    3  502    0 -0.37494073623E+03  0.17608021341E+03  0.13131421962E+04  0.13769273174E+04  0.12699999809E+01 0.  1.
       -4    1    3    3    0  502  0.37494073623E+03 -0.17608021341E+03  0.13174243058E+03  0.43467514094E+03  0.12699999809E+01 0. -1.
</event>
<event>
 5   0  0.6658994E-03  0.1242587E+04  0.7818609E-02  0.9076376E-01
        2   -1    0    0  501    0  0.00000000000E+00  0.00000000000E+00  0.56192725187E+03  0.56192725187E+03  0.25500000920E-02 0. -1.
       -2   -1    0    0    0  501  0.00000000000E+00  0.00000000000E+00 -0.68693190104E+03  0.68693190104E+03  0.25500000920E-02 0.  1.
    10030    2    1    2    0    0  0.00000000000E+00  0.00000000000E+00 -0.12500464917E+03  0.12488591529E+04  0.12425872289E+04 0.  0.
        4    1    3    3  502    0 -0.48994591964E+03 -0.14901484382E+03  0.29105691235E+03  0.58904003852E+03  0.12699999809E+01 0. -1.
       -4    1    3    3    0  502  0.48994591964E+03  0.14901484382E+03 -0.41606156152E+03  0.65981911440E+03  0.12699999809E+01 0.  1.
</event>
<event>
 5   0  0.6349142E-03  0.1073075E+04  0.7818609E-02  0.9231839E-01
       -2   -1    0    0    0  501  0.00000000000E+00  0.00000000000E+00  0.12934666472E+03  0.12934666475E+03  0.25500000920E-02 0. -1.
        2   -1    0    0  501    0  0.00000000000E+00  0.00000000000E+00 -0.22255889279E+04  0.22255889279E+04  0.25500000920E-02 0.  1.
    10030    2    1    2    0    0  0.00000000000E+00  0.00000000000E+00 -0.20962422632E+04  0.23549355927E+04  0.10730750298E+04 0.  0.
        1    1    3    3  502    0 -0.15206661939E+03  0.43130801158E+03 -0.43238302582E+03  0.62936947704E+03  0.50400001928E-02 0. -1.
       -1    1    3    3    0  502  0.15206661939E+03 -0.43130801158E+03 -0.16638592374E+04  0.17255661156E+04  0.50400001928E-02 0.  1.
</event>
<event>
 5   0  0.6640844E-03  0.1193976E+04  0.7818609E-02  0.9118146E-01
        2   -1    0    0  501    0  0.00000000000E+00  0.00000000000E+00  0.83598992183E+03  0.83598992184E+03  0.25500000920E-02 0. -1.
       -2   -1    0    0    0  501  0.00000000000E+00  0.00000000000E+00 -0.42631451220E+03  0.42631451221E+03  0.25500000920E-02 0.  1.
    10030    2    1    2    0    0  0.00000000000E+00  0.00000000000E+00  0.40967540963E+03  0.12623044340E+04  0.11939759390E+04 0.  0.
        5    1    3    3  502    0 -0.45594661325E+03 -0.28447080713E+03  0.47963880584E+03  0.72033771823E+03  0.46999998093E+01 0. -1.
       -5    1    3    3    0  502  0.45594661325E+03  0.28447080713E+03 -0.69963396207E+02  0.54196671582E+03  0.46999998093E+01 0.  1.
</event>
<event>
 5   0  0.3772254E-03  0.1267260E+04  0.7818609E-02  0.9055939E-01
        1   -1    0    0  501    0  0.00000000000E+00  0.00000000000E+00  0.39975660495E+03  0.39975660498E+03  0.50400001928E-02 0. -1.
       -1   -1    0    0    0  501  0.00000000000E+00  0.00000000000E+00 -0.10043292424E+04  0.10043292425E+04  0.50400001928E-02 0.  1.
    10030    2    1    2    0    0  0.00000000000E+00  0.00000000000E+00 -0.60457263750E+03  0.14040858474E+04  0.12672604282E+04 0.  0.
        3    1    3    3  502    0 -0.41886901179E+03  0.39834019831E+03 -0.14723789904E+02  0.57822397289E+03  0.10100000352E+00 0.  1.
       -3    1    3    3    0  502  0.41886901179E+03 -0.39834019831E+03 -0.58984884759E+03  0.82586187455E+03  0.10100000352E+00 0. -1.
</event>
<event>
 5   0  0.3701879E-03  0.1194253E+04  0.7818609E-02  0.9117902E-01
        1   -1    0    0  501    0  0.00000000000E+00  0.00000000000E+00  0.21284557216E+04  0.21284557216E+04  0.50400001928E-02 0.  1.
       -1   -1    0    0    0  501  0.00000000000E+00  0.00000000000E+00 -0.16752060171E+03  0.16752060179E+03  0.50400001928E-02 0. -1.
    10030    2    1    2    0    0  0.00000000000E+00  0.00000000000E+00  0.19609351199E+04  0.22959763234E+04  0.11942532115E+04 0.  0.
        1    1    3    3  502    0  0.43285746435E+03  0.20816256546E+02  0.17702498586E+04  0.18225211831E+04  0.50400001928E-02 0.  1.
       -1    1    3    3    0  502 -0.43285746435E+03 -0.20816256546E+02  0.19068526131E+03  0.47345514031E+03  0.50400001928E-02 0. -1.
</event>
<event>
 5   0  0.6585930E-03  0.1160930E+04  0.7818609E-02  0.9147759E-01
       -2   -1    0    0    0  501  0.00000000000E+00  0.00000000000E+00  0.36629145803E+03  0.36629145804E+03  0.25500000920E-02 0.  1.
        2   -1    0    0  501    0  0.00000000000E+00  0.00000000000E+00 -0.91986808290E+03  0.91986808291E+03  0.25500000920E-02 0. -1.
    10030    2    1    2    0    0  0.00000000000E+00  0.00000000000E+00 -0.55357662488E+03  0.12861595409E+04  0.11609303533E+04 0.  0.
        2    1    3    3  502    0 -0.20550095381E+03 -0.24647551051E+03 -0.81265721828E+03  0.87372339658E+03  0.25500000920E-02 0. -1.
       -2    1    3    3    0  502  0.20550095381E+03  0.24647551051E+03  0.25908059340E+03  0.41243614437E+03  0.25500000920E-02 0.  1.
</event>
<event>
 5   0  0.3731281E-03  0.7590796E+03  0.7818609E-02  0.9621213E-01
        1   -1    0    0  501    0  0.00000000000E+00  0.00000000000E+00  0.59086070657E+03  0.59086070659E+03  0.50400001928E-02 0.  1.
       -1   -1    0    0    0  501  0.00000000000E+00  0.00000000000E+00 -0.24379764780E+03  0.24379764785E+03  0.50400001928E-02 0. -1.
    10030    2    1    2    0    0  0.00000000000E+00  0.00000000000E+00  0.34706305877E+03  0.83465835445E+03  0.75907957546E+03 0.  0.
        5    1    3    3  502    0  0.71425261523E+01 -0.37898286577E+03  0.15298015944E+03  0.40878361930E+03  0.46999998093E+01 0. -1.
       -5    1    3    3    0  502 -0.71425261523E+01  0.37898286577E+03  0.19408289933E+03  0.42587473515E+03  0.46999998093E+01 0.  1.
</event>
<event>
 5   0  0.3701879E-03  0.1201349E+04  0.7818609E-02  0.9111677E-01
       -1   -1    0    0    0  501  0.00000000000E+00  0.00000000000E+00  0.38971580102E+03  0.38971580106E+03  0.50400001928E-02 0.  1.
        1   -1    0    0  501    0  0.00000000000E+00  0.00000000000E+00 -0.92582769588E+03  0.92582769589E+03  0.50400001928E-02 0. -1.
    10030    2    1    2    0    0  0.00000000000E+00  0.00000000000E+00 -0.53611189485E+03  0.13155434969E+04  0.12013487123E+04 0.  0.
        1    1    3    3  502    0 -0.39802205273E+03  0.56546996804E+02 -0.75678764448E+03  0.85694028740E+03  0.50400001928E-02 0. -1.
       -1    1    3    3    0  502  0.39802205273E+03 -0.56546996804E+02  0.22067574963E+03  0.45860320955E+03  0.50400001928E-02 0.  1.
</event>
<event>
 5   0  0.3648616E-03  0.1098787E+04  0.7818609E-02  0.9206375E-01
       -1   -1    0    0    0  501  0.00000000000E+00  0.00000000000E+00  0.23648530597E+03  0.23648530603E+03  0.50400001928E-02 0. -1.
        1   -1    0    0  501    0  0.00000000000E+00  0.00000000000E+00 -0.12763303187E+04  0.12763303187E+04  0.50400001928E-02 0.  1.
    10030    2    1    2    0    0  0.00000000000E+00  0.00000000000E+00 -0.10398450127E+04  0.15128156247E+04  0.10987872696E+04 0.  0.
        2    1    3    3  502    0 -0.27783316516E+03 -0.29338957637E+03 -0.10324281053E+04  0.11086823277E+04  0.25500000920E-02 0.  1.
       -2    1    3    3    0  502  0.27783316516E+03  0.29338957637E+03 -0.74169073620E+01  0.40413329695E+03  0.25500000920E-02 0. -1.
</event>
<event>
 5   0  0.6585930E-03  0.6174686E+03  0.7818609E-02  0.9869813E-01
       -2   -1    0    0    0  501  0.00000000000E+00  0.00000000000E+00  0.72281625489E+03  0.72281625489E+03  0.25500000920E-02 0. -1.
        2   -1    0    0  501    0  0.00000000000E+00  0.00000000000E+00 -0.13186872231E+03  0.13186872234E+03  0.25500000920E-02 0.  1.
    10030    2    1    2    0    0  0.00000000000E+00  0.00000000000E+00  0.59094753258E+03  0.85468497723E+03  0.61746856118E+03 0.  0.
        2    1    3    3  502    0 -0.12074810180E+03  0.19869106357E+03  0.14317004108E+02  0.23294467035E+03  0.25500000920E-02 0. -1.
       -2    1    3    3    0  502  0.12074810180E+03 -0.19869106357E+03  0.57663052847E+03  0.62174030688E+03  0.25500000920E-02 0.  1.
</event>
<event>
 5   0  0.6493047E-03  0.1189777E+04  0.7818609E-02  0.9121852E-01
        2   -1    0    0  501    0  0.00000000000E+00  0.00000000000E+00  0.50772638962E+03  0.50772638963E+03  0.25500000920E-02 0. -1.
       -2   -1    0    0    0  501  0.00000000000E+00  0.00000000000E+00 -0.69701357086E+03  0.69701357086E+03  0.25500000920E-02 0.  1.
    10030    2    1    2    0    0  0.00000000000E+00  0.00000000000E+00 -0.18928718124E+03  0.12047399605E+04  0.11897767586E+04 0.  0.
        3    1    3    3  502    0  0.10486555916E+03  0.51067875395E+03  0.19549552695E+03  0.55678369812E+03  0.10100000352E+00 0. -1.
       -3    1    3    3    0  502 -0.10486555916E+03 -0.51067875395E+03 -0.38478270818E+03  0.64795626237E+03  0.10100000352E+00 0.  1.
</event>
<event>
 5   0  0.3731281E-03  0.1204867E+04  0.7818609E-02  0.9108607E-01
       -1   -1    0    0    0  501  0.00000000000E+00  0.00000000000E+00  0.79085582211E+03  0.79085582213E+03  0.50400001928E-02 0.  1.
        1   -1    0    0  501    0  0.00000000000E+00  0.00000000000E+00 -0.45890319389E+03  0.45890319391E+03  0.50400001928E-02 0. -1.
    10030    2    1    2    0    0  0.00000000000E+00  0.00000000000E+00  0.33195262822E+03  0.12497590160E+04  0.12048672337E+04 0.  0.
        5    1    3    3  502    0  0.33274794188E+02 -0.54038461279E+03  0.43998038824E+03  0.69765863694E+03  0.46999998093E+01 0.  1.
       -5    1    3    3    0  502 -0.33274794188E+02  0.54038461279E+03 -0.10802776002E+03  0.55210037910E+03  0.46999998093E+01 0. -1.
</event>
<event>
 5   0  0.3701879E-03  0.1218413E+04  0.7818609E-02  0.9096891E-01
       -1   -1    0    0    0  501  0.00000000000E+00  0.00000000000E+00  0.21075020703E+03  0.21075020709E+03  0.50400001928E-02 0.  1.
        1   -1    0    0  501    0  0.00000000000E+00  0.00000000000E+00 -0.17610062432E+04  0.17610062433E+04  0.50400001928E-02 0. -1.
    10030    2    1    2    0    0  0.00000000000E+00  0.00000000000E+00 -0.15502560362E+04  0.19717564503E+04  0.12184127879E+04 0.  0.
        1    1    3    3  502    0 -0.15544477470E+03  0.58467388601E+03 -0.89098964582E+03  0.10769722280E+04  0.50400001928E-02 0.  1.
       -1    1    3    3    0  502  0.15544477470E+03 -0.58467388601E+03 -0.65926639039E+03  0.89478422231E+03  0.50400001928E-02 0. -1.
</event>
<event>
 5   0  0.3772254E-03  0.1273761E+04  0.7818609E-02  0.9050636E-01
       -1   -1    0    0    0  501  0.00000000000E+00  0.00000000000E+00  0.33979352309E+03  0.33979352313E+03  0.50400001928E-02 0. -1.
        1   -1    0    0  501    0  0.00000000000E+00  0.00000000000E+00 -0.11937156999E+04  0.11937156999E+04  0.50400001928E-02 0.  1.
    10030    2    1    2    0    0  0.00000000000E+00  0.00000000000E+00 -0.85392217685E+03  0.15335092231E+04  0.12737611445E+04 0.  0.
        3    1    3    3  502    0  0.95378462758E+02 -0.10086216149E+03  0.32135823111E+03  0.35005906599E+03  0.10100000352E+00 0. -1.
       -3    1    3    3    0  502 -0.95378462758E+02  0.10086216149E+03 -0.11752804080E+04  0.11834501571E+04  0.10100000352E+00 0.  1.
</event>
<event>
 5   0  0.6640844E-03  0.1320116E+04  0.7818609E-02  0.9013764E-01
       -2   -1    0    0    0  501  0.00000000000E+00  0.00000000000E+00  0.42577315723E+03  0.42577315724E+03  0.25500000920E-02 0.  1.
        2   -1    0    0  501    0  0.00000000000E+00  0.00000000000E+00 -0.10232594047E+04  0.10232594047E+04  0.25500000920E-02 0. -1.
    10030    2    1    2    0    0  0.00000000000E+00  0.00000000000E+00 -0.59748624747E+03  0.14490325619E+04  0.13201157334E+04 0.  0.
        5    1    3    3  502    0  0.41104463741E+03  0.38639161392E+03 -0.67483739354E+03  0.87959295755E+03  0.46999998093E+01 0. -1.
       -5    1    3    3    0  502 -0.41104463741E+03 -0.38639161392E+03  0.77351146075E+02  0.56943960439E+03  0.46999998093E+01 0.  1.
</event>
<event>
 5   0  0.3731281E-03  0.7996350E+03  0.7818609E-02  0.9560546E-01
       -1   -1    0    0    0  501  0.00000000000E+00  0.00000000000E+00  0.18236011426E+03  0.18236011433E+03  0.50400001928E-02 0. -1.
        1   -1    0    0  501    0  0.00000000000E+00  0.00000000000E+00 -0.87658435106E+03  0.87658435107E+03  0.50400001928E-02 0.  1.
    10030    2    1    2    0    0  0.00000000000E+00  0.00000000000E+00 -0.69422423679E+03  0.10589444654E+04  0.79963497288E+03 0.  0.
        5    1    3    3  502    0  0.23660204814E+03 -0.33262715251E+02 -0.77159652631E+03  0.80775629173E+03  0.46999998093E+01 0.  1.
       -5    1    3    3    0  502 -0.23660204814E+03  0.33262715251E+02  0.77372289520E+02  0.25118817368E+03  0.46999998093E+01 0. -1.
</event>
<event>
 5   0  0.6585930E-03  0.1174783E+04  0.7818609E-02  0.9135220E-01
        2   -1    0    0  501    0  0.00000000000E+00  0.00000000000E+00  0.33813416654E+03  0.33813416655E+03  0.25500000920E-02 0. -1.
       -2   -1    0    0    0  501  0.00000000000E+00  0.00000000000E+00 -0.10203900208E+04  0.10203900208E+04  0.25500000920E-02 0.  1.
    10030    2    1    2    0    0  0.00000000000E+00  0.00000000000E+00 -0.68225585429E+03  0.13585241874E+04  0.11747829233E+04 0.  0.
        2    1    3    3  502    0  0.56618032573E+03 -0.73511038212E+02 -0.18145742763E+03  0.59907498031E+03  0.25500000920E-02 0. -1.
       -2    1    3    3    0  502 -0.56618032573E+03  0.73511038212E+02 -0.50079842666E+03  0.75944920708E+03  0.25500000920E-02 0.  1.
</event>
<event>
 5   0  0.6585930E-03  0.1202521E+04  0.7818609E-02  0.9110653E-01
        2   -1    0    0  501    0  0.00000000000E+00  0.00000000000E+00  0.29808952474E+03  0.29808952475E+03  0.25500000920E-02 0. -1.
       -2   -1    0    0    0  501  0.00000000000E+00  0.00000000000E+00 -0.12127703634E+04  0.12127703634E+04  0.25500000920E-02 0.  1.
    10030    2    1    2    0    0  0.00000000000E+00  0.00000000000E+00 -0.91468083866E+03  0.15108598882E+04  0.12025209208E+04 0.  0.
        2    1    3    3  502    0  0.63633274576E+02  0.41448065155E+03 -0.99872175759E+03  0.10831844502E+04  0.25500000920E-02 0.  1.
       -2    1    3    3    0  502 -0.63633274576E+02 -0.41448065155E+03  0.84040918932E+02  0.42767543792E+03  0.25500000920E-02 0. -1.
</event>
<event>
 5   0  0.6640844E-03  0.1208986E+04  0.7818609E-02  0.9105027E-01
        2   -1    0    0  501    0  0.00000000000E+00  0.00000000000E+00  0.15871254443E+04  0.15871254443E+04  0.25500000920E-02 0.  1.
       -2   -1    0    0    0  501  0.00000000000E+00  0.00000000000E+00 -0.23023505157E+03  0.23023505158E+03  0.25500000920E-02 0. -1.
    10030    2    1    2    0    0  0.00000000000E+00  0.00000000000E+00  0.13568903928E+04  0.18173604959E+04  0.12089862010E+04 0.  0.
        5    1    3    3  502    0  0.36289139081E+03  0.41874843504E+03  0.10415549845E+04  0.11797878153E+04  0.46999998093E+01 0.  1.
       -5    1    3    3    0  502 -0.36289139081E+03 -0.41874843504E+03  0.31533540828E+03  0.63757268063E+03  0.46999998093E+01 0. -1.
</event>
<event>
 5   0  0.6349142E-03  0.1192042E+04  0.7818609E-02  0.9119851E-01
       -2   -1    0    0    0  501  0.00000000000E+00  0.00000000000E+00  0.36329610636E+03  0.36329610637E+03  0.25500000920E-02 0. -1.
        2   -1    0    0  501    0  0.00000000000E+00  0.00000000000E+00 -0.97782777385E+03  0.97782777385E+03  0.25500000920E-02 0.  1.
    10030    2    1    2    0    0  0.00000000000E+00  0.00000000000E+00 -0.61453166748E+03  0.13411238802E+04  0.11920419841E+04 0.  0.
        1    1    3    3  502    0 -0.27494271104E+03 -0.52610883877E+03 -0.24712992794E+03  0.64300638092E+03  0.50400001928E-02 0. -1.
       -1    1    3    3    0  502  0.27494271104E+03  0.52610883877E+03 -0.36740173954E+03  0.69811749930E+03  0.50400001928E-02 0.  1.
</event>
<event>
 5   0  0.6585930E-03  0.1170663E+04  0.7818609E-02  0.9138930E-01
       -2   -1    0    0    0  501  0.00000000000E+00  0.00000000000E+00  0.45137463682E+03  0.45137463683E+03  0.25500000920E-02 0.  1.
        2   -1    0    0  501    0  0.00000000000E+00  0.00000000000E+00 -0.75904371344E+03  0.75904371344E+03  0.25500000920E-02 0. -1.
    10030    2    1    2    0    0  0.00000000000E+00  0.00000000000E+00 -0.30766907661E+03  0.12104183503E+04  0.11706631975E+04 0.  0.
        2    1    3    3  502    0  0.29101245511E+03 -0.33489446727E+03 -0.54859931549E+03  0.70555209744E+03  0.25500000920E-02 0. -1.
       -2    1    3    3    0  502 -0.29101245511E+03  0.33489446727E+03  0.24093023887E+03  0.50486625283E+03  0.25500000920E-02 0.  1.
</event>
<event>
 5   0  0.6349142E-03  0.1423302E+04  0.7818609E-02  0.8937122E-01
        2   -1    0    0  501    0  0.00000000000E+00  0.00000000000E+00  0.15656399378E+04  0.15656399378E+04  0.25500000920E-02 0. -1.
       -2   -1    0    0    0  501  0.00000000000E+00  0.00000000000E+00 -0.32347623192E+03  0.32347623193E+03  0.25500000920E-02 0.  1.
    10030    2    1    2    0    0  0.00000000000E+00  0.00000000000E+00  0.12421637059E+04  0.18891161698E+04  0.14233022274E+04 0.  0.
        1    1    3    3  502    0  0.46121123432E+03 -0.38819863680E+03  0.11230546137E+04  0.12746237287E+04  0.50400001928E-02 0. -1.
       -1    1    3    3    0  502 -0.46121123432E+03  0.38819863680E+03  0.11910909218E+03  0.61449244108E+03  0.50400001928E-02 0.  1.
</event>
<event>
 5   0  0.3648616E-03  0.1174224E+04  0.7818609E-02  0.9135723E-01
        1   -1    0    0  501    0  0.00000000000E+00  0.00000000000E+00  0.56323719387E+03  0.56323719389E+03  0.50400001928E-02 0. -1.
       -1   -1    0    0    0  501  0.00000000000E+00  0.00000000000E+00 -0.61199842710E+03  0.61199842712E+03  0.50400001928E-02 0.  1.
    10030    2    1    2    0    0  0.00000000000E+00  0.00000000000E+00 -0.48761233236E+02  0.11752356210E+04  0.11742236188E+04 0.  0.
        2    1    3    3  502    0  0.21483070766E+03 -0.13589581622E+03  0.50530169603E+03  0.56564097256E+03  0.25500000920E-02 0. -1.
       -2    1    3    3    0  502 -0.21483070766E+03  0.13589581622E+03 -0.55406292927E+03  0.60959464845E+03  0.25500000920E-02 0.  1.
</event>
<event>
 5   0  0.3944074E-03  0.1221193E+04  0.7818609E-02  0.9094506E-01
       -1   -1    0    0    0  501  0.00000000000E+00  0.00000000000E+00  0.38871453191E+03  0.38871453194E+03  0.50400001928E-02 0.  1.
        1   -1    0    0  501    0  0.00000000000E+00  0.00000000000E+00 -0.95913027785E+03  0.95913027787E+03  0.50400001928E-02 0. -1.
    10030    2    1    2    0    0  0.00000000000E+00  0.00000000000E+00 -0.57041574594E+03  0.13478448098E+04  0.12211926581E+04 0.  0.
        4    1    3    3  502    0 -0.57644065686E+03 -0.20005468938E+03 -0.26002595473E+03  0.66326527096E+03  0.12699999809E+01 0. -1.
       -4    1    3    3    0  502  0.57644065686E+03  0.20005468938E+03 -0.31038979121E+03  0.68457953885E+03  0.12699999809E+01 0.  1.
</event>
<event>
 5   0  0.3944074E-03  0.1184741E+04  0.7818609E-02  0.9126319E-01
        1   -1    0    0  501    0  0.00000000000E+00  0.00000000000E+00  0.65711967464E+03  0.65711967466E+03  0.50400001928E-02 0. -1.
       -1   -1    0    0    0  501  0.00000000000E+00  0.00000000000E+00 -0.53400130739E+03  0.53400130742E+03  0.50400001928E-02 0.  1.
    10030    2    1    2    0    0  0.00000000000E+00  0.00000000000E+00  0.12311836725E+03  0.11911209821E+04  0.11847409259E+04 0.  0.
        4    1    3    3  502    0 -0.35635698773E+03  0.14467373817E+03 -0.39140044125E+03  0.54874102410E+03  0.12699999809E+01 0.  1.
       -4    1    3    3    0  502  0.35635698773E+03 -0.14467373817E+03  0.51451880849E+03  0.64237995798E+03  0.12699999809E+01 0. -1.
</event>
<event>
 5   0  0.6658994E-03  0.1233777E+04  0.7818609E-02  0.9083795E-01
       -2   -1    0    0    0  501  0.00000000000E+00  0.00000000000E+00  0.35743250749E+03  0.35743250750E+03  0.25500000920E-02 0.  1.
        2   -1    0    0  501    0  0.00000000000E+00  0.00000000000E+00 -0.10646808040E+04  0.10646808040E+04  0.25500000920E-02 0. -1.
    10030    2    1    2    0    0  0.00000000000E+00  0.00000000000E+00 -0.70724829652E+03  0.14221133115E+04  0.12337771751E+04 0.  0.
        4    1    3    3  502    0  0.32310250586E+03 -0.80563446742E+02  0.24493783797E+03  0.41337858630E+03  0.12699999809E+01 0.  1.
       -4    1    3    3    0  502 -0.32310250586E+03  0.80563446742E+02 -0.95218613449E+03  0.10087347252E+04  0.12699999809E+01 0. -1.
</event>
<event>
 5   0  0.3731281E-03  0.8324860E+03  0.7818609E-02  0.9514150E-01
       -1   -1    0    0    0  501  0.00000000000E+00  0.00000000000E+00  0.15667857013E+03  0.15667857021E+03  0.50400001928E-02 0.  1.
        1   -1    0    0  501    0  0.00000000000E+00  0.00000000000E+00 -0.11058195548E+04  0.11058195548E+04  0.50400001928E-02 0. -1.
    10030    2    1    2    0    0  0.00000000000E+00  0.00000000000E+00 -0.94914098469E+03  0.12624981250E+04  0.83248598001E+03 0.  0.
        5    1    3    3  502    0  0.25050322502E+03  0.32362810156E+03 -0.58955904526E+03  0.71769699157E+03  0.46999998093E+01 0.  1.
       -5    1    3    3    0  502 -0.25050322502E+03 -0.32362810156E+03 -0.35958193942E+03  0.54480113346E+03  0.46999998093E+01 0. -1.
</event>
<event>
 5   0  0.3648616E-03  0.1187943E+04  0.7818609E-02  0.9123476E-01
        1   -1    0    0  501    0  0.00000000000E+00  0.00000000000E+00  0.10550301412E+04  0.10550301413E+04  0.50400001928E-02 0.  1.
       -1   -1    0    0    0  501  0.00000000000E+00  0.00000000000E+00 -0.33439983816E+03  0.33439983819E+03  0.50400001928E-02 0. -1.
    10030    2    1    2    0    0  0.00000000000E+00  0.00000000000E+00  0.72063030309E+03  0.13894299795E+04  0.11879426055E+04 0.  0.
        2    1    3    3  502    0  0.47910649416E+03 -0.88271966106E+02  0.75775373580E+03  0.90084721061E+03  0.25500000920E-02 0.  1.
       -2    1    3    3    0  502 -0.47910649416E+03  0.88271966106E+02 -0.37123432705E+02  0.48858276884E+03  0.25500000920E-02 0. -1.
</event>
<event>
 5   0  0.3944074E-03  0.1217410E+04  0.7818609E-02  0.9097753E-01
       -1   -1    0    0    0  501  0.00000000000E+00  0.00000000000E+00  0.97650581174E+03  0.97650581175E+03  0.50400001928E-02 0.  1.
        1   -1    0    0  501    0  0.00000000000E+00  0.00000000000E+00 -0.37943627921E+03  0.37943627925E+03  0.50400001928E-02 0. -1.
    10030    2    1    2    0    0  0.00000000000E+00  0.00000000000E+00  0.59706953252E+03  0.13559420910E+04  0.12174099258E+04 0.  0.
        4    1    3    3  502    0 -0.26953850261E+03 -0.27812673054E+02  0.90562380536E+03  0.94529394312E+03  0.12699999809E+01 0.  1.
       -4    1    3    3    0  502  0.26953850261E+03  0.27812673054E+02 -0.30855427283E+03  0.41064814788E+03  0.12699999809E+01 0. -1.
</event>
<event>
 5   0  0.3944074E-03  0.1177055E+04  0.7818609E-02  0.9133180E-01
       -1   -1    0    0    0  501  0.00000000000E+00  0.00000000000E+00  0.20561513932E+03  0.20561513938E+03  0.50400001928E-02 0. -1.
        1   -1    0    0  501    0  0.00000000000E+00  0.00000000000E+00 -0.16845299800E+04  0.16845299800E+04  0.50400001928E-02 0.  1.
    10030    2    1    2    0    0  0.00000000000E+00  0.00000000000E+00 -0.14789148406E+04  0.18901451194E+04  0.11770554219E+04 0.  0.
        4    1    3    3  502    0  0.23736357145E+03 -0.38901654782E+02  0.12307912637E+03  0.27019416730E+03  0.12699999809E+01 0. -1.
       -4    1    3    3    0  502 -0.23736357145E+03  0.38901654782E+02 -0.16019939670E+04  0.16199509520E+04  0.12699999809E+01 0.  1.
</event>
<event>
 5   0  0.6493047E-03  0.1210705E+04  0.7818609E-02  0.9103537E-01
       -2   -1    0    0    0  501  0.00000000000E+00  0.00000000000E+00  0.28046530513E+03  0.28046530515E+03  0.25500000920E-02 0.  1.
        2   -1    0    0  501    0  0.00000000000E+00  0.00000000000E+00 -0.13065853393E+04  0.13065853393E+04  0.25500000920E-02 0. -1.
    10030    2    1    2    0    0  0.00000000000E+00  0.00000000000E+00 -0.10261200341E+04  0.15870506444E+04  0.12107053413E+04 0.  0.
        3    1    3    3  502    0  0.38079493501E+03  0.33481889409E+03 -0.79600485449E+02  0.51326866440E+03  0.10100000352E+00 0.  1.
       -3    1    3    3    0  502 -0.38079493501E+03 -0.33481889409E+03 -0.94651954868E+03  0.10737819800E+04  0.10100000352E+00 0. -1.
</event>
<event>
 5   0  0.3648616E-03  0.1229818E+04  0.7818609E-02  0.9087150E-01
        1   -1    0    0  501    0  0.00000000000E+00  0.00000000000E+00  0.67204564235E+03  0.67204564237E+03  0.50400001928E-02 0. -1.
       -1   -1    0    0    0  501  0.00000000000E+00  0.00000000000E+00 -0.56262969596E+03  0.56262969598E+03  0.50400001928E-02 0.  1.
    10030    2    1    2    0    0  0.00000000000E+00  0.00000000000E+00  0.10941594639E+03  0.12346753384E+04  0.12298176051E+04 0.  0.
        2    1    3    3  502    0  0.84718978423E+02 -0.43340850204E+03 -0.37487540045E+03  0.57926833231E+03  0.25500000920E-02 0.  1.
       -2    1    3    3    0  502 -0.84718978423E+02  0.43340850204E+03  0.48429134684E+03  0.65540700605E+03  0.25500000920E-02 0. -1.
</event>
<event>
 5   0  0.6493047E-03  0.1082727E+04  0.7818609E-02  0.9222193E-01
        2   -1    0    0  501    0  0.00000000000E+00  0.00000000000E+00  0.18271518998E+04  0.18271518998E+04  0.25500000920E-02 0. -1.
       -2   -1    0    0    0  501  0.00000000000E+00  0.00000000000E+00 -0.16039954331E+03  0.16039954333E+03  0.25500000920E-02 0.  1.
    10030    2    1    2    0    0  0.00000000000E+00  0.00000000000E+00  0.16667523565E+04  0.19875514431E+04  0.10827267990E+04 0.  0.
        3    1    3    3  502    0  0.58517893013E+02  0.47400200617E+02  0.18174899049E+04  0.18190493911E+04  0.10100000352E+00 0. -1.
       -3    1    3    3    0  502 -0.58517893013E+02 -0.47400200617E+02 -0.15073754841E+03  0.16850205198E+03  0.10100000352E+00 0.  1.
</event>
<event>
 5   0  0.3731281E-03  0.1239779E+04  0.7818609E-02  0.9078733E-01
       -1   -1    0    0    0  501  0.00000000000E+00  0.00000000000E+00  0.77196340347E+03  0.77196340349E+03  0.50400001928E-02 0.  1.
        1   -1    0    0  501    0  0.00000000000E+00  0.00000000000E+00 -0.49777358944E+03  0.49777358947E+03  0.50400001928E-02 0. -1.
    10030    2    1    2    0    0  0.00000000000E+00  0.00000000000E+00  0.27418981403E+03  0.12697369930E+04  0.12397790034E+04 0.  0.
        5    1    3    3  502    0  0.48970818273E+03  0.32939897000E+03 -0.57018937885E+02  0.59295112357E+03  0.46999998093E+01 0.  1.
       -5    1    3    3    0  502 -0.48970818273E+03 -0.32939897000E+03  0.33120875191E+03  0.67678586939E+03  0.46999998093E+01 0. -1.
</event>
<event>
 5   0  0.6493047E-03  0.1210985E+04  0.7818609E-02  0.9103296E-01
       -2   -1    0    0    0  501  0.00000000000E+00  0.00000000000E+00  0.39748374287E+03  0.39748374288E+03  0.25500000920E-02 0. -1.
        2   -1    0    0  501    0  0.00000000000E+00  0.00000000000E+00 -0.92235455600E+03  0.92235455600E+03  0.25500000920E-02 0.  1.
    10030    2    1    2    0    0  0.00000000000E+00  0.00000000000E+00 -0.52487081313E+03  0.13198382989E+04  0.12109846261E+04 0.  0.
        3    1    3    3  502    0 -0.13048104557E+03 -0.13721305934E+03 -0.88925703660E+03  0.90919239672E+03  0.10100000352E+00 0.  1.
       -3    1    3    3    0  502  0.13048104557E+03  0.13721305934E+03  0.36438622347E+03  0.41064590217E+03  0.10100000352E+00 0. -1.
</event>
<event>
 5   0  0.3701879E-03  0.1185710E+04  0.7818609E-02  0.9125458E-01
        1   -1    0    0  501    0  0.00000000000E+00  0.00000000000E+00  0.50082126220E+03  0.50082126223E+03  0.50400001928E-02 0. -1.
       -1   -1    0    0    0  501  0.00000000000E+00  0.00000000000E+00 -0.70180082954E+03  0.70180082956E+03  0.50400001928E-02 0.  1.
    10030    2    1    2    0    0  0.00000000000E+00  0.00000000000E+00 -0.20097956734E+03  0.12026220918E+04  0.11857095383E+04 0.  0.
        1    1    3    3  502    0  0.10129896044E+03  0.27270527172E+03 -0.62443048152E+03  0.68887086663E+03  0.50400001928E-02 0.  1.
       -1    1    3    3    0  502 -0.10129896044E+03 -0.27270527172E+03  0.42345091418E+03  0.51375122516E+03  0.50400001928E-02 0. -1.
</event>
<event>
 5   0  0.3731281E-03  0.1119501E+04  0.7818609E-02  0.9186390E-01
       -1   -1    0    0    0  501  0.00000000000E+00  0.00000000000E+00  0.96175380607E+03  0.96175380608E+03  0.50400001928E-02 0. -1.
        1   -1    0    0  501    0  0.00000000000E+00  0.00000000000E+00 -0.32578076758E+03  0.32578076762E+03  0.50400001928E-02 0.  1.
    10030    2    1    2    0    0  0.00000000000E+00  0.00000000000E+00  0.63597303849E+03  0.12875345737E+04  0.11195014840E+04 0.  0.
        5    1    3    3  502    0 -0.13485765279E+03 -0.48673493993E+03  0.59544667424E+03  0.78081772529E+03  0.46999998093E+01 0. -1.
       -5    1    3    3    0  502  0.13485765279E+03  0.48673493993E+03  0.40526364252E+02  0.50671684841E+03  0.46999998093E+01 0.  1.
</event>
<event>
 5   0  0.6640844E-03  0.1204484E+04  0.7818609E-02  0.9108940E-01
       -2   -1    0    0    0  501  0.00000000000E+00  0.00000000000E+00  0.36755221855E+03  0.36755221856E+03  0.25500000920E-02 0.  1.
        2   -1    0    0  501    0  0.00000000000E+00  0.00000000000E+00 -0.98678656055E+03  0.98678656055E+03  0.25500000920E-02 0. -1.
    10030    2    1    2    0    0  0.00000000000E+00  0.00000000000E+00 -0.61923434200E+03  0.13543387791E+04  0.12044842707E+04 0.  0.
        5    1    3    3  502    0 -0.54693311057E+03  0.17726802529E+03 -0.51111551660E+03  0.76929899359E+03  0.46999998093E+01 0. -1.
       -5    1    3    3    0  502  0.54693311057E+03 -0.17726802529E+03 -0.10811882540E+03  0.58503978552E+03  0.46999998093E+01 0.  1.
</event>
<event>
 5   0  0.3701879E-03  0.1195448E+04  0.7818609E-02  0.9116850E-01
        1   -1    0    0  501    0  0.00000000000E+00  0.00000000000E+00  0.99085766673E+03  0.99085766675E+03  0.50400001928E-02 0.  1.
       -1   -1    0    0    0  501  0.00000000000E+00  0.00000000000E+00 -0.36057043379E+03  0.36057043383E+03  0.50400001928E-02 0. -1.
    10030    2    1    2    0    0  0.00000000000E+00  0.00000000000E+00  0.63028723294E+03  0.13514281006E+04  0.11954479976E+04 0.  0.
        1    1    3    3  502    0  0.24296897042E+03 -0.16809839429E+03  0.90253890117E+03  0.94966702527E+03  0.50400001928E-02 0.  1.
       -1    1    3    3    0  502 -0.24296897042E+03  0.16809839429E+03 -0.27225166823E+03  0.40176107530E+03  0.50400001928E-02 0. -1.
</event>
<event>
 5   0  0.3648616E-03  0.1231953E+04  0.7818609E-02  0.9085339E-01
        1   -1    0    0  501    0  0.00000000000E+00  0.00000000000E+00  0.89660779270E+03  0.89660779272E+03  0.50400001928E-02 0. -1.
       -1   -1    0    0    0  501  0.00000000000E+00  0.00000000000E+00 -0.42318065187E+03  0.42318065190E+03  0.50400001928E-02 0.  1.
    10030    2    1    2    0    0  0.00000000000E+00  0.00000000000E+00  0.47342714083E+03  0.13197884446E+04  0.12319530352E+04 0.  0.
        2    1    3    3  502    0 -0.15627270460E+03 -0.36090597152E+02 -0.40041895347E+03  0.43134560124E+03  0.25500000920E-02 0.  1.
       -2    1    3    3    0  502  0.15627270460E+03  0.36090597152E+02  0.87384609431E+03  0.88844284338E+03  0.25500000920E-02 0. -1.
</event>
<event>
 5   0  0.6585930E-03  0.6395744E+03  0.7818609E-02  0.9826541E-01
       -2   -1    0    0    0  501  0.00000000000E+00  0.00000000000E+00  0.10081265493E+03  0.10081265496E+03  0.25500000920E-02 0. -1.
        2   -1    0    0  501    0  0.00000000000E+00  0.00000000000E+00 -0.10143950092E+04  0.10143950092E+04  0.25500000920E-02 0.  1.
    10030    2    1    2    0    0  0.00000000000E+00  0.00000000000E+00 -0.91358235429E+03  0.11152076642E+04  0.63957440239E+03 0.  0.
        2    1    3    3  502    0 -0.25941036350E+03  0.14039255320E+03 -0.24139270094E+03  0.38114858226E+03  0.25500000920E-02 0.  1.
       -2    1    3    3    0  502  0.25941036350E+03 -0.14039255320E+03 -0.67218965335E+03  0.73405908193E+03  0.25500000920E-02 0. -1.
</event>
<event>
 5   0  0.6585930E-03  0.7890806E+03  0.7818609E-02  0.9575958E-01
       -2   -1    0    0    0  501  0.00000000000E+00  0.00000000000E+00  0.22006647821E+03  0.22006647823E+03  0.25500000920E-02 0. -1.
        2   -1    0    0  501    0  0.00000000000E+00  0.00000000000E+00 -0.70734098206E+03  0.70734098207E+03  0.25500000920E-02 0.  1.
    10030    2    1    2    0    0  0.00000000000E+00  0.00000000000E+00 -0.48727450385E+03  0.92740746029E+03  0.78908057593E+03 0.  0.
        2    1    3    3  502    0  0.13164007537E+03  0.24274414032E+03 -0.57483085518E+03  0.63771807186E+03  0.25500000920E-02 0.  1.
       -2    1    3    3    0  502 -0.13164007537E+03 -0.24274414032E+03  0.87556351330E+02  0.28968938843E+03  0.25500000920E-02 0. -1.
</event>
<event>
 5   0  0.6658994E-03  0.1222301E+04  0.7818609E-02  0.9093557E-01
       -2   -1    0    0    0  501  0.00000000000E+00  0.00000000000E+00  0.27892719955E+03  0.27892719956E+03  0.25500000920E-02 0.  1.
        2   -1    0    0  501    0  0.00000000000E+00  0.00000000000E+00 -0.13390767918E+04  0.13390767918E+04  0.25500000920E-02 0. -1.
    10030    2    1    2    0    0  0.00000000000E+00  0.00000000000E+00 -0.10601495923E+04  0.16180039914E+04  0.12223010096E+04 0.  0.
        4    1    3    3  502    0  0.12167017040E+03  0.55157023180E+03 -0.22113062291E+03  0.60657540031E+03  0.12699999809E+01 0.  1.
       -4    1    3    3    0  502 -0.12167017040E+03 -0.55157023180E+03 -0.83901896937E+03  0.10114285911E+04  0.12699999809E+01 0. -1.
</event>
<event>
 5   0  0.6349142E-03  0.1199870E+04  0.7818609E-02  0.9112970E-01
       -2   -1    0    0    0  501  0.00000000000E+00  0.00000000000E+00  0.60870190621E+03  0.60870190621E+03  0.25500000920E-02 0. -1.
        2   -1    0    0  501    0  0.00000000000E+00  0.00000000000E+00 -0.59129453474E+03  0.59129453475E+03  0.25500000920E-02 0.  1.
    10030    2    1    2    0    0  0.00000000000E+00  0.00000000000E+00  0.17407371464E+02  0.11999964410E+04  0.11998701770E+04 0.  0.
        1    1    3    3  502    0  0.52101984778E+03 -0.28877923725E+03  0.79893904330E+02  0.60103091902E+03  0.50400001928E-02 0. -1.
       -1    1    3    3    0  502 -0.52101984778E+03  0.28877923725E+03 -0.62486532866E+02  0.59896552193E+03  0.50400001928E-02 0.  1.
</event>
<event>
 5   0  0.6640844E-03  0.1228220E+04  0.7818609E-02  0.9088508E-01
        2   -1    0    0  501    0  0.00000000000E+00  0.00000000000E+00  0.14274352593E+04  0.14274352593E+04  0.25500000920E-02 0.  1.
       -2   -1    0    0    0  501  0.00000000000E+00  0.00000000000E+00 -0.26420175696E+03  0.26420175697E+03  0.25500000920E-02 0. -1.
    10030    2    1    2    0    0  0.00000000000E+00  0.00000000000E+00  0.11632335023E+04  0.16916370163E+04  0.12282196928E+04 0.  0.
        5    1    3    3  502    0 -0.14553851132E+03 -0.13748383223E+03 -0.21796438033E+03  0.29599632344E+03  0.46999998093E+01 0. -1.
       -5    1    3    3    0  502  0.14553851132E+03  0.13748383223E+03  0.13811978827E+04  0.13956406928E+04  0.46999998093E+01 0.  1.
</event>
<event>
 5   0  0.6585930E-03  0.1172986E+04  0.7818609E-02  0.9136836E-01
       -2   -1    0    0    0  501  0.00000000000E+00  0.00000000000E+00  0.56542857390E+03  0.56542857391E+03  0.25500000920E-02 0. -1.
        2   -1    0    0  501    0  0.00000000000E+00  0.00000000000E+00 -0.60834201036E+03  0.60834201037E+03  0.25500000920E-02 0.  1.
    10030    2    1    2    0    0  0.00000000000E+00  0.00000000000E+00 -0.42913436460E+02  0.11737705843E+04  0.11729858573E+04 0.  0.
        2    1    3    3  502    0  0.52253870943E+01 -0.48267669955E+03 -0.35480095715E+03  0.59907246654E+03  0.25500000920E-02 0.  1.
       -2    1    3    3    0  502 -0.52253870943E+01  0.48267669955E+03  0.31188752069E+03  0.57469811774E+03  0.25500000920E-02 0. -1.
</event>
<event>
 5   0  0.6349142E-03  0.1198901E+04  0.7818609E-02  0.9113819E-01
        2   -1    0    0  501    0  0.00000000000E+00  0.00000000000E+00  0.72489674611E+03  0.72489674612E+03  0.25500000920E-02 0. -1.
       -2   -1    0    0    0  501  0.00000000000E+00  0.00000000000E+00 -0.49571285485E+03  0.49571285486E+03  0.25500000920E-02 0.  1.
    10030    2    1    2    0    0  0.00000000000E+00  0.00000000000E+00  0.22918389126E+03  0.12206096010E+04  0.11989005555E+04 0.  0.
        1    1    3    3  502    0 -0.37036008675E+03  0.45292895113E+03  0.24745168031E+03  0.63525078728E+03  0.50400001928E-02 0.  1.
       -1    1    3    3    0  502  0.37036008675E+03 -0.45292895113E+03 -0.18267789046E+02  0.58535881370E+03  0.50400001928E-02 0. -1.
</event>
<event>
 5   0  0.2537625E-03  0.1211261E+04  0.7818609E-02  0.9103056E-01
       -3   -1    0    0    0  501  0.00000000000E+00  0.00000000000E+00  0.57154355225E+03  0.57154356118E+03  0.10100000352E+00 0. -1.
        3   -1    0    0  501    0  0.00000000000E+00  0.00000000000E+00 -0.64175081803E+03  0.64175082598E+03  0.10100000352E+00 0.  1.
    10030    2    1    2    0    0  0.00000000000E+00  0.00000000000E+00 -0.70207265778E+02  0.12132943872E+04  0.12112614126E+04 0.  0.
        2    1    3    3  502    0 -0.32322694930E+03  0.27525111584E+03 -0.46774256832E+03  0.63168184061E+03  0.25500000920E-02 0.  1.
       -2    1    3    3    0  502  0.32322694930E+03 -0.27525111584E+03  0.39753530254E+03  0.58161254655E+03  0.25500000920E-02 0. -1.
</event>
<event>
 5   0  0.2537625E-03  0.1202009E+04  0.7818609E-02  0.9111100E-01
        3   -1    0    0  501    0  0.00000000000E+00  0.00000000000E+00  0.46231325696E+03  0.46231326799E+03  0.10100000352E+00 0.  1.
       -3   -1    0    0    0  501  0.00000000000E+00  0.00000000000E+00 -0.78130246626E+03  0.78130247279E+03  0.10100000352E+00 0. -1.
    10030    2    1    2    0    0  0.00000000000E+00  0.00000000000E+00 -0.31898920931E+03  0.12436157408E+04  0.12020091493E+04 0.  0.
        2    1    3    3  502    0 -0.57852282469E+03  0.93560637999E+02 -0.29739065898E+03  0.65717840479E+03  0.25500000920E-02 0.  1.
       -2    1    3    3    0  502  0.57852282469E+03 -0.93560637999E+02 -0.21598550330E+02  0.58643733599E+03  0.25500000920E-02 0. -1.
</event>
<event>
 5   0  0.3772254E-03  0.1197677E+04  0.7818609E-02  0.9114892E-01
        1   -1    0    0  501    0  0.00000000000E+00  0.00000000000E+00  0.17995550836E+04  0.17995550836E+04  0.50400001928E-02 0.  1.
       -1   -1    0    0    0  501  0.00000000000E+00  0.00000000000E+00 -0.19927581979E+03  0.19927581985E+03  0.50400001928E-02 0. -1.
    10030    2    1    2    0    0  0.00000000000E+00  0.00000000000E+00  0.16002792638E+04  0.19988309035E+04  0.11976774434E+04 0.  0.
        3    1    3    3  502    0 -0.58113498886E+03  0.10743906192E+03  0.63879031605E+03  0.87023795905E+03  0.10100000352E+00 0.  1.
       -3    1    3    3    0  502  0.58113498886E+03 -0.10743906192E+03  0.96148894777E+03  0.11285929444E+04  0.10100000352E+00 0. -1.
</event>
<event>
 5   0  0.6640844E-03  0.1192191E+04  0.7818609E-02  0.9119719E-01
        2   -1    0    0  501    0  0.00000000000E+00  0.00000000000E+00  0.90304394652E+03  0.90304394653E+03  0.25500000920E-02 0. -1.
       -2   -1    0    0    0  501  0.00000000000E+00  0.00000000000E+00 -0.39348043207E+03  0.39348043208E+03  0.25500000920E-02 0.  1.
    10030    2    1    2    0    0  0.00000000000E+00  0.00000000000E+00  0.50956351445E+03  0.12965243786E+04  0.11921914649E+04 0.  0.
        5    1    3    3  502    0  0.48719397255E+03 -0.33914636703E+03  0.19591715772E+03  0.62512706536E+03  0.46999998093E+01 0.  1.
       -5    1    3    3    0  502 -0.48719397255E+03  0.33914636703E+03  0.31364635673E+03  0.67139731325E+03  0.46999998093E+01 0. -1.
</event>
<event>
 5   0  0.3944074E-03  0.1213511E+04  0.7818609E-02  0.9101112E-01
       -1   -1    0    0    0  501  0.00000000000E+00  0.00000000000E+00  0.38213653434E+03  0.38213653438E+03  0.50400001928E-02 0.  1.
        1   -1    0    0  501    0  0.00000000000E+00  0.00000000000E+00 -0.96340480713E+03  0.96340480714E+03  0.50400001928E-02 0. -1.
    10030    2    1    2    0    0  0.00000000000E+00  0.00000000000E+00 -0.58126827279E+03  0.13455413415E+04  0.12135108969E+04 0.  0.
        4    1    3    3  502    0 -0.33059809357E+03 -0.44693270112E+03 -0.21064211835E+02  0.55631758262E+03  0.12699999809E+01 0.  1.
       -4    1    3    3    0  502  0.33059809357E+03  0.44693270112E+03 -0.56020406095E+03  0.78922375890E+03  0.12699999809E+01 0. -1.
</event>
<event>
 5   0  0.6349142E-03  0.1114807E+04  0.7818609E-02  0.9190879E-01
        2   -1    0    0  501    0  0.00000000000E+00  0.00000000000E+00  0.60381339202E+03  0.60381339203E+03  0.25500000920E-02 0. -1.
       -2   -1    0    0    0  501  0.00000000000E+00  0.00000000000E+00 -0.51456047208E+03  0.51456047208E+03  0.25500000920E-02 0.  1.
    10030    2    1    2    0    0  0.00000000000E+00  0.00000000000E+00  0.89252919942E+02  0.11183738641E+04  0.11148067170E+04 0.  0.
        1    1    3    3  502    0 -0.43597792762E+03 -0.15885550295E+03 -0.26520912727E+03  0.53446020001E+03  0.50400001928E-02 0.  1.
       -1    1    3    3    0  502  0.43597792762E+03  0.15885550295E+03  0.35446204721E+03  0.58391366410E+03  0.50400001928E-02 0. -1.
</event>
<event>
 5   0  0.2537625E-03  0.1182590E+04  0.7818609E-02  0.9128233E-01
        3   -1    0    0  501    0  0.00000000000E+00  0.00000000000E+00  0.49645368608E+03  0.49645369636E+03  0.10100000352E+00 0.  1.
       -3   -1    0    0    0  501  0.00000000000E+00  0.00000000000E+00 -0.70425511681E+03  0.70425512405E+03  0.10100000352E+00 0. -1.
    10030    2    1    2    0    0  0.00000000000E+00  0.00000000000E+00 -0.20780143072E+03  0.12007088204E+04  0.11825904772E+04 0.  0.
        1    1    3    3  502    0 -0.58527311897E+03 -0.49538505872E+02 -0.17299754920E+03  0.61231269741E+03  0.50400001928E-02 0. -1.
       -1    1    3    3    0  502  0.58527311897E+03  0.49538505872E+02 -0.34803881523E+02  0.58839612299E+03  0.50400001928E-02 0.  1.
</event>
<event>
 5   0  0.6585930E-03  0.1172296E+04  0.7818609E-02  0.9137457E-01
        2   -1    0    0  501    0  0.00000000000E+00  0.00000000000E+00  0.80436454904E+03  0.80436454905E+03  0.25500000920E-02 0.  1.
       -2   -1    0    0    0  501  0.00000000000E+00  0.00000000000E+00 -0.42713183761E+03  0.42713183762E+03  0.25500000920E-02 0. -1.
    10030    2    1    2    0    0  0.00000000000E+00  0.00000000000E+00  0.37723271143E+03  0.12314963867E+04  0.11722963925E+04 0.  0.
        2    1    3    3  502    0  0.49378621110E+03 -0.22555485169E+03  0.42084533553E+03  0.68688471365E+03  0.25500000920E-02 0.  1.
       -2    1    3    3    0  502 -0.49378621110E+03  0.22555485169E+03 -0.43612624100E+02  0.54461167301E+03  0.25500000920E-02 0. -1.
</event>
<event>
 5   0  0.3731281E-03  0.1194357E+04  0.7818609E-02  0.9117810E-01
       -1   -1    0    0    0  501  0.00000000000E+00  0.00000000000E+00  0.30422404103E+03  0.30422404107E+03  0.50400001928E-02 0. -1.
        1   -1    0    0  501    0  0.00000000000E+00  0.00000000000E+00 -0.11722358974E+04  0.11722358974E+04  0.50400001928E-02 0.  1.
    10030    2    1    2    0    0  0.00000000000E+00  0.00000000000E+00 -0.86801185634E+03  0.14764599385E+04  0.11943573030E+04 0.  0.
        5    1    3    3  502    0  0.16505278064E+03 -0.52568472504E+03 -0.71863563956E+03  0.90556398062E+03  0.46999998093E+01 0. -1.
       -5    1    3    3    0  502 -0.16505278064E+03  0.52568472504E+03 -0.14937621677E+03  0.57089595784E+03  0.46999998093E+01 0.  1.
</event>
<event>
 5   0  0.6658994E-03  0.1221884E+04  0.7818609E-02  0.9093915E-01
       -2   -1    0    0    0  501  0.00000000000E+00  0.00000000000E+00  0.26264060930E+03  0.26264060931E+03  0.25500000920E-02 0. -1.
        2   -1    0    0  501    0  0.00000000000E+00  0.00000000000E+00 -0.14211432360E+04  0.14211432360E+04  0.25500000920E-02 0.  1.
    10030    2    1    2    0    0  0.00000000000E+00  0.00000000000E+00 -0.11585026267E+04  0.16837838454E+04  0.12218836695E+04 0.  0.
        4    1    3    3  502    0 -0.89512858624E+02  0.46015853543E+03 -0.11191302147E+04  0.12133476336E+04  0.12699999809E+01 0.  1.
       -4    1    3    3    0  502  0.89512858624E+02 -0.46015853543E+03 -0.39372412012E+02  0.47043621174E+03  0.12699999809E+01 0. -1.
</event>
<event>
 5   0  0.6640844E-03  0.1170515E+04  0.7818609E-02  0.9139064E-01
        2   -1    0    0  501    0  0.00000000000E+00  0.00000000000E+00  0.15668118683E+04  0.15668118683E+04  0.25500000920E-02 0. -1.
       -2   -1    0    0    0  501  0.00000000000E+00  0.00000000000E+00 -0.21861341565E+03  0.21861341566E+03  0.25500000920E-02 0.  1.
    10030    2    1    2    0    0  0.00000000000E+00  0.00000000000E+00  0.13481984526E+04  0.17854252839E+04  0.11705145778E+04 0.  0.
        5    1    3    3  502    0 -0.53712398024E+02 -0.54147175203E+03  0.34543557089E+03  0.64453433081E+03  0.46999998093E+01 0.  1.
       -5    1    3    3    0  502  0.53712398024E+02  0.54147175203E+03  0.10027628817E+04  0.11408909531E+04  0.46999998093E+01 0. -1.
</event>
<event>
 5   0  0.3944074E-03  0.1205248E+04  0.7818609E-02  0.9108275E-01
        1   -1    0    0  501    0  0.00000000000E+00  0.00000000000E+00  0.61020294541E+03  0.61020294543E+03  0.50400001928E-02 0.  1.
       -1   -1    0    0    0  501  0.00000000000E+00  0.00000000000E+00 -0.59513934394E+03  0.59513934396E+03  0.50400001928E-02 0. -1.
    10030    2    1    2    0    0  0.00000000000E+00  0.00000000000E+00  0.15063601469E+02  0.12053422894E+04  0.12052481581E+04 0.  0.
        4    1    3    3  502    0 -0.11072177091E+03 -0.17852373286E+03  0.57239812851E+03  0.60973048486E+03  0.12699999809E+01 0.  1.
       -4    1    3    3    0  502  0.11072177091E+03  0.17852373286E+03 -0.55733452704E+03  0.59561180452E+03  0.12699999809E+01 0. -1.
</event>
<event>
 5   0  0.6349142E-03  0.1196439E+04  0.7818609E-02  0.9115979E-01
        2   -1    0    0  501    0  0.00000000000E+00  0.00000000000E+00  0.11664881287E+04  0.11664881287E+04  0.25500000920E-02 0.  1.
       -2   -1    0    0    0  501  0.00000000000E+00  0.00000000000E+00 -0.30678986994E+03  0.30678986996E+03  0.25500000920E-02 0. -1.
    10030    2    1    2    0    0  0.00000000000E+00  0.00000000000E+00  0.85969825871E+03  0.14732779986E+04  0.11964392860E+04 0.  0.
        1    1    3    3  502    0 -0.56105193361E+03 -0.20420239982E+03  0.38395876056E+03  0.70986070615E+03  0.50400001928E-02 0. -1.
       -1    1    3    3    0  502  0.56105193361E+03  0.20420239982E+03  0.47573949814E+03  0.76341729246E+03  0.50400001928E-02 0.  1.
</event>
<event>
 5   0  0.3731281E-03  0.1197288E+04  0.7818609E-02  0.9115234E-01
        1   -1    0    0  501    0  0.00000000000E+00  0.00000000000E+00  0.58938024211E+03  0.58938024213E+03  0.50400001928E-02 0. -1.
       -1   -1    0    0    0  501  0.00000000000E+00  0.00000000000E+00 -0.60805331121E+03  0.60805331123E+03  0.50400001928E-02 0.  1.
    10030    2    1    2    0    0  0.00000000000E+00  0.00000000000E+00 -0.18673069098E+02  0.11974335534E+04  0.11972879483E+04 0.  0.
        5    1    3    3  502    0  0.39871709909E+03  0.25414035804E+03 -0.37651858386E+03  0.60444270256E+03  0.46999998093E+01 0.  1.
       -5    1    3    3    0  502 -0.39871709909E+03 -0.25414035804E+03  0.35784551477E+03  0.59299085079E+03  0.46999998093E+01 0. -1.
</event>
<event>
 5   0  0.3772254E-03  0.1269426E+04  0.7818609E-02  0.9054169E-01
       -1   -1    0    0    0  501  0.00000000000E+00  0.00000000000E+00  0.32161872208E+03  0.32161872212E+03  0.50400001928E-02 0.  1.
        1   -1    0    0  501    0  0.00000000000E+00  0.00000000000E+00 -0.12526021569E+04  0.12526021569E+04  0.50400001928E-02 0. -1.
    10030    2    1    2    0    0  0.00000000000E+00  0.00000000000E+00 -0.93098343482E+03  0.15742208790E+04  0.12694255473E+04 0.  0.
        3    1    3    3  502    0  0.88867225587E+02 -0.60028275786E+03 -0.69624296265E+03  0.92357514389E+03  0.10100000352E+00 0.  1.
       -3    1    3    3    0  502 -0.88867225587E+02  0.60028275786E+03 -0.23474047217E+03  0.65064573513E+03  0.10100000352E+00 0. -1.
</event>
<event>
 5   0  0.3772254E-03  0.1205340E+04  0.7818609E-02  0.9108195E-01
       -1   -1    0    0    0  501  0.00000000000E+00  0.00000000000E+00  0.28888998302E+03  0.28888998306E+03  0.50400001928E-02 0.  1.
        1   -1    0    0  501    0  0.00000000000E+00  0.00000000000E+00 -0.12572639662E+04  0.12572639663E+04  0.50400001928E-02 0. -1.
    10030    2    1    2    0    0  0.00000000000E+00  0.00000000000E+00 -0.96837398323E+03  0.15461539493E+04  0.12053397295E+04 0.  0.
        3    1    3    3  502    0 -0.43905371425E+03 -0.15906199202E+03  0.45102922830E+01  0.46700025079E+03  0.10100000352E+00 0.  1.
       -3    1    3    3    0  502  0.43905371425E+03  0.15906199202E+03 -0.97288427551E+03  0.10791536985E+04  0.10100000352E+00 0. -1.
</event>
<event>
 5   0  0.3944074E-03  0.6957638E+03  0.7818609E-02  0.9724504E-01
       -1   -1    0    0    0  501  0.00000000000E+00  0.00000000000E+00  0.11217849784E+03  0.11217849796E+03  0.50400001928E-02 0.  1.
        1   -1    0    0  501    0  0.00000000000E+00  0.00000000000E+00 -0.10788325960E+04  0.10788325960E+04  0.50400001928E-02 0. -1.
    10030    2    1    2    0    0  0.00000000000E+00  0.00000000000E+00 -0.96665409812E+03  0.11910110939E+04  0.69576381082E+03 0.  0.
        4    1    3    3  502    0  0.21336622401E+03  0.13451862689E+03 -0.73208735145E+02  0.26264336719E+03  0.12699999809E+01 0.  1.
       -4    1    3    3    0  502 -0.21336622401E+03 -0.13451862689E+03 -0.89344536297E+03  0.92836772673E+03  0.12699999809E+01 0. -1.
</event>
<event>
 5   0  0.6493047E-03  0.1202388E+04  0.7818609E-02  0.9110769E-01
        2   -1    0    0  501    0  0.00000000000E+00  0.00000000000E+00  0.61886219083E+03  0.61886219084E+03  0.25500000920E-02 0. -1.
       -2   -1    0    0    0  501  0.00000000000E+00  0.00000000000E+00 -0.58403021530E+03  0.58403021530E+03  0.25500000920E-02 0.  1.
    10030    2    1    2    0    0  0.00000000000E+00  0.00000000000E+00  0.34831975533E+02  0.12028924061E+04  0.12023879882E+04 0.  0.
        3    1    3    3  502    0  0.24960606832E+03  0.90105079699E+01  0.56449988740E+03  0.61728802975E+03  0.10100000352E+00 0. -1.
       -3    1    3    3    0  502 -0.24960606832E+03 -0.90105079699E+01 -0.52966791186E+03  0.58560437640E+03  0.10100000352E+00 0.  1.
</event>
<event>
 5   0  0.3731281E-03  0.1220142E+04  0.7818609E-02  0.9095406E-01
       -1   -1    0    0    0  501  0.00000000000E+00  0.00000000000E+00  0.16296726541E+04  0.16296726541E+04  0.50400001928E-02 0.  1.
        1   -1    0    0  501    0  0.00000000000E+00  0.00000000000E+00 -0.22838134326E+03  0.22838134332E+03  0.50400001928E-02 0. -1.
    10030    2    1    2    0    0  0.00000000000E+00  0.00000000000E+00  0.14012913108E+04  0.18580539974E+04  0.12201423358E+04 0.  0.
        5    1    3    3  502    0 -0.89373673685E+02 -0.58042088573E+03  0.44908708799E+03  0.73930870463E+03  0.46999998093E+01 0. -1.
       -5    1    3    3    0  502  0.89373673685E+02  0.58042088573E+03  0.95220422284E+03  0.11187452928E+04  0.46999998093E+01 0.  1.
</event>
<event>
 5   0  0.6493047E-03  0.1183465E+04  0.7818609E-02  0.9127454E-01
       -2   -1    0    0    0  501  0.00000000000E+00  0.00000000000E+00  0.17672707938E+03  0.17672707940E+03  0.25500000920E-02 0.  1.
        2   -1    0    0  501    0  0.00000000000E+00  0.00000000000E+00 -0.19812901501E+04  0.19812901501E+04  0.25500000920E-02 0. -1.
    10030    2    1    2    0    0  0.00000000000E+00  0.00000000000E+00 -0.18045630708E+04  0.21580172295E+04  0.11834654565E+04 0.  0.
        3    1    3    3  502    0 -0.51628395404E+03  0.28511298068E+03 -0.81465842369E+03  0.10057369887E+04  0.10100000352E+00 0.  1.
       -3    1    3    3    0  502  0.51628395404E+03 -0.28511298068E+03 -0.98990464708E+03  0.11522802409E+04  0.10100000352E+00 0. -1.
</event>
<event>
 5   0  0.6640844E-03  0.1204406E+04  0.7818609E-02  0.9109009E-01
        2   -1    0    0  501    0  0.00000000000E+00  0.00000000000E+00  0.10160945222E+04  0.10160945222E+04  0.25500000920E-02 0.  1.
       -2   -1    0    0    0  501  0.00000000000E+00  0.00000000000E+00 -0.35690397238E+03  0.35690397239E+03  0.25500000920E-02 0. -1.
    10030    2    1    2    0    0  0.00000000000E+00  0.00000000000E+00  0.65919054984E+03  0.13729984946E+04  0.12044055319E+04 0.  0.
        5    1    3    3  502    0 -0.55194640894E+03 -0.22460497710E+03  0.23064757025E+03  0.63899344733E+03  0.46999998093E+01 0. -1.
       -5    1    3    3    0  502  0.55194640894E+03  0.22460497710E+03  0.42854297959E+03  0.73400504728E+03  0.46999998093E+01 0.  1.
</event>
<event>
 5   0  0.3648616E-03  0.1229504E+04  0.7818609E-02  0.9087416E-01
        1   -1    0    0  501    0  0.00000000000E+00  0.00000000000E+00  0.13737077294E+04  0.13737077294E+04  0.50400001928E-02 0. -1.
       -1   -1    0    0    0  501  0.00000000000E+00  0.00000000000E+00 -0.27510958219E+03  0.27510958224E+03  0.50400001928E-02 0.  1.
    10030    2    1    2    0    0  0.00000000000E+00  0.00000000000E+00  0.10985981472E+04  0.16488173116E+04  0.12295042245E+04 0.  0.
        2    1    3    3  502    0  0.18608649301E+03  0.49789224632E+03  0.96349514408E+03  0.11003852800E+04  0.25500000920E-02 0. -1.
       -2    1    3    3    0  502 -0.18608649301E+03 -0.49789224632E+03  0.13510300310E+03  0.54843203159E+03  0.25500000920E-02 0.  1.
</event>
<event>
 5   0  0.3944074E-03  0.1216329E+04  0.7818609E-02  0.9098683E-01
        1   -1    0    0  501    0  0.00000000000E+00  0.00000000000E+00  0.80638422490E+03  0.80638422492E+03  0.50400001928E-02 0.  1.
       -1   -1    0    0    0  501  0.00000000000E+00  0.00000000000E+00 -0.45866952307E+03  0.45866952309E+03  0.50400001928E-02 0. -1.
    10030    2    1    2    0    0  0.00000000000E+00  0.00000000000E+00  0.34771470183E+03  0.12650537480E+04  0.12163286856E+04 0.  0.
        4    1    3    3  502    0  0.37394915420E+02  0.30945924276E+03  0.71698221311E+03  0.78181104459E+03  0.12699999809E+01 0.  1.
       -4    1    3    3    0  502 -0.37394915420E+02 -0.30945924276E+03 -0.36926751127E+03  0.48324270342E+03  0.12699999809E+01 0. -1.
</event>
<event>
 5   0  0.6585930E-03  0.1076980E+04  0.7818609E-02  0.9227924E-01
        2   -1    0    0  501    0  0.00000000000E+00  0.00000000000E+00  0.11596372931E+04  0.11596372931E+04  0.25500000920E-02 0. -1.
       -2   -1    0    0    0  501  0.00000000000E+00  0.00000000000E+00 -0.25005351063E+03  0.25005351065E+03  0.25500000920E-02 0.  1.
    10030    2    1    2    0    0  0.00000000000E+00  0.00000000000E+00  0.90958378249E+03  0.14096908038E+04  0.10769798071E+04 0.  0.
        2    1    3    3  502    0  0.20918125333E+03 -0.17947315330E+03  0.10603101143E+04  0.10955477844E+04  0.25500000920E-02 0. -1.
       -2    1    3    3    0  502 -0.20918125333E+03  0.17947315330E+03 -0.15072633180E+03  0.31414301935E+03  0.25500000920E-02 0.  1.
</event>
<event>
 5   0  0.6493047E-03  0.1199055E+04  0.7818609E-02  0.9113684E-01
        2   -1    0    0  501    0  0.00000000000E+00  0.00000000000E+00  0.18661056655E+04  0.18661056655E+04  0.25500000920E-02 0.  1.
       -2   -1    0    0    0  501  0.00000000000E+00  0.00000000000E+00 -0.19261151307E+03  0.19261151309E+03  0.25500000920E-02 0. -1.
    10030    2    1    2    0    0  0.00000000000E+00  0.00000000000E+00  0.16734941524E+04  0.20587171786E+04  0.11990553545E+04 0.  0.
        3    1    3    3  502    0  0.43610691500E+03 -0.15578684733E+02  0.13091283815E+03  0.45559863710E+03  0.10100000352E+00 0. -1.
       -3    1    3    3    0  502 -0.43610691500E+03  0.15578684733E+02  0.15425813143E+04  0.16031185415E+04  0.10100000352E+00 0.  1.
</event>
<event>
 5   0  0.3701879E-03  0.1198643E+04  0.7818609E-02  0.9114045E-01
       -1   -1    0    0    0  501  0.00000000000E+00  0.00000000000E+00  0.12779496540E+04  0.12779496540E+04  0.50400001928E-02 0.  1.
        1   -1    0    0  501    0  0.00000000000E+00  0.00000000000E+00 -0.28106453001E+03  0.28106453006E+03  0.50400001928E-02 0. -1.
    10030    2    1    2    0    0  0.00000000000E+00  0.00000000000E+00  0.99688512398E+03  0.15590141841E+04  0.11986430977E+04 0.  0.
        1    1    3    3  502    0  0.30571415061E+02 -0.10578524098E+03 -0.26779458655E+03  0.28954976988E+03  0.50400001928E-02 0. -1.
       -1    1    3    3    0  502 -0.30571415061E+02  0.10578524098E+03  0.12646797105E+04  0.12694644142E+04  0.50400001928E-02 0.  1.
</event>
<event>
 5   0  0.6640844E-03  0.1168377E+04  0.7818609E-02  0.9140995E-01
        2   -1    0    0  501    0  0.00000000000E+00  0.00000000000E+00  0.85926640799E+03  0.85926640800E+03  0.25500000920E-02 0. -1.
       -2   -1    0    0    0  501  0.00000000000E+00  0.00000000000E+00 -0.39717169234E+03  0.39717169235E+03  0.25500000920E-02 0.  1.
    10030    2    1    2    0    0  0.00000000000E+00  0.00000000000E+00  0.46209471565E+03  0.12564381003E+04  0.11683771539E+04 0.  0.
        5    1    3    3  502    0  0.53213167031E+03 -0.15870422365E+02 -0.27574659684E+02  0.53310265120E+03  0.46999998093E+01 0.  1.
       -5    1    3    3    0  502 -0.53213167031E+03  0.15870422365E+02  0.48966937534E+03  0.72333544915E+03  0.46999998093E+01 0. -1.
</event>
<event>
 5   0  0.3944074E-03  0.1189979E+04  0.7818609E-02  0.9121673E-01
        1   -1    0    0  501    0  0.00000000000E+00  0.00000000000E+00  0.62266607023E+03  0.62266607025E+03  0.50400001928E-02 0. -1.
       -1   -1    0    0    0  501  0.00000000000E+00  0.00000000000E+00 -0.56854350610E+03  0.56854350613E+03  0.50400001928E-02 0.  1.
    10030    2    1    2    0    0  0.00000000000E+00  0.00000000000E+00  0.54122564123E+02  0.11912095764E+04  0.11899794128E+04 0.  0.
        4    1    3    3  502    0  0.22375752205E+02 -0.34898559172E+03  0.50893144793E+03  0.61749854179E+03  0.12699999809E+01 0. -1.
       -4    1    3    3    0  502 -0.22375752205E+02  0.34898559172E+03 -0.45480888381E+03  0.57371103459E+03  0.12699999809E+01 0.  1.
</event>
<event>
 5   0  0.3731281E-03  0.1246870E+04  0.7818609E-02  0.9072792E-01
        1   -1    0    0  501    0  0.00000000000E+00  0.00000000000E+00  0.28618579455E+03  0.28618579459E+03  0.50400001928E-02 0.  1.
       -1   -1    0    0    0  501  0.00000000000E+00  0.00000000000E+00 -0.13581086340E+04  0.13581086340E+04  0.50400001928E-02 0. -1.
    10030    2    1    2    0    0  0.00000000000E+00  0.00000000000E+00 -0.10719228395E+04  0.16442944286E+04  0.12468703197E+04 0.  0.
        5    1    3    3  502    0  0.96377043626E+02 -0.33992457902E+03  0.14137685341E+03  0.38058738634E+03  0.46999998093E+01 0.  1.
       -5    1    3    3    0  502 -0.96377043626E+02  0.33992457902E+03 -0.12132996929E+04  0.12637070423E+04  0.46999998093E+01 0. -1.
</event>
<event>
 5   0  0.6585930E-03  0.1269075E+04  0.7818609E-02  0.9054455E-01
       -2   -1    0    0    0  501  0.00000000000E+00  0.00000000000E+00  0.26647384192E+03  0.26647384193E+03  0.25500000920E-02 0.  1.
        2   -1    0    0  501    0  0.00000000000E+00  0.00000000000E+00 -0.15109855001E+04  0.15109855001E+04  0.25500000920E-02 0. -1.
    10030    2    1    2    0    0  0.00000000000E+00  0.00000000000E+00 -0.12445116581E+04  0.17774593420E+04  0.12690754293E+04 0.  0.
        2    1    3    3  502    0  0.15374134662E+03  0.86752665037E+02 -0.14759010937E+04  0.14864206891E+04  0.25500000920E-02 0. -1.
       -2    1    3    3    0  502 -0.15374134662E+03 -0.86752665037E+02  0.23138943560E+03  0.29103865287E+03  0.25500000920E-02 0.  1.
</event>
<event>
 5   0  0.3701879E-03  0.1214587E+04  0.7818609E-02  0.9100184E-01
        1   -1    0    0  501    0  0.00000000000E+00  0.00000000000E+00  0.10211055541E+04  0.10211055541E+04  0.50400001928E-02 0.  1.
       -1   -1    0    0    0  501  0.00000000000E+00  0.00000000000E+00 -0.36118215599E+03  0.36118215603E+03  0.50400001928E-02 0. -1.
    10030    2    1    2    0    0  0.00000000000E+00  0.00000000000E+00  0.65992339814E+03  0.13822877102E+04  0.12145865232E+04 0.  0.
        1    1    3    3  502    0  0.34199388897E+02 -0.25041209995E+03 -0.29848660461E+03  0.39111388515E+03  0.50400001928E-02 0. -1.
       -1    1    3    3    0  502 -0.34199388897E+02  0.25041209995E+03  0.95841000275E+03  0.99117382502E+03  0.50400001928E-02 0.  1.
</event>
<event>
 5   0  0.3648616E-03  0.1164600E+04  0.7818609E-02  0.9144419E-01
       -1   -1    0    0    0  501  0.00000000000E+00  0.00000000000E+00  0.99512677606E+03  0.99512677607E+03  0.50400001928E-02 0.  1.
        1   -1    0    0  501    0  0.00000000000E+00  0.00000000000E+00 -0.34073350743E+03  0.34073350747E+03  0.50400001928E-02 0. -1.
    10030    2    1    2    0    0  0.00000000000E+00  0.00000000000E+00  0.65439326863E+03  0.13358602835E+04  0.11645995651E+04 0.  0.
        2    1    3    3  502    0  0.24915046785E+03  0.32408333923E+03  0.80286805706E+03  0.90094566065E+03  0.25500000920E-02 0.  1.
       -2    1    3    3    0  502 -0.24915046785E+03 -0.32408333923E+03 -0.14847478843E+03  0.43491462289E+03  0.25500000920E-02 0. -1.
</event>
<event>
 5   0  0.6640844E-03  0.1175144E+04  0.7818609E-02  0.9134895E-01
        2   -1    0    0  501    0  0.00000000000E+00  0.00000000000E+00  0.14671835883E+04  0.14671835883E+04  0.25500000920E-02 0. -1.
       -2   -1    0    0    0  501  0.00000000000E+00  0.00000000000E+00 -0.23530856483E+03  0.23530856484E+03  0.25500000920E-02 0.  1.
    10030    2    1    2    0    0  0.00000000000E+00  0.00000000000E+00  0.12318750234E+04  0.17024921531E+04  0.11751440159E+04 0.  0.
        5    1    3    3  502    0 -0.25616547384E+03  0.22594229403E+02 -0.14941980421E+03  0.29745523542E+03  0.46999998093E+01 0.  1.
       -5    1    3    3    0  502  0.25616547384E+03 -0.22594229403E+02  0.13812948276E+04  0.14050369177E+04  0.46999998093E+01 0. -1.
</event>
<event>
 5   0  0.6658994E-03  0.1164045E+04  0.7818609E-02  0.9144923E-01
        2   -1    0    0  501    0  0.00000000000E+00  0.00000000000E+00  0.12325445545E+04  0.12325445545E+04  0.25500000920E-02 0.  1.
       -2   -1    0    0    0  501  0.00000000000E+00  0.00000000000E+00 -0.27483832312E+03  0.27483832313E+03  0.25500000920E-02 0. -1.
    10030    2    1    2    0    0  0.00000000000E+00  0.00000000000E+00  0.95770623137E+03  0.15073828776E+04  0.11640454949E+04 0.  0.
        4    1    3    3  502    0  0.27368681361E+03 -0.45010778044E+03  0.79933049465E+03  0.95730472605E+03  0.12699999809E+01 0.  1.
       -4    1    3    3    0  502 -0.27368681361E+03  0.45010778044E+03  0.15837573673E+03  0.55007815157E+03  0.12699999809E+01 0. -1.
</event>
<event>
 5   0  0.3648616E-03  0.1220071E+04  0.7818609E-02  0.9095468E-01
        1   -1    0    0  501    0  0.00000000000E+00  0.00000000000E+00  0.28076585889E+03  0.28076585894E+03  0.50400001928E-02 0.  1.
       -1   -1    0    0    0  501  0.00000000000E+00  0.00000000000E+00 -0.13254568164E+04  0.13254568164E+04  0.50400001928E-02 0. -1.
    10030    2    1    2    0    0  0.00000000000E+00  0.00000000000E+00 -0.10446909575E+04  0.16062226754E+04  0.12200705251E+04 0.  0.
        2    1    3    3  502    0 -0.39169759381E+03  0.26874591224E+03 -0.10262256338E+04  0.11308361605E+04  0.25500000920E-02 0. -1.
       -2    1    3    3    0  502  0.39169759381E+03 -0.26874591224E+03 -0.18465323694E+02  0.47538651488E+03  0.25500000920E-02 0.  1.
</event>
<event>
 5   0  0.3772254E-03  0.1186275E+04  0.7818609E-02  0.9124955E-01
       -1   -1    0    0    0  501  0.00000000000E+00  0.00000000000E+00  0.86534485276E+03  0.86534485278E+03  0.50400001928E-02 0.  1.
        1   -1    0    0  501    0  0.00000000000E+00  0.00000000000E+00 -0.40655729295E+03  0.40655729299E+03  0.50400001928E-02 0. -1.
    10030    2    1    2    0    0  0.00000000000E+00  0.00000000000E+00  0.45878755981E+03  0.12719021458E+04  0.11862752814E+04 0.  0.
        3    1    3    3  502    0  0.33084851604E+03 -0.35025474712E+03  0.60030206103E+03  0.76974132222E+03  0.10100000352E+00 0.  1.
       -3    1    3    3    0  502 -0.33084851604E+03  0.35025474712E+03 -0.14151450123E+03  0.50216082354E+03  0.10100000352E+00 0. -1.
</event>
<event>
 5   0  0.3648616E-03  0.1111875E+04  0.7818609E-02  0.9193694E-01
       -1   -1    0    0    0  501  0.00000000000E+00  0.00000000000E+00  0.38566050744E+03  0.38566050748E+03  0.50400001928E-02 0.  1.
        1   -1    0    0  501    0  0.00000000000E+00  0.00000000000E+00 -0.80139557530E+03  0.80139557532E+03  0.50400001928E-02 0. -1.
    10030    2    1    2    0    0  0.00000000000E+00  0.00000000000E+00 -0.41573506786E+03  0.11870560828E+04  0.11118752165E+04 0.  0.
        2    1    3    3  502    0 -0.51049732890E+03 -0.30359920997E+02 -0.44064063560E+03  0.67505067762E+03  0.25500000920E-02 0. -1.
       -2    1    3    3    0  502  0.51049732890E+03  0.30359920997E+02  0.24905567741E+02  0.51200540517E+03  0.25500000920E-02 0.  1.
</event>
<event>
 5   0  0.6493047E-03  0.1202511E+04  0.7818609E-02  0.9110662E-01
       -2   -1    0    0    0  501  0.00000000000E+00  0.00000000000E+00  0.23147030148E+03  0.23147030150E+03  0.25500000920E-02 0. -1.
        2   -1    0    0  501    0  0.00000000000E+00  0.00000000000E+00 -0.15617906215E+04  0.15617906215E+04  0.25500000920E-02 0.  1.
    10030    2    1    2    0    0  0.00000000000E+00  0.00000000000E+00 -0.13303203200E+04  0.17932609230E+04  0.12025109497E+04 0.  0.
        3    1    3    3  502    0  0.13892789196E+03  0.44721496740E+03 -0.10280157614E+03  0.47944797474E+03  0.10100000352E+00 0. -1.
       -3    1    3    3    0  502 -0.13892789196E+03 -0.44721496740E+03 -0.12275187439E+04  0.13138129482E+04  0.10100000352E+00 0.  1.
</event>
<event>
 5   0  0.3731281E-03  0.1009004E+04  0.7818609E-02  0.9298724E-01
       -1   -1    0    0    0  501  0.00000000000E+00  0.00000000000E+00  0.44714214048E+03  0.44714214050E+03  0.50400001928E-02 0. -1.
        1   -1    0    0  501    0  0.00000000000E+00  0.00000000000E+00 -0.56921980505E+03  0.56921980507E+03  0.50400001928E-02 0.  1.
    10030    2    1    2    0    0  0.00000000000E+00  0.00000000000E+00 -0.12207766458E+03  0.10163619456E+04  0.10090037900E+04 0.  0.
        5    1    3    3  502    0  0.29117109573E+03  0.38374039069E+03  0.89930010902E+02  0.49004774389E+03  0.46999998093E+01 0. -1.
       -5    1    3    3    0  502 -0.29117109573E+03 -0.38374039069E+03 -0.21200767548E+03  0.52631420168E+03  0.46999998093E+01 0.  1.
</event>
<event>
 5   0  0.3944074E-03  0.1264915E+04  0.7818609E-02  0.9057860E-01
        1   -1    0    0  501    0  0.00000000000E+00  0.00000000000E+00  0.72301310838E+03  0.72301310840E+03  0.50400001928E-02 0. -1.
       -1   -1    0    0    0  501  0.00000000000E+00  0.00000000000E+00 -0.55324410288E+03  0.55324410290E+03  0.50400001928E-02 0.  1.
    10030    2    1    2    0    0  0.00000000000E+00  0.00000000000E+00  0.16976900551E+03  0.12762572113E+04  0.12649153941E+04 0.  0.
        4    1    3    3  502    0  0.40231005424E+03 -0.43166869035E+03  0.31454328431E+03  0.66867804553E+03  0.12699999809E+01 0. -1.
       -4    1    3    3    0  502 -0.40231005424E+03  0.43166869035E+03 -0.14477427881E+03  0.60757916577E+03  0.12699999809E+01 0.  1.
</event>
<event>
 5   0  0.3701879E-03  0.1218114E+04  0.7818609E-02  0.9097147E-01
        1   -1    0    0  501    0  0.00000000000E+00  0.00000000000E+00  0.10648725430E+04  0.10648725430E+04  0.50400001928E-02 0.  1.
       -1   -1    0    0    0  501  0.00000000000E+00  0.00000000000E+00 -0.34835219526E+03  0.34835219530E+03  0.50400001928E-02 0. -1.
    10030    2    1    2    0    0  0.00000000000E+00  0.00000000000E+00  0.71652034772E+03  0.14132247383E+04  0.12181144249E+04 0.  0.
        1    1    3    3  502    0  0.95270736547E+01 -0.20325951373E+03  0.10242703013E+04  0.10442867638E+04  0.50400001928E-02 0.  1.
       -1    1    3    3    0  502 -0.95270736547E+01  0.20325951373E+03 -0.30774995355E+03  0.36893797445E+03  0.50400001928E-02 0. -1.
</event>
<event>
 5   0  0.6349142E-03  0.1218487E+04  0.7818609E-02  0.9096827E-01
       -2   -1    0    0    0  501  0.00000000000E+00  0.00000000000E+00  0.20268379837E+03  0.20268379839E+03  0.25500000920E-02 0.  1.
        2   -1    0    0  501    0  0.00000000000E+00  0.00000000000E+00 -0.18313125003E+04  0.18313125003E+04  0.25500000920E-02 0. -1.
    10030    2    1    2    0    0  0.00000000000E+00  0.00000000000E+00 -0.16286287019E+04  0.20339962987E+04  0.12184865589E+04 0.  0.
        1    1    3    3  502    0  0.11253338575E+03  0.45630395853E+03 -0.14614709005E+04  0.15351789011E+04  0.50400001928E-02 0. -1.
       -1    1    3    3    0  502 -0.11253338575E+03 -0.45630395853E+03 -0.16715780141E+03  0.49881739753E+03  0.50400001928E-02 0.  1.
</event>
<event>
 5   0  0.3701879E-03  0.1144568E+04  0.7818609E-02  0.9162810E-01
       -1   -1    0    0    0  501  0.00000000000E+00  0.00000000000E+00  0.35605083287E+03  0.35605083291E+03  0.50400001928E-02 0. -1.
        1   -1    0    0  501    0  0.00000000000E+00  0.00000000000E+00 -0.91983728035E+03  0.91983728037E+03  0.50400001928E-02 0.  1.
    10030    2    1    2    0    0  0.00000000000E+00  0.00000000000E+00 -0.56378644748E+03  0.12758881133E+04  0.11445677434E+04 0.  0.
        1    1    3    3  502    0 -0.45579607503E+03  0.46609989027E+02 -0.66414490875E+03  0.80685253481E+03  0.50400001928E-02 0.  1.
       -1    1    3    3    0  502  0.45579607503E+03 -0.46609989027E+02  0.10035846127E+03  0.46903557847E+03  0.50400001928E-02 0. -1.
</event>
<event>
 5   0  0.6493047E-03  0.1184280E+04  0.7818609E-02  0.9126729E-01
        2   -1    0    0  501    0  0.00000000000E+00  0.00000000000E+00  0.96702836435E+03  0.96702836435E+03  0.25500000920E-02 0. -1.
       -2   -1    0    0    0  501  0.00000000000E+00  0.00000000000E+00 -0.36258466804E+03  0.36258466805E+03  0.25500000920E-02 0.  1.
    10030    2    1    2    0    0  0.00000000000E+00  0.00000000000E+00  0.60444369631E+03  0.13296130324E+04  0.11842797955E+04 0.  0.
        3    1    3    3  502    0  0.31405178123E+03  0.34058651795E+02  0.86452474648E+03  0.92043009541E+03  0.10100000352E+00 0. -1.
       -3    1    3    3    0  502 -0.31405178123E+03 -0.34058651795E+02 -0.26008105017E+03  0.40918293699E+03  0.10100000352E+00 0.  1.
</event>
<event>
 5   0  0.6493047E-03  0.1155897E+04  0.7818609E-02  0.9152361E-01
       -2   -1    0    0    0  501  0.00000000000E+00  0.00000000000E+00  0.18676706505E+03  0.18676706507E+03  0.25500000920E-02 0. -1.
        2   -1    0    0  501    0  0.00000000000E+00  0.00000000000E+00 -0.17884540734E+04  0.17884540734E+04  0.25500000920E-02 0.  1.
    10030    2    1    2    0    0  0.00000000000E+00  0.00000000000E+00 -0.16016870084E+04  0.19752211385E+04  0.11558967398E+04 0.  0.
        3    1    3    3  502    0 -0.62079375003E+02  0.24456586621E+03  0.87674629048E+02  0.26712012746E+03  0.10100000352E+00 0. -1.
       -3    1    3    3    0  502  0.62079375003E+02 -0.24456586621E+03 -0.16893616374E+04  0.17081010110E+04  0.10100000352E+00 0.  1.
</event>
<event>
 5   0  0.6658994E-03  0.1199523E+04  0.7818609E-02  0.9113274E-01
       -2   -1    0    0    0  501  0.00000000000E+00  0.00000000000E+00  0.12607257582E+04  0.12607257582E+04  0.25500000920E-02 0. -1.
        2   -1    0    0  501    0  0.00000000000E+00  0.00000000000E+00 -0.28532297952E+03  0.28532297953E+03  0.25500000920E-02 0.  1.
    10030    2    1    2    0    0  0.00000000000E+00  0.00000000000E+00  0.97540277872E+03  0.15460487378E+04  0.11995232882E+04 0.  0.
        4    1    3    3  502    0  0.32299691378E+03 -0.38242154303E+03  0.61902202578E+02  0.50438748842E+03  0.12699999809E+01 0.  1.
       -4    1    3    3    0  502 -0.32299691378E+03  0.38242154303E+03  0.91350057614E+03  0.10416612494E+04  0.12699999809E+01 0. -1.
</event>
<event>
 5   0  0.3772254E-03  0.1195335E+04  0.7818609E-02  0.9116950E-01
       -1   -1    0    0    0  501  0.00000000000E+00  0.00000000000E+00  0.65517598163E+03  0.65517598164E+03  0.50400001928E-02 0.  1.
        1   -1    0    0  501    0  0.00000000000E+00  0.00000000000E+00 -0.54520642122E+03  0.54520642125E+03  0.50400001928E-02 0. -1.
    10030    2    1    2    0    0  0.00000000000E+00  0.00000000000E+00  0.10996956040E+03  0.12003824029E+04  0.11953345176E+04 0.  0.
        3    1    3    3  502    0  0.16015308709E+03  0.40340774992E+03 -0.35762662678E+03  0.56239100133E+03  0.10100000352E+00 0. -1.
       -3    1    3    3    0  502 -0.16015308709E+03 -0.40340774992E+03  0.46759618718E+03  0.63799140156E+03  0.10100000352E+00 0.  1.
</event>
<event>
 5   0  0.6658994E-03  0.1205894E+04  0.7818609E-02  0.9107713E-01
       -2   -1    0    0    0  501  0.00000000000E+00  0.00000000000E+00  0.16116103393E+03  0.16116103395E+03  0.25500000920E-02 0. -1.
        2   -1    0    0  501    0  0.00000000000E+00  0.00000000000E+00 -0.22557893589E+04  0.22557893589E+04  0.25500000920E-02 0.  1.
    10030    2    1    2    0    0  0.00000000000E+00  0.00000000000E+00 -0.20946283250E+04  0.24169503928E+04  0.12058944322E+04 0.  0.
        4    1    3    3  502    0  0.14265829439E+03 -0.46245987525E+03 -0.17680841263E+04  0.18331240045E+04  0.12699999809E+01 0.  1.
       -4    1    3    3    0  502 -0.14265829439E+03  0.46245987525E+03 -0.32654419864E+03  0.58382638835E+03  0.12699999809E+01 0. -1.
</event>
<event>
 5   0  0.3731281E-03  0.1164856E+04  0.7818609E-02  0.9144186E-01
        1   -1    0    0  501    0  0.00000000000E+00  0.00000000000E+00  0.12452578075E+04  0.12452578075E+04  0.50400001928E-02 0.  1.
       -1   -1    0    0    0  501  0.00000000000E+00  0.00000000000E+00 -0.27241146984E+03  0.27241146989E+03  0.50400001928E-02 0. -1.
    10030    2    1    2    0    0  0.00000000000E+00  0.00000000000E+00  0.97284633769E+03  0.15176692774E+04  0.11648562310E+04 0.  0.
        5    1    3    3  502    0  0.17643136373E+03 -0.30587359882E+03 -0.11701443200E+03  0.37202305286E+03  0.46999998093E+01 0. -1.
       -5    1    3    3    0  502 -0.17643136373E+03  0.30587359882E+03  0.10898607697E+04  0.11456462246E+04  0.46999998093E+01 0.  1.
</event>
<event>
 5   0  0.6349142E-03  0.1235299E+04  0.7818609E-02  0.9082509E-01
       -2   -1    0    0    0  501  0.00000000000E+00  0.00000000000E+00  0.35007185671E+03  0.35007185672E+03  0.25500000920E-02 0. -1.
        2   -1    0    0  501    0  0.00000000000E+00  0.00000000000E+00 -0.10897494722E+04  0.10897494722E+04  0.25500000920E-02 0.  1.
    10030    2    1    2    0    0  0.00000000000E+00  0.00000000000E+00 -0.73967761550E+03  0.14398213289E+04  0.12352985406E+04 0.  0.
        1    1    3    3  502    0 -0.29850913787E+02 -0.24026855106E+03 -0.10321329332E+04  0.10601501995E+04  0.50400001928E-02 0.  1.
       -1    1    3    3    0  502  0.29850913787E+02  0.24026855106E+03  0.29245531767E+03  0.37967112946E+03  0.50400001928E-02 0. -1.
</event>
<event>
 5   0  0.3648616E-03  0.1195598E+04  0.7818609E-02  0.9116718E-01
        1   -1    0    0  501    0  0.00000000000E+00  0.00000000000E+00  0.17173812607E+04  0.17173812607E+04  0.50400001928E-02 0.  1.
       -1   -1    0    0    0  501  0.00000000000E+00  0.00000000000E+00 -0.20808638969E+03  0.20808638975E+03  0.50400001928E-02 0. -1.
    10030    2    1    2    0    0  0.00000000000E+00  0.00000000000E+00  0.15092948710E+04  0.19254676504E+04  0.11955980367E+04 0.  0.
        2    1    3    3  502    0 -0.15364322211E+03  0.25779886286E+03  0.15872700761E+04  0.16153924563E+04  0.25500000920E-02 0.  1.
       -2    1    3    3    0  502  0.15364322211E+03 -0.25779886286E+03 -0.77975205121E+02  0.31007519413E+03  0.25500000920E-02 0. -1.
</event>
<event>
 5   0  0.6640844E-03  0.1214856E+04  0.7818609E-02  0.9099951E-01
       -2   -1    0    0    0  501  0.00000000000E+00  0.00000000000E+00  0.23066445743E+03  0.23066445745E+03  0.25500000920E-02 0.  1.
        2   -1    0    0  501    0  0.00000000000E+00  0.00000000000E+00 -0.15995920611E+04  0.15995920611E+04  0.25500000920E-02 0. -1.
    10030    2    1    2    0    0  0.00000000000E+00  0.00000000000E+00 -0.13689276037E+04  0.18302565185E+04  0.12148564276E+04 0.  0.
        5    1    3    3  502    0 -0.46584798641E+03  0.13198032092E+03 -0.13191528616E+03  0.50185344900E+03  0.46999998093E+01 0.  1.
       -5    1    3    3    0  502  0.46584798641E+03 -0.13198032092E+03 -0.12370123175E+04  0.13284030696E+04  0.46999998093E+01 0. -1.
</event>
<event>
 5   0  0.3772254E-03  0.1187361E+04  0.7818609E-02  0.9123992E-01
       -1   -1    0    0    0  501  0.00000000000E+00  0.00000000000E+00  0.32717363901E+03  0.32717363905E+03  0.50400001928E-02 0. -1.
        1   -1    0    0  501    0  0.00000000000E+00  0.00000000000E+00 -0.10772768600E+04  0.10772768600E+04  0.50400001928E-02 0.  1.
    10030    2    1    2    0    0  0.00000000000E+00  0.00000000000E+00 -0.75010322094E+03  0.14044504990E+04  0.11873610917E+04 0.  0.
        3    1    3    3  502    0 -0.41374420155E+03 -0.17320623895E+03  0.84995995796E+02  0.45651834030E+03  0.10100000352E+00 0. -1.
       -3    1    3    3    0  502  0.41374420155E+03  0.17320623895E+03 -0.83509921674E+03  0.94793215871E+03  0.10100000352E+00 0.  1.
</event>
<event>
 5   0  0.3701879E-03  0.1208082E+04  0.7818609E-02  0.9105811E-01
       -1   -1    0    0    0  501  0.00000000000E+00  0.00000000000E+00  0.21533727054E+03  0.21533727060E+03  0.50400001928E-02 0. -1.
        1   -1    0    0  501    0  0.00000000000E+00  0.00000000000E+00 -0.16943916139E+04  0.16943916139E+04  0.50400001928E-02 0.  1.
    10030    2    1    2    0    0  0.00000000000E+00  0.00000000000E+00 -0.14790543433E+04  0.19097288845E+04  0.12080822247E+04 0.  0.
        1    1    3    3  502    0 -0.59939346646E+03 -0.57686190903E+02 -0.81476766139E+03  0.10131369929E+04  0.50400001928E-02 0. -1.
       -1    1    3    3    0  502  0.59939346646E+03  0.57686190903E+02 -0.66428668194E+03  0.89659189160E+03  0.50400001928E-02 0.  1.
</event>
<event>
 5   0  0.3731281E-03  0.1239799E+04  0.7818609E-02  0.9078716E-01
        1   -1    0    0  501    0  0.00000000000E+00  0.00000000000E+00  0.63983570018E+03  0.63983570020E+03  0.50400001928E-02 0.  1.
       -1   -1    0    0    0  501  0.00000000000E+00  0.00000000000E+00 -0.60058494112E+03  0.60058494114E+03  0.50400001928E-02 0. -1.
    10030    2    1    2    0    0  0.00000000000E+00  0.00000000000E+00  0.39250759062E+02  0.12404206413E+04  0.12397994779E+04 0.  0.
        5    1    3    3  502    0 -0.83893270919E+02 -0.38147639050E+03  0.50120974461E+03  0.63544914471E+03  0.46999998093E+01 0.  1.
       -5    1    3    3    0  502  0.83893270919E+02  0.38147639050E+03 -0.46195898555E+03  0.60497149664E+03  0.46999998093E+01 0. -1.
</event>
<event>
 5   0  0.3701879E-03  0.1215812E+04  0.7818609E-02  0.9099128E-01
        1   -1    0    0  501    0  0.00000000000E+00  0.00000000000E+00  0.13311578405E+04  0.13311578405E+04  0.50400001928E-02 0. -1.
       -1   -1    0    0    0  501  0.00000000000E+00  0.00000000000E+00 -0.27761539647E+03  0.27761539651E+03  0.50400001928E-02 0.  1.
    10030    2    1    2    0    0  0.00000000000E+00  0.00000000000E+00  0.10535424441E+04  0.16087732370E+04  0.12158123403E+04 0.  0.
        1    1    3    3  502    0 -0.17062389943E+03 -0.17547935143E+03 -0.20953741783E+03  0.32219783880E+03  0.50400001928E-02 0.  1.
       -1    1    3    3    0  502  0.17062389943E+03  0.17547935143E+03  0.12630798619E+04  0.12865753982E+04  0.50400001928E-02 0. -1.
</event>
<event>
 5   0  0.3648616E-03  0.1238583E+04  0.7818609E-02  0.9079740E-01
       -1   -1    0    0    0  501  0.00000000000E+00  0.00000000000E+00  0.38966929309E+03  0.38966929312E+03  0.50400001928E-02 0.  1.
        1   -1    0    0  501    0  0.00000000000E+00  0.00000000000E+00 -0.98422356710E+03  0.98422356711E+03  0.50400001928E-02 0. -1.
    10030    2    1    2    0    0  0.00000000000E+00  0.00000000000E+00 -0.59455427401E+03  0.13738928602E+04  0.12385825797E+04 0.  0.
        2    1    3    3  502    0 -0.26933637964E+03 -0.24209996352E+03  0.25996554570E+03  0.44579879172E+03  0.25500000920E-02 0.  1.
       -2    1    3    3    0  502  0.26933637964E+03  0.24209996352E+03 -0.85451981971E+03  0.92809406852E+03  0.25500000920E-02 0. -1.
</event>
<event>
 5   0  0.3731281E-03  0.1202592E+04  0.7818609E-02  0.9110591E-01
        1   -1    0    0  501    0  0.00000000000E+00  0.00000000000E+00  0.79991866329E+03  0.79991866331E+03  0.50400001928E-02 0.  1.
       -1   -1    0    0    0  501  0.00000000000E+00  0.00000000000E+00 -0.45199186062E+03  0.45199186065E+03  0.50400001928E-02 0. -1.
    10030    2    1    2    0    0  0.00000000000E+00  0.00000000000E+00  0.34792680267E+03  0.12519105240E+04  0.12025917429E+04 0.  0.
        5    1    3    3  502    0  0.27388372333E+03 -0.43874861481E+03  0.49316848666E+03  0.71466767601E+03  0.46999998093E+01 0.  1.
       -5    1    3    3    0  502 -0.27388372333E+03  0.43874861481E+03 -0.14524168399E+03  0.53724284795E+03  0.46999998093E+01 0. -1.
</event>
<event>
 5   0  0.6640844E-03  0.1406365E+04  0.7818609E-02  0.8949224E-01
        2   -1    0    0  501    0  0.00000000000E+00  0.00000000000E+00  0.17164915017E+04  0.17164915017E+04  0.25500000920E-02 0. -1.
       -2   -1    0    0    0  501  0.00000000000E+00  0.00000000000E+00 -0.28806766856E+03  0.28806766857E+03  0.25500000920E-02 0.  1.
    10030    2    1    2    0    0  0.00000000000E+00  0.00000000000E+00  0.14284238332E+04  0.20045591703E+04  0.14063651091E+04 0.  0.
        5    1    3    3  502    0 -0.58118283037E+03 -0.39181307919E+03  0.63418091696E+03  0.94525049420E+03  0.46999998093E+01 0.  1.
       -5    1    3    3    0  502  0.58118283037E+03  0.39181307919E+03  0.79424291622E+03  0.10593086761E+04  0.46999998093E+01 0. -1.
</event>
<event>
 5   0  0.3731281E-03  0.1240899E+04  0.7818609E-02  0.9077792E-01
       -1   -1    0    0    0  501  0.00000000000E+00  0.00000000000E+00  0.14647046184E+03  0.14647046193E+03  0.50400001928E-02 0. -1.
        1   -1    0    0  501    0  0.00000000000E+00  0.00000000000E+00 -0.26282253669E+04  0.26282253669E+04  0.50400001928E-02 0.  1.
    10030    2    1    2    0    0  0.00000000000E+00  0.00000000000E+00 -0.24817549050E+04  0.27746958288E+04  0.12408986799E+04 0.  0.
        5    1    3    3  502    0 -0.22718857198E+03  0.48188114875E+03 -0.52986255374E+03  0.75139903155E+03  0.46999998093E+01 0. -1.
       -5    1    3    3    0  502  0.22718857198E+03 -0.48188114875E+03 -0.19518923513E+04  0.20232967972E+04  0.46999998093E+01 0.  1.
</event>
<event>
 5   0  0.6349142E-03  0.1504447E+04  0.7818609E-02  0.8881501E-01
        2   -1    0    0  501    0  0.00000000000E+00  0.00000000000E+00  0.18696829526E+04  0.18696829526E+04  0.25500000920E-02 0.  1.
       -2   -1    0    0    0  501  0.00000000000E+00  0.00000000000E+00 -0.30263983550E+03  0.30263983551E+03  0.25500000920E-02 0. -1.
    10030    2    1    2    0    0  0.00000000000E+00  0.00000000000E+00  0.15670431171E+04  0.21723227881E+04  0.15044474616E+04 0.  0.
        1    1    3    3  502    0 -0.25578185055E+03 -0.43228920271E+03 -0.25006981392E+02  0.50291516083E+03  0.50400001928E-02 0. -1.
       -1    1    3    3    0  502  0.25578185055E+03  0.43228920271E+03  0.15920500984E+04  0.16694076272E+04  0.50400001928E-02 0.  1.
</event>
<event>
 5   0  0.3701879E-03  0.1183669E+04  0.7818609E-02  0.9127273E-01
       -1   -1    0    0    0  501  0.00000000000E+00  0.00000000000E+00  0.93236895986E+03  0.93236895987E+03  0.50400001928E-02 0.  1.
        1   -1    0    0  501    0  0.00000000000E+00  0.00000000000E+00 -0.37567513000E+03  0.37567513003E+03  0.50400001928E-02 0. -1.
    10030    2    1    2    0    0  0.00000000000E+00  0.00000000000E+00  0.55669382986E+03  0.13080440899E+04  0.11836685858E+04 0.  0.
        1    1    3    3  502    0  0.57707925691E+03 -0.12640715578E+03  0.31770675426E+03  0.67077329964E+03  0.50400001928E-02 0.  1.
       -1    1    3    3    0  502 -0.57707925691E+03  0.12640715578E+03  0.23898707560E+03  0.63727079026E+03  0.50400001928E-02 0. -1.
</event>
<event>
 5   0  0.6658994E-03  0.1203203E+04  0.7818609E-02  0.9110058E-01
       -2   -1    0    0    0  501  0.00000000000E+00  0.00000000000E+00  0.33233090850E+03  0.33233090851E+03  0.25500000920E-02 0. -1.
        2   -1    0    0  501    0  0.00000000000E+00  0.00000000000E+00 -0.10890477732E+04  0.10890477732E+04  0.25500000920E-02 0.  1.
    10030    2    1    2    0    0  0.00000000000E+00  0.00000000000E+00 -0.75671686474E+03  0.14213786817E+04  0.12032027857E+04 0.  0.
        4    1    3    3  502    0 -0.84956514759E+02  0.39203223413E+03  0.15128794028E+03  0.42871498198E+03  0.12699999809E+01 0. -1.
       -4    1    3    3    0  502  0.84956514759E+02 -0.39203223413E+03 -0.90800480501E+03  0.99266369976E+03  0.12699999809E+01 0.  1.
</event>
<event>
 5   0  0.6493047E-03  0.1196331E+04  0.7818609E-02  0.9116074E-01
       -2   -1    0    0    0  501  0.00000000000E+00  0.00000000000E+00  0.14057417150E+03  0.14057417152E+03  0.25500000920E-02 0.  1.
        2   -1    0    0  501    0  0.00000000000E+00  0.00000000000E+00 -0.25452891910E+04  0.25452891910E+04  0.25500000920E-02 0. -1.
    10030    2    1    2    0    0  0.00000000000E+00  0.00000000000E+00 -0.24047150195E+04  0.26858633626E+04  0.11963309229E+04 0.  0.
        3    1    3    3  502    0  0.10347002065E+03 -0.91069451607E+02  0.10443221059E+03  0.17293289739E+03  0.10100000352E+00 0.  1.
       -3    1    3    3    0  502 -0.10347002065E+03  0.91069451607E+02 -0.25091472301E+04  0.25129304652E+04  0.10100000352E+00 0. -1.
</event>
<event>
 5   0  0.3772254E-03  0.1190471E+04  0.7818609E-02  0.9121239E-01
       -1   -1    0    0    0  501  0.00000000000E+00  0.00000000000E+00  0.28443480084E+03  0.28443480089E+03  0.50400001928E-02 0.  1.
        1   -1    0    0  501    0  0.00000000000E+00  0.00000000000E+00 -0.12456459129E+04  0.12456459129E+04  0.50400001928E-02 0. -1.
    10030    2    1    2    0    0  0.00000000000E+00  0.00000000000E+00 -0.96121111208E+03  0.15300807138E+04  0.11904705745E+04 0.  0.
        3    1    3    3  502    0 -0.37850840535E+03 -0.11245364625E+03 -0.10530801569E+04  0.11246742917E+04  0.10100000352E+00 0. -1.
       -3    1    3    3    0  502  0.37850840535E+03  0.11245364625E+03  0.91869044798E+02  0.40540642209E+03  0.10100000352E+00 0.  1.
</event>
<event>
 5   0  0.3731281E-03  0.1350399E+04  0.7818609E-02  0.8990526E-01
       -1   -1    0    0    0  501  0.00000000000E+00  0.00000000000E+00  0.32408557477E+03  0.32408557481E+03  0.50400001928E-02 0. -1.
        1   -1    0    0  501    0  0.00000000000E+00  0.00000000000E+00 -0.14067103380E+04  0.14067103381E+04  0.50400001928E-02 0.  1.
    10030    2    1    2    0    0  0.00000000000E+00  0.00000000000E+00 -0.10826247633E+04  0.17307959129E+04  0.13503992424E+04 0.  0.
        5    1    3    3  502    0 -0.53161006255E+02 -0.25382388577E+03 -0.13403111809E+04  0.13651772080E+04  0.46999998093E+01 0.  1.
       -5    1    3    3    0  502  0.53161006255E+02  0.25382388577E+03  0.25768641759E+03  0.36561870491E+03  0.46999998093E+01 0. -1.
</event>
<event>
 5   0  0.2537625E-03  0.1165930E+04  0.7818609E-02  0.9143212E-01
       -3   -1    0    0    0  501  0.00000000000E+00  0.00000000000E+00  0.44724690063E+03  0.44724691204E+03  0.10100000352E+00 0. -1.
        3   -1    0    0  501    0  0.00000000000E+00  0.00000000000E+00 -0.75986727262E+03  0.75986727934E+03  0.10100000352E+00 0.  1.
    10030    2    1    2    0    0  0.00000000000E+00  0.00000000000E+00 -0.31262037199E+03  0.12071141914E+04  0.11659301755E+04 0.  0.
        4    1    3    3  502    0 -0.46404465264E+03  0.34501350045E+03 -0.23291656223E+03  0.62339673804E+03  0.12699999809E+01 0.  1.
       -4    1    3    3    0  502  0.46404465264E+03 -0.34501350045E+03 -0.79703809759E+02  0.58371745334E+03  0.12699999809E+01 0. -1.
</event>
<event>
 5   0  0.3648616E-03  0.1167460E+04  0.7818609E-02  0.9141825E-01
       -1   -1    0    0    0  501  0.00000000000E+00  0.00000000000E+00  0.20139974992E+03  0.20139974999E+03  0.50400001928E-02 0.  1.
        1   -1    0    0  501    0  0.00000000000E+00  0.00000000000E+00 -0.16918630681E+04  0.16918630681E+04  0.50400001928E-02 0. -1.
    10030    2    1    2    0    0  0.00000000000E+00  0.00000000000E+00 -0.14904633182E+04  0.18932628181E+04  0.11674601473E+04 0.  0.
        2    1    3    3  502    0 -0.91249690470E+02 -0.37441882873E+03 -0.14562381873E+04  0.15063683558E+04  0.25500000920E-02 0. -1.
       -2    1    3    3    0  502  0.91249690470E+02  0.37441882873E+03 -0.34225130854E+02  0.38689446223E+03  0.25500000920E-02 0.  1.
</event>
<event>
 5   0  0.6493047E-03  0.1185690E+04  0.7818609E-02  0.9125475E-01
        2   -1    0    0  501    0  0.00000000000E+00  0.00000000000E+00  0.76910629444E+03  0.76910629445E+03  0.25500000920E-02 0.  1.
       -2   -1    0    0    0  501  0.00000000000E+00  0.00000000000E+00 -0.45697853682E+03  0.45697853683E+03  0.25500000920E-02 0. -1.
    10030    2    1    2    0    0  0.00000000000E+00  0.00000000000E+00  0.31212775762E+03  0.12260848313E+04  0.11856897893E+04 0.  0.
        3    1    3    3  502    0  0.31506428449E+03 -0.50218757917E+03  0.15883681703E+03  0.61374833008E+03  0.10100000352E+00 0. -1.
       -3    1    3    3    0  502 -0.31506428449E+03  0.50218757917E+03  0.15329094059E+03  0.61233650120E+03  0.10100000352E+00 0.  1.
</event>
<event>
 5   0  0.6585930E-03  0.1164856E+04  0.7818609E-02  0.9144187E-01
        2   -1    0    0  501    0  0.00000000000E+00  0.00000000000E+00  0.73355899862E+03  0.73355899862E+03  0.25500000920E-02 0. -1.
       -2   -1    0    0    0  501  0.00000000000E+00  0.00000000000E+00 -0.46243340590E+03  0.46243340591E+03  0.25500000920E-02 0.  1.
    10030    2    1    2    0    0  0.00000000000E+00  0.00000000000E+00  0.27112559272E+03  0.11959924045E+04  0.11648556755E+04 0.  0.
        2    1    3    3  502    0 -0.53629371963E+03 -0.22641715665E+03  0.15467497460E+03  0.60232883902E+03  0.25500000920E-02 0.  1.
       -2    1    3    3    0  502  0.53629371963E+03  0.22641715665E+03  0.11645061812E+03  0.59366356551E+03  0.25500000920E-02 0. -1.
</event>
<event>
 5   0  0.6493047E-03  0.1237418E+04  0.7818609E-02  0.9080721E-01
        2   -1    0    0  501    0  0.00000000000E+00  0.00000000000E+00  0.14048781869E+04  0.14048781869E+04  0.25500000920E-02 0.  1.
       -2   -1    0    0    0  501  0.00000000000E+00  0.00000000000E+00 -0.27247961916E+03  0.27247961917E+03  0.25500000920E-02 0. -1.
    10030    2    1    2    0    0  0.00000000000E+00  0.00000000000E+00  0.11323985678E+04  0.16773578061E+04  0.12374177522E+04 0.  0.
        3    1    3    3  502    0 -0.43618073326E+03  0.10583301833E+03  0.11434491558E+04  0.12283852173E+04  0.10100000352E+00 0.  1.
       -3    1    3    3    0  502  0.43618073326E+03 -0.10583301833E+03 -0.11050588052E+02  0.44897258884E+03  0.10100000352E+00 0. -1.
</event>
<event>
 5   0  0.6585930E-03  0.1223924E+04  0.7818609E-02  0.9092170E-01
        2   -1    0    0  501    0  0.00000000000E+00  0.00000000000E+00  0.84553472334E+03  0.84553472335E+03  0.25500000920E-02 0. -1.
       -2   -1    0    0    0  501  0.00000000000E+00  0.00000000000E+00 -0.44291191614E+03  0.44291191615E+03  0.25500000920E-02 0.  1.
    10030    2    1    2    0    0  0.00000000000E+00  0.00000000000E+00  0.40262280720E+03  0.12884466395E+04  0.12239238612E+04 0.  0.
        2    1    3    3  502    0  0.49530424924E+03 -0.13621512351E+03 -0.14881275711E+03  0.53481407599E+03  0.25500000920E-02 0.  1.
       -2    1    3    3    0  502 -0.49530424924E+03  0.13621512351E+03  0.55143556431E+03  0.75363256351E+03  0.25500000920E-02 0. -1.
</event>
<event>
 5   0  0.6493047E-03  0.1174976E+04  0.7818609E-02  0.9135046E-01
       -2   -1    0    0    0  501  0.00000000000E+00  0.00000000000E+00  0.21331632629E+03  0.21331632630E+03  0.25500000920E-02 0. -1.
        2   -1    0    0  501    0  0.00000000000E+00  0.00000000000E+00 -0.16179832321E+04  0.16179832321E+04  0.25500000920E-02 0.  1.
    10030    2    1    2    0    0  0.00000000000E+00  0.00000000000E+00 -0.14046669058E+04  0.18312995584E+04  0.11749761514E+04 0.  0.
        3    1    3    3  502    0 -0.36496046032E+03  0.41184244843E+03 -0.10230077586E+04  0.11616175034E+04  0.10100000352E+00 0.  1.
       -3    1    3    3    0  502  0.36496046032E+03 -0.41184244843E+03 -0.38165914727E+03  0.66968205502E+03  0.10100000352E+00 0. -1.
</event>
<event>
 5   0  0.6640844E-03  0.1236722E+04  0.7818609E-02  0.9081308E-01
        2   -1    0    0  501    0  0.00000000000E+00  0.00000000000E+00  0.89710618387E+03  0.89710618387E+03  0.25500000920E-02 0. -1.
       -2   -1    0    0    0  501  0.00000000000E+00  0.00000000000E+00 -0.42622624828E+03  0.42622624829E+03  0.25500000920E-02 0.  1.
    10030    2    1    2    0    0  0.00000000000E+00  0.00000000000E+00  0.47087993559E+03  0.13233324322E+04  0.12367218007E+04 0.  0.
        5    1    3    3  502    0  0.48544653543E+01 -0.30036098134E+03  0.81376040175E+03  0.86744934515E+03  0.46999998093E+01 0. -1.
       -5    1    3    3    0  502 -0.48544653543E+01  0.30036098134E+03 -0.34288046617E+03  0.45588308701E+03  0.46999998093E+01 0.  1.
</event>
<event>
 5   0  0.6658994E-03  0.1176257E+04  0.7818609E-02  0.9133896E-01
       -2   -1    0    0    0  501  0.00000000000E+00  0.00000000000E+00  0.38624674223E+03  0.38624674224E+03  0.25500000920E-02 0.  1.
        2   -1    0    0  501    0  0.00000000000E+00  0.00000000000E+00 -0.89552932316E+03  0.89552932317E+03  0.25500000920E-02 0. -1.
    10030    2    1    2    0    0  0.00000000000E+00  0.00000000000E+00 -0.50928258093E+03  0.12817760654E+04  0.11762572570E+04 0.  0.
        4    1    3    3  502    0  0.29107786102E+03 -0.32725459045E+03 -0.68237294885E+03  0.81083681612E+03  0.12699999809E+01 0. -1.
       -4    1    3    3    0  502 -0.29107786102E+03  0.32725459045E+03  0.17309036792E+03  0.47093924928E+03  0.12699999809E+01 0.  1.
</event>
<event>
 5   0  0.6658994E-03  0.1206677E+04  0.7818609E-02  0.9107032E-01
       -2   -1    0    0    0  501  0.00000000000E+00  0.00000000000E+00  0.19565555115E+04  0.19565555115E+04  0.25500000920E-02 0. -1.
        2   -1    0    0  501    0  0.00000000000E+00  0.00000000000E+00 -0.18604998618E+03  0.18604998620E+03  0.25500000920E-02 0.  1.
    10030    2    1    2    0    0  0.00000000000E+00  0.00000000000E+00  0.17705055253E+04  0.21426054977E+04  0.12066766359E+04 0.  0.
        4    1    3    3  502    0  0.49569247717E+03 -0.33214631218E+03  0.72660178099E+03  0.94020421487E+03  0.12699999809E+01 0. -1.
       -4    1    3    3    0  502 -0.49569247717E+03  0.33214631218E+03  0.10439037443E+04  0.12024012828E+04  0.12699999809E+01 0.  1.
</event>
<event>
 5   0  0.3701879E-03  0.1166012E+04  0.7818609E-02  0.9143137E-01
        1   -1    0    0  501    0  0.00000000000E+00  0.00000000000E+00  0.62889319577E+03  0.62889319579E+03  0.50400001928E-02 0.  1.
       -1   -1    0    0    0  501  0.00000000000E+00  0.00000000000E+00 -0.54046731891E+03  0.54046731894E+03  0.50400001928E-02 0. -1.
    10030    2    1    2    0    0  0.00000000000E+00  0.00000000000E+00  0.88425876858E+02  0.11693605147E+04  0.11660123832E+04 0.  0.
        1    1    3    3  502    0 -0.14468733522E+03  0.48085738841E+03  0.34126942803E+03  0.60714337309E+03  0.50400001928E-02 0.  1.
       -1    1    3    3    0  502  0.14468733522E+03 -0.48085738841E+03 -0.25284355117E+03  0.56221714164E+03  0.50400001928E-02 0. -1.
</event>
<event>
 5   0  0.6585930E-03  0.1186288E+04  0.7818609E-02  0.9124944E-01
        2   -1    0    0  501    0  0.00000000000E+00  0.00000000000E+00  0.49262032675E+03  0.49262032676E+03  0.25500000920E-02 0. -1.
       -2   -1    0    0    0  501  0.00000000000E+00  0.00000000000E+00 -0.71418093048E+03  0.71418093049E+03  0.25500000920E-02 0.  1.
    10030    2    1    2    0    0  0.00000000000E+00  0.00000000000E+00 -0.22156060373E+03  0.12068012572E+04  0.11862884023E+04 0.  0.
        2    1    3    3  502    0  0.11284403519E+03  0.45594874511E+03  0.25769419653E+03  0.53575118607E+03  0.25500000920E-02 0. -1.
       -2    1    3    3    0  502 -0.11284403519E+03 -0.45594874511E+03 -0.47925480026E+03  0.67105007117E+03  0.25500000920E-02 0.  1.
</event>
<event>
 5   0  0.3731281E-03  0.1144082E+04  0.7818609E-02  0.9163261E-01
        1   -1    0    0  501    0  0.00000000000E+00  0.00000000000E+00  0.17197471599E+04  0.17197471599E+04  0.50400001928E-02 0. -1.
       -1   -1    0    0    0  501  0.00000000000E+00  0.00000000000E+00 -0.19027839984E+03  0.19027839990E+03  0.50400001928E-02 0.  1.
    10030    2    1    2    0    0  0.00000000000E+00  0.00000000000E+00  0.15294687601E+04  0.19100255598E+04  0.11440817065E+04 0.  0.
        5    1    3    3  502    0  0.27857781837E+03 -0.42313228539E+03  0.32126061260E+03  0.59989749377E+03  0.46999998093E+01 0.  1.
       -5    1    3    3    0  502 -0.27857781837E+03  0.42313228539E+03  0.12082081475E+04  0.13101280660E+04  0.46999998093E+01 0. -1.
</event>
<event>
 5   0  0.3944074E-03  0.1195738E+04  0.7818609E-02  0.9116596E-01
       -1   -1    0    0    0  501  0.00000000000E+00  0.00000000000E+00  0.26604471938E+03  0.26604471943E+03  0.50400001928E-02 0.  1.
        1   -1    0    0  501    0  0.00000000000E+00  0.00000000000E+00 -0.13435600938E+04  0.13435600938E+04  0.50400001928E-02 0. -1.
    10030    2    1    2    0    0  0.00000000000E+00  0.00000000000E+00 -0.10775153744E+04  0.16096048132E+04  0.11957375434E+04 0.  0.
        4    1    3    3  502    0  0.61965153435E+02 -0.57476126017E+03 -0.74403647711E+03  0.94222188396E+03  0.12699999809E+01 0. -1.
       -4    1    3    3    0  502 -0.61965153435E+02  0.57476126017E+03 -0.33347889728E+03  0.66738292926E+03  0.12699999809E+01 0.  1.
</event>
<event>
 5   0  0.3731281E-03  0.1218897E+04  0.7818609E-02  0.9096475E-01
        1   -1    0    0  501    0  0.00000000000E+00  0.00000000000E+00  0.10387065037E+04  0.10387065038E+04  0.50400001928E-02 0.  1.
       -1   -1    0    0    0  501  0.00000000000E+00  0.00000000000E+00 -0.35758660984E+03  0.35758660988E+03  0.50400001928E-02 0. -1.
    10030    2    1    2    0    0  0.00000000000E+00  0.00000000000E+00  0.68111989390E+03  0.13962931136E+04  0.12188971037E+04 0.  0.
        5    1    3    3  502    0  0.36365174231E+03  0.31302737042E+03 -0.89858721352E+02  0.48818582950E+03  0.46999998093E+01 0. -1.
       -5    1    3    3    0  502 -0.36365174231E+03 -0.31302737042E+03  0.77097861525E+03  0.90810728413E+03  0.46999998093E+01 0.  1.
</event>
<event>
 5   0  0.6349142E-03  0.1209445E+04  0.7818609E-02  0.9104629E-01
        2   -1    0    0  501    0  0.00000000000E+00  0.00000000000E+00  0.52047014208E+03  0.52047014209E+03  0.25500000920E-02 0. -1.
       -2   -1    0    0    0  501  0.00000000000E+00  0.00000000000E+00 -0.70261365070E+03  0.70261365071E+03  0.25500000920E-02 0.  1.
    10030    2    1    2    0    0  0.00000000000E+00  0.00000000000E+00 -0.18214350862E+03  0.12230837928E+04  0.12094452061E+04 0.  0.
        1    1    3    3  502    0  0.23553735405E+03  0.52040760190E+03 -0.29177263278E+03  0.64143057811E+03  0.50400001928E-02 0.  1.
       -1    1    3    3    0  502 -0.23553735405E+03 -0.52040760190E+03  0.10962912415E+03  0.58165321469E+03  0.50400001928E-02 0. -1.
</event>
<event>
 5   0  0.6493047E-03  0.1204520E+04  0.7818609E-02  0.9108909E-01
       -2   -1    0    0    0  501  0.00000000000E+00  0.00000000000E+00  0.22251214754E+03  0.22251214755E+03  0.25500000920E-02 0.  1.
        2   -1    0    0  501    0  0.00000000000E+00  0.00000000000E+00 -0.16301008681E+04  0.16301008681E+04  0.25500000920E-02 0. -1.
    10030    2    1    2    0    0  0.00000000000E+00  0.00000000000E+00 -0.14075887206E+04  0.18526130156E+04  0.12045202279E+04 0.  0.
        3    1    3    3  502    0 -0.25685614723E+03  0.49337856953E+03 -0.34864206106E+03  0.65646689953E+03  0.10100000352E+00 0.  1.
       -3    1    3    3    0  502  0.25685614723E+03 -0.49337856953E+03 -0.10589466595E+04  0.11961461161E+04  0.10100000352E+00 0. -1.
</event>
<event>
 5   0  0.6640844E-03  0.1227400E+04  0.7818609E-02  0.9089205E-01
        2   -1    0    0  501    0  0.00000000000E+00  0.00000000000E+00  0.85999345955E+03  0.85999345955E+03  0.25500000920E-02 0. -1.
       -2   -1    0    0    0  501  0.00000000000E+00  0.00000000000E+00 -0.43794284853E+03  0.43794284854E+03  0.25500000920E-02 0.  1.
    10030    2    1    2    0    0  0.00000000000E+00  0.00000000000E+00  0.42205061102E+03  0.12979363081E+04  0.12274004813E+04 0.  0.
        5    1    3    3  502    0 -0.52035186092E+03 -0.31406011183E+03  0.12125830704E+03  0.61977857338E+03  0.46999998093E+01 0. -1.
       -5    1    3    3    0  502  0.52035186092E+03  0.31406011183E+03  0.30079230398E+03  0.67815773470E+03  0.46999998093E+01 0.  1.
</event>
<event>
 5   0  0.3731281E-03  0.1212156E+04  0.7818609E-02  0.9102282E-01
       -1   -1    0    0    0  501  0.00000000000E+00  0.00000000000E+00  0.48702369450E+03  0.48702369452E+03  0.50400001928E-02 0.  1.
        1   -1    0    0  501    0  0.00000000000E+00  0.00000000000E+00 -0.75423566173E+03  0.75423566174E+03  0.50400001928E-02 0. -1.
    10030    2    1    2    0    0  0.00000000000E+00  0.00000000000E+00 -0.26721196723E+03  0.12412593563E+04  0.12121561591E+04 0.  0.
        5    1    3    3  502    0 -0.13703644374E+02 -0.16867166197E+03  0.46232055962E+03  0.49234165908E+03  0.46999998093E+01 0.  1.
       -5    1    3    3    0  502  0.13703644374E+02  0.16867166197E+03 -0.72953252685E+03  0.74891769718E+03  0.46999998093E+01 0. -1.
</event>
<event>
 5   0  0.6493047E-03  0.1196573E+04  0.7818609E-02  0.9115861E-01
       -2   -1    0    0    0  501  0.00000000000E+00  0.00000000000E+00  0.34233830863E+03  0.34233830864E+03  0.25500000920E-02 0.  1.
        2   -1    0    0  501    0  0.00000000000E+00  0.00000000000E+00 -0.10455941588E+04  0.10455941588E+04  0.25500000920E-02 0. -1.
    10030    2    1    2    0    0  0.00000000000E+00  0.00000000000E+00 -0.70325585012E+03  0.13879324674E+04  0.11965733339E+04 0.  0.
        3    1    3    3  502    0 -0.15819127307E+03  0.19370005405E+03  0.27880120397E+03  0.37453212326E+03  0.10100000352E+00 0.  1.
       -3    1    3    3    0  502  0.15819127307E+03 -0.19370005405E+03 -0.98205705409E+03  0.10134003441E+04  0.10100000352E+00 0. -1.
</event>
<event>
 5   0  0.6658994E-03  0.1158048E+04  0.7818609E-02  0.9150391E-01
       -2   -1    0    0    0  501  0.00000000000E+00  0.00000000000E+00  0.39569348714E+03  0.39569348715E+03  0.25500000920E-02 0. -1.
        2   -1    0    0  501    0  0.00000000000E+00  0.00000000000E+00 -0.84729413319E+03  0.84729413319E+03  0.25500000920E-02 0.  1.
    10030    2    1    2    0    0  0.00000000000E+00  0.00000000000E+00 -0.45160064605E+03  0.12429876203E+04  0.11580479614E+04 0.  0.
        4    1    3    3  502    0  0.51558944853E+03  0.22536601143E+03 -0.79238933830E+02  0.56824531681E+03  0.12699999809E+01 0. -1.
       -4    1    3    3    0  502 -0.51558944853E+03 -0.22536601143E+03 -0.37236171222E+03  0.67474230353E+03  0.12699999809E+01 0.  1.
</event>
<event>
 5   0  0.6640844E-03  0.1131974E+04  0.7818609E-02  0.9174576E-01
        2   -1    0    0  501    0  0.00000000000E+00  0.00000000000E+00  0.11053113352E+04  0.11053113352E+04  0.25500000920E-02 0. -1.
       -2   -1    0    0    0  501  0.00000000000E+00  0.00000000000E+00 -0.28981998386E+03  0.28981998388E+03  0.25500000920E-02 0.  1.
    10030    2    1    2    0    0  0.00000000000E+00  0.00000000000E+00  0.81549135131E+03  0.13951313191E+04  0.11319740515E+04 0.  0.
        5    1    3    3  502    0 -0.18345337766E+03 -0.45176689048E+03  0.53592000459E+02  0.49055341974E+03  0.46999998093E+01 0.  1.
       -5    1    3    3    0  502  0.18345337766E+03  0.45176689048E+03  0.76189935086E+03  0.90457789932E+03  0.46999998093E+01 0. -1.
</event>
<event>
 5   0  0.3731281E-03  0.1261883E+04  0.7818609E-02  0.9060350E-01
        1   -1    0    0  501    0  0.00000000000E+00  0.00000000000E+00  0.16748724106E+04  0.16748724106E+04  0.50400001928E-02 0. -1.
       -1   -1    0    0    0  501  0.00000000000E+00  0.00000000000E+00 -0.23768219346E+03  0.23768219352E+03  0.50400001928E-02 0.  1.
    10030    2    1    2    0    0  0.00000000000E+00  0.00000000000E+00  0.14371902171E+04  0.19125546041E+04  0.12618832725E+04 0.  0.
        5    1    3    3  502    0 -0.35813612218E+03  0.32265208418E+03  0.10163776278E+03  0.49266436268E+03  0.46999998093E+01 0.  1.
       -5    1    3    3    0  502  0.35813612218E+03 -0.32265208418E+03  0.13355524543E+04  0.14198902414E+04  0.46999998093E+01 0. -1.
</event>
<event>
 5   0  0.6493047E-03  0.1220626E+04  0.7818609E-02  0.9094991E-01
       -2   -1    0    0    0  501  0.00000000000E+00  0.00000000000E+00  0.35604232260E+03  0.35604232261E+03  0.25500000920E-02 0. -1.
        2   -1    0    0  501    0  0.00000000000E+00  0.00000000000E+00 -0.10461739036E+04  0.10461739036E+04  0.25500000920E-02 0.  1.
    10030    2    1    2    0    0  0.00000000000E+00  0.00000000000E+00 -0.69013158102E+03  0.14022162262E+04  0.12206263744E+04 0.  0.
        3    1    3    3  502    0  0.91807307535E+02  0.14407027064E+03  0.32801541721E+03  0.36983638102E+03  0.10100000352E+00 0. -1.
       -3    1    3    3    0  502 -0.91807307535E+02 -0.14407027064E+03 -0.10181469982E+04  0.10323798452E+04  0.10100000352E+00 0.  1.
</event>
<event>
 5   0  0.6349142E-03  0.1216382E+04  0.7818609E-02  0.9098637E-01
        2   -1    0    0  501    0  0.00000000000E+00  0.00000000000E+00  0.70300740566E+03  0.70300740567E+03  0.25500000920E-02 0. -1.
       -2   -1    0    0    0  501  0.00000000000E+00  0.00000000000E+00 -0.52616268454E+03  0.52616268455E+03  0.25500000920E-02 0.  1.
    10030    2    1    2    0    0  0.00000000000E+00  0.00000000000E+00  0.17684472112E+03  0.12291700902E+04  0.12163819529E+04 0.  0.
        1    1    3    3  502    0  0.94573837765E+02  0.31059303107E+03 -0.43126449962E+03  0.53981599680E+03  0.50400001928E-02 0.  1.
       -1    1    3    3    0  502 -0.94573837765E+02 -0.31059303107E+03  0.60810922074E+03  0.68935409342E+03  0.50400001928E-02 0. -1.
</event>
<event>
 5   0  0.6658994E-03  0.1175298E+04  0.7818609E-02  0.9134757E-01
        2   -1    0    0  501    0  0.00000000000E+00  0.00000000000E+00  0.98768851448E+03  0.98768851449E+03  0.25500000920E-02 0.  1.
       -2   -1    0    0    0  501  0.00000000000E+00  0.00000000000E+00 -0.34963587067E+03  0.34963587068E+03  0.25500000920E-02 0. -1.
    10030    2    1    2    0    0  0.00000000000E+00  0.00000000000E+00  0.63805264382E+03  0.13373243852E+04  0.11752979771E+04 0.  0.
        4    1    3    3  502    0  0.27304900496E+02  0.26382912070E+03 -0.27764894009E+03  0.38398165236E+03  0.12699999809E+01 0. -1.
       -4    1    3    3    0  502 -0.27304900496E+02 -0.26382912070E+03  0.91570158390E+03  0.95334273280E+03  0.12699999809E+01 0.  1.
</event>
<event>
 5   0  0.6349142E-03  0.9847449E+03  0.7818609E-02  0.9325436E-01
       -2   -1    0    0    0  501  0.00000000000E+00  0.00000000000E+00  0.12237206636E+03  0.12237206639E+03  0.25500000920E-02 0.  1.
        2   -1    0    0  501    0  0.00000000000E+00  0.00000000000E+00 -0.19810946105E+04  0.19810946105E+04  0.25500000920E-02 0. -1.
    10030    2    1    2    0    0  0.00000000000E+00  0.00000000000E+00 -0.18587225441E+04  0.21034666769E+04  0.98474492368E+03 0.  0.
        1    1    3    3  502    0 -0.45936697296E+03  0.12367458219E+03 -0.12005408581E+04  0.12913604339E+04  0.50400001928E-02 0. -1.
       -1    1    3    3    0  502  0.45936697296E+03 -0.12367458219E+03 -0.65818168601E+03  0.81210624302E+03  0.50400001928E-02 0.  1.
</event>
<event>
 5   0  0.6493047E-03  0.1175373E+04  0.7818609E-02  0.9134690E-01
       -2   -1    0    0    0  501  0.00000000000E+00  0.00000000000E+00  0.73486315598E+03  0.73486315599E+03  0.25500000920E-02 0. -1.
        2   -1    0    0  501    0  0.00000000000E+00  0.00000000000E+00 -0.46998594375E+03  0.46998594376E+03  0.25500000920E-02 0.  1.
    10030    2    1    2    0    0  0.00000000000E+00  0.00000000000E+00  0.26487721223E+03  0.12048490997E+04  0.11753728836E+04 0.  0.
        3    1    3    3  502    0  0.14764628105E+03 -0.60504362170E+02  0.71223350252E+03  0.72988819313E+03  0.10100000352E+00 0. -1.
       -3    1    3    3    0  502 -0.14764628105E+03  0.60504362170E+02 -0.44735629029E+03  0.47496090661E+03  0.10100000352E+00 0.  1.
</event>
<event>
 5   0  0.6585930E-03  0.1194376E+04  0.7818609E-02  0.9117794E-01
       -2   -1    0    0    0  501  0.00000000000E+00  0.00000000000E+00  0.47840254179E+03  0.47840254180E+03  0.25500000920E-02 0.  1.
        2   -1    0    0  501    0  0.00000000000E+00  0.00000000000E+00 -0.74546734843E+03  0.74546734843E+03  0.25500000920E-02 0. -1.
    10030    2    1    2    0    0  0.00000000000E+00  0.00000000000E+00 -0.26706480664E+03  0.12238698902E+04  0.11943759447E+04 0.  0.
        2    1    3    3  502    0 -0.19431765575E+03 -0.55698128646E+03 -0.38252556098E+02  0.59114360595E+03  0.25500000920E-02 0.  1.
       -2    1    3    3    0  502  0.19431765575E+03  0.55698128646E+03 -0.22881225054E+03  0.63272628427E+03  0.25500000920E-02 0. -1.
</event>
<event>
 5   0  0.6349142E-03  0.1279968E+04  0.7818609E-02  0.9045604E-01
       -2   -1    0    0    0  501  0.00000000000E+00  0.00000000000E+00  0.27131135193E+03  0.27131135194E+03  0.25500000920E-02 0.  1.
        2   -1    0    0  501    0  0.00000000000E+00  0.00000000000E+00 -0.15096284207E+04  0.15096284207E+04  0.25500000920E-02 0. -1.
    10030    2    1    2    0    0  0.00000000000E+00  0.00000000000E+00 -0.12383170688E+04  0.17809397727E+04  0.12799676992E+04 0.  0.
        1    1    3    3  502    0 -0.50625662494E+03  0.17007570834E+02 -0.74921804860E+02  0.51205302912E+03  0.50400001928E-02 0.  1.
       -1    1    3    3    0  502  0.50625662494E+03 -0.17007570834E+02 -0.11633952639E+04  0.12688867435E+04  0.50400001928E-02 0. -1.
</event>
<event>
 5   0  0.6585930E-03  0.1170645E+04  0.7818609E-02  0.9138946E-01
        2   -1    0    0  501    0  0.00000000000E+00  0.00000000000E+00  0.19037759989E+04  0.19037759989E+04  0.25500000920E-02 0. -1.
       -2   -1    0    0    0  501  0.00000000000E+00  0.00000000000E+00 -0.17995938880E+03  0.17995938882E+03  0.25500000920E-02 0.  1.
    10030    2    1    2    0    0  0.00000000000E+00  0.00000000000E+00  0.17238166101E+04  0.20837353877E+04  0.11706448910E+04 0.  0.
        2    1    3    3  502    0 -0.51843189991E+03 -0.51248283353E+02  0.13368831804E+04  0.14348012613E+04  0.25500000920E-02 0. -1.
       -2    1    3    3    0  502  0.51843189991E+03  0.51248283353E+02  0.38693342965E+03  0.64893412638E+03  0.25500000920E-02 0.  1.
</event>
<event>
 5   0  0.3701879E-03  0.1196217E+04  0.7818609E-02  0.9116174E-01
        1   -1    0    0  501    0  0.00000000000E+00  0.00000000000E+00  0.63414158122E+03  0.63414158124E+03  0.50400001928E-02 0.  1.
       -1   -1    0    0    0  501  0.00000000000E+00  0.00000000000E+00 -0.56412310912E+03  0.56412310915E+03  0.50400001928E-02 0. -1.
    10030    2    1    2    0    0  0.00000000000E+00  0.00000000000E+00  0.70018472100E+02  0.11982646904E+04  0.11962172385E+04 0.  0.
        1    1    3    3  502    0  0.27848934076E+03  0.30818524884E+03  0.46609389043E+03  0.62432201246E+03  0.50400001928E-02 0.  1.
       -1    1    3    3    0  502 -0.27848934076E+03 -0.30818524884E+03 -0.39607541833E+03  0.57394267793E+03  0.50400001928E-02 0. -1.
</event>
<event>
 5   0  0.3648616E-03  0.1193360E+04  0.7818609E-02  0.9118689E-01
        1   -1    0    0  501    0  0.00000000000E+00  0.00000000000E+00  0.27317914938E+03  0.27317914942E+03  0.50400001928E-02 0.  1.
       -1   -1    0    0    0  501  0.00000000000E+00  0.00000000000E+00 -0.13032721334E+04  0.13032721335E+04  0.50400001928E-02 0. -1.
    10030    2    1    2    0    0  0.00000000000E+00  0.00000000000E+00 -0.10300929841E+04  0.15764512829E+04  0.11933595818E+04 0.  0.
        2    1    3    3  502    0 -0.23011930288E+03  0.39483734874E+03 -0.82579767231E+01  0.45707725792E+03  0.25500000920E-02 0.  1.
       -2    1    3    3    0  502  0.23011930288E+03 -0.39483734874E+03 -0.10218350073E+04  0.11193740250E+04  0.25500000920E-02 0. -1.
</event>
<event>
 5   0  0.3944074E-03  0.1179836E+04  0.7818609E-02  0.9130691E-01
        1   -1    0    0  501    0  0.00000000000E+00  0.00000000000E+00  0.12214380088E+04  0.12214380088E+04  0.50400001928E-02 0.  1.
       -1   -1    0    0    0  501  0.00000000000E+00  0.00000000000E+00 -0.28491297249E+03  0.28491297253E+03  0.50400001928E-02 0. -1.
    10030    2    1    2    0    0  0.00000000000E+00  0.00000000000E+00  0.93652503628E+03  0.15063509813E+04  0.11798364867E+04 0.  0.
        4    1    3    3  502    0 -0.43770087024E+03  0.27768657345E+03  0.10870495725E+03  0.52963219833E+03  0.12699999809E+01 0. -1.
       -4    1    3    3    0  502  0.43770087024E+03 -0.27768657345E+03  0.82782007903E+03  0.97671878298E+03  0.12699999809E+01 0.  1.
</event>
<event>
 5   0  0.3731281E-03  0.1311119E+04  0.7818609E-02  0.9020794E-01
       -1   -1    0    0    0  501  0.00000000000E+00  0.00000000000E+00  0.71551626449E+03  0.71551626450E+03  0.50400001928E-02 0. -1.
        1   -1    0    0  501    0  0.00000000000E+00  0.00000000000E+00 -0.60062653202E+03  0.60062653204E+03  0.50400001928E-02 0.  1.
    10030    2    1    2    0    0  0.00000000000E+00  0.00000000000E+00  0.11488973247E+03  0.13161427965E+04  0.13111186866E+04 0.  0.
        5    1    3    3  502    0 -0.23968555688E+03 -0.54020490653E+03  0.34219618273E+03  0.68292812556E+03  0.46999998093E+01 0. -1.
       -5    1    3    3    0  502  0.23968555688E+03  0.54020490653E+03 -0.22730645027E+03  0.63321467098E+03  0.46999998093E+01 0.  1.
</event>
<event>
 5   0  0.6493047E-03  0.8009116E+03  0.7818609E-02  0.9558699E-01
        2   -1    0    0  501    0  0.00000000000E+00  0.00000000000E+00  0.13123525503E+04  0.13123525503E+04  0.25500000920E-02 0.  1.
       -2   -1    0    0    0  501  0.00000000000E+00  0.00000000000E+00 -0.12219647602E+03  0.12219647605E+03  0.25500000920E-02 0. -1.
    10030    2    1    2    0    0  0.00000000000E+00  0.00000000000E+00  0.11901560743E+04  0.14345490264E+04  0.80091162301E+03 0.  0.
        3    1    3    3  502    0  0.33239717766E+03  0.51763707489E+02  0.20595207114E+03  0.39444090931E+03  0.10100000352E+00 0. -1.
       -3    1    3    3    0  502 -0.33239717766E+03 -0.51763707489E+02  0.98420400318E+03  0.10401081171E+04  0.10100000352E+00 0.  1.
</event>
<event>
 5   0  0.2537625E-03  0.7537414E+03  0.7818609E-02  0.9629499E-01
        3   -1    0    0  501    0  0.00000000000E+00  0.00000000000E+00  0.14990331791E+03  0.14990335193E+03  0.10100000352E+00 0.  1.
       -3   -1    0    0    0  501  0.00000000000E+00  0.00000000000E+00 -0.94748745468E+03  0.94748746006E+03  0.10100000352E+00 0. -1.
    10030    2    1    2    0    0  0.00000000000E+00  0.00000000000E+00 -0.79758413677E+03  0.10973908120E+04  0.75374142717E+03 0.  0.
        4    1    3    3  502    0 -0.48006925681E+02 -0.32472032852E+03 -0.12922192550E+03  0.35277170465E+03  0.12699999809E+01 0.  1.
       -4    1    3    3    0  502  0.48006925681E+02  0.32472032852E+03 -0.66836221128E+03  0.74461910735E+03  0.12699999809E+01 0. -1.
</event>
<event>
 5   0  0.6493047E-03  0.1183919E+04  0.7818609E-02  0.9127050E-01
        2   -1    0    0  501    0  0.00000000000E+00  0.00000000000E+00  0.94830255221E+03  0.94830255221E+03  0.25500000920E-02 0. -1.
       -2   -1    0    0    0  501  0.00000000000E+00  0.00000000000E+00 -0.36951902911E+03  0.36951902912E+03  0.25500000920E-02 0.  1.
    10030    2    1    2    0    0  0.00000000000E+00  0.00000000000E+00  0.57878352310E+03  0.13178215813E+04  0.11839186432E+04 0.  0.
        3    1    3    3  502    0 -0.32943140752E+03 -0.13335799304E+03  0.81633265885E+03  0.89034174712E+03  0.10100000352E+00 0. -1.
       -3    1    3    3    0  502  0.32943140752E+03  0.13335799304E+03 -0.23754913575E+03  0.42747983422E+03  0.10100000352E+00 0.  1.
</event>
<event>
 5   0  0.3772254E-03  0.1187583E+04  0.7818609E-02  0.9123795E-01
       -1   -1    0    0    0  501  0.00000000000E+00  0.00000000000E+00  0.64320689278E+03  0.64320689280E+03  0.50400001928E-02 0.  1.
        1   -1    0    0  501    0  0.00000000000E+00  0.00000000000E+00 -0.54817206344E+03  0.54817206347E+03  0.50400001928E-02 0. -1.
    10030    2    1    2    0    0  0.00000000000E+00  0.00000000000E+00  0.95034829331E+02  0.11913789563E+04  0.11875825018E+04 0.  0.
        3    1    3    3  502    0 -0.33976887196E+03  0.37833552592E+02  0.53457309955E+03  0.63454130915E+03  0.10100000352E+00 0.  1.
       -3    1    3    3    0  502  0.33976887196E+03 -0.37833552592E+02 -0.43953827022E+03  0.55683764711E+03  0.10100000352E+00 0. -1.
</event>
<event>
 5   0  0.3648616E-03  0.1199109E+04  0.7818609E-02  0.9113637E-01
        1   -1    0    0  501    0  0.00000000000E+00  0.00000000000E+00  0.29342459982E+03  0.29342459987E+03  0.50400001928E-02 0. -1.
       -1   -1    0    0    0  501  0.00000000000E+00  0.00000000000E+00 -0.12250687243E+04  0.12250687243E+04  0.50400001928E-02 0.  1.
    10030    2    1    2    0    0  0.00000000000E+00  0.00000000000E+00 -0.93164412447E+03  0.15184933242E+04  0.11991085025E+04 0.  0.
        2    1    3    3  502    0  0.19335919274E+03 -0.11640484944E+03 -0.11692203357E+04  0.11908039552E+04  0.25500000920E-02 0.  1.
       -2    1    3    3    0  502 -0.19335919274E+03  0.11640484944E+03  0.23757621121E+03  0.32768936896E+03  0.25500000920E-02 0. -1.
</event>
<event>
 5   0  0.3731281E-03  0.1173099E+04  0.7818609E-02  0.9136734E-01
       -1   -1    0    0    0  501  0.00000000000E+00  0.00000000000E+00  0.11454975743E+04  0.11454975743E+04  0.50400001928E-02 0.  1.
        1   -1    0    0  501    0  0.00000000000E+00  0.00000000000E+00 -0.30034145758E+03  0.30034145762E+03  0.50400001928E-02 0. -1.
    10030    2    1    2    0    0  0.00000000000E+00  0.00000000000E+00  0.84515611675E+03  0.14458390319E+04  0.11730991623E+04 0.  0.
        5    1    3    3  502    0  0.74095088337E+02  0.74601224109E+02  0.11337639630E+04  0.11386387656E+04  0.46999998093E+01 0.  1.
       -5    1    3    3    0  502 -0.74095088337E+02 -0.74601224109E+02 -0.28860784623E+03  0.30720026637E+03  0.46999998093E+01 0. -1.
</event>
<event>
 5   0  0.6658994E-03  0.1218210E+04  0.7818609E-02  0.9097065E-01
       -2   -1    0    0    0  501  0.00000000000E+00  0.00000000000E+00  0.53199418373E+03  0.53199418374E+03  0.25500000920E-02 0.  1.
        2   -1    0    0  501    0  0.00000000000E+00  0.00000000000E+00 -0.69739328688E+03  0.69739328688E+03  0.25500000920E-02 0. -1.
    10030    2    1    2    0    0  0.00000000000E+00  0.00000000000E+00 -0.16539910314E+03  0.12293874706E+04  0.12182104455E+04 0.  0.
        4    1    3    3  502    0  0.21171614558E+03 -0.17982523716E+03  0.46435027578E+03  0.54109484726E+03  0.12699999809E+01 0.  1.
       -4    1    3    3    0  502 -0.21171614558E+03  0.17982523716E+03 -0.62974937892E+03  0.68829262336E+03  0.12699999809E+01 0. -1.
</event>
<event>
 5   0  0.6658994E-03  0.1197768E+04  0.7818609E-02  0.9114812E-01
        2   -1    0    0  501    0  0.00000000000E+00  0.00000000000E+00  0.97649610888E+03  0.97649610888E+03  0.25500000920E-02 0.  1.
       -2   -1    0    0    0  501  0.00000000000E+00  0.00000000000E+00 -0.36729498126E+03  0.36729498127E+03  0.25500000920E-02 0. -1.
    10030    2    1    2    0    0  0.00000000000E+00  0.00000000000E+00  0.60920112761E+03  0.13437910902E+04  0.11977681245E+04 0.  0.
        4    1    3    3  502    0  0.18622554089E+03 -0.27075026691E+03  0.86631344870E+03  0.92654533802E+03  0.12699999809E+01 0.  1.
       -4    1    3    3    0  502 -0.18622554089E+03  0.27075026691E+03 -0.25711232109E+03  0.41724575213E+03  0.12699999809E+01 0. -1.
</event>
<event>
 5   0  0.6493047E-03  0.9779828E+03  0.7818609E-02  0.9333028E-01
        2   -1    0    0  501    0  0.00000000000E+00  0.00000000000E+00  0.88071046772E+03  0.88071046773E+03  0.25500000920E-02 0.  1.
       -2   -1    0    0    0  501  0.00000000000E+00  0.00000000000E+00 -0.27149963949E+03  0.27149963950E+03  0.25500000920E-02 0. -1.
    10030    2    1    2    0    0  0.00000000000E+00  0.00000000000E+00  0.60921082823E+03  0.11522101072E+04  0.97798276976E+03 0.  0.
        3    1    3    3  502    0  0.81323962471E+02 -0.25423075419E+03 -0.17809921244E+03  0.32088347250E+03  0.10100000352E+00 0. -1.
       -3    1    3    3    0  502 -0.81323962471E+02  0.25423075419E+03  0.78731004068E+03  0.83132663473E+03  0.10100000352E+00 0.  1.
</event>
<event>
 5   0  0.3701879E-03  0.1201665E+04  0.7818609E-02  0.9111401E-01
        1   -1    0    0  501    0  0.00000000000E+00  0.00000000000E+00  0.14265342928E+04  0.14265342928E+04  0.50400001928E-02 0.  1.
       -1   -1    0    0    0  501  0.00000000000E+00  0.00000000000E+00 -0.25306049166E+03  0.25306049171E+03  0.50400001928E-02 0. -1.
    10030    2    1    2    0    0  0.00000000000E+00  0.00000000000E+00  0.11734738011E+04  0.16795947845E+04  0.12016646280E+04 0.  0.
        1    1    3    3  502    0 -0.13634164231E+03 -0.48462896353E+03  0.12836631216E+03  0.51954998397E+03  0.50400001928E-02 0. -1.
       -1    1    3    3    0  502  0.13634164231E+03  0.48462896353E+03  0.10451074890E+04  0.11600448005E+04  0.50400001928E-02 0.  1.
</event>
<event>
 5   0  0.6658994E-03  0.8343247E+03  0.7818609E-02  0.9511621E-01
        2   -1    0    0  501    0  0.00000000000E+00  0.00000000000E+00  0.18181604367E+03  0.18181604369E+03  0.25500000920E-02 0.  1.
       -2   -1    0    0    0  501  0.00000000000E+00  0.00000000000E+00 -0.95714566002E+03  0.95714566003E+03  0.25500000920E-02 0. -1.
    10030    2    1    2    0    0  0.00000000000E+00  0.00000000000E+00 -0.77532961635E+03  0.11389617037E+04  0.83432472607E+03 0.  0.
        4    1    3    3  502    0  0.85592768160E+02 -0.10805722407E+03  0.14982266596E+03  0.20359501411E+03  0.12699999809E+01 0.  1.
       -4    1    3    3    0  502 -0.85592768160E+02  0.10805722407E+03 -0.92515228232E+03  0.93536668960E+03  0.12699999809E+01 0. -1.
</event>
<event>
 5   0  0.3944074E-03  0.1133331E+04  0.7818609E-02  0.9173300E-01
        1   -1    0    0  501    0  0.00000000000E+00  0.00000000000E+00  0.73148708253E+03  0.73148708254E+03  0.50400001928E-02 0.  1.
       -1   -1    0    0    0  501  0.00000000000E+00  0.00000000000E+00 -0.43898254802E+03  0.43898254805E+03  0.50400001928E-02 0. -1.
    10030    2    1    2    0    0  0.00000000000E+00  0.00000000000E+00  0.29250453450E+03  0.11704696306E+04  0.11333314844E+04 0.  0.
        4    1    3    3  502    0 -0.26620113967E+03  0.49512919431E+03  0.72552170155E+02  0.56681689822E+03  0.12699999809E+01 0. -1.
       -4    1    3    3    0  502  0.26620113967E+03 -0.49512919431E+03  0.21995236435E+03  0.60365273237E+03  0.12699999809E+01 0.  1.
</event>
<event>
 5   0  0.6349142E-03  0.1194228E+04  0.7818609E-02  0.9117924E-01
       -2   -1    0    0    0  501  0.00000000000E+00  0.00000000000E+00  0.52615394727E+03  0.52615394728E+03  0.25500000920E-02 0. -1.
        2   -1    0    0  501    0  0.00000000000E+00  0.00000000000E+00 -0.67764410682E+03  0.67764410682E+03  0.25500000920E-02 0.  1.
    10030    2    1    2    0    0  0.00000000000E+00  0.00000000000E+00 -0.15149015954E+03  0.12037980541E+04  0.11942279877E+04 0.  0.
        1    1    3    3  502    0  0.61396672200E+02 -0.55582866228E+03  0.13528893756E+03  0.57534176784E+03  0.50400001928E-02 0.  1.
       -1    1    3    3    0  502 -0.61396672200E+02  0.55582866228E+03 -0.28677909711E+03  0.62845628626E+03  0.50400001928E-02 0. -1.
</event>
<event>
 5   0  0.6640844E-03  0.1198632E+04  0.7818609E-02  0.9114055E-01
       -2   -1    0    0    0  501  0.00000000000E+00  0.00000000000E+00  0.48843962178E+03  0.48843962179E+03  0.25500000920E-02 0. -1.
        2   -1    0    0  501    0  0.00000000000E+00  0.00000000000E+00 -0.73536172883E+03  0.73536172884E+03  0.25500000920E-02 0.  1.
    10030    2    1    2    0    0  0.00000000000E+00  0.00000000000E+00 -0.24692210705E+03  0.12238013506E+04  0.11986322284E+04 0.  0.
        5    1    3    3  502    0  0.36432620093E+03  0.44080117593E+03 -0.30644050290E+03  0.64881979717E+03  0.46999998093E+01 0.  1.
       -5    1    3    3    0  502 -0.36432620093E+03 -0.44080117593E+03  0.59518395843E+02  0.57498155346E+03  0.46999998093E+01 0. -1.
</event>
<event>
 5   0  0.3944074E-03  0.1224191E+04  0.7818609E-02  0.9091942E-01
        1   -1    0    0  501    0  0.00000000000E+00  0.00000000000E+00  0.72095253203E+03  0.72095253205E+03  0.50400001928E-02 0.  1.
       -1   -1    0    0    0  501  0.00000000000E+00  0.00000000000E+00 -0.51967444385E+03  0.51967444388E+03  0.50400001928E-02 0. -1.
    10030    2    1    2    0    0  0.00000000000E+00  0.00000000000E+00  0.20127808818E+03  0.12406269759E+04  0.12241905181E+04 0.  0.
        4    1    3    3  502    0 -0.35212184754E+03 -0.63274439003E+02 -0.40268358002E+03  0.53865492541E+03  0.12699999809E+01 0. -1.
       -4    1    3    3    0  502  0.35212184754E+03  0.63274439003E+02  0.60396166820E+03  0.70197205052E+03  0.12699999809E+01 0.  1.
</event>
<event>
 5   0  0.3701879E-03  0.1292598E+04  0.7818609E-02  0.9035456E-01
       -1   -1    0    0    0  501  0.00000000000E+00  0.00000000000E+00  0.33140267848E+03  0.33140267852E+03  0.50400001928E-02 0. -1.
        1   -1    0    0  501    0  0.00000000000E+00  0.00000000000E+00 -0.12604066750E+04  0.12604066750E+04  0.50400001928E-02 0.  1.
    10030    2    1    2    0    0  0.00000000000E+00  0.00000000000E+00 -0.92900399649E+03  0.15918093535E+04  0.12925976143E+04 0.  0.
        1    1    3    3  502    0 -0.29332791832E+03 -0.48904518997E+03 -0.83903356997E+03  0.10144869625E+04  0.50400001928E-02 0.  1.
       -1    1    3    3    0  502  0.29332791832E+03  0.48904518997E+03 -0.89970426526E+02  0.57732239102E+03  0.50400001928E-02 0. -1.
</event>
<event>
 5   0  0.3944074E-03  0.9281060E+03  0.7818609E-02  0.9391114E-01
        1   -1    0    0  501    0  0.00000000000E+00  0.00000000000E+00  0.60264740321E+03  0.60264740323E+03  0.50400001928E-02 0. -1.
       -1   -1    0    0    0  501  0.00000000000E+00  0.00000000000E+00 -0.35733200983E+03  0.35733200987E+03  0.50400001928E-02 0.  1.
    10030    2    1    2    0    0  0.00000000000E+00  0.00000000000E+00  0.24531539338E+03  0.95997941310E+03  0.92810604531E+03 0.  0.
        4    1    3    3  502    0  0.14682921283E+03 -0.39061332163E+03  0.33262158206E+03  0.53364437084E+03  0.12699999809E+01 0. -1.
       -4    1    3    3    0  502 -0.14682921283E+03  0.39061332163E+03 -0.87306188683E+02  0.42633504226E+03  0.12699999809E+01 0.  1.
</event>
<event>
 5   0  0.6658994E-03  0.9659595E+03  0.7818609E-02  0.9346689E-01
       -2   -1    0    0    0  501  0.00000000000E+00  0.00000000000E+00  0.13288065099E+03  0.13288065101E+03  0.25500000920E-02 0.  1.
        2   -1    0    0  501    0  0.00000000000E+00  0.00000000000E+00 -0.17554806805E+04  0.17554806805E+04  0.25500000920E-02 0. -1.
    10030    2    1    2    0    0  0.00000000000E+00  0.00000000000E+00 -0.16226000296E+04  0.18883613316E+04  0.96595945184E+03 0.  0.
        4    1    3    3  502    0  0.27808998224E+03 -0.88177232881E+01 -0.39529855512E+02  0.28102671197E+03  0.12699999809E+01 0.  1.
       -4    1    3    3    0  502 -0.27808998224E+03  0.88177232881E+01 -0.15830701740E+04  0.16073346196E+04  0.12699999809E+01 0. -1.
</event>
<event>
 5   0  0.3701879E-03  0.1196206E+04  0.7818609E-02  0.9116184E-01
       -1   -1    0    0    0  501  0.00000000000E+00  0.00000000000E+00  0.20146127495E+03  0.20146127502E+03  0.50400001928E-02 0. -1.
        1   -1    0    0  501    0  0.00000000000E+00  0.00000000000E+00 -0.17756627407E+04  0.17756627407E+04  0.50400001928E-02 0.  1.
    10030    2    1    2    0    0  0.00000000000E+00  0.00000000000E+00 -0.15742014658E+04  0.19771240157E+04  0.11962061356E+04 0.  0.
        1    1    3    3  502    0  0.38313632115E+03 -0.45927449964E+03 -0.78855396865E+03  0.98971908545E+03  0.50400001928E-02 0.  1.
       -1    1    3    3    0  502 -0.38313632115E+03  0.45927449964E+03 -0.78564749711E+03  0.98740493028E+03  0.50400001928E-02 0. -1.
</event>
<event>
 5   0  0.6349142E-03  0.1227755E+04  0.7818609E-02  0.9088903E-01
        2   -1    0    0  501    0  0.00000000000E+00  0.00000000000E+00  0.98276464369E+03  0.98276464369E+03  0.25500000920E-02 0.  1.
       -2   -1    0    0    0  501  0.00000000000E+00  0.00000000000E+00 -0.38345470023E+03  0.38345470024E+03  0.25500000920E-02 0. -1.
    10030    2    1    2    0    0  0.00000000000E+00  0.00000000000E+00  0.59930994346E+03  0.13662193439E+04  0.12277552229E+04 0.  0.
        1    1    3    3  502    0 -0.40238100324E+03 -0.24586818061E+03 -0.13771656460E+03  0.49125094015E+03  0.50400001928E-02 0. -1.
       -1    1    3    3    0  502  0.40238100324E+03  0.24586818061E+03  0.73702650806E+03  0.87496840378E+03  0.50400001928E-02 0.  1.
</event>
<event>
 5   0  0.2537625E-03  0.1172404E+04  0.7818609E-02  0.9137360E-01
       -3   -1    0    0    0  501  0.00000000000E+00  0.00000000000E+00  0.44854695074E+03  0.44854696212E+03  0.10100000352E+00 0. -1.
        3   -1    0    0  501    0  0.00000000000E+00  0.00000000000E+00 -0.76610259800E+03  0.76610260466E+03  0.10100000352E+00 0.  1.
    10030    2    1    2    0    0  0.00000000000E+00  0.00000000000E+00 -0.31755564726E+03  0.12146495668E+04  0.11724043590E+04 0.  0.
        2    1    3    3  502    0  0.32269252911E+03  0.68962250779E+02 -0.66074272964E+03  0.73855752326E+03  0.25500000920E-02 0.  1.
       -2    1    3    3    0  502 -0.32269252911E+03 -0.68962250779E+02  0.34318708239E+03  0.47609204352E+03  0.25500000920E-02 0. -1.
</event>
<event>
 5   0  0.3731281E-03  0.1199385E+04  0.7818609E-02  0.9113395E-01
        1   -1    0    0  501    0  0.00000000000E+00  0.00000000000E+00  0.16576473893E+04  0.16576473893E+04  0.50400001928E-02 0.  1.
       -1   -1    0    0    0  501  0.00000000000E+00  0.00000000000E+00 -0.21695272143E+03  0.21695272149E+03  0.50400001928E-02 0. -1.
    10030    2    1    2    0    0  0.00000000000E+00  0.00000000000E+00  0.14406946679E+04  0.18746001108E+04  0.11993850297E+04 0.  0.
        5    1    3    3  502    0  0.59636650758E+03  0.32208724550E+02  0.80478534163E+03  0.10021935688E+04  0.46999998093E+01 0.  1.
       -5    1    3    3    0  502 -0.59636650758E+03 -0.32208724550E+02  0.63590932627E+03  0.87240654201E+03  0.46999998093E+01 0. -1.
</event>
<event>
 5   0  0.6493047E-03  0.1159516E+04  0.7818609E-02  0.9149049E-01
        2   -1    0    0  501    0  0.00000000000E+00  0.00000000000E+00  0.84402871697E+03  0.84402871697E+03  0.25500000920E-02 0.  1.
       -2   -1    0    0    0  501  0.00000000000E+00  0.00000000000E+00 -0.39823197612E+03  0.39823197613E+03  0.25500000920E-02 0. -1.
    10030    2    1    2    0    0  0.00000000000E+00  0.00000000000E+00  0.44579674085E+03  0.12422606931E+04  0.11595158022E+04 0.  0.
        3    1    3    3  502    0 -0.46611065706E+03  0.91870361800E+02 -0.13310963011E+03  0.49337358242E+03  0.10100000352E+00 0. -1.
       -3    1    3    3    0  502  0.46611065706E+03 -0.91870361800E+02  0.57890637096E+03  0.74888711068E+03  0.10100000352E+00 0.  1.
</event>
<event>
 5   0  0.3701879E-03  0.1247082E+04  0.7818609E-02  0.9072615E-01
       -1   -1    0    0    0  501  0.00000000000E+00  0.00000000000E+00  0.65464025074E+03  0.65464025076E+03  0.50400001928E-02 0.  1.
        1   -1    0    0  501    0  0.00000000000E+00  0.00000000000E+00 -0.59391921961E+03  0.59391921963E+03  0.50400001928E-02 0. -1.
    10030    2    1    2    0    0  0.00000000000E+00  0.00000000000E+00  0.60721031125E+02  0.12485594704E+04  0.12470820773E+04 0.  0.
        1    1    3    3  502    0 -0.17162253195E+03  0.84258723909E+02  0.62456982318E+03  0.65317783955E+03  0.50400001928E-02 0.  1.
       -1    1    3    3    0  502  0.17162253195E+03 -0.84258723909E+02 -0.56384879205E+03  0.59538163085E+03  0.50400001928E-02 0. -1.
</event>
<event>
 5   0  0.3731281E-03  0.1132021E+04  0.7818609E-02  0.9174532E-01
        1   -1    0    0  501    0  0.00000000000E+00  0.00000000000E+00  0.13300451638E+04  0.13300451638E+04  0.50400001928E-02 0. -1.
       -1   -1    0    0    0  501  0.00000000000E+00  0.00000000000E+00 -0.24087003135E+03  0.24087003140E+03  0.50400001928E-02 0.  1.
    10030    2    1    2    0    0  0.00000000000E+00  0.00000000000E+00  0.10891751324E+04  0.15709151952E+04  0.11320212372E+04 0.  0.
        5    1    3    3  502    0  0.25902376921E+03  0.49636895079E+03  0.65961244115E+03  0.86520870941E+03  0.46999998093E+01 0.  1.
       -5    1    3    3    0  502 -0.25902376921E+03 -0.49636895079E+03  0.42956269126E+03  0.70570648576E+03  0.46999998093E+01 0. -1.
</event>
<event>
 5   0  0.2537625E-03  0.1197982E+04  0.7818609E-02  0.9114624E-01
       -3   -1    0    0    0  501  0.00000000000E+00  0.00000000000E+00  0.38099471131E+03  0.38099472470E+03  0.10100000352E+00 0.  1.
        3   -1    0    0  501    0  0.00000000000E+00  0.00000000000E+00 -0.94172041099E+03  0.94172041641E+03  0.10100000352E+00 0. -1.
    10030    2    1    2    0    0  0.00000000000E+00  0.00000000000E+00 -0.56072569968E+03  0.13227151411E+04  0.11979824849E+04 0.  0.
        1    1    3    3  502    0  0.23947163939E+03 -0.51058197338E+03 -0.50324694656E+03  0.75584264689E+03  0.50400001928E-02 0.  1.
       -1    1    3    3    0  502 -0.23947163939E+03  0.51058197338E+03 -0.57478753118E+02  0.56687249421E+03  0.50400001928E-02 0. -1.
</event>
<event>
 5   0  0.6640844E-03  0.1180883E+04  0.7818609E-02  0.9129756E-01
        2   -1    0    0  501    0  0.00000000000E+00  0.00000000000E+00  0.17431360121E+04  0.17431360121E+04  0.25500000920E-02 0. -1.
       -2   -1    0    0    0  501  0.00000000000E+00  0.00000000000E+00 -0.19999659118E+03  0.19999659120E+03  0.25500000920E-02 0.  1.
    10030    2    1    2    0    0  0.00000000000E+00  0.00000000000E+00  0.15431394209E+04  0.19431326033E+04  0.11808831617E+04 0.  0.
        5    1    3    3  502    0  0.49905804207E+03  0.26291284196E+03  0.10585514467E+04  0.11994729455E+04  0.46999998093E+01 0. -1.
       -5    1    3    3    0  502 -0.49905804207E+03 -0.26291284196E+03  0.48458797429E+03  0.74365965781E+03  0.46999998093E+01 0.  1.
</event>
<event>
 5   0  0.3701879E-03  0.1193871E+04  0.7818609E-02  0.9118238E-01
       -1   -1    0    0    0  501  0.00000000000E+00  0.00000000000E+00  0.88621421213E+03  0.88621421214E+03  0.50400001928E-02 0. -1.
        1   -1    0    0  501    0  0.00000000000E+00  0.00000000000E+00 -0.40208356803E+03  0.40208356806E+03  0.50400001928E-02 0.  1.
    10030    2    1    2    0    0  0.00000000000E+00  0.00000000000E+00  0.48413064410E+03  0.12882977802E+04  0.11938713038E+04 0.  0.
        1    1    3    3  502    0 -0.93489993563E+02 -0.46840032794E+03 -0.14429344884E+03  0.49895876133E+03  0.50400001928E-02 0.  1.
       -1    1    3    3    0  502  0.93489993563E+02  0.46840032794E+03  0.62842409294E+03  0.78933901887E+03  0.50400001928E-02 0. -1.
</event>
<event>
 5   0  0.3731281E-03  0.1164490E+04  0.7818609E-02  0.9144519E-01
        1   -1    0    0  501    0  0.00000000000E+00  0.00000000000E+00  0.88840704202E+03  0.88840704204E+03  0.50400001928E-02 0. -1.
       -1   -1    0    0    0  501  0.00000000000E+00  0.00000000000E+00 -0.38159240713E+03  0.38159240717E+03  0.50400001928E-02 0.  1.
    10030    2    1    2    0    0  0.00000000000E+00  0.00000000000E+00  0.50681463489E+03  0.12699994492E+04  0.11644902433E+04 0.  0.
        5    1    3    3  502    0 -0.57002335247E+03 -0.40887707609E+02  0.13201717147E+03  0.58655694571E+03  0.46999998093E+01 0.  1.
       -5    1    3    3    0  502  0.57002335247E+03  0.40887707609E+02  0.37479746342E+03  0.68344250349E+03  0.46999998093E+01 0. -1.
</event>
<event>
 5   0  0.3772254E-03  0.1249475E+04  0.7818609E-02  0.9070620E-01
       -1   -1    0    0    0  501  0.00000000000E+00  0.00000000000E+00  0.45428936516E+03  0.45428936519E+03  0.50400001928E-02 0. -1.
        1   -1    0    0  501    0  0.00000000000E+00  0.00000000000E+00 -0.85913771879E+03  0.85913771881E+03  0.50400001928E-02 0.  1.
    10030    2    1    2    0    0  0.00000000000E+00  0.00000000000E+00 -0.40484835363E+03  0.13134270840E+04  0.12494752961E+04 0.  0.
        3    1    3    3  502    0 -0.36856249768E+03  0.45963055923E+03 -0.42090478374E+03  0.72405760327E+03  0.10100000352E+00 0.  1.
       -3    1    3    3    0  502  0.36856249768E+03 -0.45963055923E+03  0.16056430104E+02  0.58936948074E+03  0.10100000352E+00 0. -1.
</event>
<event>
 5   0  0.6658994E-03  0.1188544E+04  0.7818609E-02  0.9122943E-01
       -2   -1    0    0    0  501  0.00000000000E+00  0.00000000000E+00  0.35036345315E+03  0.35036345316E+03  0.25500000920E-02 0.  1.
        2   -1    0    0  501    0  0.00000000000E+00  0.00000000000E+00 -0.10079795342E+04  0.10079795342E+04  0.25500000920E-02 0. -1.
    10030    2    1    2    0    0  0.00000000000E+00  0.00000000000E+00 -0.65761608106E+03  0.13583429874E+04  0.11885439669E+04 0.  0.
        4    1    3    3  502    0  0.63163243034E+02 -0.22503222216E+03  0.29562673115E+03  0.37686320244E+03  0.12699999809E+01 0.  1.
       -4    1    3    3    0  502 -0.63163243034E+02  0.22503222216E+03 -0.95324281221E+03  0.98147978493E+03  0.12699999809E+01 0. -1.
</event>
<event>
 5   0  0.3648616E-03  0.1101083E+04  0.7818609E-02  0.9204137E-01
        1   -1    0    0  501    0  0.00000000000E+00  0.00000000000E+00  0.14098025927E+04  0.14098025927E+04  0.50400001928E-02 0. -1.
       -1   -1    0    0    0  501  0.00000000000E+00  0.00000000000E+00 -0.21499159731E+03  0.21499159737E+03  0.50400001928E-02 0.  1.
    10030    2    1    2    0    0  0.00000000000E+00  0.00000000000E+00  0.11948109954E+04  0.16247941901E+04  0.11010825788E+04 0.  0.
        2    1    3    3  502    0 -0.38494223622E+03  0.19888223955E+03  0.10986020203E+04  0.11809576917E+04  0.25500000920E-02 0. -1.
       -2    1    3    3    0  502  0.38494223622E+03 -0.19888223955E+03  0.96208975055E+02  0.44383649841E+03  0.25500000920E-02 0.  1.
</event>
<event>
 5   0  0.3731281E-03  0.1199112E+04  0.7818609E-02  0.9113634E-01
       -1   -1    0    0    0  501  0.00000000000E+00  0.00000000000E+00  0.51992502675E+03  0.51992502677E+03  0.50400001928E-02 0.  1.
        1   -1    0    0  501    0  0.00000000000E+00  0.00000000000E+00 -0.69138370454E+03  0.69138370455E+03  0.50400001928E-02 0. -1.
    10030    2    1    2    0    0  0.00000000000E+00  0.00000000000E+00 -0.17145867779E+03  0.12113087313E+04  0.11991124903E+04 0.  0.
        5    1    3    3  502    0  0.42182486040E+03  0.42165089653E+03 -0.14734074494E+03  0.61437535474E+03  0.46999998093E+01 0. -1.
       -5    1    3    3    0  502 -0.42182486040E+03 -0.42165089653E+03 -0.24117932852E+02  0.59693337658E+03  0.46999998093E+01 0.  1.
</event>
<event>
 5   0  0.6349142E-03  0.1198787E+04  0.7818609E-02  0.9113919E-01
        2   -1    0    0  501    0  0.00000000000E+00  0.00000000000E+00  0.41315530735E+03  0.41315530735E+03  0.25500000920E-02 0.  1.
       -2   -1    0    0    0  501  0.00000000000E+00  0.00000000000E+00 -0.86958191230E+03  0.86958191231E+03  0.25500000920E-02 0. -1.
    10030    2    1    2    0    0  0.00000000000E+00  0.00000000000E+00 -0.45642660496E+03  0.12827372197E+04  0.11987866904E+04 0.  0.
        1    1    3    3  502    0  0.29551206453E+03 -0.52108514039E+03 -0.25001877272E+03  0.64912748406E+03  0.50400001928E-02 0. -1.
       -1    1    3    3    0  502 -0.29551206453E+03  0.52108514039E+03 -0.20640783223E+03  0.63360973560E+03  0.50400001928E-02 0.  1.
</event>
<event>
 5   0  0.6658994E-03  0.1238785E+04  0.7818609E-02  0.9079570E-01
       -2   -1    0    0    0  501  0.00000000000E+00  0.00000000000E+00  0.43102116114E+03  0.43102116115E+03  0.25500000920E-02 0. -1.
        2   -1    0    0  501    0  0.00000000000E+00  0.00000000000E+00 -0.89008852060E+03  0.89008852060E+03  0.25500000920E-02 0.  1.
    10030    2    1    2    0    0  0.00000000000E+00  0.00000000000E+00 -0.45906735946E+03  0.13211096817E+04  0.12387848686E+04 0.  0.
        4    1    3    3  502    0  0.53823335933E+03  0.20292909120E+02  0.96631808673E+02  0.54721684057E+03  0.12699999809E+01 0. -1.
       -4    1    3    3    0  502 -0.53823335933E+03 -0.20292909120E+02 -0.55569916813E+03  0.77389284118E+03  0.12699999809E+01 0.  1.
</event>
<event>
 5   0  0.6658994E-03  0.1207905E+04  0.7818609E-02  0.9105965E-01
       -2   -1    0    0    0  501  0.00000000000E+00  0.00000000000E+00  0.81283696407E+03  0.81283696408E+03  0.25500000920E-02 0. -1.
        2   -1    0    0  501    0  0.00000000000E+00  0.00000000000E+00 -0.44874769443E+03  0.44874769444E+03  0.25500000920E-02 0.  1.
    10030    2    1    2    0    0  0.00000000000E+00  0.00000000000E+00  0.36408926964E+03  0.12615846585E+04  0.12079051512E+04 0.  0.
        4    1    3    3  502    0 -0.21903828001E+02 -0.51150712763E+03 -0.15256403821E+03  0.53422534380E+03  0.12699999809E+01 0.  1.
       -4    1    3    3    0  502  0.21903828001E+02  0.51150712763E+03  0.51665330785E+03  0.72735931472E+03  0.12699999809E+01 0. -1.
</event>
<event>
 5   0  0.6585930E-03  0.1187955E+04  0.7818609E-02  0.9123465E-01
       -2   -1    0    0    0  501  0.00000000000E+00  0.00000000000E+00  0.16529519043E+03  0.16529519045E+03  0.25500000920E-02 0.  1.
        2   -1    0    0  501    0  0.00000000000E+00  0.00000000000E+00 -0.21344190082E+04  0.21344190082E+04  0.25500000920E-02 0. -1.
    10030    2    1    2    0    0  0.00000000000E+00  0.00000000000E+00 -0.19691238178E+04  0.22997141987E+04  0.11879548753E+04 0.  0.
        2    1    3    3  502    0  0.46561224983E+03 -0.36616237373E+03 -0.10698177001E+04  0.12228571309E+04  0.25500000920E-02 0.  1.
       -2    1    3    3    0  502 -0.46561224983E+03  0.36616237373E+03 -0.89930611768E+03  0.10768570678E+04  0.25500000920E-02 0. -1.
</event>
<event>
 5   0  0.6493047E-03  0.1208265E+04  0.7818609E-02  0.9105652E-01
        2   -1    0    0  501    0  0.00000000000E+00  0.00000000000E+00  0.72163038824E+03  0.72163038825E+03  0.25500000920E-02 0.  1.
       -2   -1    0    0    0  501  0.00000000000E+00  0.00000000000E+00 -0.50576635787E+03  0.50576635788E+03  0.25500000920E-02 0. -1.
    10030    2    1    2    0    0  0.00000000000E+00  0.00000000000E+00  0.21586403037E+03  0.12273967461E+04  0.12082654894E+04 0.  0.
        3    1    3    3  502    0  0.40894172448E+03 -0.33623485539E+03  0.40355383483E+03  0.66568980750E+03  0.10100000352E+00 0.  1.
       -3    1    3    3    0  502 -0.40894172448E+03  0.33623485539E+03 -0.18768980446E+03  0.56170693863E+03  0.10100000352E+00 0. -1.
</event>
<event>
 5   0  0.3772254E-03  0.1212116E+04  0.7818609E-02  0.9102317E-01
        1   -1    0    0  501    0  0.00000000000E+00  0.00000000000E+00  0.37153447870E+03  0.37153447874E+03  0.50400001928E-02 0.  1.
       -1   -1    0    0    0  501  0.00000000000E+00  0.00000000000E+00 -0.98862027284E+03  0.98862027285E+03  0.50400001928E-02 0. -1.
    10030    2    1    2    0    0  0.00000000000E+00  0.00000000000E+00 -0.61708579414E+03  0.13601547516E+04  0.12121163603E+04 0.  0.
        3    1    3    3  502    0  0.42554906025E+03 -0.35056011979E+03 -0.26170858315E+02  0.55196858996E+03  0.10100000352E+00 0.  1.
       -3    1    3    3    0  502 -0.42554906025E+03  0.35056011979E+03 -0.59091493583E+03  0.80818616163E+03  0.10100000352E+00 0. -1.
</event>
<event>
 5   0  0.3944074E-03  0.1214587E+04  0.7818609E-02  0.9100183E-01
       -1   -1    0    0    0  501  0.00000000000E+00  0.00000000000E+00  0.14193053283E+04  0.14193053283E+04  0.50400001928E-02 0. -1.
        1   -1    0    0  501    0  0.00000000000E+00  0.00000000000E+00 -0.25984934939E+03  0.25984934944E+03  0.50400001928E-02 0.  1.
    10030    2    1    2    0    0  0.00000000000E+00  0.00000000000E+00  0.11594559789E+04  0.16791546778E+04  0.12145872817E+04 0.  0.
        4    1    3    3  502    0 -0.78594729791E+02  0.60183402629E+03  0.60814905542E+03  0.85920207941E+03  0.12699999809E+01 0.  1.
       -4    1    3    3    0  502  0.78594729791E+02 -0.60183402629E+03  0.55130692351E+03  0.81995259836E+03  0.12699999809E+01 0. -1.
</event>
<event>
 5   0  0.6493047E-03  0.1202314E+04  0.7818609E-02  0.9110834E-01
        2   -1    0    0  501    0  0.00000000000E+00  0.00000000000E+00  0.10713645608E+04  0.10713645608E+04  0.25500000920E-02 0.  1.
       -2   -1    0    0    0  501  0.00000000000E+00  0.00000000000E+00 -0.33731702437E+03  0.33731702438E+03  0.25500000920E-02 0. -1.
    10030    2    1    2    0    0  0.00000000000E+00  0.00000000000E+00  0.73404753643E+03  0.14086815852E+04  0.12023136125E+04 0.  0.
        3    1    3    3  502    0  0.34622607192E+03  0.25589640809E+03  0.85860284557E+03  0.96049691367E+03  0.10100000352E+00 0.  1.
       -3    1    3    3    0  502 -0.34622607192E+03 -0.25589640809E+03 -0.12455530913E+03  0.44818467151E+03  0.10100000352E+00 0. -1.
</event>
<event>
 5   0  0.6585930E-03  0.1205277E+04  0.7818609E-02  0.9108250E-01
       -2   -1    0    0    0  501  0.00000000000E+00  0.00000000000E+00  0.44076932531E+03  0.44076932532E+03  0.25500000920E-02 0.  1.
        2   -1    0    0  501    0  0.00000000000E+00  0.00000000000E+00 -0.82395314519E+03  0.82395314520E+03  0.25500000920E-02 0. -1.
    10030    2    1    2    0    0  0.00000000000E+00  0.00000000000E+00 -0.38318381988E+03  0.12647224705E+04  0.12052771829E+04 0.  0.
        2    1    3    3  502    0 -0.29236736446E+03 -0.26646279484E+03 -0.66864895910E+03  0.77689930322E+03  0.25500000920E-02 0. -1.
       -2    1    3    3    0  502  0.29236736446E+03  0.26646279484E+03  0.28546513922E+03  0.48782316730E+03  0.25500000920E-02 0.  1.
</event>
<event>
 5   0  0.3701879E-03  0.1204784E+04  0.7818609E-02  0.9108680E-01
       -1   -1    0    0    0  501  0.00000000000E+00  0.00000000000E+00  0.45715448159E+03  0.45715448162E+03  0.50400001928E-02 0.  1.
        1   -1    0    0  501    0  0.00000000000E+00  0.00000000000E+00 -0.79377077057E+03  0.79377077058E+03  0.50400001928E-02 0. -1.
    10030    2    1    2    0    0  0.00000000000E+00  0.00000000000E+00 -0.33661628897E+03  0.12509252522E+04  0.12047835742E+04 0.  0.
        1    1    3    3  502    0 -0.20686928186E+03  0.56486453822E+03 -0.13532652682E+03  0.61658747571E+03  0.50400001928E-02 0. -1.
       -1    1    3    3    0  502  0.20686928186E+03 -0.56486453822E+03 -0.20128976215E+03  0.63433777649E+03  0.50400001928E-02 0.  1.
</event>
<event>
 5   0  0.6349142E-03  0.1210367E+04  0.7818609E-02  0.9103831E-01
        2   -1    0    0  501    0  0.00000000000E+00  0.00000000000E+00  0.17497099208E+04  0.17497099208E+04  0.25500000920E-02 0. -1.
       -2   -1    0    0    0  501  0.00000000000E+00  0.00000000000E+00 -0.20931865390E+03  0.20931865392E+03  0.25500000920E-02 0.  1.
    10030    2    1    2    0    0  0.00000000000E+00  0.00000000000E+00  0.15403912669E+04  0.19590285747E+04  0.12103667632E+04 0.  0.
        1    1    3    3  502    0  0.42271144585E+03  0.44487212452E+02  0.72938931171E+02  0.43125881583E+03  0.50400001928E-02 0.  1.
       -1    1    3    3    0  502 -0.42271144585E+03 -0.44487212452E+02  0.14674523357E+04  0.15277697589E+04  0.50400001928E-02 0. -1.
</event>
<event>
 5   0  0.3648616E-03  0.1198539E+04  0.7818609E-02  0.9114136E-01
        1   -1    0    0  501    0  0.00000000000E+00  0.00000000000E+00  0.21429751197E+04  0.21429751197E+04  0.50400001928E-02 0.  1.
       -1   -1    0    0    0  501  0.00000000000E+00  0.00000000000E+00 -0.16758189575E+03  0.16758189582E+03  0.50400001928E-02 0. -1.
    10030    2    1    2    0    0  0.00000000000E+00  0.00000000000E+00  0.19753932240E+04  0.23105570156E+04  0.11985388324E+04 0.  0.
        2    1    3    3  502    0  0.59839685917E+03  0.59944818503E+01  0.92645715672E+03  0.11029222992E+04  0.25500000920E-02 0. -1.
       -2    1    3    3    0  502 -0.59839685917E+03 -0.59944818503E+01  0.10489360673E+04  0.12076347163E+04  0.25500000920E-02 0.  1.
</event>
<event>
 5   0  0.6640844E-03  0.1131286E+04  0.7818609E-02  0.9175223E-01
       -2   -1    0    0    0  501  0.00000000000E+00  0.00000000000E+00  0.61661844300E+03  0.61661844301E+03  0.25500000920E-02 0. -1.
        2   -1    0    0  501    0  0.00000000000E+00  0.00000000000E+00 -0.51888207179E+03  0.51888207179E+03  0.25500000920E-02 0.  1.
    10030    2    1    2    0    0  0.00000000000E+00  0.00000000000E+00  0.97736371215E+02  0.11355005148E+04  0.11312864451E+04 0.  0.
        5    1    3    3  502    0 -0.45338134310E+03 -0.86677186502E+01  0.38821096678E+03  0.59695863872E+03  0.46999998093E+01 0. -1.
       -5    1    3    3    0  502  0.45338134310E+03  0.86677186502E+01 -0.29047459557E+03  0.53854187608E+03  0.46999998093E+01 0.  1.
</event>
<event>
 5   0  0.3648616E-03  0.1221508E+04  0.7818609E-02  0.9094236E-01
        1   -1    0    0  501    0  0.00000000000E+00  0.00000000000E+00  0.36149464765E+03  0.36149464769E+03  0.50400001928E-02 0.  1.
       -1   -1    0    0    0  501  0.00000000000E+00  0.00000000000E+00 -0.10318832288E+04  0.10318832288E+04  0.50400001928E-02 0. -1.
    10030    2    1    2    0    0  0.00000000000E+00  0.00000000000E+00 -0.67038858115E+03  0.13933778765E+04  0.12215076983E+04 0.  0.
        2    1    3    3  502    0 -0.69837271620E+02  0.86511293879E+02  0.34985367119E+03  0.36709540957E+03  0.25500000920E-02 0.  1.
       -2    1    3    3    0  502  0.69837271620E+02 -0.86511293879E+02 -0.10202422523E+04  0.10262824669E+04  0.25500000920E-02 0. -1.
</event>
<event>
 5   0  0.3701879E-03  0.1204428E+04  0.7818609E-02  0.9108990E-01
       -1   -1    0    0    0  501  0.00000000000E+00  0.00000000000E+00  0.15861487288E+03  0.15861487296E+03  0.50400001928E-02 0.  1.
        1   -1    0    0  501    0  0.00000000000E+00  0.00000000000E+00 -0.22864291313E+04  0.22864291313E+04  0.50400001928E-02 0. -1.
    10030    2    1    2    0    0  0.00000000000E+00  0.00000000000E+00 -0.21278142584E+04  0.24450440043E+04  0.12044279408E+04 0.  0.
        1    1    3    3  502    0 -0.39159989533E+03 -0.16862777741E+03 -0.20053870109E+03  0.47117043201E+03  0.50400001928E-02 0.  1.
       -1    1    3    3    0  502  0.39159989533E+03  0.16862777741E+03 -0.19272755573E+04  0.19738735723E+04  0.50400001928E-02 0. -1.
</event>
<event>
 5   0  0.3731281E-03  0.1211030E+04  0.7818609E-02  0.9103257E-01
        1   -1    0    0  501    0  0.00000000000E+00  0.00000000000E+00  0.90361823454E+03  0.90361823456E+03  0.50400001928E-02 0.  1.
       -1   -1    0    0    0  501  0.00000000000E+00  0.00000000000E+00 -0.40575577288E+03  0.40575577292E+03  0.50400001928E-02 0. -1.
    10030    2    1    2    0    0  0.00000000000E+00  0.00000000000E+00  0.49786246166E+03  0.13093740075E+04  0.12110298348E+04 0.  0.
        5    1    3    3  502    0  0.28061909780E+03  0.72726332388E+02  0.82369222716E+03  0.87322801865E+03  0.46999998093E+01 0.  1.
       -5    1    3    3    0  502 -0.28061909780E+03 -0.72726332388E+02 -0.32582976551E+03  0.43614598882E+03  0.46999998093E+01 0. -1.
</event>
<event>
 5   0  0.6349142E-03  0.1198856E+04  0.7818609E-02  0.9113859E-01
       -2   -1    0    0    0  501  0.00000000000E+00  0.00000000000E+00  0.45674625708E+03  0.45674625708E+03  0.25500000920E-02 0.  1.
        2   -1    0    0  501    0  0.00000000000E+00  0.00000000000E+00 -0.78668141474E+03  0.78668141475E+03  0.25500000920E-02 0. -1.
    10030    2    1    2    0    0  0.00000000000E+00  0.00000000000E+00 -0.32993515767E+03  0.12434276718E+04  0.11988557740E+04 0.  0.
        1    1    3    3  502    0  0.59195413288E+03  0.74393444970E+02 -0.10476016747E+03  0.60573820484E+03  0.50400001928E-02 0.  1.
       -1    1    3    3    0  502 -0.59195413288E+03 -0.74393444970E+02 -0.22517499020E+03  0.63768946700E+03  0.50400001928E-02 0. -1.
</event>
<event>
 5   0  0.3772254E-03  0.1140131E+04  0.7818609E-02  0.9166937E-01
       -1   -1    0    0    0  501  0.00000000000E+00  0.00000000000E+00  0.42930208587E+03  0.42930208590E+03  0.50400001928E-02 0.  1.
        1   -1    0    0  501    0  0.00000000000E+00  0.00000000000E+00 -0.75698302987E+03  0.75698302989E+03  0.50400001928E-02 0. -1.
    10030    2    1    2    0    0  0.00000000000E+00  0.00000000000E+00 -0.32768094400E+03  0.11862851158E+04  0.11401305078E+04 0.  0.
        3    1    3    3  502    0  0.26449046805E+02  0.56811653286E+03 -0.20438505496E+03  0.60434196269E+03  0.10100000352E+00 0.  1.
       -3    1    3    3    0  502 -0.26449046805E+02 -0.56811653286E+03 -0.12329588904E+03  0.58194315310E+03  0.10100000352E+00 0. -1.
</event>
<event>
 5   0  0.6585930E-03  0.1166882E+04  0.7818609E-02  0.9142349E-01
        2   -1    0    0  501    0  0.00000000000E+00  0.00000000000E+00  0.68548214412E+03  0.68548214413E+03  0.25500000920E-02 0. -1.
       -2   -1    0    0    0  501  0.00000000000E+00  0.00000000000E+00 -0.49658953520E+03  0.49658953520E+03  0.25500000920E-02 0.  1.
    10030    2    1    2    0    0  0.00000000000E+00  0.00000000000E+00  0.18889260893E+03  0.11820716793E+04  0.11668817581E+04 0.  0.
        2    1    3    3  502    0 -0.19551778886E+03  0.37451732256E+03  0.50206828232E+03  0.65617298845E+03  0.25500000920E-02 0. -1.
       -2    1    3    3    0  502  0.19551778886E+03 -0.37451732256E+03 -0.31317567339E+03  0.52589869088E+03  0.25500000920E-02 0.  1.
</event>
<event>
 5   0  0.3944074E-03  0.1183331E+04  0.7818609E-02  0.9127573E-01
       -1   -1    0    0    0  501  0.00000000000E+00  0.00000000000E+00  0.12836901313E+03  0.12836901322E+03  0.50400001928E-02 0.  1.
        1   -1    0    0  501    0  0.00000000000E+00  0.00000000000E+00 -0.27270470331E+04  0.27270470331E+04  0.50400001928E-02 0. -1.
    10030    2    1    2    0    0  0.00000000000E+00  0.00000000000E+00 -0.25986780200E+04  0.28554160463E+04  0.11833314608E+04 0.  0.
        4    1    3    3  502    0 -0.27060993570E+03 -0.24278896839E+03 -0.17296625902E+03  0.40261043222E+03  0.12699999809E+01 0.  1.
       -4    1    3    3    0  502  0.27060993570E+03  0.24278896839E+03 -0.24257117610E+04  0.24528056141E+04  0.12699999809E+01 0. -1.
</event>
<event>
 5   0  0.3731281E-03  0.1201516E+04  0.7818609E-02  0.9111531E-01
       -1   -1    0    0    0  501  0.00000000000E+00  0.00000000000E+00  0.56228969387E+03  0.56228969389E+03  0.50400001928E-02 0.  1.
        1   -1    0    0  501    0  0.00000000000E+00  0.00000000000E+00 -0.64185792833E+03  0.64185792835E+03  0.50400001928E-02 0. -1.
    10030    2    1    2    0    0  0.00000000000E+00  0.00000000000E+00 -0.79568234463E+02  0.12041476222E+04  0.12015158726E+04 0.  0.
        5    1    3    3  502    0  0.15696691078E+03  0.91397504761E+02  0.53409207573E+03  0.56415294940E+03  0.46999998093E+01 0.  1.
       -5    1    3    3    0  502 -0.15696691078E+03 -0.91397504761E+02 -0.61366031019E+03  0.63999467284E+03  0.46999998093E+01 0. -1.
</event>
<event>
 5   0  0.6640844E-03  0.1219393E+04  0.7818609E-02  0.9096049E-01
       -2   -1    0    0    0  501  0.00000000000E+00  0.00000000000E+00  0.17942454411E+03  0.17942454413E+03  0.25500000920E-02 0.  1.
        2   -1    0    0  501    0  0.00000000000E+00  0.00000000000E+00 -0.20717886650E+04  0.20717886650E+04  0.25500000920E-02 0. -1.
    10030    2    1    2    0    0  0.00000000000E+00  0.00000000000E+00 -0.18923641209E+04  0.22512132091E+04  0.12193928600E+04 0.  0.
        5    1    3    3  502    0  0.39325622888E+03 -0.38436125021E+03 -0.14322685832E+04  0.15342097042E+04  0.46999998093E+01 0. -1.
       -5    1    3    3    0  502 -0.39325622888E+03  0.38436125021E+03 -0.46009553770E+03  0.71700350489E+03  0.46999998093E+01 0.  1.
</event>
<event>
 5   0  0.3731281E-03  0.1184501E+04  0.7818609E-02  0.9126532E-01
        1   -1    0    0  501    0  0.00000000000E+00  0.00000000000E+00  0.90081048001E+03  0.90081048002E+03  0.50400001928E-02 0. -1.
       -1   -1    0    0    0  501  0.00000000000E+00  0.00000000000E+00 -0.38938338844E+03  0.38938338848E+03  0.50400001928E-02 0.  1.
    10030    2    1    2    0    0  0.00000000000E+00  0.00000000000E+00  0.51142709156E+03  0.12901938685E+04  0.11845009702E+04 0.  0.
        5    1    3    3  502    0 -0.38318626603E+03 -0.45038972697E+03  0.29110809504E+03  0.65912717561E+03  0.46999998093E+01 0. -1.
       -5    1    3    3    0  502  0.38318626603E+03  0.45038972697E+03  0.22031899653E+03  0.63106669288E+03  0.46999998093E+01 0.  1.
</event>
<event>
 5   0  0.3648616E-03  0.1177311E+04  0.7818609E-02  0.9132951E-01
        1   -1    0    0  501    0  0.00000000000E+00  0.00000000000E+00  0.33809144053E+03  0.33809144056E+03  0.50400001928E-02 0. -1.
       -1   -1    0    0    0  501  0.00000000000E+00  0.00000000000E+00 -0.10249154931E+04  0.10249154931E+04  0.50400001928E-02 0.  1.
    10030    2    1    2    0    0  0.00000000000E+00  0.00000000000E+00 -0.68682405258E+03  0.13630069337E+04  0.11773107585E+04 0.  0.
        2    1    3    3  502    0  0.26100132964E+03 -0.45853746192E+03 -0.64561449111E+03  0.83378436612E+03  0.25500000920E-02 0.  1.
       -2    1    3    3    0  502 -0.26100132964E+03  0.45853746192E+03 -0.41209561472E+02  0.52922256756E+03  0.25500000920E-02 0. -1.
</event>
<event>
 5   0  0.6349142E-03  0.1315210E+04  0.7818609E-02  0.9017590E-01
        2   -1    0    0  501    0  0.00000000000E+00  0.00000000000E+00  0.27813518841E+04  0.27813518841E+04  0.25500000920E-02 0. -1.
       -2   -1    0    0    0  501  0.00000000000E+00  0.00000000000E+00 -0.15547988705E+03  0.15547988707E+03  0.25500000920E-02 0.  1.
    10030    2    1    2    0    0  0.00000000000E+00  0.00000000000E+00  0.26258719970E+04  0.29368317712E+04  0.13152099100E+04 0.  0.
        1    1    3    3  502    0  0.48847763294E+03  0.70563036229E+02  0.22833296315E+04  0.23360615887E+04  0.50400001928E-02 0. -1.
       -1    1    3    3    0  502 -0.48847763294E+03 -0.70563036229E+02  0.34254236556E+03  0.60077018251E+03  0.50400001928E-02 0.  1.
</event>
<event>
 5   0  0.3944074E-03  0.1153287E+04  0.7818609E-02  0.9154756E-01
       -1   -1    0    0    0  501  0.00000000000E+00  0.00000000000E+00  0.19812035644E+03  0.19812035650E+03  0.50400001928E-02 0. -1.
        1   -1    0    0  501    0  0.00000000000E+00  0.00000000000E+00 -0.16783633155E+04  0.16783633155E+04  0.50400001928E-02 0.  1.
    10030    2    1    2    0    0  0.00000000000E+00  0.00000000000E+00 -0.14802429591E+04  0.18764836720E+04  0.11532873681E+04 0.  0.
        4    1    3    3  502    0  0.72893013474E+02 -0.16063503832E+03  0.15313955042E+03  0.23360295750E+03  0.12699999809E+01 0. -1.
       -4    1    3    3    0  502 -0.72893013474E+02  0.16063503832E+03 -0.16333825095E+04  0.16428807145E+04  0.12699999809E+01 0.  1.
</event>
<event>
 5   0  0.6349142E-03  0.1179941E+04  0.7818609E-02  0.9130598E-01
       -2   -1    0    0    0  501  0.00000000000E+00  0.00000000000E+00  0.53973481726E+03  0.53973481727E+03  0.25500000920E-02 0. -1.
        2   -1    0    0  501    0  0.00000000000E+00  0.00000000000E+00 -0.64488134672E+03  0.64488134673E+03  0.25500000920E-02 0.  1.
    10030    2    1    2    0    0  0.00000000000E+00  0.00000000000E+00 -0.10514652946E+03  0.11846161640E+04  0.11799405338E+04 0.  0.
        1    1    3    3  502    0 -0.74787944997E+02 -0.72092765427E+02  0.53048125531E+03  0.54055616342E+03  0.50400001928E-02 0. -1.
       -1    1    3    3    0  502  0.74787944997E+02  0.72092765427E+02 -0.63562778477E+03  0.64406000058E+03  0.50400001928E-02 0.  1.
</event>
<event>
 5   0  0.6349142E-03  0.1194951E+04  0.7818609E-02  0.9117287E-01
        2   -1    0    0  501    0  0.00000000000E+00  0.00000000000E+00  0.18115037689E+04  0.18115037689E+04  0.25500000920E-02 0.  1.
       -2   -1    0    0    0  501  0.00000000000E+00  0.00000000000E+00 -0.19706118418E+03  0.19706118420E+03  0.25500000920E-02 0. -1.
    10030    2    1    2    0    0  0.00000000000E+00  0.00000000000E+00  0.16144425847E+04  0.20085649531E+04  0.11949511754E+04 0.  0.
        1    1    3    3  502    0  0.23049207700E+02  0.35773021221E+03  0.37784714240E+01  0.35849190727E+03  0.50400001928E-02 0. -1.
       -1    1    3    3    0  502 -0.23049207700E+02 -0.35773021221E+03  0.16106641133E+04  0.16500730458E+04  0.50400001928E-02 0.  1.
</event>
<event>
 5   0  0.3944074E-03  0.1161689E+04  0.7818609E-02  0.9147067E-01
        1   -1    0    0  501    0  0.00000000000E+00  0.00000000000E+00  0.72867028231E+03  0.72867028232E+03  0.50400001928E-02 0. -1.
       -1   -1    0    0    0  501  0.00000000000E+00  0.00000000000E+00 -0.46300811562E+03  0.46300811564E+03  0.50400001928E-02 0.  1.
    10030    2    1    2    0    0  0.00000000000E+00  0.00000000000E+00  0.26566216669E+03  0.11916783980E+04  0.11616888643E+04 0.  0.
        4    1    3    3  502    0  0.15366361180E+03  0.73970525743E+02 -0.43674550111E+03  0.46886286898E+03  0.12699999809E+01 0.  1.
       -4    1    3    3    0  502 -0.15366361180E+03 -0.73970525743E+02  0.70240766780E+03  0.72281552899E+03  0.12699999809E+01 0. -1.
</event>
<event>
 5   0  0.3772254E-03  0.1221367E+04  0.7818609E-02  0.9094357E-01
        1   -1    0    0  501    0  0.00000000000E+00  0.00000000000E+00  0.67627145695E+03  0.67627145697E+03  0.50400001928E-02 0.  1.
       -1   -1    0    0    0  501  0.00000000000E+00  0.00000000000E+00 -0.55145689819E+03  0.55145689821E+03  0.50400001928E-02 0. -1.
    10030    2    1    2    0    0  0.00000000000E+00  0.00000000000E+00  0.12481455876E+03  0.12277283552E+04  0.12213673649E+04 0.  0.
        3    1    3    3  502    0 -0.68319082535E+01  0.97415282384E+02  0.66837197668E+03  0.67546837204E+03  0.10100000352E+00 0.  1.
       -3    1    3    3    0  502  0.68319082535E+01 -0.97415282384E+02 -0.54355741792E+03  0.55225998315E+03  0.10100000352E+00 0. -1.
</event>
<event>
 5   0  0.2537625E-03  0.1145022E+04  0.7818609E-02  0.9162388E-01
        3   -1    0    0  501    0  0.00000000000E+00  0.00000000000E+00  0.35225809288E+03  0.35225810736E+03  0.10100000352E+00 0. -1.
       -3   -1    0    0    0  501  0.00000000000E+00  0.00000000000E+00 -0.93047977635E+03  0.93047978183E+03  0.10100000352E+00 0.  1.
    10030    2    1    2    0    0  0.00000000000E+00  0.00000000000E+00 -0.57822168346E+03  0.12827378892E+04  0.11450223479E+04 0.  0.
        5    1    3    3  502    0  0.14786474077E+03 -0.47422558009E+03  0.29710874716E+02  0.49765320098E+03  0.46999998093E+01 0.  1.
       -5    1    3    3    0  502 -0.14786474077E+03  0.47422558009E+03 -0.60793255818E+03  0.78508468821E+03  0.46999998093E+01 0. -1.
</event>
<event>
 5   0  0.6658994E-03  0.1194945E+04  0.7818609E-02  0.9117293E-01
       -2   -1    0    0    0  501  0.00000000000E+00  0.00000000000E+00  0.58959142203E+03  0.58959142204E+03  0.25500000920E-02 0.  1.
        2   -1    0    0  501    0  0.00000000000E+00  0.00000000000E+00 -0.60545857952E+03  0.60545857953E+03  0.25500000920E-02 0. -1.
    10030    2    1    2    0    0  0.00000000000E+00  0.00000000000E+00 -0.15867157487E+02  0.11950500016E+04  0.11949446596E+04 0.  0.
        4    1    3    3  502    0  0.93115025569E+02  0.55010900380E+03 -0.22168414009E+03  0.60036305259E+03  0.12699999809E+01 0. -1.
       -4    1    3    3    0  502 -0.93115025569E+02 -0.55010900380E+03  0.20581698260E+03  0.59468694897E+03  0.12699999809E+01 0.  1.
</event>
<event>
 5   0  0.3944074E-03  0.1199346E+04  0.7818609E-02  0.9113429E-01
        1   -1    0    0  501    0  0.00000000000E+00  0.00000000000E+00  0.40493254481E+03  0.40493254484E+03  0.50400001928E-02 0. -1.
       -1   -1    0    0    0  501  0.00000000000E+00  0.00000000000E+00 -0.88806882364E+03  0.88806882366E+03  0.50400001928E-02 0.  1.
    10030    2    1    2    0    0  0.00000000000E+00  0.00000000000E+00 -0.48313627884E+03  0.12930013685E+04  0.11993464366E+04 0.  0.
        4    1    3    3  502    0  0.40291899264E+03  0.41442752507E+03 -0.69369161575E+02  0.58215769483E+03  0.12699999809E+01 0.  1.
       -4    1    3    3    0  502 -0.40291899264E+03 -0.41442752507E+03 -0.41376711726E+03  0.71084367367E+03  0.12699999809E+01 0. -1.
</event>
<event>
 5   0  0.3701879E-03  0.1189455E+04  0.7818609E-02  0.9122137E-01
       -1   -1    0    0    0  501  0.00000000000E+00  0.00000000000E+00  0.47943084970E+03  0.47943084972E+03  0.50400001928E-02 0. -1.
        1   -1    0    0  501    0  0.00000000000E+00  0.00000000000E+00 -0.73775188042E+03  0.73775188043E+03  0.50400001928E-02 0.  1.
    10030    2    1    2    0    0  0.00000000000E+00  0.00000000000E+00 -0.25832103072E+03  0.12171827302E+04  0.11894553559E+04 0.  0.
        1    1    3    3  502    0 -0.32664627386E+02  0.33192527803E+03  0.37471976939E+03  0.50165353948E+03  0.50400001928E-02 0. -1.
       -1    1    3    3    0  502  0.32664627386E+02 -0.33192527803E+03 -0.63304080011E+03  0.71552919067E+03  0.50400001928E-02 0.  1.
</event>
<event>
 5   0  0.3731281E-03  0.1031631E+04  0.7818609E-02  0.9274517E-01
        1   -1    0    0  501    0  0.00000000000E+00  0.00000000000E+00  0.65078497074E+03  0.65078497076E+03  0.50400001928E-02 0. -1.
       -1   -1    0    0    0  501  0.00000000000E+00  0.00000000000E+00 -0.40883789337E+03  0.40883789341E+03  0.50400001928E-02 0.  1.
    10030    2    1    2    0    0  0.00000000000E+00  0.00000000000E+00  0.24194707737E+03  0.10596228642E+04  0.10316308574E+04 0.  0.
        5    1    3    3  502    0  0.61233050911E+02  0.77679129622E+02 -0.39898336724E+03  0.41108800887E+03  0.46999998093E+01 0.  1.
       -5    1    3    3    0  502 -0.61233050911E+02 -0.77679129622E+02  0.64093044461E+03  0.64853485530E+03  0.46999998093E+01 0. -1.
</event>
<event>
 5   0  0.6658994E-03  0.1193675E+04  0.7818609E-02  0.9118411E-01
        2   -1    0    0  501    0  0.00000000000E+00  0.00000000000E+00  0.59895879589E+03  0.59895879590E+03  0.25500000920E-02 0.  1.
       -2   -1    0    0    0  501  0.00000000000E+00  0.00000000000E+00 -0.59472375730E+03  0.59472375730E+03  0.25500000920E-02 0. -1.
    10030    2    1    2    0    0  0.00000000000E+00  0.00000000000E+00  0.42350385934E+01  0.11936825532E+04  0.11936750405E+04 0.  0.
        4    1    3    3  502    0 -0.53009910694E+03 -0.27093761193E+03  0.44557861025E+02  0.59699184970E+03  0.12699999809E+01 0. -1.
       -4    1    3    3    0  502  0.53009910694E+03  0.27093761193E+03 -0.40322822431E+02  0.59669070350E+03  0.12699999809E+01 0.  1.
</event>
<event>
 5   0  0.6585930E-03  0.1194070E+04  0.7818609E-02  0.9118063E-01
       -2   -1    0    0    0  501  0.00000000000E+00  0.00000000000E+00  0.46154157990E+03  0.46154157991E+03  0.25500000920E-02 0. -1.
        2   -1    0    0  501    0  0.00000000000E+00  0.00000000000E+00 -0.77230524625E+03  0.77230524626E+03  0.25500000920E-02 0.  1.
    10030    2    1    2    0    0  0.00000000000E+00  0.00000000000E+00 -0.31076366635E+03  0.12338468262E+04  0.11940703221E+04 0.  0.
        2    1    3    3  502    0  0.46611192279E+03  0.23677850389E+03  0.14253932679E+03  0.54188729839E+03  0.25500000920E-02 0. -1.
       -2    1    3    3    0  502 -0.46611192279E+03 -0.23677850389E+03 -0.45330299315E+03  0.69195952777E+03  0.25500000920E-02 0.  1.
</event>
<event>
 5   0  0.3731281E-03  0.1174163E+04  0.7818609E-02  0.9135777E-01
       -1   -1    0    0    0  501  0.00000000000E+00  0.00000000000E+00  0.34748920720E+03  0.34748920723E+03  0.50400001928E-02 0.  1.
        1   -1    0    0  501    0  0.00000000000E+00  0.00000000000E+00 -0.99187222826E+03  0.99187222827E+03  0.50400001928E-02 0. -1.
    10030    2    1    2    0    0  0.00000000000E+00  0.00000000000E+00 -0.64438302107E+03  0.13393614355E+04  0.11741633520E+04 0.  0.
        5    1    3    3  502    0 -0.93313820698E+02 -0.18111241109E+03 -0.95023009907E+03  0.97183769517E+03  0.46999998093E+01 0. -1.
       -5    1    3    3    0  502  0.93313820698E+02  0.18111241109E+03  0.30584707800E+03  0.36752374033E+03  0.46999998093E+01 0.  1.
</event>
<event>
 5   0  0.3701879E-03  0.1286167E+04  0.7818609E-02  0.9040607E-01
        1   -1    0    0  501    0  0.00000000000E+00  0.00000000000E+00  0.17514602988E+04  0.17514602988E+04  0.50400001928E-02 0.  1.
       -1   -1    0    0    0  501  0.00000000000E+00  0.00000000000E+00 -0.23612102101E+03  0.23612102106E+03  0.50400001928E-02 0. -1.
    10030    2    1    2    0    0  0.00000000000E+00  0.00000000000E+00  0.15153392778E+04  0.19875813198E+04  0.12861673205E+04 0.  0.
        1    1    3    3  502    0  0.20487336325E+03 -0.47279070197E+03  0.16305549307E+03  0.54045465738E+03  0.50400001928E-02 0. -1.
       -1    1    3    3    0  502 -0.20487336325E+03  0.47279070197E+03  0.13522837847E+04  0.14471266625E+04  0.50400001928E-02 0.  1.
</event>
<event>
 5   0  0.6493047E-03  0.1231524E+04  0.7818609E-02  0.9085702E-01
        2   -1    0    0  501    0  0.00000000000E+00  0.00000000000E+00  0.70757571596E+03  0.70757571596E+03  0.25500000920E-02 0.  1.
       -2   -1    0    0    0  501  0.00000000000E+00  0.00000000000E+00 -0.53586194734E+03  0.53586194734E+03  0.25500000920E-02 0. -1.
    10030    2    1    2    0    0  0.00000000000E+00  0.00000000000E+00  0.17171376862E+03  0.12434376633E+04  0.12315240981E+04 0.  0.
        3    1    3    3  502    0  0.20817741543E+03 -0.46153303502E+03  0.43969291730E+03  0.67058217277E+03  0.10100000352E+00 0.  1.
       -3    1    3    3    0  502 -0.20817741543E+03  0.46153303502E+03 -0.26797914868E+03  0.57285549054E+03  0.10100000352E+00 0. -1.
</event>
<event>
 5   0  0.6658994E-03  0.1138940E+04  0.7818609E-02  0.9168048E-01
        2   -1    0    0  501    0  0.00000000000E+00  0.00000000000E+00  0.95102034717E+03  0.95102034717E+03  0.25500000920E-02 0.  1.
       -2   -1    0    0    0  501  0.00000000000E+00  0.00000000000E+00 -0.34099795057E+03  0.34099795058E+03  0.25500000920E-02 0. -1.
    10030    2    1    2    0    0  0.00000000000E+00  0.00000000000E+00  0.61002239660E+03  0.12920182978E+04  0.11389398392E+04 0.  0.
        4    1    3    3  502    0 -0.27480963364E+03  0.37229428683E+03  0.68154289103E+03  0.82378740945E+03  0.12699999809E+01 0.  1.
       -4    1    3    3    0  502  0.27480963364E+03 -0.37229428683E+03 -0.71520494436E+02  0.46823088831E+03  0.12699999809E+01 0. -1.
</event>
<event>
 5   0  0.6658994E-03  0.1188376E+04  0.7818609E-02  0.9123093E-01
        2   -1    0    0  501    0  0.00000000000E+00  0.00000000000E+00  0.83820587086E+03  0.83820587086E+03  0.25500000920E-02 0.  1.
       -2   -1    0    0    0  501  0.00000000000E+00  0.00000000000E+00 -0.42120810472E+03  0.42120810472E+03  0.25500000920E-02 0. -1.
    10030    2    1    2    0    0  0.00000000000E+00  0.00000000000E+00  0.41699776614E+03  0.12594139756E+04  0.11883755404E+04 0.  0.
        4    1    3    3  502    0  0.14867563453E+03  0.57477697962E+03  0.18287783274E+03  0.62122374006E+03  0.12699999809E+01 0.  1.
       -4    1    3    3    0  502 -0.14867563453E+03 -0.57477697962E+03  0.23411993340E+03  0.63819023553E+03  0.12699999809E+01 0. -1.
</event>
<event>
 5   0  0.3772254E-03  0.8932093E+03  0.7818609E-02  0.9434110E-01
       -1   -1    0    0    0  501  0.00000000000E+00  0.00000000000E+00  0.13920496942E+03  0.13920496951E+03  0.50400001928E-02 0. -1.
        1   -1    0    0  501    0  0.00000000000E+00  0.00000000000E+00 -0.14328204481E+04  0.14328204481E+04  0.50400001928E-02 0.  1.
    10030    2    1    2    0    0  0.00000000000E+00  0.00000000000E+00 -0.12936154787E+04  0.15720254176E+04  0.89320932986E+03 0.  0.
        3    1    3    3  502    0  0.25223664346E+03  0.50895536740E+02 -0.12892394120E+04  0.13146680006E+04  0.10100000352E+00 0.  1.
       -3    1    3    3    0  502 -0.25223664346E+03 -0.50895536740E+02 -0.43760666700E+01  0.25735741707E+03  0.10100000352E+00 0. -1.
</event>
<event>
 5   0  0.3772254E-03  0.1205203E+04  0.7818609E-02  0.9108315E-01
        1   -1    0    0  501    0  0.00000000000E+00  0.00000000000E+00  0.50760607887E+03  0.50760607890E+03  0.50400001928E-02 0.  1.
       -1   -1    0    0    0  501  0.00000000000E+00  0.00000000000E+00 -0.71537429571E+03  0.71537429573E+03  0.50400001928E-02 0. -1.
    10030    2    1    2    0    0  0.00000000000E+00  0.00000000000E+00 -0.20776821684E+03  0.12229803746E+04  0.12052026240E+04 0.  0.
        3    1    3    3  502    0  0.94774197320E+02  0.10512699616E+02  0.49990173607E+03  0.50891494501E+03  0.10100000352E+00 0.  1.
       -3    1    3    3    0  502 -0.94774197320E+02 -0.10512699616E+02 -0.70766995290E+03  0.71406542962E+03  0.10100000352E+00 0. -1.
</event>
<event>
 5   0  0.3701879E-03  0.1201727E+04  0.7818609E-02  0.9111346E-01
        1   -1    0    0  501    0  0.00000000000E+00  0.00000000000E+00  0.32325778769E+04  0.32325778769E+04  0.50400001928E-02 0. -1.
       -1   -1    0    0    0  501  0.00000000000E+00  0.00000000000E+00 -0.11168697032E+03  0.11168697043E+03  0.50400001928E-02 0.  1.
    10030    2    1    2    0    0  0.00000000000E+00  0.00000000000E+00  0.31208909066E+04  0.33442648474E+04  0.12017268069E+04 0.  0.
        1    1    3    3  502    0  0.45913808673E+03 -0.70363441491E+02  0.26211511231E+04  0.26619902342E+04  0.50400001928E-02 0. -1.
       -1    1    3    3    0  502 -0.45913808673E+03  0.70363441491E+02  0.49973978352E+03  0.68227461322E+03  0.50400001928E-02 0.  1.
</event>
<event>
 5   0  0.2537625E-03  0.1211953E+04  0.7818609E-02  0.9102458E-01
        4   -1    0    0  501    0  0.00000000000E+00  0.00000000000E+00  0.10646559645E+04  0.10646567220E+04  0.12699999809E+01 0. -1.
       -4   -1    0    0    0  501  0.00000000000E+00  0.00000000000E+00 -0.34490498097E+03  0.34490731914E+03  0.12699999809E+01 0.  1.
    10030    2    1    2    0    0  0.00000000000E+00  0.00000000000E+00  0.71975098357E+03  0.14095640412E+04  0.12119526838E+04 0.  0.
        5    1    3    3  502    0  0.38474401478E+03  0.17094842840E+03  0.86674994994E+03  0.96360203808E+03  0.46999998093E+01 0. -1.
       -5    1    3    3    0  502 -0.38474401478E+03 -0.17094842840E+03 -0.14699896637E+03  0.44596200308E+03  0.46999998093E+01 0.  1.
</event>
<event>
 5   0  0.6493047E-03  0.1207849E+04  0.7818609E-02  0.9106014E-01
       -2   -1    0    0    0  501  0.00000000000E+00  0.00000000000E+00  0.22471780467E+03  0.22471780469E+03  0.25500000920E-02 0. -1.
        2   -1    0    0  501    0  0.00000000000E+00  0.00000000000E+00 -0.16230348805E+04  0.16230348805E+04  0.25500000920E-02 0.  1.
    10030    2    1    2    0    0  0.00000000000E+00  0.00000000000E+00 -0.13983170758E+04  0.18477526852E+04  0.12078490556E+04 0.  0.
        3    1    3    3  502    0 -0.51443421087E+03  0.31226946760E+03 -0.62160497735E+03  0.86518641678E+03  0.10100000352E+00 0.  1.
       -3    1    3    3    0  502  0.51443421087E+03 -0.31226946760E+03 -0.77671209849E+03  0.98256626843E+03  0.10100000352E+00 0. -1.
</event>
<event>
 5   0  0.6493047E-03  0.1180897E+04  0.7818609E-02  0.9129743E-01
       -2   -1    0    0    0  501  0.00000000000E+00  0.00000000000E+00  0.10434641147E+04  0.10434641147E+04  0.25500000920E-02 0. -1.
        2   -1    0    0  501    0  0.00000000000E+00  0.00000000000E+00 -0.33410786713E+03  0.33410786714E+03  0.25500000920E-02 0.  1.
    10030    2    1    2    0    0  0.00000000000E+00  0.00000000000E+00  0.70935624758E+03  0.13775719818E+04  0.11808972348E+04 0.  0.
        3    1    3    3  502    0 -0.38952766487E+03  0.29564046277E+03 -0.31331646873E+02  0.49001710911E+03  0.10100000352E+00 0.  1.
       -3    1    3    3    0  502  0.38952766487E+03 -0.29564046277E+03  0.74068789445E+03  0.88755487273E+03  0.10100000352E+00 0. -1.
</event>
<event>
 5   0  0.3772254E-03  0.1196256E+04  0.7818609E-02  0.9116140E-01
        1   -1    0    0  501    0  0.00000000000E+00  0.00000000000E+00  0.79856643264E+03  0.79856643266E+03  0.50400001928E-02 0.  1.
       -1   -1    0    0    0  501  0.00000000000E+00  0.00000000000E+00 -0.44799939292E+03  0.44799939295E+03  0.50400001928E-02 0. -1.
    10030    2    1    2    0    0  0.00000000000E+00  0.00000000000E+00  0.35056703972E+03  0.12465658256E+04  0.11962562887E+04 0.  0.
        3    1    3    3  502    0  0.58879510850E+03  0.11513531512E+02  0.28430181212E+03  0.65394171895E+03  0.10100000352E+00 0.  1.
       -3    1    3    3    0  502 -0.58879510850E+03 -0.11513531512E+02  0.66265227607E+02  0.59262410666E+03  0.10100000352E+00 0. -1.
</event>
<event>
 5   0  0.6585930E-03  0.1181710E+04  0.7818609E-02  0.9129018E-01
       -2   -1    0    0    0  501  0.00000000000E+00  0.00000000000E+00  0.37361118264E+03  0.37361118265E+03  0.25500000920E-02 0. -1.
        2   -1    0    0  501    0  0.00000000000E+00  0.00000000000E+00 -0.93441941634E+03  0.93441941634E+03  0.25500000920E-02 0.  1.
    10030    2    1    2    0    0  0.00000000000E+00  0.00000000000E+00 -0.56080823369E+03  0.13080305990E+04  0.11817098514E+04 0.  0.
        2    1    3    3  502    0 -0.20445552341E+03  0.69903605465E+02  0.32830947232E+03  0.39303394858E+03  0.25500000920E-02 0. -1.
       -2    1    3    3    0  502  0.20445552341E+03 -0.69903605465E+02 -0.88911770602E+03  0.91499665042E+03  0.25500000920E-02 0.  1.
</event>
<event>
 5   0  0.6349142E-03  0.1336850E+04  0.7818609E-02  0.9000843E-01
       -2   -1    0    0    0  501  0.00000000000E+00  0.00000000000E+00  0.21589689475E+03  0.21589689477E+03  0.25500000920E-02 0. -1.
        2   -1    0    0  501    0  0.00000000000E+00  0.00000000000E+00 -0.20694692218E+04  0.20694692218E+04  0.25500000920E-02 0.  1.
    10030    2    1    2    0    0  0.00000000000E+00  0.00000000000E+00 -0.18535723270E+04  0.22853661165E+04  0.13368499973E+04 0.  0.
        1    1    3    3  502    0  0.27077944692E+03 -0.15477310630E+02  0.11760193446E+03  0.29562014653E+03  0.50400001928E-02 0. -1.
       -1    1    3    3    0  502 -0.27077944692E+03  0.15477310630E+02 -0.19711742615E+04  0.19897459700E+04  0.50400001928E-02 0.  1.
</event>
<event>
 5   0  0.6658994E-03  0.1344290E+04  0.7818609E-02  0.8995161E-01
        2   -1    0    0  501    0  0.00000000000E+00  0.00000000000E+00  0.18950264634E+04  0.18950264634E+04  0.25500000920E-02 0.  1.
       -2   -1    0    0    0  501  0.00000000000E+00  0.00000000000E+00 -0.23840257881E+03  0.23840257882E+03  0.25500000920E-02 0. -1.
    10030    2    1    2    0    0  0.00000000000E+00  0.00000000000E+00  0.16566238846E+04  0.21334290422E+04  0.13442904386E+04 0.  0.
        4    1    3    3  502    0 -0.54311602841E+03  0.33667357589E+03  0.49748771707E+03  0.80982699298E+03  0.12699999809E+01 0. -1.
       -4    1    3    3    0  502  0.54311602841E+03 -0.33667357589E+03  0.11591361675E+04  0.13236020493E+04  0.12699999809E+01 0.  1.
</event>
<event>
 5   0  0.3731281E-03  0.1156288E+04  0.7818609E-02  0.9152002E-01
        1   -1    0    0  501    0  0.00000000000E+00  0.00000000000E+00  0.59038942612E+03  0.59038942614E+03  0.50400001928E-02 0.  1.
       -1   -1    0    0    0  501  0.00000000000E+00  0.00000000000E+00 -0.56615231442E+03  0.56615231445E+03  0.50400001928E-02 0. -1.
    10030    2    1    2    0    0  0.00000000000E+00  0.00000000000E+00  0.24237111694E+02  0.11565417406E+04  0.11562877497E+04 0.  0.
        5    1    3    3  502    0 -0.43174285703E+03  0.45335648315E+02 -0.36976504130E+03  0.57026791193E+03  0.46999998093E+01 0. -1.
       -5    1    3    3    0  502  0.43174285703E+03 -0.45335648315E+02  0.39400215299E+03  0.58627382866E+03  0.46999998093E+01 0.  1.
</event>
<event>
 5   0  0.6349142E-03  0.1204790E+04  0.7818609E-02  0.9108674E-01
        2   -1    0    0  501    0  0.00000000000E+00  0.00000000000E+00  0.36486858315E+03  0.36486858316E+03  0.25500000920E-02 0. -1.
       -2   -1    0    0    0  501  0.00000000000E+00  0.00000000000E+00 -0.99454929394E+03  0.99454929394E+03  0.25500000920E-02 0.  1.
    10030    2    1    2    0    0  0.00000000000E+00  0.00000000000E+00 -0.62968071078E+03  0.13594178771E+04  0.12047900925E+04 0.  0.
        1    1    3    3  502    0  0.59049414489E+03  0.69950107048E+02 -0.20600666667E+03  0.62929730602E+03  0.50400001928E-02 0. -1.
       -1    1    3    3    0  502 -0.59049414489E+03 -0.69950107048E+02 -0.42367404411E+03  0.73012057108E+03  0.50400001928E-02 0.  1.
</event>
<event>
 5   0  0.6493047E-03  0.1174584E+04  0.7818609E-02  0.9135399E-01
        2   -1    0    0  501    0  0.00000000000E+00  0.00000000000E+00  0.79583192696E+03  0.79583192696E+03  0.25500000920E-02 0.  1.
       -2   -1    0    0    0  501  0.00000000000E+00  0.00000000000E+00 -0.43339763700E+03  0.43339763701E+03  0.25500000920E-02 0. -1.
    10030    2    1    2    0    0  0.00000000000E+00  0.00000000000E+00  0.36243428996E+03  0.12292295640E+04  0.11745836311E+04 0.  0.
        3    1    3    3  502    0 -0.67604395389E+02 -0.35486729667E+03  0.66580451575E+03  0.75749377286E+03  0.10100000352E+00 0.  1.
       -3    1    3    3    0  502  0.67604395389E+02  0.35486729667E+03 -0.30337022579E+03  0.47173579112E+03  0.10100000352E+00 0. -1.
</event>
<event>
 5   0  0.3944074E-03  0.1155965E+04  0.7818609E-02  0.9152298E-01
        1   -1    0    0  501    0  0.00000000000E+00  0.00000000000E+00  0.71530509570E+03  0.71530509572E+03  0.50400001928E-02 0.  1.
       -1   -1    0    0    0  501  0.00000000000E+00  0.00000000000E+00 -0.46702265233E+03  0.46702265236E+03  0.50400001928E-02 0. -1.
    10030    2    1    2    0    0  0.00000000000E+00  0.00000000000E+00  0.24828244337E+03  0.11823277481E+04  0.11559648490E+04 0.  0.
        4    1    3    3  502    0 -0.25356664825E+03 -0.38087116066E+03 -0.23704570732E+03  0.51531656910E+03  0.12699999809E+01 0. -1.
       -4    1    3    3    0  502  0.25356664825E+03  0.38087116066E+03  0.48532815069E+03  0.66701117898E+03  0.12699999809E+01 0.  1.
</event>
<event>
 5   0  0.6640844E-03  0.1159492E+04  0.7818609E-02  0.9149071E-01
       -2   -1    0    0    0  501  0.00000000000E+00  0.00000000000E+00  0.94855579988E+03  0.94855579988E+03  0.25500000920E-02 0. -1.
        2   -1    0    0  501    0  0.00000000000E+00  0.00000000000E+00 -0.35433377902E+03  0.35433377902E+03  0.25500000920E-02 0.  1.
    10030    2    1    2    0    0  0.00000000000E+00  0.00000000000E+00  0.59422202086E+03  0.13028895789E+04  0.11594918908E+04 0.  0.
        5    1    3    3  502    0  0.41041071678E+02  0.52528749511E+03  0.56882605170E+03  0.77536861503E+03  0.46999998093E+01 0. -1.
       -5    1    3    3    0  502 -0.41041071678E+02 -0.52528749511E+03  0.25395969167E+02  0.52752096388E+03  0.46999998093E+01 0.  1.
</event>
<event>
 5   0  0.6585930E-03  0.1133792E+04  0.7818609E-02  0.9172867E-01
        2   -1    0    0  501    0  0.00000000000E+00  0.00000000000E+00  0.44225205468E+03  0.44225205469E+03  0.25500000920E-02 0.  1.
       -2   -1    0    0    0  501  0.00000000000E+00  0.00000000000E+00 -0.72666987037E+03  0.72666987038E+03  0.25500000920E-02 0. -1.
    10030    2    1    2    0    0  0.00000000000E+00  0.00000000000E+00 -0.28441781569E+03  0.11689219251E+04  0.11337922971E+04 0.  0.
        2    1    3    3  502    0  0.20154408715E+03 -0.39202287745E+03 -0.50972156457E+03  0.67388280058E+03  0.25500000920E-02 0. -1.
       -2    1    3    3    0  502 -0.20154408715E+03  0.39202287745E+03  0.22530374888E+03  0.49503912450E+03  0.25500000920E-02 0.  1.
</event>
<event>
 5   0  0.6585930E-03  0.1169826E+04  0.7818609E-02  0.9139686E-01
       -2   -1    0    0    0  501  0.00000000000E+00  0.00000000000E+00  0.41952397464E+03  0.41952397464E+03  0.25500000920E-02 0.  1.
        2   -1    0    0  501    0  0.00000000000E+00  0.00000000000E+00 -0.81550316333E+03  0.81550316333E+03  0.25500000920E-02 0. -1.
    10030    2    1    2    0    0  0.00000000000E+00  0.00000000000E+00 -0.39597918869E+03  0.12350271380E+04  0.11698258476E+04 0.  0.
        2    1    3    3  502    0  0.31635600184E+03 -0.36767081604E+03  0.14712493022E+03  0.50686161225E+03  0.25500000920E-02 0.  1.
       -2    1    3    3    0  502 -0.31635600184E+03  0.36767081604E+03 -0.54310411891E+03  0.72816552573E+03  0.25500000920E-02 0. -1.
</event>
<event>
 5   0  0.3772254E-03  0.1206587E+04  0.7818609E-02  0.9107111E-01
        1   -1    0    0  501    0  0.00000000000E+00  0.00000000000E+00  0.10989839054E+04  0.10989839054E+04  0.50400001928E-02 0. -1.
       -1   -1    0    0    0  501  0.00000000000E+00  0.00000000000E+00 -0.33118132777E+03  0.33118132781E+03  0.50400001928E-02 0.  1.
    10030    2    1    2    0    0  0.00000000000E+00  0.00000000000E+00  0.76780257760E+03  0.14301652332E+04  0.12065868373E+04 0.  0.
        3    1    3    3  502    0 -0.91062110458E+02 -0.53387638433E+03  0.68855716909E+02  0.54594635419E+03  0.10100000352E+00 0.  1.
       -3    1    3    3    0  502  0.91062110458E+02  0.53387638433E+03  0.69894686069E+03  0.88421887900E+03  0.10100000352E+00 0. -1.
</event>
<event>
 5   0  0.3648616E-03  0.1203157E+04  0.7818609E-02  0.9110097E-01
       -1   -1    0    0    0  501  0.00000000000E+00  0.00000000000E+00  0.40519069529E+03  0.40519069532E+03  0.50400001928E-02 0.  1.
        1   -1    0    0  501    0  0.00000000000E+00  0.00000000000E+00 -0.89315225938E+03  0.89315225939E+03  0.50400001928E-02 0. -1.
    10030    2    1    2    0    0  0.00000000000E+00  0.00000000000E+00 -0.48796156409E+03  0.12983429547E+04  0.12031574876E+04 0.  0.
        2    1    3    3  502    0 -0.49147681006E+03 -0.33787764269E+03 -0.15910575324E+03  0.61727254676E+03  0.25500000920E-02 0.  1.
       -2    1    3    3    0  502  0.49147681006E+03  0.33787764269E+03 -0.32885581085E+03  0.68107040796E+03  0.25500000920E-02 0. -1.
</event>
<event>
 5   0  0.6349142E-03  0.1195898E+04  0.7818609E-02  0.9116455E-01
        2   -1    0    0  501    0  0.00000000000E+00  0.00000000000E+00  0.66110140379E+03  0.66110140379E+03  0.25500000920E-02 0.  1.
       -2   -1    0    0    0  501  0.00000000000E+00  0.00000000000E+00 -0.54082895629E+03  0.54082895629E+03  0.25500000920E-02 0. -1.
    10030    2    1    2    0    0  0.00000000000E+00  0.00000000000E+00  0.12027244750E+03  0.12019303601E+04  0.11958976247E+04 0.  0.
        1    1    3    3  502    0 -0.68466730939E+02 -0.39193888226E+03  0.50874987023E+03  0.64585618458E+03  0.50400001928E-02 0.  1.
       -1    1    3    3    0  502  0.68466730939E+02  0.39193888226E+03 -0.38847742273E+03  0.55607417551E+03  0.50400001928E-02 0. -1.
</event>
<event>
 5   0  0.2537625E-03  0.1188621E+04  0.7818609E-02  0.9122875E-01
        4   -1    0    0  501    0  0.00000000000E+00  0.00000000000E+00  0.11328391065E+04  0.11328398183E+04  0.12699999809E+01 0. -1.
       -4   -1    0    0    0  501  0.00000000000E+00  0.00000000000E+00 -0.31178535504E+03  0.31178794159E+03  0.12699999809E+01 0.  1.
    10030    2    1    2    0    0  0.00000000000E+00  0.00000000000E+00  0.82105375142E+03  0.14446277599E+04  0.11886210927E+04 0.  0.
        4    1    3    3  502    0  0.51103648943E+02  0.16822734183E+03 -0.27945371757E+03  0.33016361798E+03  0.12699999809E+01 0.  1.
       -4    1    3    3    0  502 -0.51103648943E+02 -0.16822734183E+03  0.11005074690E+04  0.11144641419E+04  0.12699999809E+01 0. -1.
</event>
<event>
 5   0  0.3731281E-03  0.1243484E+04  0.7818609E-02  0.9075624E-01
       -1   -1    0    0    0  501  0.00000000000E+00  0.00000000000E+00  0.28700327751E+03  0.28700327756E+03  0.50400001928E-02 0. -1.
        1   -1    0    0  501    0  0.00000000000E+00  0.00000000000E+00 -0.13468933996E+04  0.13468933996E+04  0.50400001928E-02 0.  1.
    10030    2    1    2    0    0  0.00000000000E+00  0.00000000000E+00 -0.10598901220E+04  0.16338966771E+04  0.12434835265E+04 0.  0.
        5    1    3    3  502    0 -0.38950795914E+03  0.94816539478E+02  0.94478550196E+02  0.41189187033E+03  0.46999998093E+01 0. -1.
       -5    1    3    3    0  502  0.38950795914E+03 -0.94816539478E+02 -0.11543686722E+04  0.12220048068E+04  0.46999998093E+01 0.  1.
</event>
<event>
 5   0  0.6640844E-03  0.1181205E+04  0.7818609E-02  0.9129469E-01
        2   -1    0    0  501    0  0.00000000000E+00  0.00000000000E+00  0.15187965106E+04  0.15187965106E+04  0.25500000920E-02 0.  1.
       -2   -1    0    0    0  501  0.00000000000E+00  0.00000000000E+00 -0.22966280316E+03  0.22966280317E+03  0.25500000920E-02 0. -1.
    10030    2    1    2    0    0  0.00000000000E+00  0.00000000000E+00  0.12891337075E+04  0.17484593138E+04  0.11812045785E+04 0.  0.
        5    1    3    3  502    0 -0.27975586329E+03 -0.33906220184E+03  0.12283920075E+04  0.13046821582E+04  0.46999998093E+01 0.  1.
       -5    1    3    3    0  502  0.27975586329E+03  0.33906220184E+03  0.60741699980E+02  0.44377715565E+03  0.46999998093E+01 0. -1.
</event>
<event>
 5   0  0.2537625E-03  0.1222327E+04  0.7818609E-02  0.9093535E-01
        4   -1    0    0  501    0  0.00000000000E+00  0.00000000000E+00  0.99850424523E+03  0.99850505289E+03  0.12699999809E+01 0.  1.
       -4   -1    0    0    0  501  0.00000000000E+00  0.00000000000E+00 -0.37407829073E+03  0.37408044656E+03  0.12699999809E+01 0. -1.
    10030    2    1    2    0    0  0.00000000000E+00  0.00000000000E+00  0.62442595449E+03  0.13725854994E+04  0.12223269533E+04 0.  0.
        3    1    3    3  502    0 -0.21167510059E+03 -0.10660247754E+03 -0.32037583656E+03  0.39851113319E+03  0.10100000352E+00 0. -1.
       -3    1    3    3    0  502  0.21167510059E+03  0.10660247754E+03  0.94480179105E+03  0.97407436626E+03  0.10100000352E+00 0.  1.
</event>
<event>
 5   0  0.3772254E-03  0.1208218E+04  0.7818609E-02  0.9105694E-01
       -1   -1    0    0    0  501  0.00000000000E+00  0.00000000000E+00  0.14244070788E+04  0.14244070789E+04  0.50400001928E-02 0.  1.
        1   -1    0    0  501    0  0.00000000000E+00  0.00000000000E+00 -0.25621009760E+03  0.25621009765E+03  0.50400001928E-02 0. -1.
    10030    2    1    2    0    0  0.00000000000E+00  0.00000000000E+00  0.11681969812E+04  0.16806171765E+04  0.12082176571E+04 0.  0.
        3    1    3    3  502    0  0.51262861983E+03 -0.19067042076E+03  0.22727759503E+03  0.59228238757E+03  0.10100000352E+00 0. -1.
       -3    1    3    3    0  502 -0.51262861983E+03  0.19067042076E+03  0.94091938622E+03  0.10883347889E+04  0.10100000352E+00 0.  1.
</event>
<event>
 5   0  0.3772254E-03  0.1193855E+04  0.7818609E-02  0.9118252E-01
        1   -1    0    0  501    0  0.00000000000E+00  0.00000000000E+00  0.72793807328E+03  0.72793807330E+03  0.50400001928E-02 0.  1.
       -1   -1    0    0    0  501  0.00000000000E+00  0.00000000000E+00 -0.48949563346E+03  0.48949563348E+03  0.50400001928E-02 0. -1.
    10030    2    1    2    0    0  0.00000000000E+00  0.00000000000E+00  0.23844243983E+03  0.12174337068E+04  0.11938551140E+04 0.  0.
        3    1    3    3  502    0 -0.56875356323E+03 -0.61089152679E+02  0.29320741253E+03  0.64279319942E+03  0.10100000352E+00 0. -1.
       -3    1    3    3    0  502  0.56875356323E+03  0.61089152679E+02 -0.54764972706E+02  0.57464050736E+03  0.10100000352E+00 0.  1.
</event>
<event>
 5   0  0.6585930E-03  0.1144779E+04  0.7818609E-02  0.9162614E-01
        2   -1    0    0  501    0  0.00000000000E+00  0.00000000000E+00  0.12203738421E+04  0.12203738421E+04  0.25500000920E-02 0. -1.
       -2   -1    0    0    0  501  0.00000000000E+00  0.00000000000E+00 -0.26846670812E+03  0.26846670813E+03  0.25500000920E-02 0.  1.
    10030    2    1    2    0    0  0.00000000000E+00  0.00000000000E+00  0.95190713400E+03  0.14888405502E+04  0.11447790146E+04 0.  0.
        2    1    3    3  502    0 -0.20922733517E+03 -0.48733721165E+03  0.19593938171E+03  0.56539002198E+03  0.25500000920E-02 0. -1.
       -2    1    3    3    0  502  0.20922733517E+03  0.48733721165E+03  0.75596775229E+03  0.92345052826E+03  0.25500000920E-02 0.  1.
</event>
<event>
 5   0  0.6349142E-03  0.1200542E+04  0.7818609E-02  0.9112383E-01
       -2   -1    0    0    0  501  0.00000000000E+00  0.00000000000E+00  0.16881817769E+03  0.16881817771E+03  0.25500000920E-02 0.  1.
        2   -1    0    0  501    0  0.00000000000E+00  0.00000000000E+00 -0.21343970006E+04  0.21343970006E+04  0.25500000920E-02 0. -1.
    10030    2    1    2    0    0  0.00000000000E+00  0.00000000000E+00 -0.19655788229E+04  0.23032151783E+04  0.12005415647E+04 0.  0.
        1    1    3    3  502    0  0.43156699786E+03 -0.18164777096E+03 -0.17033799231E+04  0.17665642215E+04  0.50400001928E-02 0. -1.
       -1    1    3    3    0  502 -0.43156699786E+03  0.18164777096E+03 -0.26219889983E+03  0.53665095680E+03  0.50400001928E-02 0.  1.
</event>
<event>
 5   0  0.3701879E-03  0.9055139E+03  0.7818609E-02  0.9418715E-01
        1   -1    0    0  501    0  0.00000000000E+00  0.00000000000E+00  0.30543853956E+03  0.30543853960E+03  0.50400001928E-02 0.  1.
       -1   -1    0    0    0  501  0.00000000000E+00  0.00000000000E+00 -0.67112969318E+03  0.67112969320E+03  0.50400001928E-02 0. -1.
    10030    2    1    2    0    0  0.00000000000E+00  0.00000000000E+00 -0.36569115362E+03  0.97656823281E+03  0.90551393887E+03 0.  0.
        1    1    3    3  502    0 -0.22222403788E+03  0.29832457380E+03  0.95490815902E+02  0.38405672796E+03  0.50400001928E-02 0.  1.
       -1    1    3    3    0  502  0.22222403788E+03 -0.29832457380E+03 -0.46118196952E+03  0.59251150485E+03  0.50400001928E-02 0. -1.
</event>
<event>
 5   0  0.6349142E-03  0.1192414E+04  0.7818609E-02  0.9119522E-01
        2   -1    0    0  501    0  0.00000000000E+00  0.00000000000E+00  0.82203587073E+03  0.82203587074E+03  0.25500000920E-02 0.  1.
       -2   -1    0    0    0  501  0.00000000000E+00  0.00000000000E+00 -0.43241786668E+03  0.43241786669E+03  0.25500000920E-02 0. -1.
    10030    2    1    2    0    0  0.00000000000E+00  0.00000000000E+00  0.38961800405E+03  0.12544537374E+04  0.11924143534E+04 0.  0.
        1    1    3    3  502    0 -0.18817157004E+03 -0.68702748372E+02  0.78557177889E+03  0.81071056932E+03  0.50400001928E-02 0.  1.
       -1    1    3    3    0  502  0.18817157004E+03  0.68702748372E+02 -0.39595377483E+03  0.44374316810E+03  0.50400001928E-02 0. -1.
</event>
<event>
 5   0  0.6349142E-03  0.6902895E+03  0.7818609E-02  0.9733984E-01
       -2   -1    0    0    0  501  0.00000000000E+00  0.00000000000E+00  0.12152368355E+03  0.12152368357E+03  0.25500000920E-02 0.  1.
        2   -1    0    0  501    0  0.00000000000E+00  0.00000000000E+00 -0.98026088816E+03  0.98026088816E+03  0.25500000920E-02 0. -1.
    10030    2    1    2    0    0  0.00000000000E+00  0.00000000000E+00 -0.85873720461E+03  0.11017845717E+04  0.69028954499E+03 0.  0.
        1    1    3    3  502    0  0.18952223313E+03 -0.22099049453E+03 -0.13346407554E+03  0.32026260320E+03  0.50400001928E-02 0.  1.
       -1    1    3    3    0  502 -0.18952223313E+03  0.22099049453E+03 -0.72527312907E+03  0.78152196854E+03  0.50400001928E-02 0. -1.
</event>
<event>
 5   0  0.6640844E-03  0.1213102E+04  0.7818609E-02  0.9101465E-01
        2   -1    0    0  501    0  0.00000000000E+00  0.00000000000E+00  0.19623011680E+04  0.19623011680E+04  0.25500000920E-02 0. -1.
       -2   -1    0    0    0  501  0.00000000000E+00  0.00000000000E+00 -0.18748613076E+03  0.18748613078E+03  0.25500000920E-02 0.  1.
    10030    2    1    2    0    0  0.00000000000E+00  0.00000000000E+00  0.17748150373E+04  0.21497872988E+04  0.12131022272E+04 0.  0.
        5    1    3    3  502    0 -0.59564767677E+03 -0.66798609233E+02  0.10519777644E+04  0.12107590660E+04  0.46999998093E+01 0. -1.
       -5    1    3    3    0  502  0.59564767677E+03  0.66798609233E+02  0.72283727284E+03  0.93902823282E+03  0.46999998093E+01 0.  1.
</event>
<event>
 5   0  0.6493047E-03  0.1172174E+04  0.7818609E-02  0.9137567E-01
        2   -1    0    0  501    0  0.00000000000E+00  0.00000000000E+00  0.17445543191E+04  0.17445543191E+04  0.25500000920E-02 0.  1.
       -2   -1    0    0    0  501  0.00000000000E+00  0.00000000000E+00 -0.19689741439E+03  0.19689741441E+03  0.25500000920E-02 0. -1.
    10030    2    1    2    0    0  0.00000000000E+00  0.00000000000E+00  0.15476569047E+04  0.19414517335E+04  0.11721744490E+04 0.  0.
        3    1    3    3  502    0 -0.51031178157E+03 -0.13369725809E+03  0.35089181534E+03  0.63357568412E+03  0.10100000352E+00 0.  1.
       -3    1    3    3    0  502  0.51031178157E+03  0.13369725809E+03  0.11967650894E+04  0.13078760494E+04  0.10100000352E+00 0. -1.
</event>
<event>
 5   0  0.3944074E-03  0.1142966E+04  0.7818609E-02  0.9164297E-01
        1   -1    0    0  501    0  0.00000000000E+00  0.00000000000E+00  0.90200806061E+03  0.90200806063E+03  0.50400001928E-02 0.  1.
       -1   -1    0    0    0  501  0.00000000000E+00  0.00000000000E+00 -0.36207294219E+03  0.36207294222E+03  0.50400001928E-02 0. -1.
    10030    2    1    2    0    0  0.00000000000E+00  0.00000000000E+00  0.53993511842E+03  0.12640810029E+04  0.11429658130E+04 0.  0.
        4    1    3    3  502    0  0.40473248114E+03 -0.28822328844E+03 -0.42279399051E+02  0.49866843270E+03  0.12699999809E+01 0. -1.
       -4    1    3    3    0  502 -0.40473248114E+03  0.28822328844E+03  0.58221451747E+03  0.76541257015E+03  0.12699999809E+01 0.  1.
</event>
<event>
 5   0  0.3701879E-03  0.1095774E+04  0.7818609E-02  0.9209321E-01
       -1   -1    0    0    0  501  0.00000000000E+00  0.00000000000E+00  0.98879311389E+03  0.98879311390E+03  0.50400001928E-02 0. -1.
        1   -1    0    0  501    0  0.00000000000E+00  0.00000000000E+00 -0.30358234473E+03  0.30358234477E+03  0.50400001928E-02 0.  1.
    10030    2    1    2    0    0  0.00000000000E+00  0.00000000000E+00  0.68521076916E+03  0.12923754587E+04  0.10957739402E+04 0.  0.
        1    1    3    3  502    0  0.47885908938E+03 -0.25046258319E+03  0.44903175626E+03  0.70261443994E+03  0.50400001928E-02 0.  1.
       -1    1    3    3    0  502 -0.47885908938E+03  0.25046258319E+03  0.23617901290E+03  0.58976101873E+03  0.50400001928E-02 0. -1.
</event>
<event>
 5   0  0.3701879E-03  0.1072975E+04  0.7818609E-02  0.9231940E-01
       -1   -1    0    0    0  501  0.00000000000E+00  0.00000000000E+00  0.30781648975E+03  0.30781648979E+03  0.50400001928E-02 0.  1.
        1   -1    0    0  501    0  0.00000000000E+00  0.00000000000E+00 -0.93503319279E+03  0.93503319280E+03  0.50400001928E-02 0. -1.
    10030    2    1    2    0    0  0.00000000000E+00  0.00000000000E+00 -0.62721670304E+03  0.12428496826E+04  0.10729746227E+04 0.  0.
        1    1    3    3  502    0 -0.46580761935E+03  0.12729130616E+03 -0.42851277306E+02  0.48478453653E+03  0.50400001928E-02 0.  1.
       -1    1    3    3    0  502  0.46580761935E+03 -0.12729130616E+03 -0.58436542573E+03  0.75806514607E+03  0.50400001928E-02 0. -1.
</event>
<event>
 5   0  0.6640844E-03  0.1196604E+04  0.7818609E-02  0.9115835E-01
       -2   -1    0    0    0  501  0.00000000000E+00  0.00000000000E+00  0.40495094022E+03  0.40495094023E+03  0.25500000920E-02 0.  1.
        2   -1    0    0  501    0  0.00000000000E+00  0.00000000000E+00 -0.88397132605E+03  0.88397132605E+03  0.25500000920E-02 0. -1.
    10030    2    1    2    0    0  0.00000000000E+00  0.00000000000E+00 -0.47902038583E+03  0.12889222663E+04  0.11966035594E+04 0.  0.
        5    1    3    3  502    0  0.23537748952E+03  0.65889507192E+02  0.34869585211E+03  0.42585781314E+03  0.46999998093E+01 0.  1.
       -5    1    3    3    0  502 -0.23537748952E+03 -0.65889507192E+02 -0.82771623794E+03  0.86306445315E+03  0.46999998093E+01 0. -1.
</event>
<event>
 5   0  0.6349142E-03  0.1196654E+04  0.7818609E-02  0.9115791E-01
        2   -1    0    0  501    0  0.00000000000E+00  0.00000000000E+00  0.13786235819E+04  0.13786235819E+04  0.25500000920E-02 0. -1.
       -2   -1    0    0    0  501  0.00000000000E+00  0.00000000000E+00 -0.25967560852E+03  0.25967560853E+03  0.25500000920E-02 0.  1.
    10030    2    1    2    0    0  0.00000000000E+00  0.00000000000E+00  0.11189479734E+04  0.16382991904E+04  0.11966535297E+04 0.  0.
        1    1    3    3  502    0 -0.57022514392E+03 -0.65796729098E+02  0.32831236597E+03  0.66126767197E+03  0.50400001928E-02 0.  1.
       -1    1    3    3    0  502  0.57022514392E+03  0.65796729098E+02  0.79063560738E+03  0.97703151843E+03  0.50400001928E-02 0. -1.
</event>
<event>
 5   0  0.3772254E-03  0.1181345E+04  0.7818609E-02  0.9129344E-01
       -1   -1    0    0    0  501  0.00000000000E+00  0.00000000000E+00  0.14672315944E+03  0.14672315952E+03  0.50400001928E-02 0. -1.
        1   -1    0    0  501    0  0.00000000000E+00  0.00000000000E+00 -0.23779055898E+04  0.23779055898E+04  0.50400001928E-02 0.  1.
    10030    2    1    2    0    0  0.00000000000E+00  0.00000000000E+00 -0.22311824303E+04  0.25246287493E+04  0.11813446933E+04 0.  0.
        3    1    3    3  502    0 -0.35615090490E+03  0.46384783065E+03 -0.93812943435E+03  0.11054795895E+04  0.10100000352E+00 0.  1.
       -3    1    3    3    0  502  0.35615090490E+03 -0.46384783065E+03 -0.12930529960E+04  0.14191491598E+04  0.10100000352E+00 0. -1.
</event>
<event>
 5   0  0.3772254E-03  0.1207323E+04  0.7818609E-02  0.9106471E-01
        1   -1    0    0  501    0  0.00000000000E+00  0.00000000000E+00  0.94992236138E+03  0.94992236140E+03  0.50400001928E-02 0.  1.
       -1   -1    0    0    0  501  0.00000000000E+00  0.00000000000E+00 -0.38361792451E+03  0.38361792454E+03  0.50400001928E-02 0. -1.
    10030    2    1    2    0    0  0.00000000000E+00  0.00000000000E+00  0.56630443687E+03  0.13335402859E+04  0.12073230632E+04 0.  0.
        3    1    3    3  502    0 -0.35708240926E+03 -0.41742876694E+03  0.66795308791E+01  0.54936258409E+03  0.10100000352E+00 0. -1.
       -3    1    3    3    0  502  0.35708240926E+03  0.41742876694E+03  0.55962490600E+03  0.78417770185E+03  0.10100000352E+00 0.  1.
</event>
<event>
 5   0  0.6349142E-03  0.1189366E+04  0.7818609E-02  0.9122216E-01
        2   -1    0    0  501    0  0.00000000000E+00  0.00000000000E+00  0.51827295371E+03  0.51827295371E+03  0.25500000920E-02 0.  1.
       -2   -1    0    0    0  501  0.00000000000E+00  0.00000000000E+00 -0.68235785654E+03  0.68235785654E+03  0.25500000920E-02 0. -1.
    10030    2    1    2    0    0  0.00000000000E+00  0.00000000000E+00 -0.16408490283E+03  0.12006308103E+04  0.11893655818E+04 0.  0.
        1    1    3    3  502    0 -0.23753782472E+03  0.53355465529E+03  0.31013113528E+02  0.58486460107E+03  0.50400001928E-02 0.  1.
       -1    1    3    3    0  502  0.23753782472E+03 -0.53355465529E+03 -0.19509801636E+03  0.61576620918E+03  0.50400001928E-02 0. -1.
</event>
<event>
 5   0  0.3701879E-03  0.1071617E+04  0.7818609E-02  0.9233306E-01
        1   -1    0    0  501    0  0.00000000000E+00  0.00000000000E+00  0.35804277892E+03  0.35804277896E+03  0.50400001928E-02 0.  1.
       -1   -1    0    0    0  501  0.00000000000E+00  0.00000000000E+00 -0.80183424956E+03  0.80183424958E+03  0.50400001928E-02 0. -1.
    10030    2    1    2    0    0  0.00000000000E+00  0.00000000000E+00 -0.44379147064E+03  0.11598770285E+04  0.10716174000E+04 0.  0.
        1    1    3    3  502    0  0.25447741551E+03 -0.13198813661E+03 -0.71184959926E+03  0.76740437528E+03  0.50400001928E-02 0. -1.
       -1    1    3    3    0  502 -0.25447741551E+03  0.13198813661E+03  0.26805812862E+03  0.39247265326E+03  0.50400001928E-02 0.  1.
</event>
<event>
 5   0  0.3648616E-03  0.1186329E+04  0.7818609E-02  0.9124907E-01
        1   -1    0    0  501    0  0.00000000000E+00  0.00000000000E+00  0.38164216512E+03  0.38164216515E+03  0.50400001928E-02 0.  1.
       -1   -1    0    0    0  501  0.00000000000E+00  0.00000000000E+00 -0.92192201514E+03  0.92192201515E+03  0.50400001928E-02 0. -1.
    10030    2    1    2    0    0  0.00000000000E+00  0.00000000000E+00 -0.54027985002E+03  0.13035641803E+04  0.11863293201E+04 0.  0.
        2    1    3    3  502    0 -0.30067228672E+03 -0.50655195395E+03 -0.19365051898E+03  0.62008001867E+03  0.25500000920E-02 0.  1.
       -2    1    3    3    0  502  0.30067228672E+03  0.50655195395E+03 -0.34662933104E+03  0.68348416163E+03  0.25500000920E-02 0. -1.
</event>
<event>
 5   0  0.3944074E-03  0.1300294E+04  0.7818609E-02  0.9029332E-01
       -1   -1    0    0    0  501  0.00000000000E+00  0.00000000000E+00  0.10677028756E+04  0.10677028756E+04  0.50400001928E-02 0. -1.
        1   -1    0    0  501    0  0.00000000000E+00  0.00000000000E+00 -0.39588807381E+03  0.39588807384E+03  0.50400001928E-02 0.  1.
    10030    2    1    2    0    0  0.00000000000E+00  0.00000000000E+00  0.67181480176E+03  0.14635909494E+04  0.13002935589E+04 0.  0.
        4    1    3    3  502    0 -0.27889748360E+03 -0.42053241085E+03  0.79733947524E+03  0.94360116925E+03  0.12699999809E+01 0. -1.
       -4    1    3    3    0  502  0.27889748360E+03  0.42053241085E+03 -0.12552467348E+03  0.51998978017E+03  0.12699999809E+01 0.  1.
</event>
<event>
 5   0  0.3648616E-03  0.1180374E+04  0.7818609E-02  0.9130211E-01
       -1   -1    0    0    0  501  0.00000000000E+00  0.00000000000E+00  0.70448759183E+03  0.70448759184E+03  0.50400001928E-02 0.  1.
        1   -1    0    0  501    0  0.00000000000E+00  0.00000000000E+00 -0.49443115296E+03  0.49443115299E+03  0.50400001928E-02 0. -1.
    10030    2    1    2    0    0  0.00000000000E+00  0.00000000000E+00  0.21005643886E+03  0.11989187448E+04  0.11803738599E+04 0.  0.
        2    1    3    3  502    0  0.51422305698E+03  0.18582576632E+03 -0.12064266702E+03  0.55992072731E+03  0.25500000920E-02 0. -1.
       -2    1    3    3    0  502 -0.51422305698E+03 -0.18582576632E+03  0.33069910588E+03  0.63899801752E+03  0.25500000920E-02 0.  1.
</event>
<event>
 5   0  0.3701879E-03  0.1049357E+04  0.7818609E-02  0.9256008E-01
        1   -1    0    0  501    0  0.00000000000E+00  0.00000000000E+00  0.13540229976E+04  0.13540229976E+04  0.50400001928E-02 0.  1.
       -1   -1    0    0    0  501  0.00000000000E+00  0.00000000000E+00 -0.20331069989E+03  0.20331069995E+03  0.50400001928E-02 0. -1.
    10030    2    1    2    0    0  0.00000000000E+00  0.00000000000E+00  0.11507122977E+04  0.15573336976E+04  0.10493566855E+04 0.  0.
        1    1    3    3  502    0 -0.42832251704E+03 -0.29733203631E+03  0.48855504653E+03  0.71452960187E+03  0.50400001928E-02 0.  1.
       -1    1    3    3    0  502  0.42832251704E+03  0.29733203631E+03  0.66215725120E+03  0.84280409572E+03  0.50400001928E-02 0. -1.
</event>
<event>
 5   0  0.3772254E-03  0.1192912E+04  0.7818609E-02  0.9119083E-01
       -1   -1    0    0    0  501  0.00000000000E+00  0.00000000000E+00  0.49161810119E+03  0.49161810121E+03  0.50400001928E-02 0. -1.
        1   -1    0    0  501    0  0.00000000000E+00  0.00000000000E+00 -0.72365105682E+03  0.72365105684E+03  0.50400001928E-02 0.  1.
    10030    2    1    2    0    0  0.00000000000E+00  0.00000000000E+00 -0.23203295563E+03  0.12152691581E+04  0.11929123329E+04 0.  0.
        3    1    3    3  502    0  0.41392306128E+03 -0.21982873592E+03 -0.49185194018E+03  0.67939334340E+03  0.10100000352E+00 0.  1.
       -3    1    3    3    0  502 -0.41392306128E+03  0.21982873592E+03  0.25981898455E+03  0.53587581465E+03  0.10100000352E+00 0. -1.
</event>
<event>
 5   0  0.3944074E-03  0.1468349E+04  0.7818609E-02  0.8905777E-01
       -1   -1    0    0    0  501  0.00000000000E+00  0.00000000000E+00  0.10115594989E+04  0.10115594989E+04  0.50400001928E-02 0. -1.
        1   -1    0    0  501    0  0.00000000000E+00  0.00000000000E+00 -0.53285295911E+03  0.53285295913E+03  0.50400001928E-02 0.  1.
    10030    2    1    2    0    0  0.00000000000E+00  0.00000000000E+00  0.47870653977E+03  0.15444124580E+04  0.14683493757E+04 0.  0.
        4    1    3    3  502    0  0.54167133356E+03  0.23466008523E+03 -0.21976472875E+03  0.62989787910E+03  0.12699999809E+01 0.  1.
       -4    1    3    3    0  502 -0.54167133356E+03 -0.23466008523E+03  0.69847126852E+03  0.91451457891E+03  0.12699999809E+01 0. -1.
</event>
<event>
 5   0  0.6493047E-03  0.1226698E+04  0.7818609E-02  0.9089804E-01
        2   -1    0    0  501    0  0.00000000000E+00  0.00000000000E+00  0.83143160429E+03  0.83143160429E+03  0.25500000920E-02 0.  1.
       -2   -1    0    0    0  501  0.00000000000E+00  0.00000000000E+00 -0.45246898463E+03  0.45246898463E+03  0.25500000920E-02 0. -1.
    10030    2    1    2    0    0  0.00000000000E+00  0.00000000000E+00  0.37896261966E+03  0.12839005889E+04  0.12266980293E+04 0.  0.
        3    1    3    3  502    0  0.96915699319E+02  0.30467123004E+03  0.73732037378E+03  0.80365325544E+03  0.10100000352E+00 0.  1.
       -3    1    3    3    0  502 -0.96915699319E+02 -0.30467123004E+03 -0.35835775412E+03  0.48024733349E+03  0.10100000352E+00 0. -1.
</event>
<event>
 5   0  0.3648616E-03  0.1065628E+04  0.7818609E-02  0.9239356E-01
       -1   -1    0    0    0  501  0.00000000000E+00  0.00000000000E+00  0.19023097243E+03  0.19023097250E+03  0.50400001928E-02 0.  1.
        1   -1    0    0  501    0  0.00000000000E+00  0.00000000000E+00 -0.14923476414E+04  0.14923476414E+04  0.50400001928E-02 0. -1.
    10030    2    1    2    0    0  0.00000000000E+00  0.00000000000E+00 -0.13021166690E+04  0.16825786139E+04  0.10656279709E+04 0.  0.
        2    1    3    3  502    0  0.37968372936E+03  0.15584529963E+03 -0.11875389421E+04  0.12564617904E+04  0.25500000920E-02 0.  1.
       -2    1    3    3    0  502 -0.37968372936E+03 -0.15584529963E+03 -0.11457772686E+03  0.42611682349E+03  0.25500000920E-02 0. -1.
</event>
<event>
 5   0  0.3772254E-03  0.1209937E+04  0.7818609E-02  0.9104203E-01
        1   -1    0    0  501    0  0.00000000000E+00  0.00000000000E+00  0.95333800870E+03  0.95333800871E+03  0.50400001928E-02 0. -1.
       -1   -1    0    0    0  501  0.00000000000E+00  0.00000000000E+00 -0.38390045349E+03  0.38390045352E+03  0.50400001928E-02 0.  1.
    10030    2    1    2    0    0  0.00000000000E+00  0.00000000000E+00  0.56943755521E+03  0.13372384622E+04  0.12099370131E+04 0.  0.
        3    1    3    3  502    0 -0.43798171152E+03 -0.36987002399E+03  0.71109126330E+02  0.57765762552E+03  0.10100000352E+00 0.  1.
       -3    1    3    3    0  502  0.43798171152E+03  0.36987002399E+03  0.49832842888E+03  0.75958083671E+03  0.10100000352E+00 0. -1.
</event>
<event>
 5   0  0.2537625E-03  0.1201524E+04  0.7818609E-02  0.9111524E-01
       -4   -1    0    0    0  501  0.00000000000E+00  0.00000000000E+00  0.78975195697E+03  0.78975297811E+03  0.12699999809E+01 0. -1.
        4   -1    0    0  501    0  0.00000000000E+00  0.00000000000E+00 -0.45699575985E+03  0.45699752452E+03  0.12699999809E+01 0.  1.
    10030    2    1    2    0    0  0.00000000000E+00  0.00000000000E+00  0.33275619712E+03  0.12467505026E+04  0.12015240859E+04 0.  0.
        5    1    3    3  502    0 -0.16478490440E+03 -0.11167606762E+03  0.75451760822E+03  0.78034897316E+03  0.46999998093E+01 0. -1.
       -5    1    3    3    0  502  0.16478490440E+03  0.11167606762E+03 -0.42176141110E+03  0.46640152947E+03  0.46999998093E+01 0.  1.
</event>
<event>
 5   0  0.6349142E-03  0.1178648E+04  0.7818609E-02  0.9131754E-01
        2   -1    0    0  501    0  0.00000000000E+00  0.00000000000E+00  0.56351931831E+03  0.56351931832E+03  0.25500000920E-02 0. -1.
       -2   -1    0    0    0  501  0.00000000000E+00  0.00000000000E+00 -0.61631064477E+03  0.61631064478E+03  0.25500000920E-02 0.  1.
    10030    2    1    2    0    0  0.00000000000E+00  0.00000000000E+00 -0.52791326460E+02  0.11798299631E+04  0.11786483011E+04 0.  0.
        1    1    3    3  502    0 -0.49301243664E+03 -0.26139287240E+03  0.16330807594E+03  0.58142671431E+03  0.50400001928E-02 0. -1.
       -1    1    3    3    0  502  0.49301243664E+03  0.26139287240E+03 -0.21609940240E+03  0.59840324879E+03  0.50400001928E-02 0.  1.
</event>
<event>
 5   0  0.2537625E-03  0.1009619E+04  0.7818609E-02  0.9298057E-01
       -3   -1    0    0    0  501  0.00000000000E+00  0.00000000000E+00  0.58744648233E+03  0.58744649102E+03  0.10100000352E+00 0.  1.
        3   -1    0    0  501    0  0.00000000000E+00  0.00000000000E+00 -0.43379757308E+03  0.43379758483E+03  0.10100000352E+00 0. -1.
    10030    2    1    2    0    0  0.00000000000E+00  0.00000000000E+00  0.15364890926E+03  0.10212440759E+04  0.10096194705E+04 0.  0.
        5    1    3    3  502    0 -0.26710385542E+03 -0.25791661960E+03  0.42273457492E+03  0.56266514294E+03  0.46999998093E+01 0.  1.
       -5    1    3    3    0  502  0.26710385542E+03  0.25791661960E+03 -0.26908566566E+03  0.45857893291E+03  0.46999998093E+01 0. -1.
</event>
<event>
 5   0  0.3701879E-03  0.6526931E+03  0.7818609E-02  0.9801739E-01
       -1   -1    0    0    0  501  0.00000000000E+00  0.00000000000E+00  0.71130780548E+02  0.71130780727E+02  0.50400001928E-02 0. -1.
        1   -1    0    0  501    0  0.00000000000E+00  0.00000000000E+00 -0.14972710322E+04  0.14972710322E+04  0.50400001928E-02 0.  1.
    10030    2    1    2    0    0  0.00000000000E+00  0.00000000000E+00 -0.14261402516E+04  0.15684018129E+04  0.65269305912E+03 0.  0.
        1    1    3    3  502    0 -0.95289668925E+02 -0.25540729838E+03 -0.28194591805E+03  0.39218173058E+03  0.50400001928E-02 0. -1.
       -1    1    3    3    0  502  0.95289668925E+02  0.25540729838E+03 -0.11441943336E+04  0.11762200823E+04  0.50400001928E-02 0.  1.
</event>
<event>
 5   0  0.6585930E-03  0.1184620E+04  0.7818609E-02  0.9126426E-01
        2   -1    0    0  501    0  0.00000000000E+00  0.00000000000E+00  0.12128181110E+04  0.12128181110E+04  0.25500000920E-02 0.  1.
       -2   -1    0    0    0  501  0.00000000000E+00  0.00000000000E+00 -0.28926918027E+03  0.28926918028E+03  0.25500000920E-02 0. -1.
    10030    2    1    2    0    0  0.00000000000E+00  0.00000000000E+00  0.92354893074E+03  0.15020872913E+04  0.11846196027E+04 0.  0.
        2    1    3    3  502    0 -0.18433416151E+03  0.42157785417E+03  0.93472658507E+03  0.10418352840E+04  0.25500000920E-02 0.  1.
       -2    1    3    3    0  502  0.18433416151E+03 -0.42157785417E+03 -0.11177654330E+02  0.46025200726E+03  0.25500000920E-02 0. -1.
</event>
<event>
 5   0  0.3731281E-03  0.1138338E+04  0.7818609E-02  0.9168610E-01
        1   -1    0    0  501    0  0.00000000000E+00  0.00000000000E+00  0.57519371329E+03  0.57519371331E+03  0.50400001928E-02 0.  1.
       -1   -1    0    0    0  501  0.00000000000E+00  0.00000000000E+00 -0.56320704831E+03  0.56320704833E+03  0.50400001928E-02 0. -1.
    10030    2    1    2    0    0  0.00000000000E+00  0.00000000000E+00  0.11986664982E+02  0.11384007616E+04  0.11383376538E+04 0.  0.
        5    1    3    3  502    0 -0.17934592191E+03 -0.38896283711E+03 -0.36882607862E+03  0.56525376126E+03  0.46999998093E+01 0. -1.
       -5    1    3    3    0  502  0.17934592191E+03  0.38896283711E+03  0.38081274360E+03  0.57314700038E+03  0.46999998093E+01 0.  1.
</event>
<event>
 5   0  0.3944074E-03  0.1180594E+04  0.7818609E-02  0.9130014E-01
        1   -1    0    0  501    0  0.00000000000E+00  0.00000000000E+00  0.11033574541E+04  0.11033574541E+04  0.50400001928E-02 0.  1.
       -1   -1    0    0    0  501  0.00000000000E+00  0.00000000000E+00 -0.31580934681E+03  0.31580934685E+03  0.50400001928E-02 0. -1.
    10030    2    1    2    0    0  0.00000000000E+00  0.00000000000E+00  0.78754810732E+03  0.14191668010E+04  0.11805940825E+04 0.  0.
        4    1    3    3  502    0  0.19553241571E+03 -0.24092821134E+03 -0.20986767402E+03  0.37460029647E+03  0.12699999809E+01 0. -1.
       -4    1    3    3    0  502 -0.19553241571E+03  0.24092821134E+03  0.99741578134E+03  0.10445665045E+04  0.12699999809E+01 0.  1.
</event>
<event>
 5   0  0.3772254E-03  0.1194018E+04  0.7818609E-02  0.9118109E-01
       -1   -1    0    0    0  501  0.00000000000E+00  0.00000000000E+00  0.30335012577E+03  0.30335012581E+03  0.50400001928E-02 0. -1.
        1   -1    0    0  501    0  0.00000000000E+00  0.00000000000E+00 -0.11749454063E+04  0.11749454063E+04  0.50400001928E-02 0.  1.
    10030    2    1    2    0    0  0.00000000000E+00  0.00000000000E+00 -0.87159528048E+03  0.14782955321E+04  0.11940181520E+04 0.  0.
        3    1    3    3  502    0  0.47482842042E+03 -0.31575407038E+03 -0.21690804084E+03  0.61009160802E+03  0.10100000352E+00 0. -1.
       -3    1    3    3    0  502 -0.47482842042E+03  0.31575407038E+03 -0.65468723964E+03  0.86820392405E+03  0.10100000352E+00 0.  1.
</event>
<event>
 5   0  0.2537625E-03  0.1193107E+04  0.7818609E-02  0.9118911E-01
        3   -1    0    0  501    0  0.00000000000E+00  0.00000000000E+00  0.62683635006E+03  0.62683635820E+03  0.10100000352E+00 0.  1.
       -3   -1    0    0    0  501  0.00000000000E+00  0.00000000000E+00 -0.56773371478E+03  0.56773372377E+03  0.10100000352E+00 0. -1.
    10030    2    1    2    0    0  0.00000000000E+00  0.00000000000E+00  0.59102635273E+02  0.11945700820E+04  0.11931071030E+04 0.  0.
        4    1    3    3  502    0 -0.44814475404E+03  0.17025981422E+03  0.38502525555E+03  0.61487249510E+03  0.12699999809E+01 0.  1.
       -4    1    3    3    0  502  0.44814475404E+03 -0.17025981422E+03 -0.32592262028E+03  0.57969758687E+03  0.12699999809E+01 0. -1.
</event>
<event>
 5   0  0.6493047E-03  0.1138307E+04  0.7818609E-02  0.9168639E-01
        2   -1    0    0  501    0  0.00000000000E+00  0.00000000000E+00  0.22018431504E+04  0.22018431504E+04  0.25500000920E-02 0.  1.
       -2   -1    0    0    0  501  0.00000000000E+00  0.00000000000E+00 -0.14712024862E+03  0.14712024864E+03  0.25500000920E-02 0. -1.
    10030    2    1    2    0    0  0.00000000000E+00  0.00000000000E+00  0.20547229018E+04  0.23489633990E+04  0.11383070091E+04 0.  0.
        3    1    3    3  502    0  0.37273451904E+03  0.60505567088E+02  0.14860577468E+03  0.40580245416E+03  0.10100000352E+00 0. -1.
       -3    1    3    3    0  502 -0.37273451904E+03 -0.60505567088E+02  0.19061171271E+04  0.19431609449E+04  0.10100000352E+00 0.  1.
</event>
<event>
 5   0  0.6658994E-03  0.1189367E+04  0.7818609E-02  0.9122215E-01
        2   -1    0    0  501    0  0.00000000000E+00  0.00000000000E+00  0.64722516332E+03  0.64722516332E+03  0.25500000920E-02 0.  1.
       -2   -1    0    0    0  501  0.00000000000E+00  0.00000000000E+00 -0.54640718645E+03  0.54640718646E+03  0.25500000920E-02 0. -1.
    10030    2    1    2    0    0  0.00000000000E+00  0.00000000000E+00  0.10081797687E+03  0.11936323498E+04  0.11893670258E+04 0.  0.
        4    1    3    3  502    0  0.59452729262E+03 -0.12683959570E+02  0.55251549156E+02  0.59722519294E+03  0.12699999809E+01 0. -1.
       -4    1    3    3    0  502 -0.59452729262E+03  0.12683959570E+02  0.45566427712E+02  0.59640715684E+03  0.12699999809E+01 0.  1.
</event>
<event>
 5   0  0.3944074E-03  0.1237278E+04  0.7818609E-02  0.9080838E-01
        1   -1    0    0  501    0  0.00000000000E+00  0.00000000000E+00  0.95182093062E+03  0.95182093064E+03  0.50400001928E-02 0. -1.
       -1   -1    0    0    0  501  0.00000000000E+00  0.00000000000E+00 -0.40208665867E+03  0.40208665871E+03  0.50400001928E-02 0.  1.
    10030    2    1    2    0    0  0.00000000000E+00  0.00000000000E+00  0.54973427195E+03  0.13539075893E+04  0.12372784613E+04 0.  0.
        4    1    3    3  502    0  0.47717950766E+03 -0.28294957055E+02 -0.15484800025E+03  0.50247428114E+03  0.12699999809E+01 0.  1.
       -4    1    3    3    0  502 -0.47717950766E+03  0.28294957055E+02  0.70458227220E+03  0.85143330820E+03  0.12699999809E+01 0. -1.
</event>
<event>
 5   0  0.3731281E-03  0.1211335E+04  0.7818609E-02  0.9102993E-01
       -1   -1    0    0    0  501  0.00000000000E+00  0.00000000000E+00  0.36815915776E+03  0.36815915779E+03  0.50400001928E-02 0.  1.
        1   -1    0    0  501    0  0.00000000000E+00  0.00000000000E+00 -0.99639750828E+03  0.99639750829E+03  0.50400001928E-02 0. -1.
    10030    2    1    2    0    0  0.00000000000E+00  0.00000000000E+00 -0.62823835052E+03  0.13645566661E+04  0.12113345821E+04 0.  0.
        5    1    3    3  502    0  0.41510249693E+03  0.38940314743E+03 -0.54734860370E+03  0.78965655709E+03  0.46999998093E+01 0. -1.
       -5    1    3    3    0  502 -0.41510249693E+03 -0.38940314743E+03 -0.80889746820E+02  0.57490010900E+03  0.46999998093E+01 0.  1.
</event>
<event>
 5   0  0.6493047E-03  0.1234173E+04  0.7818609E-02  0.9083460E-01
       -2   -1    0    0    0  501  0.00000000000E+00  0.00000000000E+00  0.34357838098E+03  0.34357838099E+03  0.25500000920E-02 0.  1.
        2   -1    0    0  501    0  0.00000000000E+00  0.00000000000E+00 -0.11083228210E+04  0.11083228210E+04  0.25500000920E-02 0. -1.
    10030    2    1    2    0    0  0.00000000000E+00  0.00000000000E+00 -0.76474443997E+03  0.14519012019E+04  0.12341730194E+04 0.  0.
        3    1    3    3  502    0 -0.48049901384E+03  0.15971516364E+03 -0.79731128451E+03  0.94450703036E+03  0.10100000352E+00 0. -1.
       -3    1    3    3    0  502  0.48049901384E+03 -0.15971516364E+03  0.32566844531E+02  0.50739417158E+03  0.10100000352E+00 0.  1.
</event>
<event>
 5   0  0.3944074E-03  0.1214404E+04  0.7818609E-02  0.9100341E-01
       -1   -1    0    0    0  501  0.00000000000E+00  0.00000000000E+00  0.32948689401E+03  0.32948689404E+03  0.50400001928E-02 0.  1.
        1   -1    0    0  501    0  0.00000000000E+00  0.00000000000E+00 -0.11189957952E+04  0.11189957952E+04  0.50400001928E-02 0. -1.
    10030    2    1    2    0    0  0.00000000000E+00  0.00000000000E+00 -0.78950890123E+03  0.14484826893E+04  0.12144042968E+04 0.  0.
        4    1    3    3  502    0 -0.44747013293E+03 -0.89848667710E+02 -0.87243700406E+03  0.98460664324E+03  0.12699999809E+01 0. -1.
       -4    1    3    3    0  502  0.44747013293E+03  0.89848667710E+02  0.82928102835E+02  0.46387604605E+03  0.12699999809E+01 0.  1.
</event>
<event>
 5   0  0.6493047E-03  0.1142504E+04  0.7818609E-02  0.9164726E-01
        2   -1    0    0  501    0  0.00000000000E+00  0.00000000000E+00  0.81400783828E+03  0.81400783828E+03  0.25500000920E-02 0.  1.
       -2   -1    0    0    0  501  0.00000000000E+00  0.00000000000E+00 -0.40089187623E+03  0.40089187624E+03  0.25500000920E-02 0. -1.
    10030    2    1    2    0    0  0.00000000000E+00  0.00000000000E+00  0.41311596205E+03  0.12148997145E+04  0.11425044938E+04 0.  0.
        3    1    3    3  502    0 -0.58453358215E+02  0.10939265117E+03  0.79951703056E+03  0.80908036658E+03  0.10100000352E+00 0.  1.
       -3    1    3    3    0  502  0.58453358215E+02 -0.10939265117E+03 -0.38640106852E+03  0.40581934795E+03  0.10100000352E+00 0. -1.
</event>
<event>
 5   0  0.3731281E-03  0.1184562E+04  0.7818609E-02  0.9126478E-01
       -1   -1    0    0    0  501  0.00000000000E+00  0.00000000000E+00  0.30865525732E+03  0.30865525736E+03  0.50400001928E-02 0. -1.
        1   -1    0    0  501    0  0.00000000000E+00  0.00000000000E+00 -0.11365330791E+04  0.11365330791E+04  0.50400001928E-02 0.  1.
    10030    2    1    2    0    0  0.00000000000E+00  0.00000000000E+00 -0.82787782177E+03  0.14451883365E+04  0.11845622145E+04 0.  0.
        5    1    3    3  502    0 -0.36134710216E+03 -0.24038679361E+02 -0.98569090884E+03  0.10501229662E+04  0.46999998093E+01 0.  1.
       -5    1    3    3    0  502  0.36134710216E+03  0.24038679361E+02  0.15781308707E+03  0.39506537027E+03  0.46999998093E+01 0. -1.
</event>
<event>
 5   0  0.3648616E-03  0.1080623E+04  0.7818609E-02  0.9224287E-01
       -1   -1    0    0    0  501  0.00000000000E+00  0.00000000000E+00  0.26769986941E+03  0.26769986946E+03  0.50400001928E-02 0.  1.
        1   -1    0    0  501    0  0.00000000000E+00  0.00000000000E+00 -0.10905358190E+04  0.10905358190E+04  0.50400001928E-02 0. -1.
    10030    2    1    2    0    0  0.00000000000E+00  0.00000000000E+00 -0.82283594959E+03  0.13582356885E+04  0.10806225916E+04 0.  0.
        2    1    3    3  502    0  0.11643737100E+02  0.33180183739E+02  0.26626013565E+03  0.26857207795E+03  0.25500000920E-02 0.  1.
       -2    1    3    3    0  502 -0.11643737100E+02 -0.33180183739E+02 -0.10890960852E+04  0.10896636105E+04  0.25500000920E-02 0. -1.
</event>
<event>
 5   0  0.6640844E-03  0.1264829E+04  0.7818609E-02  0.9057931E-01
       -2   -1    0    0    0  501  0.00000000000E+00  0.00000000000E+00  0.10625732588E+04  0.10625732588E+04  0.25500000920E-02 0.  1.
        2   -1    0    0  501    0  0.00000000000E+00  0.00000000000E+00 -0.37639552899E+03  0.37639552900E+03  0.25500000920E-02 0. -1.
    10030    2    1    2    0    0  0.00000000000E+00  0.00000000000E+00  0.68617772978E+03  0.14389687878E+04  0.12648285636E+04 0.  0.
        5    1    3    3  502    0 -0.34778518567E+01  0.55459675265E+03 -0.26159486126E+01  0.55463374103E+03  0.46999998093E+01 0. -1.
       -5    1    3    3    0  502  0.34778518567E+01 -0.55459675265E+03  0.68879367839E+03  0.88433504674E+03  0.46999998093E+01 0.  1.
</event>
<event>
 5   0  0.3701879E-03  0.1188349E+04  0.7818609E-02  0.9123117E-01
        1   -1    0    0  501    0  0.00000000000E+00  0.00000000000E+00  0.70602219500E+03  0.70602219501E+03  0.50400001928E-02 0.  1.
       -1   -1    0    0    0  501  0.00000000000E+00  0.00000000000E+00 -0.50004531736E+03  0.50004531738E+03  0.50400001928E-02 0. -1.
    10030    2    1    2    0    0  0.00000000000E+00  0.00000000000E+00  0.20597687764E+03  0.12060675124E+04  0.11883485896E+04 0.  0.
        1    1    3    3  502    0 -0.17260351369E+03  0.12532083950E+03  0.66582547714E+03  0.69915724396E+03  0.50400001928E-02 0.  1.
       -1    1    3    3    0  502  0.17260351369E+03 -0.12532083950E+03 -0.45984859951E+03  0.50691026843E+03  0.50400001928E-02 0. -1.
</event>
<event>
 5   0  0.3701879E-03  0.1192405E+04  0.7818609E-02  0.9119531E-01
       -1   -1    0    0    0  501  0.00000000000E+00  0.00000000000E+00  0.72333923464E+03  0.72333923465E+03  0.50400001928E-02 0.  1.
        1   -1    0    0  501    0  0.00000000000E+00  0.00000000000E+00 -0.49141172191E+03  0.49141172194E+03  0.50400001928E-02 0. -1.
    10030    2    1    2    0    0  0.00000000000E+00  0.00000000000E+00  0.23192751272E+03  0.12147509566E+04  0.11924049293E+04 0.  0.
        1    1    3    3  502    0 -0.27121734274E+02 -0.35999668772E+03 -0.36740052465E+03  0.51508868089E+03  0.50400001928E-02 0. -1.
       -1    1    3    3    0  502  0.27121734274E+02  0.35999668772E+03  0.59932803737E+03  0.69966227571E+03  0.50400001928E-02 0.  1.
</event>
<event>
 5   0  0.6493047E-03  0.1203680E+04  0.7818609E-02  0.9109641E-01
       -2   -1    0    0    0  501  0.00000000000E+00  0.00000000000E+00  0.12949209793E+03  0.12949209796E+03  0.25500000920E-02 0. -1.
        2   -1    0    0  501    0  0.00000000000E+00  0.00000000000E+00 -0.27971707484E+04  0.27971707484E+04  0.25500000920E-02 0.  1.
    10030    2    1    2    0    0  0.00000000000E+00  0.00000000000E+00 -0.26676786505E+04  0.29266628464E+04  0.12036802043E+04 0.  0.
        3    1    3    3  502    0  0.36093668849E+03  0.38972992289E+03 -0.64592628349E+03  0.83629269984E+03  0.10100000352E+00 0. -1.
       -3    1    3    3    0  502 -0.36093668849E+03 -0.38972992289E+03 -0.20217523670E+04  0.20903701465E+04  0.10100000352E+00 0.  1.
</event>
<event>
 5   0  0.3944074E-03  0.1135856E+04  0.7818609E-02  0.9170932E-01
       -1   -1    0    0    0  501  0.00000000000E+00  0.00000000000E+00  0.21432406826E+03  0.21432406832E+03  0.50400001928E-02 0.  1.
        1   -1    0    0  501    0  0.00000000000E+00  0.00000000000E+00 -0.15049278750E+04  0.15049278750E+04  0.50400001928E-02 0. -1.
    10030    2    1    2    0    0  0.00000000000E+00  0.00000000000E+00 -0.12906038067E+04  0.17192519433E+04  0.11358560906E+04 0.  0.
        4    1    3    3  502    0  0.60887631552E+02 -0.47633049646E+03 -0.18634213478E+03  0.51509518502E+03  0.12699999809E+01 0.  1.
       -4    1    3    3    0  502 -0.60887631552E+02  0.47633049646E+03 -0.11042616719E+04  0.12041567583E+04  0.12699999809E+01 0. -1.
</event>
<event>
 5   0  0.3701879E-03  0.1186640E+04  0.7818609E-02  0.9124631E-01
        1   -1    0    0  501    0  0.00000000000E+00  0.00000000000E+00  0.90214913593E+03  0.90214913595E+03  0.50400001928E-02 0. -1.
       -1   -1    0    0    0  501  0.00000000000E+00  0.00000000000E+00 -0.39021134654E+03  0.39021134657E+03  0.50400001928E-02 0.  1.
    10030    2    1    2    0    0  0.00000000000E+00  0.00000000000E+00  0.51193778939E+03  0.12923604825E+04  0.11866403485E+04 0.  0.
        1    1    3    3  502    0  0.44921135359E+03  0.22182564648E+03 -0.90203699626E+02  0.50905222235E+03  0.50400001928E-02 0.  1.
       -1    1    3    3    0  502 -0.44921135359E+03 -0.22182564648E+03  0.60214148902E+03  0.78330826017E+03  0.50400001928E-02 0. -1.
</event>
<event>
 5   0  0.6640844E-03  0.1212208E+04  0.7818609E-02  0.9102237E-01
        2   -1    0    0  501    0  0.00000000000E+00  0.00000000000E+00  0.91703159888E+03  0.91703159889E+03  0.25500000920E-02 0. -1.
       -2   -1    0    0    0  501  0.00000000000E+00  0.00000000000E+00 -0.40059931629E+03  0.40059931630E+03  0.25500000920E-02 0.  1.
    10030    2    1    2    0    0  0.00000000000E+00  0.00000000000E+00  0.51643228259E+03  0.13176309152E+04  0.12122082850E+04 0.  0.
        5    1    3    3  502    0  0.33574827404E+03 -0.42101484095E+03  0.56054112187E+03  0.77730871546E+03  0.46999998093E+01 0. -1.
       -5    1    3    3    0  502 -0.33574827404E+03  0.42101484095E+03 -0.44108839278E+02  0.54032219973E+03  0.46999998093E+01 0.  1.
</event>
<event>
 5   0  0.3731281E-03  0.1166834E+04  0.7818609E-02  0.9142392E-01
       -1   -1    0    0    0  501  0.00000000000E+00  0.00000000000E+00  0.40609027753E+03  0.40609027757E+03  0.50400001928E-02 0. -1.
        1   -1    0    0  501    0  0.00000000000E+00  0.00000000000E+00 -0.83817681752E+03  0.83817681754E+03  0.50400001928E-02 0.  1.
    10030    2    1    2    0    0  0.00000000000E+00  0.00000000000E+00 -0.43208653999E+03  0.12442670951E+04  0.11668341039E+04 0.  0.
        5    1    3    3  502    0 -0.55180588134E+03  0.16430688447E+03 -0.11563025586E+03  0.58726393473E+03  0.46999998093E+01 0. -1.
       -5    1    3    3    0  502  0.55180588134E+03 -0.16430688447E+03 -0.31645628413E+03  0.65700316037E+03  0.46999998093E+01 0.  1.
</event>
<event>
 5   0  0.6493047E-03  0.1185130E+04  0.7818609E-02  0.9125973E-01
       -2   -1    0    0    0  501  0.00000000000E+00  0.00000000000E+00  0.47727312850E+03  0.47727312851E+03  0.25500000920E-02 0. -1.
        2   -1    0    0  501    0  0.00000000000E+00  0.00000000000E+00 -0.73570712986E+03  0.73570712987E+03  0.25500000920E-02 0.  1.
    10030    2    1    2    0    0  0.00000000000E+00  0.00000000000E+00 -0.25843400136E+03  0.12129802584E+04  0.11851299398E+04 0.  0.
        3    1    3    3  502    0  0.56722161520E+03  0.15679803847E+03 -0.58253339459E+02  0.59137082053E+03  0.10100000352E+00 0.  1.
       -3    1    3    3    0  502 -0.56722161520E+03 -0.15679803847E+03 -0.20018066190E+03  0.62160943784E+03  0.10100000352E+00 0. -1.
</event>
<event>
 5   0  0.3648616E-03  0.1164013E+04  0.7818609E-02  0.9144952E-01
       -1   -1    0    0    0  501  0.00000000000E+00  0.00000000000E+00  0.32991241299E+03  0.32991241303E+03  0.50400001928E-02 0.  1.
        1   -1    0    0  501    0  0.00000000000E+00  0.00000000000E+00 -0.10267326722E+04  0.10267326722E+04  0.50400001928E-02 0. -1.
    10030    2    1    2    0    0  0.00000000000E+00  0.00000000000E+00 -0.69682025917E+03  0.13566450852E+04  0.11640134937E+04 0.  0.
        2    1    3    3  502    0 -0.26678210994E+03  0.41714932521E+03 -0.70487760688E+03  0.86141667874E+03  0.25500000920E-02 0. -1.
       -2    1    3    3    0  502  0.26678210994E+03 -0.41714932521E+03  0.80573477174E+01  0.49522840647E+03  0.25500000920E-02 0.  1.
</event>
<event>
 5   0  0.3944074E-03  0.1170075E+04  0.7818609E-02  0.9139461E-01
        1   -1    0    0  501    0  0.00000000000E+00  0.00000000000E+00  0.10145994399E+04  0.10145994399E+04  0.50400001928E-02 0. -1.
       -1   -1    0    0    0  501  0.00000000000E+00  0.00000000000E+00 -0.33734379042E+03  0.33734379046E+03  0.50400001928E-02 0.  1.
    10030    2    1    2    0    0  0.00000000000E+00  0.00000000000E+00  0.67725564951E+03  0.13519432304E+04  0.11700749050E+04 0.  0.
        4    1    3    3  502    0 -0.37032922339E+03 -0.96825419818E+01 -0.18455466776E+03  0.41388346622E+03  0.12699999809E+01 0.  1.
       -4    1    3    3    0  502  0.37032922339E+03  0.96825419818E+01  0.86181031727E+03  0.93805976418E+03  0.12699999809E+01 0. -1.
</event>
<event>
 5   0  0.3701879E-03  0.1210117E+04  0.7818609E-02  0.9104047E-01
        1   -1    0    0  501    0  0.00000000000E+00  0.00000000000E+00  0.17950745848E+04  0.17950745848E+04  0.50400001928E-02 0. -1.
       -1   -1    0    0    0  501  0.00000000000E+00  0.00000000000E+00 -0.20394456009E+03  0.20394456015E+03  0.50400001928E-02 0.  1.
    10030    2    1    2    0    0  0.00000000000E+00  0.00000000000E+00  0.15911300247E+04  0.19990191450E+04  0.12101168482E+04 0.  0.
        1    1    3    3  502    0 -0.36044491519E+03 -0.17720726674E+03  0.15430900115E+04  0.15945061104E+04  0.50400001928E-02 0. -1.
       -1    1    3    3    0  502  0.36044491519E+03  0.17720726674E+03  0.48040013186E+02  0.40451303461E+03  0.50400001928E-02 0.  1.
</event>
<event>
 5   0  0.3944074E-03  0.1192444E+04  0.7818609E-02  0.9119496E-01
        1   -1    0    0  501    0  0.00000000000E+00  0.00000000000E+00  0.16459514260E+04  0.16459514260E+04  0.50400001928E-02 0.  1.
       -1   -1    0    0    0  501  0.00000000000E+00  0.00000000000E+00 -0.21597272152E+03  0.21597272158E+03  0.50400001928E-02 0. -1.
    10030    2    1    2    0    0  0.00000000000E+00  0.00000000000E+00  0.14299787045E+04  0.18619241476E+04  0.11924438922E+04 0.  0.
        4    1    3    3  502    0  0.54681097492E+03  0.21802981441E+03  0.56735520781E+03  0.81757738899E+03  0.12699999809E+01 0.  1.
       -4    1    3    3    0  502 -0.54681097492E+03 -0.21802981441E+03  0.86262349666E+03  0.10443467586E+04  0.12699999809E+01 0. -1.
</event>
<event>
 5   0  0.6585930E-03  0.1172598E+04  0.7818609E-02  0.9137186E-01
        2   -1    0    0  501    0  0.00000000000E+00  0.00000000000E+00  0.41181119615E+03  0.41181119616E+03  0.25500000920E-02 0.  1.
       -2   -1    0    0    0  501  0.00000000000E+00  0.00000000000E+00 -0.83471844380E+03  0.83471844380E+03  0.25500000920E-02 0. -1.
    10030    2    1    2    0    0  0.00000000000E+00  0.00000000000E+00 -0.42290724764E+03  0.12465296400E+04  0.11725978011E+04 0.  0.
        2    1    3    3  502    0  0.57615822893E+03  0.94078487543E+02 -0.15383933364E+03  0.60371815209E+03  0.25500000920E-02 0.  1.
       -2    1    3    3    0  502 -0.57615822893E+03 -0.94078487543E+02 -0.26906791400E+03  0.64281148787E+03  0.25500000920E-02 0. -1.
</event>
<event>
 5   0  0.6349142E-03  0.1219123E+04  0.7818609E-02  0.9096281E-01
        2   -1    0    0  501    0  0.00000000000E+00  0.00000000000E+00  0.44303747941E+03  0.44303747942E+03  0.25500000920E-02 0. -1.
       -2   -1    0    0    0  501  0.00000000000E+00  0.00000000000E+00 -0.83867611784E+03  0.83867611785E+03  0.25500000920E-02 0.  1.
    10030    2    1    2    0    0  0.00000000000E+00  0.00000000000E+00 -0.39563863843E+03  0.12817135973E+04  0.12191225587E+04 0.  0.
        1    1    3    3  502    0  0.23802467336E+02  0.33693353738E+03 -0.73128989697E+03  0.80552819907E+03  0.50400001928E-02 0.  1.
       -1    1    3    3    0  502 -0.23802467336E+02 -0.33693353738E+03  0.33565125854E+03  0.47618539819E+03  0.50400001928E-02 0. -1.
</event>
<event>
 5   0  0.6493047E-03  0.1197470E+04  0.7818609E-02  0.9115074E-01
       -2   -1    0    0    0  501  0.00000000000E+00  0.00000000000E+00  0.30814358331E+03  0.30814358332E+03  0.25500000920E-02 0.  1.
        2   -1    0    0  501    0  0.00000000000E+00  0.00000000000E+00 -0.11633650321E+04  0.11633650321E+04  0.25500000920E-02 0. -1.
    10030    2    1    2    0    0  0.00000000000E+00  0.00000000000E+00 -0.85522144881E+03  0.14715086154E+04  0.11974697820E+04 0.  0.
        3    1    3    3  502    0  0.36666020587E+03  0.23290874737E+03  0.78754177994E+02  0.44146168795E+03  0.10100000352E+00 0.  1.
       -3    1    3    3    0  502 -0.36666020587E+03 -0.23290874737E+03 -0.93397562680E+03  0.10300469275E+04  0.10100000352E+00 0. -1.
</event>
<event>
 5   0  0.6349142E-03  0.1070794E+04  0.7818609E-02  0.9234135E-01
        2   -1    0    0  501    0  0.00000000000E+00  0.00000000000E+00  0.21854189470E+04  0.21854189470E+04  0.25500000920E-02 0. -1.
       -2   -1    0    0    0  501  0.00000000000E+00  0.00000000000E+00 -0.13116487056E+03  0.13116487058E+03  0.25500000920E-02 0.  1.
    10030    2    1    2    0    0  0.00000000000E+00  0.00000000000E+00  0.20542540765E+04  0.23165838176E+04  0.10707944590E+04 0.  0.
        1    1    3    3  502    0 -0.22151599006E+03 -0.41927872052E+03  0.15648860477E+04  0.16351551369E+04  0.50400001928E-02 0. -1.
       -1    1    3    3    0  502  0.22151599006E+03  0.41927872052E+03  0.48936802879E+03  0.68142868076E+03  0.50400001928E-02 0.  1.
</event>
<event>
 5   0  0.6658994E-03  0.1232217E+04  0.7818609E-02  0.9085115E-01
       -2   -1    0    0    0  501  0.00000000000E+00  0.00000000000E+00  0.23608477187E+03  0.23608477188E+03  0.25500000920E-02 0. -1.
        2   -1    0    0  501    0  0.00000000000E+00  0.00000000000E+00 -0.16078541957E+04  0.16078541957E+04  0.25500000920E-02 0.  1.
    10030    2    1    2    0    0  0.00000000000E+00  0.00000000000E+00 -0.13717694239E+04  0.18439389676E+04  0.12322173364E+04 0.  0.
        4    1    3    3  502    0 -0.17494338768E+03  0.41594964883E+03 -0.13136210716E+04  0.13889640859E+04  0.12699999809E+01 0.  1.
       -4    1    3    3    0  502  0.17494338768E+03 -0.41594964883E+03 -0.58148352305E+02  0.45497488176E+03  0.12699999809E+01 0. -1.
</event>
<event>
 5   0  0.3772254E-03  0.1194280E+04  0.7818609E-02  0.9117878E-01
       -1   -1    0    0    0  501  0.00000000000E+00  0.00000000000E+00  0.28052515871E+03  0.28052515876E+03  0.50400001928E-02 0.  1.
        1   -1    0    0  501    0  0.00000000000E+00  0.00000000000E+00 -0.12711013997E+04  0.12711013997E+04  0.50400001928E-02 0. -1.
    10030    2    1    2    0    0  0.00000000000E+00  0.00000000000E+00 -0.99057624094E+03  0.15516265584E+04  0.11942795685E+04 0.  0.
        3    1    3    3  502    0 -0.44406378612E+03  0.38737738103E+03 -0.36984800193E+03  0.69573086478E+03  0.10100000352E+00 0. -1.
       -3    1    3    3    0  502  0.44406378612E+03 -0.38737738103E+03 -0.62072823902E+03  0.85589569364E+03  0.10100000352E+00 0.  1.
</event>
<event>
 5   0  0.3701879E-03  0.1177826E+04  0.7818609E-02  0.9132489E-01
        1   -1    0    0  501    0  0.00000000000E+00  0.00000000000E+00  0.66631259176E+03  0.66631259178E+03  0.50400001928E-02 0.  1.
       -1   -1    0    0    0  501  0.00000000000E+00  0.00000000000E+00 -0.52050465303E+03  0.52050465305E+03  0.50400001928E-02 0. -1.
    10030    2    1    2    0    0  0.00000000000E+00  0.00000000000E+00  0.14580793873E+03  0.11868172448E+04  0.11778264803E+04 0.  0.
        1    1    3    3  502    0  0.14682544954E+03 -0.34626042771E+03 -0.38372719257E+03  0.53730862153E+03  0.50400001928E-02 0. -1.
       -1    1    3    3    0  502 -0.14682544954E+03  0.34626042771E+03  0.52953513130E+03  0.64950862330E+03  0.50400001928E-02 0.  1.
</event>
<event>
 5   0  0.3731281E-03  0.1189286E+04  0.7818609E-02  0.9122286E-01
        1   -1    0    0  501    0  0.00000000000E+00  0.00000000000E+00  0.63573819129E+03  0.63573819131E+03  0.50400001928E-02 0. -1.
       -1   -1    0    0    0  501  0.00000000000E+00  0.00000000000E+00 -0.55620472172E+03  0.55620472174E+03  0.50400001928E-02 0.  1.
    10030    2    1    2    0    0  0.00000000000E+00  0.00000000000E+00  0.79533469570E+02  0.11919429131E+04  0.11892864815E+04 0.  0.
        5    1    3    3  502    0 -0.22472171795E+03 -0.34053185744E+03 -0.39376934397E+03  0.56704336932E+03  0.46999998093E+01 0.  1.
       -5    1    3    3    0  502  0.22472171795E+03  0.34053185744E+03  0.47330281354E+03  0.62489954373E+03  0.46999998093E+01 0. -1.
</event>
<event>
 5   0  0.3701879E-03  0.5951921E+03  0.7818609E-02  0.9915432E-01
       -1   -1    0    0    0  501  0.00000000000E+00  0.00000000000E+00  0.16947118994E+03  0.16947119002E+03  0.50400001928E-02 0.  1.
        1   -1    0    0  501    0  0.00000000000E+00  0.00000000000E+00 -0.52258674481E+03  0.52258674483E+03  0.50400001928E-02 0. -1.
    10030    2    1    2    0    0  0.00000000000E+00  0.00000000000E+00 -0.35311555487E+03  0.69205793485E+03  0.59519206153E+03 0.  0.
        1    1    3    3  502    0  0.11596860373E+03  0.26676010971E+03 -0.24966975219E+03  0.38333361236E+03  0.50400001928E-02 0. -1.
       -1    1    3    3    0  502 -0.11596860373E+03 -0.26676010971E+03 -0.10344580268E+03  0.30872432249E+03  0.50400001928E-02 0.  1.
</event>
<event>
 5   0  0.3944074E-03  0.1202633E+04  0.7818609E-02  0.9110555E-01
       -1   -1    0    0    0  501  0.00000000000E+00  0.00000000000E+00  0.57495921978E+03  0.57495921980E+03  0.50400001928E-02 0.  1.
        1   -1    0    0  501    0  0.00000000000E+00  0.00000000000E+00 -0.62888171346E+03  0.62888171348E+03  0.50400001928E-02 0. -1.
    10030    2    1    2    0    0  0.00000000000E+00  0.00000000000E+00 -0.53922493688E+02  0.12038409333E+04  0.12026326776E+04 0.  0.
        4    1    3    3  502    0  0.47022031474E+03 -0.37473945141E+03 -0.20402901732E+02  0.60162670497E+03  0.12699999809E+01 0. -1.
       -4    1    3    3    0  502 -0.47022031474E+03  0.37473945141E+03 -0.33519591956E+02  0.60221422831E+03  0.12699999809E+01 0.  1.
</event>
<event>
 5   0  0.3772254E-03  0.1162115E+04  0.7818609E-02  0.9146679E-01
        1   -1    0    0  501    0  0.00000000000E+00  0.00000000000E+00  0.22220800278E+03  0.22220800283E+03  0.50400001928E-02 0.  1.
       -1   -1    0    0    0  501  0.00000000000E+00  0.00000000000E+00 -0.15194230608E+04  0.15194230608E+04  0.50400001928E-02 0. -1.
    10030    2    1    2    0    0  0.00000000000E+00  0.00000000000E+00 -0.12972150580E+04  0.17416310637E+04  0.11621152503E+04 0.  0.
        3    1    3    3  502    0  0.83057221693E+02 -0.43247344253E+03 -0.80501284904E+02  0.44767426511E+03  0.10100000352E+00 0.  1.
       -3    1    3    3    0  502 -0.83057221693E+02  0.43247344253E+03 -0.12167137731E+04  0.12939567985E+04  0.10100000352E+00 0. -1.
</event>
<event>
 5   0  0.6658994E-03  0.1196128E+04  0.7818609E-02  0.9116252E-01
        2   -1    0    0  501    0  0.00000000000E+00  0.00000000000E+00  0.27389346307E+04  0.27389346307E+04  0.25500000920E-02 0. -1.
       -2   -1    0    0    0  501  0.00000000000E+00  0.00000000000E+00 -0.13059122910E+03  0.13059122913E+03  0.25500000920E-02 0.  1.
    10030    2    1    2    0    0  0.00000000000E+00  0.00000000000E+00  0.26083434016E+04  0.28695258598E+04  0.11961284879E+04 0.  0.
        4    1    3    3  502    0 -0.42482621971E+03 -0.20686733623E+03  0.42465402934E+03  0.63529840964E+03  0.12699999809E+01 0.  1.
       -4    1    3    3    0  502  0.42482621971E+03  0.20686733623E+03  0.21836893722E+04  0.22342274502E+04  0.12699999809E+01 0. -1.
</event>
<event>
 5   0  0.3648616E-03  0.1098224E+04  0.7818609E-02  0.9206924E-01
       -1   -1    0    0    0  501  0.00000000000E+00  0.00000000000E+00  0.63180431444E+03  0.63180431446E+03  0.50400001928E-02 0.  1.
        1   -1    0    0  501    0  0.00000000000E+00  0.00000000000E+00 -0.47724307278E+03  0.47724307281E+03  0.50400001928E-02 0. -1.
    10030    2    1    2    0    0  0.00000000000E+00  0.00000000000E+00  0.15456124166E+03  0.11090473873E+04  0.10982244442E+04 0.  0.
        2    1    3    3  502    0  0.17939284235E+03  0.20970967091E+03  0.55668450897E+03  0.62133532049E+03  0.25500000920E-02 0.  1.
       -2    1    3    3    0  502 -0.17939284235E+03 -0.20970967091E+03 -0.40212326731E+03  0.48771206678E+03  0.25500000920E-02 0. -1.
</event>
<event>
 5   0  0.3772254E-03  0.1201931E+04  0.7818609E-02  0.9111168E-01
        1   -1    0    0  501    0  0.00000000000E+00  0.00000000000E+00  0.10236846385E+04  0.10236846385E+04  0.50400001928E-02 0.  1.
       -1   -1    0    0    0  501  0.00000000000E+00  0.00000000000E+00 -0.35280337943E+03  0.35280337947E+03  0.50400001928E-02 0. -1.
    10030    2    1    2    0    0  0.00000000000E+00  0.00000000000E+00  0.67088125907E+03  0.13764880180E+04  0.12019307800E+04 0.  0.
        3    1    3    3  502    0  0.49679123025E+03  0.20441239350E+03  0.26921694917E+02  0.53787613902E+03  0.10100000352E+00 0. -1.
       -3    1    3    3    0  502 -0.49679123025E+03 -0.20441239350E+03  0.64395956416E+03  0.83861187896E+03  0.10100000352E+00 0.  1.
</event>
<event>
 5   0  0.6640844E-03  0.1219536E+04  0.7818609E-02  0.9095927E-01
       -2   -1    0    0    0  501  0.00000000000E+00  0.00000000000E+00  0.22794049363E+03  0.22794049365E+03  0.25500000920E-02 0. -1.
        2   -1    0    0  501    0  0.00000000000E+00  0.00000000000E+00 -0.16312009856E+04  0.16312009856E+04  0.25500000920E-02 0.  1.
    10030    2    1    2    0    0  0.00000000000E+00  0.00000000000E+00 -0.14032604919E+04  0.18591414792E+04  0.12195355803E+04 0.  0.
        5    1    3    3  502    0  0.12328105019E+03 -0.52655908199E+03 -0.11310105529E+04  0.12536624924E+04  0.46999998093E+01 0.  1.
       -5    1    3    3    0  502 -0.12328105019E+03  0.52655908199E+03 -0.27224993908E+03  0.60547898682E+03  0.46999998093E+01 0. -1.
</event>
<event>
 5   0  0.3648616E-03  0.1234598E+04  0.7818609E-02  0.9083101E-01
        1   -1    0    0  501    0  0.00000000000E+00  0.00000000000E+00  0.65005382105E+03  0.65005382107E+03  0.50400001928E-02 0. -1.
       -1   -1    0    0    0  501  0.00000000000E+00  0.00000000000E+00 -0.58619449634E+03  0.58619449637E+03  0.50400001928E-02 0.  1.
    10030    2    1    2    0    0  0.00000000000E+00  0.00000000000E+00  0.63859324706E+02  0.12362483174E+04  0.12345978653E+04 0.  0.
        2    1    3    3  502    0 -0.16524053014E+03 -0.26098266059E+03  0.56709861833E+03  0.64576870848E+03  0.25500000920E-02 0. -1.
       -2    1    3    3    0  502  0.16524053014E+03  0.26098266059E+03 -0.50323929363E+03  0.59047960895E+03  0.25500000920E-02 0.  1.
</event>
<event>
 5   0  0.3772254E-03  0.1175585E+04  0.7818609E-02  0.9134500E-01
       -1   -1    0    0    0  501  0.00000000000E+00  0.00000000000E+00  0.54913112068E+03  0.54913112070E+03  0.50400001928E-02 0. -1.
        1   -1    0    0  501    0  0.00000000000E+00  0.00000000000E+00 -0.62917538332E+03  0.62917538334E+03  0.50400001928E-02 0.  1.
    10030    2    1    2    0    0  0.00000000000E+00  0.00000000000E+00 -0.80044262638E+02  0.11783065040E+04  0.11755845922E+04 0.  0.
        3    1    3    3  502    0  0.26953345810E+03  0.49795728919E+03  0.11810888678E+03  0.57841115673E+03  0.10100000352E+00 0. -1.
       -3    1    3    3    0  502 -0.26953345810E+03 -0.49795728919E+03 -0.19815314942E+03  0.59989534731E+03  0.10100000352E+00 0.  1.
</event>
<event>
 5   0  0.3731281E-03  0.1191217E+04  0.7818609E-02  0.9120579E-01
       -1   -1    0    0    0  501  0.00000000000E+00  0.00000000000E+00  0.27943635797E+03  0.27943635802E+03  0.50400001928E-02 0. -1.
        1   -1    0    0  501    0  0.00000000000E+00  0.00000000000E+00 -0.12695173711E+04  0.12695173711E+04  0.50400001928E-02 0.  1.
    10030    2    1    2    0    0  0.00000000000E+00  0.00000000000E+00 -0.99008101311E+03  0.15489537291E+04  0.11912167067E+04 0.  0.
        5    1    3    3  502    0 -0.10451834790E+03  0.11010860574E+03 -0.12439111523E+04  0.12531500448E+04  0.46999998093E+01 0.  1.
       -5    1    3    3    0  502  0.10451834790E+03 -0.11010860574E+03  0.25383013915E+03  0.29580368430E+03  0.46999998093E+01 0. -1.
</event>
<event>
 5   0  0.6585930E-03  0.1013638E+04  0.7818609E-02  0.9293712E-01
       -2   -1    0    0    0  501  0.00000000000E+00  0.00000000000E+00  0.13934472171E+03  0.13934472173E+03  0.25500000920E-02 0.  1.
        2   -1    0    0  501    0  0.00000000000E+00  0.00000000000E+00 -0.18433810432E+04  0.18433810432E+04  0.25500000920E-02 0. -1.
    10030    2    1    2    0    0  0.00000000000E+00  0.00000000000E+00 -0.17040363215E+04  0.19827257650E+04  0.10136378416E+04 0.  0.
        2    1    3    3  502    0  0.13685961961E+03 -0.38605071270E+03 -0.26814571484E+03  0.48955881429E+03  0.25500000920E-02 0.  1.
       -2    1    3    3    0  502 -0.13685961961E+03  0.38605071270E+03 -0.14358906067E+04  0.14931669507E+04  0.25500000920E-02 0. -1.
</event>
<event>
 5   0  0.6585930E-03  0.1355359E+04  0.7818609E-02  0.8986781E-01
        2   -1    0    0  501    0  0.00000000000E+00  0.00000000000E+00  0.88126065384E+03  0.88126065385E+03  0.25500000920E-02 0. -1.
       -2   -1    0    0    0  501  0.00000000000E+00  0.00000000000E+00 -0.52112803170E+03  0.52112803171E+03  0.25500000920E-02 0.  1.
    10030    2    1    2    0    0  0.00000000000E+00  0.00000000000E+00  0.36013262215E+03  0.14023886856E+04  0.13553591848E+04 0.  0.
        2    1    3    3  502    0  0.26019121954E+03 -0.16041090697E+03 -0.44574992820E+03  0.54048508610E+03  0.25500000920E-02 0.  1.
       -2    1    3    3    0  502 -0.26019121954E+03  0.16041090697E+03  0.80588255034E+03  0.86190359946E+03  0.25500000920E-02 0. -1.
</event>
<event>
 5   0  0.6493047E-03  0.1156182E+04  0.7818609E-02  0.9152099E-01
       -2   -1    0    0    0  501  0.00000000000E+00  0.00000000000E+00  0.23435804354E+03  0.23435804356E+03  0.25500000920E-02 0.  1.
        2   -1    0    0  501    0  0.00000000000E+00  0.00000000000E+00 -0.14259764641E+04  0.14259764641E+04  0.25500000920E-02 0. -1.
    10030    2    1    2    0    0  0.00000000000E+00  0.00000000000E+00 -0.11916184206E+04  0.16603345077E+04  0.11561817405E+04 0.  0.
        3    1    3    3  502    0  0.23177405427E+03  0.18855195113E+03 -0.13064986044E+04  0.13402274673E+04  0.10100000352E+00 0. -1.
       -3    1    3    3    0  502 -0.23177405427E+03 -0.18855195113E+03  0.11488018381E+03  0.32010704044E+03  0.10100000352E+00 0.  1.
</event>
<event>
 5   0  0.6658994E-03  0.1216784E+04  0.7818609E-02  0.9098291E-01
       -2   -1    0    0    0  501  0.00000000000E+00  0.00000000000E+00  0.28295208706E+03  0.28295208707E+03  0.25500000920E-02 0.  1.
        2   -1    0    0  501    0  0.00000000000E+00  0.00000000000E+00 -0.13081390339E+04  0.13081390339E+04  0.25500000920E-02 0. -1.
    10030    2    1    2    0    0  0.00000000000E+00  0.00000000000E+00 -0.10251869469E+04  0.15910911210E+04  0.12167837438E+04 0.  0.
        4    1    3    3  502    0  0.23847946982E+01 -0.60428777378E+03 -0.60477519681E+03  0.85494096425E+03  0.12699999809E+01 0. -1.
       -4    1    3    3    0  502 -0.23847946982E+01  0.60428777378E+03 -0.42041175006E+03  0.73615015674E+03  0.12699999809E+01 0.  1.
</event>
<event>
 5   0  0.3701879E-03  0.1220971E+04  0.7818609E-02  0.9094697E-01
       -1   -1    0    0    0  501  0.00000000000E+00  0.00000000000E+00  0.23848765519E+03  0.23848765524E+03  0.50400001928E-02 0.  1.
        1   -1    0    0  501    0  0.00000000000E+00  0.00000000000E+00 -0.15627319177E+04  0.15627319177E+04  0.50400001928E-02 0. -1.
    10030    2    1    2    0    0  0.00000000000E+00  0.00000000000E+00 -0.13242442625E+04  0.18012195729E+04  0.12209705497E+04 0.  0.
        1    1    3    3  502    0 -0.12308983950E+03 -0.36419984330E+03 -0.13617318685E+04  0.14149580616E+04  0.50400001928E-02 0. -1.
       -1    1    3    3    0  502  0.12308983950E+03  0.36419984330E+03  0.37487606052E+02  0.38626151126E+03  0.50400001928E-02 0.  1.
</event>
<event>
 5   0  0.6658994E-03  0.1161167E+04  0.7818609E-02  0.9147543E-01
        2   -1    0    0  501    0  0.00000000000E+00  0.00000000000E+00  0.98440588423E+03  0.98440588423E+03  0.25500000920E-02 0.  1.
       -2   -1    0    0    0  501  0.00000000000E+00  0.00000000000E+00 -0.34241700475E+03  0.34241700476E+03  0.25500000920E-02 0. -1.
    10030    2    1    2    0    0  0.00000000000E+00  0.00000000000E+00  0.64198887947E+03  0.13268228890E+04  0.11611671961E+04 0.  0.
        4    1    3    3  502    0 -0.54762408846E+03 -0.13531500741E+03  0.16401478830E+03  0.58745617468E+03  0.12699999809E+01 0. -1.
       -4    1    3    3    0  502  0.54762408846E+03  0.13531500741E+03  0.47797409117E+03  0.73936671431E+03  0.12699999809E+01 0.  1.
</event>
<event>
 5   0  0.3944074E-03  0.1217323E+04  0.7818609E-02  0.9097827E-01
        1   -1    0    0  501    0  0.00000000000E+00  0.00000000000E+00  0.11191685495E+04  0.11191685495E+04  0.50400001928E-02 0.  1.
       -1   -1    0    0    0  501  0.00000000000E+00  0.00000000000E+00 -0.33102155868E+03  0.33102155871E+03  0.50400001928E-02 0. -1.
    10030    2    1    2    0    0  0.00000000000E+00  0.00000000000E+00  0.78814699084E+03  0.14501901082E+04  0.12173231579E+04 0.  0.
        4    1    3    3  502    0  0.25739703749E+03  0.36625819948E+02  0.10496887669E+04  0.10814077888E+04  0.12699999809E+01 0.  1.
       -4    1    3    3    0  502 -0.25739703749E+03 -0.36625819948E+02 -0.26154177602E+03  0.36878231940E+03  0.12699999809E+01 0. -1.
</event>
<event>
 5   0  0.6349142E-03  0.1215963E+04  0.7818609E-02  0.9098997E-01
        2   -1    0    0  501    0  0.00000000000E+00  0.00000000000E+00  0.13415733086E+04  0.13415733086E+04  0.25500000920E-02 0.  1.
       -2   -1    0    0    0  501  0.00000000000E+00  0.00000000000E+00 -0.27552853487E+03  0.27552853489E+03  0.25500000920E-02 0. -1.
    10030    2    1    2    0    0  0.00000000000E+00  0.00000000000E+00  0.10660447737E+04  0.16171018435E+04  0.12159633681E+04 0.  0.
        1    1    3    3  502    0  0.12373046658E+03  0.58413239129E+03  0.38068222877E+03  0.70812346257E+03  0.50400001928E-02 0.  1.
       -1    1    3    3    0  502 -0.12373046658E+03 -0.58413239129E+03  0.68536254493E+03  0.90897838090E+03  0.50400001928E-02 0. -1.
</event>
<event>
 5   0  0.3772254E-03  0.1218460E+04  0.7818609E-02  0.9096850E-01
       -1   -1    0    0    0  501  0.00000000000E+00  0.00000000000E+00  0.25297583054E+03  0.25297583059E+03  0.50400001928E-02 0. -1.
        1   -1    0    0  501    0  0.00000000000E+00  0.00000000000E+00 -0.14671810764E+04  0.14671810764E+04  0.50400001928E-02 0.  1.
    10030    2    1    2    0    0  0.00000000000E+00  0.00000000000E+00 -0.12142052459E+04  0.17201569070E+04  0.12184602602E+04 0.  0.
        3    1    3    3  502    0 -0.53511135841E+03  0.28987886454E+03 -0.64671762612E+03  0.88804145182E+03  0.10100000352E+00 0.  1.
       -3    1    3    3    0  502  0.53511135841E+03 -0.28987886454E+03 -0.56748761973E+03  0.83211545518E+03  0.10100000352E+00 0. -1.
</event>
<event>
 5   0  0.6493047E-03  0.1217717E+04  0.7818609E-02  0.9097489E-01
       -2   -1    0    0    0  501  0.00000000000E+00  0.00000000000E+00  0.95073025503E+03  0.95073025503E+03  0.25500000920E-02 0. -1.
        2   -1    0    0  501    0  0.00000000000E+00  0.00000000000E+00 -0.38991962319E+03  0.38991962320E+03  0.25500000920E-02 0.  1.
    10030    2    1    2    0    0  0.00000000000E+00  0.00000000000E+00  0.56081063184E+03  0.13406498782E+04  0.12177165233E+04 0.  0.
        3    1    3    3  502    0 -0.33665898916E+03 -0.74084893626E+02  0.83294881031E+03  0.90146080183E+03  0.10100000352E+00 0. -1.
       -3    1    3    3    0  502  0.33665898916E+03  0.74084893626E+02 -0.27213817846E+03  0.43918907640E+03  0.10100000352E+00 0.  1.
</event>
<event>
 5   0  0.3731281E-03  0.1310564E+04  0.7818609E-02  0.9021229E-01
       -1   -1    0    0    0  501  0.00000000000E+00  0.00000000000E+00  0.34073182401E+03  0.34073182405E+03  0.50400001928E-02 0.  1.
        1   -1    0    0  501    0  0.00000000000E+00  0.00000000000E+00 -0.12602133826E+04  0.12602133826E+04  0.50400001928E-02 0. -1.
    10030    2    1    2    0    0  0.00000000000E+00  0.00000000000E+00 -0.91948155859E+03  0.16009452067E+04  0.13105644655E+04 0.  0.
        5    1    3    3  502    0  0.35395740183E+03  0.57213100357E+02  0.21024682125E+03  0.41567414763E+03  0.46999998093E+01 0.  1.
       -5    1    3    3    0  502 -0.35395740183E+03 -0.57213100357E+02 -0.11297283798E+04  0.11852710590E+04  0.46999998093E+01 0. -1.
</event>
<event>
 5   0  0.6349142E-03  0.1271338E+04  0.7818609E-02  0.9052608E-01
       -2   -1    0    0    0  501  0.00000000000E+00  0.00000000000E+00  0.34996572600E+03  0.34996572600E+03  0.25500000920E-02 0. -1.
        2   -1    0    0  501    0  0.00000000000E+00  0.00000000000E+00 -0.11546134001E+04  0.11546134001E+04  0.25500000920E-02 0.  1.
    10030    2    1    2    0    0  0.00000000000E+00  0.00000000000E+00 -0.80464767410E+03  0.15045791261E+04  0.12713380618E+04 0.  0.
        1    1    3    3  502    0  0.12304344150E+02  0.87089347722E+02 -0.11473773698E+04  0.11507435771E+04  0.50400001928E-02 0.  1.
       -1    1    3    3    0  502 -0.12304344150E+02 -0.87089347722E+02  0.34272969574E+03  0.35383554901E+03  0.50400001928E-02 0. -1.
</event>
<event>
 5   0  0.6493047E-03  0.1275080E+04  0.7818609E-02  0.9049564E-01
       -2   -1    0    0    0  501  0.00000000000E+00  0.00000000000E+00  0.25453624204E+03  0.25453624205E+03  0.25500000920E-02 0.  1.
        2   -1    0    0  501    0  0.00000000000E+00  0.00000000000E+00 -0.15968539403E+04  0.15968539403E+04  0.25500000920E-02 0. -1.
    10030    2    1    2    0    0  0.00000000000E+00  0.00000000000E+00 -0.13423176982E+04  0.18513901823E+04  0.12750799207E+04 0.  0.
        3    1    3    3  502    0 -0.19776583316E+03  0.37918768629E+03  0.15372054121E+02  0.42793800538E+03  0.10100000352E+00 0.  1.
       -3    1    3    3    0  502  0.19776583316E+03 -0.37918768629E+03 -0.13576897524E+04  0.14234521770E+04  0.10100000352E+00 0. -1.
</event>
<event>
 5   0  0.3731281E-03  0.1217027E+04  0.7818609E-02  0.9098082E-01
       -1   -1    0    0    0  501  0.00000000000E+00  0.00000000000E+00  0.19664843360E+03  0.19664843366E+03  0.50400001928E-02 0.  1.
        1   -1    0    0  501    0  0.00000000000E+00  0.00000000000E+00 -0.18829994613E+04  0.18829994613E+04  0.50400001928E-02 0. -1.
    10030    2    1    2    0    0  0.00000000000E+00  0.00000000000E+00 -0.16863510277E+04  0.20796478950E+04  0.12170273532E+04 0.  0.
        5    1    3    3  502    0 -0.22337707586E+03 -0.54484455925E+03 -0.11052059495E+04  0.12522999611E+04  0.46999998093E+01 0. -1.
       -5    1    3    3    0  502  0.22337707586E+03  0.54484455925E+03 -0.58114507822E+03  0.82734793389E+03  0.46999998093E+01 0.  1.
</event>
<event>
 5   0  0.3944074E-03  0.1187474E+04  0.7818609E-02  0.9123892E-01
       -1   -1    0    0    0  501  0.00000000000E+00  0.00000000000E+00  0.34077134780E+03  0.34077134784E+03  0.50400001928E-02 0.  1.
        1   -1    0    0  501    0  0.00000000000E+00  0.00000000000E+00 -0.10344871882E+04  0.10344871882E+04  0.50400001928E-02 0. -1.
    10030    2    1    2    0    0  0.00000000000E+00  0.00000000000E+00 -0.69371584036E+03  0.13752585360E+04  0.11874739465E+04 0.  0.
        4    1    3    3  502    0  0.14383598202E+02 -0.56351435768E+02  0.33746300416E+03  0.34244016161E+03  0.12699999809E+01 0.  1.
       -4    1    3    3    0  502 -0.14383598202E+02  0.56351435768E+02 -0.10311788445E+04  0.10328183744E+04  0.12699999809E+01 0. -1.
</event>
<event>
 5   0  0.3648616E-03  0.1187028E+04  0.7818609E-02  0.9124287E-01
        1   -1    0    0  501    0  0.00000000000E+00  0.00000000000E+00  0.60840029519E+03  0.60840029521E+03  0.50400001928E-02 0. -1.
       -1   -1    0    0    0  501  0.00000000000E+00  0.00000000000E+00 -0.57899236609E+03  0.57899236611E+03  0.50400001928E-02 0.  1.
    10030    2    1    2    0    0  0.00000000000E+00  0.00000000000E+00  0.29407929103E+02  0.11873926613E+04  0.11870284352E+04 0.  0.
        2    1    3    3  502    0 -0.51495506784E+03 -0.15915469132E+03  0.26327606536E+03  0.59985266879E+03  0.25500000920E-02 0. -1.
       -2    1    3    3    0  502  0.51495506784E+03  0.15915469132E+03 -0.23386813625E+03  0.58753999253E+03  0.25500000920E-02 0.  1.
</event>
<event>
 5   0  0.6658994E-03  0.1163721E+04  0.7818609E-02  0.9145218E-01
       -2   -1    0    0    0  501  0.00000000000E+00  0.00000000000E+00  0.17061722162E+03  0.17061722163E+03  0.25500000920E-02 0.  1.
        2   -1    0    0  501    0  0.00000000000E+00  0.00000000000E+00 -0.19843346798E+04  0.19843346799E+04  0.25500000920E-02 0. -1.
    10030    2    1    2    0    0  0.00000000000E+00  0.00000000000E+00 -0.18137174582E+04  0.21549519015E+04  0.11637210488E+04 0.  0.
        4    1    3    3  502    0 -0.45029128687E+03 -0.12153853957E+03 -0.26264735948E+03  0.53527479669E+03  0.12699999809E+01 0.  1.
       -4    1    3    3    0  502  0.45029128687E+03  0.12153853957E+03 -0.15510700988E+04  0.16196771048E+04  0.12699999809E+01 0. -1.
</event>
<event>
 5   0  0.6349142E-03  0.1186809E+04  0.7818609E-02  0.9124482E-01
        2   -1    0    0  501    0  0.00000000000E+00  0.00000000000E+00  0.17637307255E+03  0.17637307257E+03  0.25500000920E-02 0.  1.
       -2   -1    0    0    0  501  0.00000000000E+00  0.00000000000E+00 -0.19964987431E+04  0.19964987431E+04  0.25500000920E-02 0. -1.
    10030    2    1    2    0    0  0.00000000000E+00  0.00000000000E+00 -0.18201256706E+04  0.21728718157E+04  0.11868085232E+04 0.  0.
        1    1    3    3  502    0 -0.53263918277E+03 -0.48225777384E+02 -0.13807679319E+04  0.14807262767E+04  0.50400001928E-02 0. -1.
       -1    1    3    3    0  502  0.53263918277E+03  0.48225777384E+02 -0.43935773866E+03  0.69214553901E+03  0.50400001928E-02 0.  1.
</event>
<event>
 5   0  0.3701879E-03  0.1212581E+04  0.7818609E-02  0.9101915E-01
        1   -1    0    0  501    0  0.00000000000E+00  0.00000000000E+00  0.50017703800E+03  0.50017703802E+03  0.50400001928E-02 0.  1.
       -1   -1    0    0    0  501  0.00000000000E+00  0.00000000000E+00 -0.73491570403E+03  0.73491570404E+03  0.50400001928E-02 0. -1.
    10030    2    1    2    0    0  0.00000000000E+00  0.00000000000E+00 -0.23473866603E+03  0.12350927421E+04  0.12125806531E+04 0.  0.
        1    1    3    3  502    0 -0.31293261515E+03 -0.24764196364E+03 -0.58228013032E+03  0.70590616513E+03  0.50400001928E-02 0. -1.
       -1    1    3    3    0  502  0.31293261515E+03  0.24764196364E+03  0.34754146429E+03  0.52918657694E+03  0.50400001928E-02 0.  1.
</event>
<event>
 5   0  0.6640844E-03  0.1209392E+04  0.7818609E-02  0.9104675E-01
        2   -1    0    0  501    0  0.00000000000E+00  0.00000000000E+00  0.10055786961E+04  0.10055786961E+04  0.25500000920E-02 0. -1.
       -2   -1    0    0    0  501  0.00000000000E+00  0.00000000000E+00 -0.36362892049E+03  0.36362892050E+03  0.25500000920E-02 0.  1.
    10030    2    1    2    0    0  0.00000000000E+00  0.00000000000E+00  0.64194977557E+03  0.13692076166E+04  0.12093924024E+04 0.  0.
        5    1    3    3  502    0  0.38321230177E+03  0.19283046549E+03  0.80343361940E+03  0.91080345159E+03  0.46999998093E+01 0. -1.
       -5    1    3    3    0  502 -0.38321230177E+03 -0.19283046549E+03 -0.16148384382E+03  0.45840416497E+03  0.46999998093E+01 0.  1.
</event>
<event>
 5   0  0.3944074E-03  0.1182852E+04  0.7818609E-02  0.9128000E-01
       -1   -1    0    0    0  501  0.00000000000E+00  0.00000000000E+00  0.88878274820E+03  0.88878274821E+03  0.50400001928E-02 0.  1.
        1   -1    0    0  501    0  0.00000000000E+00  0.00000000000E+00 -0.39355448862E+03  0.39355448866E+03  0.50400001928E-02 0. -1.
    10030    2    1    2    0    0  0.00000000000E+00  0.00000000000E+00  0.49522825957E+03  0.12823372369E+04  0.11828515376E+04 0.  0.
        4    1    3    3  502    0 -0.36851726685E+03  0.20594046246E+03  0.69665731009E+03  0.81458545939E+03  0.12699999809E+01 0.  1.
       -4    1    3    3    0  502  0.36851726685E+03 -0.20594046246E+03 -0.20142905051E+03  0.46775177748E+03  0.12699999809E+01 0. -1.
</event>
<event>
 5   0  0.3772254E-03  0.6143081E+03  0.7818609E-02  0.9876158E-01
       -1   -1    0    0    0  501  0.00000000000E+00  0.00000000000E+00  0.11947541509E+03  0.11947541520E+03  0.50400001928E-02 0.  1.
        1   -1    0    0  501    0  0.00000000000E+00  0.00000000000E+00 -0.78964871304E+03  0.78964871305E+03  0.50400001928E-02 0. -1.
    10030    2    1    2    0    0  0.00000000000E+00  0.00000000000E+00 -0.67017329794E+03  0.90912412825E+03  0.61430809151E+03 0.  0.
        3    1    3    3  502    0  0.24839813254E+03 -0.90546582469E+02 -0.56646179479E+03  0.62512342062E+03  0.10100000352E+00 0. -1.
       -3    1    3    3    0  502 -0.24839813254E+03  0.90546582469E+02 -0.10371150315E+03  0.28400070763E+03  0.10100000352E+00 0.  1.
</event>
<event>
 5   0  0.2537625E-03  0.1205531E+04  0.7818609E-02  0.9108029E-01
        3   -1    0    0  501    0  0.00000000000E+00  0.00000000000E+00  0.35805095986E+03  0.35805097410E+03  0.10100000352E+00 0.  1.
       -3   -1    0    0    0  501  0.00000000000E+00  0.00000000000E+00 -0.10147330134E+04  0.10147330184E+04  0.10100000352E+00 0. -1.
    10030    2    1    2    0    0  0.00000000000E+00  0.00000000000E+00 -0.65668205354E+03  0.13727839925E+04  0.12055308253E+04 0.  0.
        1    1    3    3  502    0 -0.17515690088E+03  0.19362986390E+03  0.29031320336E+03  0.39045386435E+03  0.50400001928E-02 0.  1.
       -1    1    3    3    0  502  0.17515690088E+03 -0.19362986390E+03 -0.94699525690E+03  0.98233012818E+03  0.50400001928E-02 0. -1.
</event>
<event>
 5   0  0.3648616E-03  0.1223796E+04  0.7818609E-02  0.9092279E-01
        1   -1    0    0  501    0  0.00000000000E+00  0.00000000000E+00  0.36583816910E+03  0.36583816914E+03  0.50400001928E-02 0.  1.
       -1   -1    0    0    0  501  0.00000000000E+00  0.00000000000E+00 -0.10234556960E+04  0.10234556960E+04  0.50400001928E-02 0. -1.
    10030    2    1    2    0    0  0.00000000000E+00  0.00000000000E+00 -0.65761752687E+03  0.13892938651E+04  0.12237959928E+04 0.  0.
        2    1    3    3  502    0  0.28266559664E+03  0.35582556443E+03 -0.79398778507E+03  0.91483784065E+03  0.25500000920E-02 0. -1.
       -2    1    3    3    0  502 -0.28266559664E+03 -0.35582556443E+03  0.13637025821E+03  0.47445602447E+03  0.25500000920E-02 0.  1.
</event>
<event>
 5   0  0.2537625E-03  0.1153944E+04  0.7818609E-02  0.9154152E-01
        3   -1    0    0  501    0  0.00000000000E+00  0.00000000000E+00  0.32167038593E+03  0.32167040178E+03  0.10100000352E+00 0. -1.
       -3   -1    0    0    0  501  0.00000000000E+00  0.00000000000E+00 -0.10349006179E+04  0.10349006228E+04  0.10100000352E+00 0.  1.
    10030    2    1    2    0    0  0.00000000000E+00  0.00000000000E+00 -0.71323023199E+03  0.13565710246E+04  0.11539443579E+04 0.  0.
        3    1    3    3  502    0  0.53979491192E+03 -0.19998609605E+03 -0.31072323771E+03  0.65415741699E+03  0.10100000352E+00 0.  1.
       -3    1    3    3    0  502 -0.53979491192E+03  0.19998609605E+03 -0.40250699428E+03  0.70241360764E+03  0.10100000352E+00 0. -1.
</event>
<event>
 5   0  0.6658994E-03  0.1226847E+04  0.7818609E-02  0.9089677E-01
       -2   -1    0    0    0  501  0.00000000000E+00  0.00000000000E+00  0.20755170735E+03  0.20755170736E+03  0.25500000920E-02 0.  1.
        2   -1    0    0  501    0  0.00000000000E+00  0.00000000000E+00 -0.18129863388E+04  0.18129863388E+04  0.25500000920E-02 0. -1.
    10030    2    1    2    0    0  0.00000000000E+00  0.00000000000E+00 -0.16054346315E+04  0.20205380462E+04  0.12268470321E+04 0.  0.
        4    1    3    3  502    0  0.17648486386E+02 -0.41943421427E+03 -0.15393418586E+04  0.15955599330E+04  0.12699999809E+01 0. -1.
       -4    1    3    3    0  502 -0.17648486386E+02  0.41943421427E+03 -0.66092772859E+02  0.42497811320E+03  0.12699999809E+01 0.  1.
</event>
<event>
 5   0  0.3701879E-03  0.1416219E+04  0.7818609E-02  0.8942162E-01
       -1   -1    0    0    0  501  0.00000000000E+00  0.00000000000E+00  0.84737002067E+03  0.84737002069E+03  0.50400001928E-02 0. -1.
        1   -1    0    0  501    0  0.00000000000E+00  0.00000000000E+00 -0.59173549674E+03  0.59173549676E+03  0.50400001928E-02 0.  1.
    10030    2    1    2    0    0  0.00000000000E+00  0.00000000000E+00  0.25563452393E+03  0.14391055175E+04  0.14162187968E+04 0.  0.
        1    1    3    3  502    0 -0.43179997252E+03 -0.21407786114E+03 -0.39935201926E+03  0.62590940415E+03  0.50400001928E-02 0.  1.
       -1    1    3    3    0  502  0.43179997252E+03  0.21407786114E+03  0.65498654319E+03  0.81319611330E+03  0.50400001928E-02 0. -1.
</event>
<event>
 5   0  0.3772254E-03  0.1229046E+04  0.7818609E-02  0.9087806E-01
        1   -1    0    0  501    0  0.00000000000E+00  0.00000000000E+00  0.10860376875E+04  0.10860376876E+04  0.50400001928E-02 0. -1.
       -1   -1    0    0    0  501  0.00000000000E+00  0.00000000000E+00 -0.34772134410E+03  0.34772134414E+03  0.50400001928E-02 0.  1.
    10030    2    1    2    0    0  0.00000000000E+00  0.00000000000E+00  0.73831634345E+03  0.14337590317E+04  0.12290459462E+04 0.  0.
        3    1    3    3  502    0  0.48977245417E+03  0.34594283172E+03  0.21227838161E+03  0.63609403486E+03  0.10100000352E+00 0. -1.
       -3    1    3    3    0  502 -0.48977245417E+03 -0.34594283172E+03  0.52603796183E+03  0.79766499683E+03  0.10100000352E+00 0.  1.
</event>
<event>
 5   0  0.6585930E-03  0.1195324E+04  0.7818609E-02  0.9116959E-01
        2   -1    0    0  501    0  0.00000000000E+00  0.00000000000E+00  0.13669751858E+04  0.13669751858E+04  0.25500000920E-02 0.  1.
       -2   -1    0    0    0  501  0.00000000000E+00  0.00000000000E+00 -0.26130698371E+03  0.26130698372E+03  0.25500000920E-02 0. -1.
    10030    2    1    2    0    0  0.00000000000E+00  0.00000000000E+00  0.11056682021E+04  0.16282821695E+04  0.11953244959E+04 0.  0.
        2    1    3    3  502    0 -0.66496124375E+02  0.28849819711E+03 -0.15439687598E+03  0.33390318898E+03  0.25500000920E-02 0. -1.
       -2    1    3    3    0  502  0.66496124375E+02 -0.28849819711E+03  0.12600650781E+04  0.12943789806E+04  0.25500000920E-02 0.  1.
</event>
<event>
 5   0  0.6658994E-03  0.1199000E+04  0.7818609E-02  0.9113732E-01
        2   -1    0    0  501    0  0.00000000000E+00  0.00000000000E+00  0.84950016871E+03  0.84950016872E+03  0.25500000920E-02 0. -1.
       -2   -1    0    0    0  501  0.00000000000E+00  0.00000000000E+00 -0.42307290823E+03  0.42307290824E+03  0.25500000920E-02 0.  1.
    10030    2    1    2    0    0  0.00000000000E+00  0.00000000000E+00  0.42642726048E+03  0.12725730770E+04  0.11990004286E+04 0.  0.
        4    1    3    3  502    0 -0.43465216415E+03  0.20039166528E+03 -0.16993582544E+03  0.50789676213E+03  0.12699999809E+01 0.  1.
       -4    1    3    3    0  502  0.43465216415E+03 -0.20039166528E+03  0.59636308592E+03  0.76467631483E+03  0.12699999809E+01 0. -1.
</event>
<event>
 5   0  0.3731281E-03  0.1108667E+04  0.7818609E-02  0.9196786E-01
        1   -1    0    0  501    0  0.00000000000E+00  0.00000000000E+00  0.76255499313E+03  0.76255499314E+03  0.50400001928E-02 0.  1.
       -1   -1    0    0    0  501  0.00000000000E+00  0.00000000000E+00 -0.40296817693E+03  0.40296817696E+03  0.50400001928E-02 0. -1.
    10030    2    1    2    0    0  0.00000000000E+00  0.00000000000E+00  0.35958681620E+03  0.11655231701E+04  0.11086665782E+04 0.  0.
        5    1    3    3  502    0 -0.22716776466E+03  0.34431288958E+03 -0.20947518742E+03  0.46266456897E+03  0.46999998093E+01 0. -1.
       -5    1    3    3    0  502  0.22716776466E+03 -0.34431288958E+03  0.56906200362E+03  0.70285860114E+03  0.46999998093E+01 0.  1.
</event>
<event>
 5   0  0.6658994E-03  0.1194321E+04  0.7818609E-02  0.9117842E-01
        2   -1    0    0  501    0  0.00000000000E+00  0.00000000000E+00  0.10371463285E+04  0.10371463285E+04  0.25500000920E-02 0.  1.
       -2   -1    0    0    0  501  0.00000000000E+00  0.00000000000E+00 -0.34382864048E+03  0.34382864049E+03  0.25500000920E-02 0. -1.
    10030    2    1    2    0    0  0.00000000000E+00  0.00000000000E+00  0.69331768803E+03  0.13809749690E+04  0.11943209152E+04 0.  0.
        4    1    3    3  502    0  0.90340919482E+02  0.56225560858E+03  0.13882926452E+03  0.58614676379E+03  0.12699999809E+01 0. -1.
       -4    1    3    3    0  502 -0.90340919482E+02 -0.56225560858E+03  0.55448842351E+03  0.79482820522E+03  0.12699999809E+01 0.  1.
</event>
<event>
 5   0  0.3648616E-03  0.1045036E+04  0.7818609E-02  0.9260485E-01
        1   -1    0    0  501    0  0.00000000000E+00  0.00000000000E+00  0.48425356570E+03  0.48425356573E+03  0.50400001928E-02 0.  1.
       -1   -1    0    0    0  501  0.00000000000E+00  0.00000000000E+00 -0.56380549476E+03  0.56380549478E+03  0.50400001928E-02 0. -1.
    10030    2    1    2    0    0  0.00000000000E+00  0.00000000000E+00 -0.79551929057E+02  0.10480590605E+04  0.10450355424E+04 0.  0.
        2    1    3    3  502    0  0.23628257050E+03 -0.30692895949E+03  0.31193796138E+03  0.49733301826E+03  0.25500000920E-02 0.  1.
       -2    1    3    3    0  502 -0.23628257050E+03  0.30692895949E+03 -0.39148989043E+03  0.55072604225E+03  0.25500000920E-02 0. -1.
</event>
<event>
 5   0  0.6640844E-03  0.1173658E+04  0.7818609E-02  0.9136231E-01
        2   -1    0    0  501    0  0.00000000000E+00  0.00000000000E+00  0.95604646335E+03  0.95604646335E+03  0.25500000920E-02 0.  1.
       -2   -1    0    0    0  501  0.00000000000E+00  0.00000000000E+00 -0.36020035473E+03  0.36020035474E+03  0.25500000920E-02 0. -1.
    10030    2    1    2    0    0  0.00000000000E+00  0.00000000000E+00  0.59584610861E+03  0.13162468181E+04  0.11736580000E+04 0.  0.
        5    1    3    3  502    0  0.53958063358E+03 -0.22891386330E+03  0.32959139103E+03  0.67245921214E+03  0.46999998093E+01 0.  1.
       -5    1    3    3    0  502 -0.53958063358E+03  0.22891386330E+03  0.26625471758E+03  0.64378760595E+03  0.46999998093E+01 0. -1.
</event>
<event>
 5   0  0.3648616E-03  0.1080583E+04  0.7818609E-02  0.9224327E-01
       -1   -1    0    0    0  501  0.00000000000E+00  0.00000000000E+00  0.52919402241E+03  0.52919402243E+03  0.50400001928E-02 0.  1.
        1   -1    0    0  501    0  0.00000000000E+00  0.00000000000E+00 -0.55162153319E+03  0.55162153321E+03  0.50400001928E-02 0. -1.
    10030    2    1    2    0    0  0.00000000000E+00  0.00000000000E+00 -0.22427510785E+02  0.10808155556E+04  0.10805828391E+04 0.  0.
        2    1    3    3  502    0 -0.14811680714E+03  0.29658431006E+03  0.41550908527E+03  0.53155304672E+03  0.25500000920E-02 0.  1.
       -2    1    3    3    0  502  0.14811680714E+03 -0.29658431006E+03 -0.43793659606E+03  0.54926250892E+03  0.25500000920E-02 0. -1.
</event>
<event>
 5   0  0.6493047E-03  0.1182891E+04  0.7818609E-02  0.9127965E-01
        2   -1    0    0  501    0  0.00000000000E+00  0.00000000000E+00  0.10178593002E+04  0.10178593003E+04  0.25500000920E-02 0. -1.
       -2   -1    0    0    0  501  0.00000000000E+00  0.00000000000E+00 -0.34367008162E+03  0.34367008163E+03  0.25500000920E-02 0.  1.
    10030    2    1    2    0    0  0.00000000000E+00  0.00000000000E+00  0.67418921863E+03  0.13615293819E+04  0.11828910158E+04 0.  0.
        3    1    3    3  502    0 -0.49235725566E+03 -0.26350822238E+00  0.71429170028E+03  0.86754157245E+03  0.10100000352E+00 0. -1.
       -3    1    3    3    0  502  0.49235725566E+03  0.26350822238E+00 -0.40102481649E+02  0.49398780944E+03  0.10100000352E+00 0.  1.
</event>
<event>
 5   0  0.2537625E-03  0.1201724E+04  0.7818609E-02  0.9111349E-01
       -4   -1    0    0    0  501  0.00000000000E+00  0.00000000000E+00  0.15194719819E+04  0.15194725126E+04  0.12699999809E+01 0. -1.
        4   -1    0    0  501    0  0.00000000000E+00  0.00000000000E+00 -0.23760333049E+03  0.23760672457E+03  0.12699999809E+01 0.  1.
    10030    2    1    2    0    0  0.00000000000E+00  0.00000000000E+00  0.12818686514E+04  0.17570792372E+04  0.12017238478E+04 0.  0.
        2    1    3    3  502    0  0.48770846818E+03 -0.29180944127E+03  0.35582695924E+03  0.67054091961E+03  0.25500000920E-02 0.  1.
       -2    1    3    3    0  502 -0.48770846818E+03  0.29180944127E+03  0.92604169217E+03  0.10865383176E+04  0.25500000920E-02 0. -1.
</event>
<event>
 5   0  0.6585930E-03  0.1155238E+04  0.7818609E-02  0.9152965E-01
        2   -1    0    0  501    0  0.00000000000E+00  0.00000000000E+00  0.83652907085E+03  0.83652907086E+03  0.25500000920E-02 0.  1.
       -2   -1    0    0    0  501  0.00000000000E+00  0.00000000000E+00 -0.39884308199E+03  0.39884308200E+03  0.25500000920E-02 0. -1.
    10030    2    1    2    0    0  0.00000000000E+00  0.00000000000E+00  0.43768598886E+03  0.12353721529E+04  0.11552382140E+04 0.  0.
        2    1    3    3  502    0 -0.37480253746E+03 -0.40103938545E+03  0.41113357305E+03  0.68581363771E+03  0.25500000920E-02 0.  1.
       -2    1    3    3    0  502  0.37480253746E+03  0.40103938545E+03  0.26552415810E+02  0.54955851514E+03  0.25500000920E-02 0. -1.
</event>
<event>
 5   0  0.3731281E-03  0.8840582E+03  0.7818609E-02  0.9445732E-01
        1   -1    0    0  501    0  0.00000000000E+00  0.00000000000E+00  0.22639857684E+04  0.22639857684E+04  0.50400001928E-02 0. -1.
       -1   -1    0    0    0  501  0.00000000000E+00  0.00000000000E+00 -0.86303420825E+02  0.86303420972E+02  0.50400001928E-02 0.  1.
    10030    2    1    2    0    0  0.00000000000E+00  0.00000000000E+00  0.21776823476E+04  0.23502891894E+04  0.88405818065E+03 0.  0.
        5    1    3    3  502    0  0.17224737444E+03 -0.15915539292E+03  0.92806270129E+02  0.25225917401E+03  0.46999998093E+01 0.  1.
       -5    1    3    3    0  502 -0.17224737444E+03  0.15915539292E+03  0.20848760775E+04  0.20980300154E+04  0.46999998093E+01 0. -1.
</event>
<event>
 5   0  0.6658994E-03  0.1239570E+04  0.7818609E-02  0.9078909E-01
        2   -1    0    0  501    0  0.00000000000E+00  0.00000000000E+00  0.78475681239E+03  0.78475681240E+03  0.25500000920E-02 0. -1.
       -2   -1    0    0    0  501  0.00000000000E+00  0.00000000000E+00 -0.48949367615E+03  0.48949367615E+03  0.25500000920E-02 0.  1.
    10030    2    1    2    0    0  0.00000000000E+00  0.00000000000E+00  0.29526313625E+03  0.12742504886E+04  0.12395700819E+04 0.  0.
        4    1    3    3  502    0  0.65406977561E+02 -0.52790805562E+03  0.47459782547E+03  0.71288827789E+03  0.12699999809E+01 0. -1.
       -4    1    3    3    0  502 -0.65406977561E+02  0.52790805562E+03 -0.17933468923E+03  0.56136221067E+03  0.12699999809E+01 0.  1.
</event>
<event>
 5   0  0.6640844E-03  0.1349554E+04  0.7818609E-02  0.8991166E-01
       -2   -1    0    0    0  501  0.00000000000E+00  0.00000000000E+00  0.29040954617E+03  0.29040954618E+03  0.25500000920E-02 0. -1.
        2   -1    0    0  501    0  0.00000000000E+00  0.00000000000E+00 -0.15678684767E+04  0.15678684767E+04  0.25500000920E-02 0.  1.
    10030    2    1    2    0    0  0.00000000000E+00  0.00000000000E+00 -0.12774589305E+04  0.18582780229E+04  0.13495539601E+04 0.  0.
        5    1    3    3  502    0  0.10207057049E+03 -0.65769900455E+00  0.27969483484E+03  0.29777529206E+03  0.46999998093E+01 0. -1.
       -5    1    3    3    0  502 -0.10207057049E+03  0.65769900455E+00 -0.15571537654E+04  0.15605027308E+04  0.46999998093E+01 0.  1.
</event>
<event>
 5   0  0.3944074E-03  0.1238472E+04  0.7818609E-02  0.9079833E-01
        1   -1    0    0  501    0  0.00000000000E+00  0.00000000000E+00  0.36567932806E+03  0.36567932810E+03  0.50400001928E-02 0.  1.
       -1   -1    0    0    0  501  0.00000000000E+00  0.00000000000E+00 -0.10486052130E+04  0.10486052130E+04  0.50400001928E-02 0. -1.
    10030    2    1    2    0    0  0.00000000000E+00  0.00000000000E+00 -0.68292588495E+03  0.14142845411E+04  0.12384720420E+04 0.  0.
        4    1    3    3  502    0  0.28186673142E+03  0.11334660049E+03  0.27472466580E+03  0.40959926882E+03  0.12699999809E+01 0.  1.
       -4    1    3    3    0  502 -0.28186673142E+03 -0.11334660049E+03 -0.95765055075E+03  0.10046852723E+04  0.12699999809E+01 0. -1.
</event>
<event>
 5   0  0.2537625E-03  0.1206587E+04  0.7818609E-02  0.9107110E-01
        4   -1    0    0  501    0  0.00000000000E+00  0.00000000000E+00  0.34934941658E+03  0.34935172501E+03  0.12699999809E+01 0.  1.
       -4   -1    0    0    0  501  0.00000000000E+00  0.00000000000E+00 -0.10418251237E+04  0.10418258978E+04  0.12699999809E+01 0. -1.
    10030    2    1    2    0    0  0.00000000000E+00  0.00000000000E+00 -0.69247570714E+03  0.13911776228E+04  0.12065871594E+04 0.  0.
        4    1    3    3  502    0 -0.34053734813E+03  0.45397848981E+03 -0.11022934506E+03  0.57811268460E+03  0.12699999809E+01 0. -1.
       -4    1    3    3    0  502  0.34053734813E+03 -0.45397848981E+03 -0.58224636207E+03  0.81306493820E+03  0.12699999809E+01 0.  1.
</event>
<event>
 5   0  0.6640844E-03  0.1193056E+04  0.7818609E-02  0.9118956E-01
       -2   -1    0    0    0  501  0.00000000000E+00  0.00000000000E+00  0.56071742662E+03  0.56071742663E+03  0.25500000920E-02 0.  1.
        2   -1    0    0  501    0  0.00000000000E+00  0.00000000000E+00 -0.63462579262E+03  0.63462579262E+03  0.25500000920E-02 0. -1.
    10030    2    1    2    0    0  0.00000000000E+00  0.00000000000E+00 -0.73908365994E+02  0.11953432192E+04  0.11930561450E+04 0.  0.
        5    1    3    3  502    0 -0.99888190054E+02  0.58280247472E+03  0.41855847236E+02  0.59279876602E+03  0.46999998093E+01 0.  1.
       -5    1    3    3    0  502  0.99888190054E+02 -0.58280247472E+03 -0.11576421323E+03  0.60254445323E+03  0.46999998093E+01 0. -1.
</event>
<event>
 5   0  0.3772254E-03  0.1208196E+04  0.7818609E-02  0.9105713E-01
       -1   -1    0    0    0  501  0.00000000000E+00  0.00000000000E+00  0.37810842486E+03  0.37810842490E+03  0.50400001928E-02 0. -1.
        1   -1    0    0  501    0  0.00000000000E+00  0.00000000000E+00 -0.96515733198E+03  0.96515733199E+03  0.50400001928E-02 0.  1.
    10030    2    1    2    0    0  0.00000000000E+00  0.00000000000E+00 -0.58704890712E+03  0.13432657569E+04  0.12081955447E+04 0.  0.
        3    1    3    3  502    0 -0.40146558947E+01 -0.24580964648E+03  0.31997648377E+03  0.40351389088E+03  0.10100000352E+00 0. -1.
       -3    1    3    3    0  502  0.40146558947E+01  0.24580964648E+03 -0.90702539089E+03  0.93975186602E+03  0.10100000352E+00 0.  1.
</event>
<event>
 5   0  0.6349142E-03  0.1201933E+04  0.7818609E-02  0.9111167E-01
       -2   -1    0    0    0  501  0.00000000000E+00  0.00000000000E+00  0.15325334068E+03  0.15325334070E+03  0.25500000920E-02 0.  1.
        2   -1    0    0  501    0  0.00000000000E+00  0.00000000000E+00 -0.23566243538E+04  0.23566243538E+04  0.25500000920E-02 0. -1.
    10030    2    1    2    0    0  0.00000000000E+00  0.00000000000E+00 -0.22033710131E+04  0.25098776945E+04  0.12019327019E+04 0.  0.
        1    1    3    3  502    0  0.28266084819E+03  0.52787373605E+03 -0.12084234250E+04  0.13486419133E+04  0.50400001928E-02 0. -1.
       -1    1    3    3    0  502 -0.28266084819E+03 -0.52787373605E+03 -0.99494758815E+03  0.11612357812E+04  0.50400001928E-02 0.  1.
</event>
<event>
 5   0  0.3701879E-03  0.1214119E+04  0.7818609E-02  0.9100587E-01
       -1   -1    0    0    0  501  0.00000000000E+00  0.00000000000E+00  0.66798074036E+03  0.66798074038E+03  0.50400001928E-02 0. -1.
        1   -1    0    0  501    0  0.00000000000E+00  0.00000000000E+00 -0.55169449752E+03  0.55169449754E+03  0.50400001928E-02 0.  1.
    10030    2    1    2    0    0  0.00000000000E+00  0.00000000000E+00  0.11628624285E+03  0.12196752379E+04  0.12141191028E+04 0.  0.
        1    1    3    3  502    0 -0.11533170814E+03 -0.30759641465E+02  0.65607594653E+03  0.66684571386E+03  0.50400001928E-02 0. -1.
       -1    1    3    3    0  502  0.11533170814E+03  0.30759641465E+02 -0.53978970369E+03  0.55282952406E+03  0.50400001928E-02 0.  1.
</event>
<event>
 5   0  0.6349142E-03  0.1190270E+04  0.7818609E-02  0.9121416E-01
       -2   -1    0    0    0  501  0.00000000000E+00  0.00000000000E+00  0.50329965604E+03  0.50329965605E+03  0.25500000920E-02 0. -1.
        2   -1    0    0  501    0  0.00000000000E+00  0.00000000000E+00 -0.70372775455E+03  0.70372775456E+03  0.25500000920E-02 0.  1.
    10030    2    1    2    0    0  0.00000000000E+00  0.00000000000E+00 -0.20042809851E+03  0.12070274106E+04  0.11902704513E+04 0.  0.
        1    1    3    3  502    0 -0.46272860642E+03 -0.17534738233E+03 -0.43550683571E+03  0.65918940499E+03  0.50400001928E-02 0.  1.
       -1    1    3    3    0  502  0.46272860642E+03  0.17534738233E+03  0.23507873720E+03  0.54783800561E+03  0.50400001928E-02 0. -1.
</event>
<event>
 5   0  0.6349142E-03  0.1190505E+04  0.7818609E-02  0.9121209E-01
        2   -1    0    0  501    0  0.00000000000E+00  0.00000000000E+00  0.88729665765E+03  0.88729665766E+03  0.25500000920E-02 0. -1.
       -2   -1    0    0    0  501  0.00000000000E+00  0.00000000000E+00 -0.39933131787E+03  0.39933131788E+03  0.25500000920E-02 0.  1.
    10030    2    1    2    0    0  0.00000000000E+00  0.00000000000E+00  0.48796533978E+03  0.12866279755E+04  0.11905046722E+04 0.  0.
        1    1    3    3  502    0  0.63083183166E+02  0.35490053997E+03  0.75592972652E+03  0.83747455647E+03  0.50400001928E-02 0. -1.
       -1    1    3    3    0  502 -0.63083183166E+02 -0.35490053997E+03 -0.26796438674E+03  0.44915341907E+03  0.50400001928E-02 0.  1.
</event>
<event>
 5   0  0.6640844E-03  0.1220044E+04  0.7818609E-02  0.9095491E-01
        2   -1    0    0  501    0  0.00000000000E+00  0.00000000000E+00  0.10798490620E+04  0.10798490620E+04  0.25500000920E-02 0. -1.
       -2   -1    0    0    0  501  0.00000000000E+00  0.00000000000E+00 -0.34460979278E+03  0.34460979279E+03  0.25500000920E-02 0.  1.
    10030    2    1    2    0    0  0.00000000000E+00  0.00000000000E+00  0.73523926919E+03  0.14244588548E+04  0.12200435426E+04 0.  0.
        5    1    3    3  502    0  0.32027768552E+03 -0.51661455072E+03  0.42756477827E+03  0.74317031660E+03  0.46999998093E+01 0. -1.
       -5    1    3    3    0  502 -0.32027768552E+03  0.51661455072E+03  0.30767449091E+03  0.68128853815E+03  0.46999998093E+01 0.  1.
</event>
<event>
 5   0  0.6493047E-03  0.1234276E+04  0.7818609E-02  0.9083373E-01
       -2   -1    0    0    0  501  0.00000000000E+00  0.00000000000E+00  0.87816194269E+03  0.87816194269E+03  0.25500000920E-02 0. -1.
        2   -1    0    0  501    0  0.00000000000E+00  0.00000000000E+00 -0.43370066181E+03  0.43370066182E+03  0.25500000920E-02 0.  1.
    10030    2    1    2    0    0  0.00000000000E+00  0.00000000000E+00  0.44446128088E+03  0.13118626045E+04  0.12342761696E+04 0.  0.
        3    1    3    3  502    0 -0.13837926246E+03 -0.63422427833E+02  0.85789564581E+03  0.87129568685E+03  0.10100000352E+00 0. -1.
       -3    1    3    3    0  502  0.13837926246E+03  0.63422427833E+02 -0.41343436493E+03  0.44056691766E+03  0.10100000352E+00 0.  1.
</event>
<event>
 5   0  0.3648616E-03  0.1169583E+04  0.7818609E-02  0.9139905E-01
        1   -1    0    0  501    0  0.00000000000E+00  0.00000000000E+00  0.61991555906E+03  0.61991555908E+03  0.50400001928E-02 0.  1.
       -1   -1    0    0    0  501  0.00000000000E+00  0.00000000000E+00 -0.55165771138E+03  0.55165771140E+03  0.50400001928E-02 0. -1.
    10030    2    1    2    0    0  0.00000000000E+00  0.00000000000E+00  0.68257847680E+02  0.11715732705E+04  0.11695831712E+04 0.  0.
        2    1    3    3  502    0 -0.37536510938E+03 -0.44647882610E+03  0.75899891305E+02  0.58822028272E+03  0.25500000920E-02 0.  1.
       -2    1    3    3    0  502  0.37536510938E+03  0.44647882610E+03 -0.76420436243E+01  0.58335298776E+03  0.25500000920E-02 0. -1.
</event>
<event>
 5   0  0.3772254E-03  0.1259891E+04  0.7818609E-02  0.9061991E-01
       -1   -1    0    0    0  501  0.00000000000E+00  0.00000000000E+00  0.49504792440E+03  0.49504792443E+03  0.50400001928E-02 0. -1.
        1   -1    0    0  501    0  0.00000000000E+00  0.00000000000E+00 -0.80160231551E+03  0.80160231553E+03  0.50400001928E-02 0.  1.
    10030    2    1    2    0    0  0.00000000000E+00  0.00000000000E+00 -0.30655439111E+03  0.12966502400E+04  0.12598913644E+04 0.  0.
        3    1    3    3  502    0 -0.61418685431E+03  0.37921843856E+02 -0.14555868323E+02  0.61552858727E+03  0.10100000352E+00 0. -1.
       -3    1    3    3    0  502  0.61418685431E+03 -0.37921843856E+02 -0.29199852279E+03  0.68112165269E+03  0.10100000352E+00 0.  1.
</event>
<event>
 5   0  0.2537625E-03  0.1202707E+04  0.7818609E-02  0.9110490E-01
       -3   -1    0    0    0  501  0.00000000000E+00  0.00000000000E+00  0.10287281626E+04  0.10287281676E+04  0.10100000352E+00 0.  1.
        3   -1    0    0  501    0  0.00000000000E+00  0.00000000000E+00 -0.35152736257E+03  0.35152737708E+03  0.10100000352E+00 0. -1.
    10030    2    1    2    0    0  0.00000000000E+00  0.00000000000E+00  0.67720080004E+03  0.13802555447E+04  0.12027071318E+04 0.  0.
        2    1    3    3  502    0  0.25542123421E+03 -0.54155605966E+03  0.27467106302E+03  0.65876184279E+03  0.25500000920E-02 0. -1.
       -2    1    3    3    0  502 -0.25542123421E+03  0.54155605966E+03  0.40252973701E+03  0.72149370186E+03  0.25500000920E-02 0.  1.
</event>
<event>
 5   0  0.2537625E-03  0.1258906E+04  0.7818609E-02  0.9062804E-01
       -3   -1    0    0    0  501  0.00000000000E+00  0.00000000000E+00  0.13176195156E+04  0.13176195195E+04  0.10100000352E+00 0. -1.
        3   -1    0    0  501    0  0.00000000000E+00  0.00000000000E+00 -0.30070198170E+03  0.30070199866E+03  0.10100000352E+00 0.  1.
    10030    2    1    2    0    0  0.00000000000E+00  0.00000000000E+00  0.10169175339E+04  0.16183215182E+04  0.12589055824E+04 0.  0.
        5    1    3    3  502    0 -0.21707689327E+03 -0.26699988327E+03 -0.16905810133E+03  0.38342410838E+03  0.46999998093E+01 0.  1.
       -5    1    3    3    0  502  0.21707689327E+03  0.26699988327E+03  0.11859756353E+04  0.12348974098E+04  0.46999998093E+01 0. -1.
</event>
<event>
 5   0  0.3648616E-03  0.1208497E+04  0.7818609E-02  0.9105452E-01
       -1   -1    0    0    0  501  0.00000000000E+00  0.00000000000E+00  0.18806736049E+03  0.18806736056E+03  0.50400001928E-02 0. -1.
        1   -1    0    0  501    0  0.00000000000E+00  0.00000000000E+00 -0.19414111308E+04  0.19414111309E+04  0.50400001928E-02 0.  1.
    10030    2    1    2    0    0  0.00000000000E+00  0.00000000000E+00 -0.17533437703E+04  0.21294784914E+04  0.12084966977E+04 0.  0.
        2    1    3    3  502    0  0.11137479085E+03 -0.33255059915E+03 -0.96206592700E+01  0.35083728725E+03  0.25500000920E-02 0. -1.
       -2    1    3    3    0  502 -0.11137479085E+03  0.33255059915E+03 -0.17437231111E+04  0.17786412042E+04  0.25500000920E-02 0.  1.
</event>
<event>
 5   0  0.3701879E-03  0.1160643E+04  0.7818609E-02  0.9148020E-01
        1   -1    0    0  501    0  0.00000000000E+00  0.00000000000E+00  0.28465242702E+03  0.28465242706E+03  0.50400001928E-02 0.  1.
       -1   -1    0    0    0  501  0.00000000000E+00  0.00000000000E+00 -0.11831035110E+04  0.11831035110E+04  0.50400001928E-02 0. -1.
    10030    2    1    2    0    0  0.00000000000E+00  0.00000000000E+00 -0.89845108394E+03  0.14677559380E+04  0.11606434178E+04 0.  0.
        1    1    3    3  502    0  0.17732974414E+03 -0.48600385493E+03 -0.11673362720E+03  0.53035113360E+03  0.50400001928E-02 0.  1.
       -1    1    3    3    0  502 -0.17732974414E+03  0.48600385493E+03 -0.78171745674E+03  0.93740480443E+03  0.50400001928E-02 0. -1.
</event>
<event>
 5   0  0.6349142E-03  0.1177661E+04  0.7818609E-02  0.9132637E-01
        2   -1    0    0  501    0  0.00000000000E+00  0.00000000000E+00  0.14792866877E+04  0.14792866877E+04  0.25500000920E-02 0.  1.
       -2   -1    0    0    0  501  0.00000000000E+00  0.00000000000E+00 -0.23438434716E+03  0.23438434718E+03  0.25500000920E-02 0. -1.
    10030    2    1    2    0    0  0.00000000000E+00  0.00000000000E+00  0.12449023406E+04  0.17136710349E+04  0.11776614872E+04 0.  0.
        1    1    3    3  502    0 -0.54134599973E+03  0.80964184241E+02  0.30661058703E+03  0.62739201673E+03  0.50400001928E-02 0. -1.
       -1    1    3    3    0  502  0.54134599973E+03 -0.80964184241E+02  0.93829175355E+03  0.10862790182E+04  0.50400001928E-02 0.  1.
</event>
<event>
 5   0  0.3772254E-03  0.1207333E+04  0.7818609E-02  0.9106462E-01
       -1   -1    0    0    0  501  0.00000000000E+00  0.00000000000E+00  0.24516724727E+03  0.24516724732E+03  0.50400001928E-02 0. -1.
        1   -1    0    0  501    0  0.00000000000E+00  0.00000000000E+00 -0.14863860955E+04  0.14863860955E+04  0.50400001928E-02 0.  1.
    10030    2    1    2    0    0  0.00000000000E+00  0.00000000000E+00 -0.12412188482E+04  0.17315533428E+04  0.12073329076E+04 0.  0.
        3    1    3    3  502    0 -0.26265610742E+03 -0.11855695999E+03 -0.13813684437E+04  0.14111069310E+04  0.10100000352E+00 0.  1.
       -3    1    3    3    0  502  0.26265610742E+03  0.11855695999E+03  0.14014959542E+03  0.32044641178E+03  0.10100000352E+00 0. -1.
</event>
<event>
 5   0  0.6585930E-03  0.1120137E+04  0.7818609E-02  0.9185784E-01
       -2   -1    0    0    0  501  0.00000000000E+00  0.00000000000E+00  0.26491206700E+03  0.26491206701E+03  0.25500000920E-02 0. -1.
        2   -1    0    0  501    0  0.00000000000E+00  0.00000000000E+00 -0.11840793780E+04  0.11840793780E+04  0.25500000920E-02 0.  1.
    10030    2    1    2    0    0  0.00000000000E+00  0.00000000000E+00 -0.91916731101E+03  0.14489914450E+04  0.11201373407E+04 0.  0.
        2    1    3    3  502    0 -0.33111597853E+03 -0.36423464371E+03 -0.11399519221E+03  0.50527177912E+03  0.25500000920E-02 0. -1.
       -2    1    3    3    0  502  0.33111597853E+03  0.36423464371E+03 -0.80517211880E+03  0.94371966591E+03  0.25500000920E-02 0.  1.
</event>
<event>
 5   0  0.3731281E-03  0.1169501E+04  0.7818609E-02  0.9139979E-01
        1   -1    0    0  501    0  0.00000000000E+00  0.00000000000E+00  0.77294647695E+03  0.77294647697E+03  0.50400001928E-02 0.  1.
       -1   -1    0    0    0  501  0.00000000000E+00  0.00000000000E+00 -0.44237623092E+03  0.44237623094E+03  0.50400001928E-02 0. -1.
    10030    2    1    2    0    0  0.00000000000E+00  0.00000000000E+00  0.33057024603E+03  0.12153227079E+04  0.11695010033E+04 0.  0.
        5    1    3    3  502    0  0.27773615655E+03  0.16282200008E+03 -0.34196134034E+03  0.46968928522E+03  0.46999998093E+01 0. -1.
       -5    1    3    3    0  502 -0.27773615655E+03 -0.16282200008E+03  0.67253158638E+03  0.74563342269E+03  0.46999998093E+01 0.  1.
</event>
<event>
 5   0  0.6658994E-03  0.1200252E+04  0.7818609E-02  0.9112636E-01
       -2   -1    0    0    0  501  0.00000000000E+00  0.00000000000E+00  0.19550821866E+03  0.19550821867E+03  0.25500000920E-02 0. -1.
        2   -1    0    0  501    0  0.00000000000E+00  0.00000000000E+00 -0.18421289674E+04  0.18421289674E+04  0.25500000920E-02 0.  1.
    10030    2    1    2    0    0  0.00000000000E+00  0.00000000000E+00 -0.16466207488E+04  0.20376371861E+04  0.12002522285E+04 0.  0.
        4    1    3    3  502    0  0.51787755338E+03 -0.27022742192E+03 -0.58973533304E+03  0.83006589846E+03  0.12699999809E+01 0.  1.
       -4    1    3    3    0  502 -0.51787755338E+03  0.27022742192E+03 -0.10568854158E+04  0.12075712877E+04  0.12699999809E+01 0. -1.
</event>
<event>
 5   0  0.6349142E-03  0.1179540E+04  0.7818609E-02  0.9130956E-01
       -2   -1    0    0    0  501  0.00000000000E+00  0.00000000000E+00  0.23462671240E+03  0.23462671241E+03  0.25500000920E-02 0.  1.
        2   -1    0    0  501    0  0.00000000000E+00  0.00000000000E+00 -0.14824758675E+04  0.14824758675E+04  0.25500000920E-02 0. -1.
    10030    2    1    2    0    0  0.00000000000E+00  0.00000000000E+00 -0.12478491551E+04  0.17171025799E+04  0.11795396373E+04 0.  0.
        1    1    3    3  502    0 -0.37166723814E+03  0.10521991558E+02  0.42513576823E+02  0.37423876397E+03  0.50400001928E-02 0.  1.
       -1    1    3    3    0  502  0.37166723814E+03 -0.10521991558E+02 -0.12903627319E+04  0.13428638159E+04  0.50400001928E-02 0. -1.
</event>
<event>
 5   0  0.6349142E-03  0.1205054E+04  0.7818609E-02  0.9108444E-01
        2   -1    0    0  501    0  0.00000000000E+00  0.00000000000E+00  0.45079853849E+03  0.45079853850E+03  0.25500000920E-02 0.  1.
       -2   -1    0    0    0  501  0.00000000000E+00  0.00000000000E+00 -0.80532416540E+03  0.80532416541E+03  0.25500000920E-02 0. -1.
    10030    2    1    2    0    0  0.00000000000E+00  0.00000000000E+00 -0.35452562691E+03  0.12561227039E+04  0.12050542839E+04 0.  0.
        1    1    3    3  502    0  0.23230605087E+03  0.55165262087E+03 -0.10540488381E+03  0.60778030976E+03  0.50400001928E-02 0. -1.
       -1    1    3    3    0  502 -0.23230605087E+03 -0.55165262087E+03 -0.24912074310E+03  0.64834239415E+03  0.50400001928E-02 0.  1.
</event>
<event>
 5   0  0.3944074E-03  0.1202230E+04  0.7818609E-02  0.9110907E-01
       -1   -1    0    0    0  501  0.00000000000E+00  0.00000000000E+00  0.19294878388E+03  0.19294878394E+03  0.50400001928E-02 0.  1.
        1   -1    0    0  501    0  0.00000000000E+00  0.00000000000E+00 -0.18727221288E+04  0.18727221288E+04  0.50400001928E-02 0. -1.
    10030    2    1    2    0    0  0.00000000000E+00  0.00000000000E+00 -0.16797733450E+04  0.20656709128E+04  0.12022303563E+04 0.  0.
        4    1    3    3  502    0 -0.83180035895E+02  0.15419385559E+03 -0.18278782213E+04  0.18362557198E+04  0.12699999809E+01 0. -1.
       -4    1    3    3    0  502  0.83180035895E+02 -0.15419385559E+03  0.14810487638E+03  0.22941519301E+03  0.12699999809E+01 0.  1.
</event>
<event>
 5   0  0.6658994E-03  0.1152775E+04  0.7818609E-02  0.9155227E-01
       -2   -1    0    0    0  501  0.00000000000E+00  0.00000000000E+00  0.83966011573E+03  0.83966011574E+03  0.25500000920E-02 0.  1.
        2   -1    0    0  501    0  0.00000000000E+00  0.00000000000E+00 -0.39566303395E+03  0.39566303396E+03  0.25500000920E-02 0. -1.
    10030    2    1    2    0    0  0.00000000000E+00  0.00000000000E+00  0.44399708178E+03  0.12353231497E+04  0.11527748590E+04 0.  0.
        4    1    3    3  502    0  0.10241153389E+03 -0.24506983768E+03 -0.32617234062E+03  0.42063922344E+03  0.12699999809E+01 0. -1.
       -4    1    3    3    0  502 -0.10241153389E+03  0.24506983768E+03  0.77016942239E+03  0.81468392626E+03  0.12699999809E+01 0.  1.
</event>
<event>
 5   0  0.6658994E-03  0.9597240E+03  0.7818609E-02  0.9353856E-01
        2   -1    0    0  501    0  0.00000000000E+00  0.00000000000E+00  0.20086467364E+03  0.20086467366E+03  0.25500000920E-02 0.  1.
       -2   -1    0    0    0  501  0.00000000000E+00  0.00000000000E+00 -0.11463814138E+04  0.11463814138E+04  0.25500000920E-02 0. -1.
    10030    2    1    2    0    0  0.00000000000E+00  0.00000000000E+00 -0.94551674012E+03  0.13472460874E+04  0.95972397816E+03 0.  0.
        4    1    3    3  502    0 -0.20270812119E+02  0.47929729134E+03 -0.48870949082E+03  0.68481777038E+03  0.12699999809E+01 0. -1.
       -4    1    3    3    0  502  0.20270812119E+02 -0.47929729134E+03 -0.45680724931E+03  0.66242831705E+03  0.12699999809E+01 0.  1.
</event>
<event>
 5   0  0.2537625E-03  0.1227571E+04  0.7818609E-02  0.9089060E-01
        4   -1    0    0  501    0  0.00000000000E+00  0.00000000000E+00  0.87707523335E+03  0.87707615282E+03  0.12699999809E+01 0.  1.
       -4   -1    0    0    0  501  0.00000000000E+00  0.00000000000E+00 -0.42953066007E+03  0.42953253758E+03  0.12699999809E+01 0. -1.
    10030    2    1    2    0    0  0.00000000000E+00  0.00000000000E+00  0.44754457327E+03  0.13066086904E+04  0.12275708227E+04 0.  0.
        1    1    3    3  502    0 -0.20229239838E+03 -0.26696642971E+02 -0.39237515215E+03  0.44225918333E+03  0.50400001928E-02 0. -1.
       -1    1    3    3    0  502  0.20229239838E+03  0.26696642971E+02  0.83991972543E+03  0.86434950707E+03  0.50400001928E-02 0.  1.
</event>
<event>
 5   0  0.6349142E-03  0.1448344E+04  0.7818609E-02  0.8919549E-01
        2   -1    0    0  501    0  0.00000000000E+00  0.00000000000E+00  0.18081679242E+04  0.18081679242E+04  0.25500000920E-02 0. -1.
       -2   -1    0    0    0  501  0.00000000000E+00  0.00000000000E+00 -0.29003131451E+03  0.29003131452E+03  0.25500000920E-02 0.  1.
    10030    2    1    2    0    0  0.00000000000E+00  0.00000000000E+00  0.15181366097E+04  0.20981992387E+04  0.14483443236E+04 0.  0.
        1    1    3    3  502    0 -0.34335322283E+03  0.76564255409E+01  0.16826854032E+04  0.17173759701E+04  0.50400001928E-02 0. -1.
       -1    1    3    3    0  502  0.34335322283E+03 -0.76564255409E+01 -0.16454879349E+03  0.38082326864E+03  0.50400001928E-02 0.  1.
</event>
<event>
 5   0  0.3772254E-03  0.8417800E+03  0.7818609E-02  0.9501436E-01
        1   -1    0    0  501    0  0.00000000000E+00  0.00000000000E+00  0.25775222363E+03  0.25775222368E+03  0.50400001928E-02 0. -1.
       -1   -1    0    0    0  501  0.00000000000E+00  0.00000000000E+00 -0.68728180235E+03  0.68728180237E+03  0.50400001928E-02 0.  1.
    10030    2    1    2    0    0  0.00000000000E+00  0.00000000000E+00 -0.42952957873E+03  0.94503402605E+03  0.84178004930E+03 0.  0.
        3    1    3    3  502    0 -0.31134670938E+03  0.11078198696E+03  0.77858124180E+02  0.33951630266E+03  0.10100000352E+00 0. -1.
       -3    1    3    3    0  502  0.31134670938E+03 -0.11078198696E+03 -0.50738770291E+03  0.60551772339E+03  0.10100000352E+00 0.  1.
</event>
<event>
 5   0  0.3731281E-03  0.1205299E+04  0.7818609E-02  0.9108231E-01
        1   -1    0    0  501    0  0.00000000000E+00  0.00000000000E+00  0.47088404188E+03  0.47088404191E+03  0.50400001928E-02 0.  1.
       -1   -1    0    0    0  501  0.00000000000E+00  0.00000000000E+00 -0.77128587527E+03  0.77128587529E+03  0.50400001928E-02 0. -1.
    10030    2    1    2    0    0  0.00000000000E+00  0.00000000000E+00 -0.30040183339E+03  0.12421699172E+04  0.12052986525E+04 0.  0.
        5    1    3    3  502    0 -0.30978956809E+03  0.49810870262E+03 -0.78365535433E+01  0.58665608127E+03  0.46999998093E+01 0.  1.
       -5    1    3    3    0  502  0.30978956809E+03 -0.49810870262E+03 -0.29256527984E+03  0.65551383593E+03  0.46999998093E+01 0. -1.
</event>
<event>
 5   0  0.3731281E-03  0.1197849E+04  0.7818609E-02  0.9114742E-01
        1   -1    0    0  501    0  0.00000000000E+00  0.00000000000E+00  0.11721023069E+04  0.11721023070E+04  0.50400001928E-02 0.  1.
       -1   -1    0    0    0  501  0.00000000000E+00  0.00000000000E+00 -0.30604012212E+03  0.30604012216E+03  0.50400001928E-02 0. -1.
    10030    2    1    2    0    0  0.00000000000E+00  0.00000000000E+00  0.86606218483E+03  0.14781424291E+04  0.11978486268E+04 0.  0.
        5    1    3    3  502    0  0.39390760207E+03 -0.35800849920E+03  0.77177403989E+03  0.93754495525E+03  0.46999998093E+01 0. -1.
       -5    1    3    3    0  502 -0.39390760207E+03  0.35800849920E+03  0.94288144941E+02  0.54059747386E+03  0.46999998093E+01 0.  1.
</event>
<event>
 5   0  0.3648616E-03  0.1197835E+04  0.7818609E-02  0.9114754E-01
       -1   -1    0    0    0  501  0.00000000000E+00  0.00000000000E+00  0.29873934012E+03  0.29873934016E+03  0.50400001928E-02 0. -1.
        1   -1    0    0  501    0  0.00000000000E+00  0.00000000000E+00 -0.12007188206E+04  0.12007188206E+04  0.50400001928E-02 0.  1.
    10030    2    1    2    0    0  0.00000000000E+00  0.00000000000E+00 -0.90197948049E+03  0.14994581608E+04  0.11978346266E+04 0.  0.
        2    1    3    3  502    0  0.30009427033E+03 -0.20595814435E+03  0.14441096143E+03  0.39157356154E+03  0.25500000920E-02 0. -1.
       -2    1    3    3    0  502 -0.30009427033E+03  0.20595814435E+03 -0.10463904419E+04  0.11078845992E+04  0.25500000920E-02 0.  1.
</event>
<event>
 5   0  0.6493047E-03  0.1292773E+04  0.7818609E-02  0.9035316E-01
       -2   -1    0    0    0  501  0.00000000000E+00  0.00000000000E+00  0.27887617078E+03  0.27887617079E+03  0.25500000920E-02 0. -1.
        2   -1    0    0  501    0  0.00000000000E+00  0.00000000000E+00 -0.14982108820E+04  0.14982108820E+04  0.25500000920E-02 0.  1.
    10030    2    1    2    0    0  0.00000000000E+00  0.00000000000E+00 -0.12193347112E+04  0.17770870528E+04  0.12927727005E+04 0.  0.
        3    1    3    3  502    0 -0.30246139216E+03  0.48050111339E+03 -0.10343621875E+04  0.11799446422E+04  0.10100000352E+00 0.  1.
       -3    1    3    3    0  502  0.30246139216E+03 -0.48050111339E+03 -0.18497252374E+03  0.59714241053E+03  0.10100000352E+00 0. -1.
</event>
<event>
 5   0  0.6640844E-03  0.1164297E+04  0.7818609E-02  0.9144694E-01
       -2   -1    0    0    0  501  0.00000000000E+00  0.00000000000E+00  0.23083724505E+03  0.23083724506E+03  0.25500000920E-02 0. -1.
        2   -1    0    0  501    0  0.00000000000E+00  0.00000000000E+00 -0.14681201018E+04  0.14681201018E+04  0.25500000920E-02 0.  1.
    10030    2    1    2    0    0  0.00000000000E+00  0.00000000000E+00 -0.12372828567E+04  0.16989573468E+04  0.11642968689E+04 0.  0.
        5    1    3    3  502    0 -0.29744558784E+03 -0.49593914307E+03 -0.52135229868E+03  0.77862688156E+03  0.46999998093E+01 0. -1.
       -5    1    3    3    0  502  0.29744558784E+03  0.49593914307E+03 -0.71593055805E+03  0.92033046527E+03  0.46999998093E+01 0.  1.
</event>
<event>
 5   0  0.6585930E-03  0.1210394E+04  0.7818609E-02  0.9103807E-01
       -2   -1    0    0    0  501  0.00000000000E+00  0.00000000000E+00  0.33190350018E+03  0.33190350019E+03  0.25500000920E-02 0. -1.
        2   -1    0    0  501    0  0.00000000000E+00  0.00000000000E+00 -0.11035244850E+04  0.11035244850E+04  0.25500000920E-02 0.  1.
    10030    2    1    2    0    0  0.00000000000E+00  0.00000000000E+00 -0.77162098477E+03  0.14354279851E+04  0.12103943805E+04 0.  0.
        2    1    3    3  502    0  0.51294432386E+03 -0.19700870225E+03 -0.85000138554E+02  0.55601198881E+03  0.25500000920E-02 0. -1.
       -2    1    3    3    0  502 -0.51294432386E+03  0.19700870225E+03 -0.68662084622E+03  0.87941599634E+03  0.25500000920E-02 0.  1.
</event>
<event>
 5   0  0.3648616E-03  0.1281122E+04  0.7818609E-02  0.9044671E-01
       -1   -1    0    0    0  501  0.00000000000E+00  0.00000000000E+00  0.72223844110E+03  0.72223844111E+03  0.50400001928E-02 0. -1.
        1   -1    0    0  501    0  0.00000000000E+00  0.00000000000E+00 -0.56812038338E+03  0.56812038341E+03  0.50400001928E-02 0.  1.
    10030    2    1    2    0    0  0.00000000000E+00  0.00000000000E+00  0.15411805771E+03  0.12903588245E+04  0.12811219771E+04 0.  0.
        2    1    3    3  502    0  0.25204517768E+03  0.52155878996E+03  0.35246795026E+03  0.67807374152E+03  0.25500000920E-02 0. -1.
       -2    1    3    3    0  502 -0.25204517768E+03 -0.52155878996E+03 -0.19834989254E+03  0.61228508300E+03  0.25500000920E-02 0.  1.
</event>
<event>
 5   0  0.6349142E-03  0.1232445E+04  0.7818609E-02  0.9084922E-01
       -2   -1    0    0    0  501  0.00000000000E+00  0.00000000000E+00  0.32140639412E+03  0.32140639413E+03  0.25500000920E-02 0. -1.
        2   -1    0    0  501    0  0.00000000000E+00  0.00000000000E+00 -0.11814642479E+04  0.11814642479E+04  0.25500000920E-02 0.  1.
    10030    2    1    2    0    0  0.00000000000E+00  0.00000000000E+00 -0.86005785381E+03  0.15028706421E+04  0.12324449906E+04 0.  0.
        1    1    3    3  502    0 -0.55320524723E+03  0.15621097368E+02 -0.76051278420E+03  0.94056353278E+03  0.50400001928E-02 0.  1.
       -1    1    3    3    0  502  0.55320524723E+03 -0.15621097368E+02 -0.99545069607E+02  0.56230710928E+03  0.50400001928E-02 0. -1.
</event>
<event>
 5   0  0.2537625E-03  0.1166824E+04  0.7818609E-02  0.9142402E-01
        3   -1    0    0  501    0  0.00000000000E+00  0.00000000000E+00  0.38130905512E+03  0.38130906850E+03  0.10100000352E+00 0.  1.
       -3   -1    0    0    0  501  0.00000000000E+00  0.00000000000E+00 -0.89263417616E+03  0.89263418187E+03  0.10100000352E+00 0. -1.
    10030    2    1    2    0    0  0.00000000000E+00  0.00000000000E+00 -0.51132512104E+03  0.12739432504E+04  0.11668239052E+04 0.  0.
        4    1    3    3  502    0  0.40379958246E+03 -0.36655299687E+03 -0.48193932182E+03  0.72779277623E+03  0.12699999809E+01 0. -1.
       -4    1    3    3    0  502 -0.40379958246E+03  0.36655299687E+03 -0.29385799222E+02  0.54615047414E+03  0.12699999809E+01 0.  1.
</event>
<event>
 5   0  0.2537625E-03  0.1116547E+04  0.7818609E-02  0.9189213E-01
       -4   -1    0    0    0  501  0.00000000000E+00  0.00000000000E+00  0.25694936511E+03  0.25695250364E+03  0.12699999809E+01 0.  1.
        4   -1    0    0  501    0  0.00000000000E+00  0.00000000000E+00 -0.12129486309E+04  0.12129492957E+04  0.12699999809E+01 0. -1.
    10030    2    1    2    0    0  0.00000000000E+00  0.00000000000E+00 -0.95599926576E+03  0.14699017994E+04  0.11165467763E+04 0.  0.
        4    1    3    3  502    0  0.11633761584E+03 -0.62439389376E+01 -0.11967666096E+04  0.12024247828E+04  0.12699999809E+01 0. -1.
       -4    1    3    3    0  502 -0.11633761584E+03  0.62439389376E+01  0.24076734382E+03  0.26747701655E+03  0.12699999809E+01 0.  1.
</event>
<event>
 5   0  0.3701879E-03  0.1206199E+04  0.7818609E-02  0.9107448E-01
        1   -1    0    0  501    0  0.00000000000E+00  0.00000000000E+00  0.78930216367E+03  0.78930216368E+03  0.50400001928E-02 0. -1.
       -1   -1    0    0    0  501  0.00000000000E+00  0.00000000000E+00 -0.46082320638E+03  0.46082320641E+03  0.50400001928E-02 0.  1.
    10030    2    1    2    0    0  0.00000000000E+00  0.00000000000E+00  0.32847895728E+03  0.12501253701E+04  0.12061985805E+04 0.  0.
        1    1    3    3  502    0 -0.48365365363E+03 -0.26037116287E+03 -0.93857113998E+02  0.55724604709E+03  0.50400001928E-02 0.  1.
       -1    1    3    3    0  502  0.48365365363E+03  0.26037116287E+03  0.42233607128E+03  0.69287932301E+03  0.50400001928E-02 0. -1.
</event>
<event>
 5   0  0.3772254E-03  0.1035921E+04  0.7818609E-02  0.9270001E-01
        1   -1    0    0  501    0  0.00000000000E+00  0.00000000000E+00  0.40672303776E+03  0.40672303779E+03  0.50400001928E-02 0.  1.
       -1   -1    0    0    0  501  0.00000000000E+00  0.00000000000E+00 -0.65962136527E+03  0.65962136529E+03  0.50400001928E-02 0. -1.
    10030    2    1    2    0    0  0.00000000000E+00  0.00000000000E+00 -0.25289832751E+03  0.10663444031E+04  0.10359212431E+04 0.  0.
        3    1    3    3  502    0 -0.30970628109E+03  0.23220484355E+03  0.22781823141E+03  0.44915278767E+03  0.10100000352E+00 0.  1.
       -3    1    3    3    0  502  0.30970628109E+03 -0.23220484355E+03 -0.48071655892E+03  0.61719161541E+03  0.10100000352E+00 0. -1.
</event>
<event>
 5   0  0.3648616E-03  0.1149890E+04  0.7818609E-02  0.9157885E-01
        1   -1    0    0  501    0  0.00000000000E+00  0.00000000000E+00  0.60159987843E+03  0.60159987845E+03  0.50400001928E-02 0. -1.
       -1   -1    0    0    0  501  0.00000000000E+00  0.00000000000E+00 -0.54947063834E+03  0.54947063836E+03  0.50400001928E-02 0.  1.
    10030    2    1    2    0    0  0.00000000000E+00  0.00000000000E+00  0.52129240091E+02  0.11510705168E+04  0.11498895064E+04 0.  0.
        2    1    3    3  502    0 -0.43737108202E+03  0.35006871862E+02  0.39798696069E+03  0.59237873472E+03  0.25500000920E-02 0. -1.
       -2    1    3    3    0  502  0.43737108202E+03 -0.35006871862E+02 -0.34585772060E+03  0.55869178209E+03  0.25500000920E-02 0.  1.
</event>
<event>
 5   0  0.3772254E-03  0.1075681E+04  0.7818609E-02  0.9229224E-01
        1   -1    0    0  501    0  0.00000000000E+00  0.00000000000E+00  0.13256844804E+04  0.13256844804E+04  0.50400001928E-02 0. -1.
       -1   -1    0    0    0  501  0.00000000000E+00  0.00000000000E+00 -0.21820607167E+03  0.21820607173E+03  0.50400001928E-02 0.  1.
    10030    2    1    2    0    0  0.00000000000E+00  0.00000000000E+00  0.11074784087E+04  0.15438905521E+04  0.10756809988E+04 0.  0.
        3    1    3    3  502    0 -0.50665364955E+03  0.64767765060E+02  0.79552802288E+03  0.94538755512E+03  0.10100000352E+00 0. -1.
       -3    1    3    3    0  502  0.50665364955E+03 -0.64767765060E+02  0.31195038583E+03  0.59850299700E+03  0.10100000352E+00 0.  1.
</event>
<event>
 5   0  0.3944074E-03  0.1199498E+04  0.7818609E-02  0.9113296E-01
        1   -1    0    0  501    0  0.00000000000E+00  0.00000000000E+00  0.72621010396E+03  0.72621010398E+03  0.50400001928E-02 0.  1.
       -1   -1    0    0    0  501  0.00000000000E+00  0.00000000000E+00 -0.49530972903E+03  0.49530972905E+03  0.50400001928E-02 0. -1.
    10030    2    1    2    0    0  0.00000000000E+00  0.00000000000E+00  0.23090037494E+03  0.12215198330E+04  0.11994981114E+04 0.  0.
        4    1    3    3  502    0  0.17938104440E+03 -0.57316152459E+02 -0.46441981703E+03  0.50114876013E+03  0.12699999809E+01 0. -1.
       -4    1    3    3    0  502 -0.17938104440E+03  0.57316152459E+02  0.69532019197E+03  0.72037107291E+03  0.12699999809E+01 0.  1.
</event>
<event>
 5   0  0.3648616E-03  0.1106483E+04  0.7818609E-02  0.9198896E-01
        1   -1    0    0  501    0  0.00000000000E+00  0.00000000000E+00  0.46235693252E+03  0.46235693255E+03  0.50400001928E-02 0. -1.
       -1   -1    0    0    0  501  0.00000000000E+00  0.00000000000E+00 -0.66199128135E+03  0.66199128137E+03  0.50400001928E-02 0.  1.
    10030    2    1    2    0    0  0.00000000000E+00  0.00000000000E+00 -0.19963434883E+03  0.11243482139E+04  0.11064831824E+04 0.  0.
        2    1    3    3  502    0 -0.27762216817E+03  0.12690836916E+03 -0.56867398908E+03  0.64542227130E+03  0.25500000920E-02 0.  1.
       -2    1    3    3    0  502  0.27762216817E+03 -0.12690836916E+03  0.36903964025E+03  0.47892594262E+03  0.25500000920E-02 0. -1.
</event>
<event>
 5   0  0.6585930E-03  0.1208613E+04  0.7818609E-02  0.9105351E-01
        2   -1    0    0  501    0  0.00000000000E+00  0.00000000000E+00  0.14226496668E+04  0.14226496668E+04  0.25500000920E-02 0.  1.
       -2   -1    0    0    0  501  0.00000000000E+00  0.00000000000E+00 -0.25669452551E+03  0.25669452553E+03  0.25500000920E-02 0. -1.
    10030    2    1    2    0    0  0.00000000000E+00  0.00000000000E+00  0.11659551413E+04  0.16793441923E+04  0.12086130583E+04 0.  0.
        2    1    3    3  502    0 -0.47284930093E+03  0.36856558306E+03  0.68842559464E+03  0.91288380957E+03  0.25500000920E-02 0.  1.
       -2    1    3    3    0  502  0.47284930093E+03 -0.36856558306E+03  0.47752954663E+03  0.76646038275E+03  0.25500000920E-02 0. -1.
</event>
<event>
 5   0  0.3648616E-03  0.1202945E+04  0.7818609E-02  0.9110282E-01
        1   -1    0    0  501    0  0.00000000000E+00  0.00000000000E+00  0.91748704330E+03  0.91748704331E+03  0.50400001928E-02 0. -1.
       -1   -1    0    0    0  501  0.00000000000E+00  0.00000000000E+00 -0.39430465592E+03  0.39430465595E+03  0.50400001928E-02 0.  1.
    10030    2    1    2    0    0  0.00000000000E+00  0.00000000000E+00  0.52318238737E+03  0.13117916993E+04  0.12029454068E+04 0.  0.
        2    1    3    3  502    0  0.55215593013E+03 -0.16636071052E+03  0.44798840671E+03  0.73023672171E+03  0.25500000920E-02 0. -1.
       -2    1    3    3    0  502 -0.55215593013E+03  0.16636071052E+03  0.75193980665E+02  0.58155497755E+03  0.25500000920E-02 0.  1.
</event>
<event>
 5   0  0.3731281E-03  0.1199667E+04  0.7818609E-02  0.9113148E-01
       -1   -1    0    0    0  501  0.00000000000E+00  0.00000000000E+00  0.88815397864E+03  0.88815397866E+03  0.50400001928E-02 0. -1.
        1   -1    0    0  501    0  0.00000000000E+00  0.00000000000E+00 -0.40511010216E+03  0.40511010219E+03  0.50400001928E-02 0.  1.
    10030    2    1    2    0    0  0.00000000000E+00  0.00000000000E+00  0.48304387648E+03  0.12932640808E+04  0.11996668688E+04 0.  0.
        5    1    3    3  502    0 -0.21753567124E+03  0.54036117987E+03  0.39574309232E+03  0.70423480323E+03  0.46999998093E+01 0. -1.
       -5    1    3    3    0  502  0.21753567124E+03 -0.54036117987E+03  0.87300784168E+02  0.58902927761E+03  0.46999998093E+01 0.  1.
</event>
<event>
 5   0  0.2537625E-03  0.1246424E+04  0.7818609E-02  0.9073164E-01
       -3   -1    0    0    0  501  0.00000000000E+00  0.00000000000E+00  0.62729853046E+03  0.62729853859E+03  0.10100000352E+00 0. -1.
        3   -1    0    0  501    0  0.00000000000E+00  0.00000000000E+00 -0.61915256076E+03  0.61915256900E+03  0.10100000352E+00 0.  1.
    10030    2    1    2    0    0  0.00000000000E+00  0.00000000000E+00  0.81459697014E+01  0.12464511076E+04  0.12464244890E+04 0.  0.
        2    1    3    3  502    0  0.55139003000E+03  0.11887496395E+03 -0.26094452248E+03  0.62149357685E+03  0.25500000920E-02 0.  1.
       -2    1    3    3    0  502 -0.55139003000E+03 -0.11887496395E+03  0.26909049218E+03  0.62495753074E+03  0.25500000920E-02 0. -1.
</event>
<event>
 5   0  0.6493047E-03  0.1042641E+04  0.7818609E-02  0.9262975E-01
        2   -1    0    0  501    0  0.00000000000E+00  0.00000000000E+00  0.87679279695E+03  0.87679279696E+03  0.25500000920E-02 0. -1.
       -2   -1    0    0    0  501  0.00000000000E+00  0.00000000000E+00 -0.30996480075E+03  0.30996480076E+03  0.25500000920E-02 0.  1.
    10030    2    1    2    0    0  0.00000000000E+00  0.00000000000E+00  0.56682799621E+03  0.11867575977E+04  0.10426406948E+04 0.  0.
        3    1    3    3  502    0 -0.23338754860E+01  0.37824457593E+03  0.69174978761E+03  0.78841117766E+03  0.10100000352E+00 0. -1.
       -3    1    3    3    0  502  0.23338754860E+01 -0.37824457593E+03 -0.12492179141E+03  0.39834642005E+03  0.10100000352E+00 0.  1.
</event>
<event>
 5   0  0.6493047E-03  0.1247270E+04  0.7818609E-02  0.9072458E-01
       -2   -1    0    0    0  501  0.00000000000E+00  0.00000000000E+00  0.43118680875E+03  0.43118680876E+03  0.25500000920E-02 0. -1.
        2   -1    0    0  501    0  0.00000000000E+00  0.00000000000E+00 -0.90197761869E+03  0.90197761869E+03  0.25500000920E-02 0.  1.
    10030    2    1    2    0    0  0.00000000000E+00  0.00000000000E+00 -0.47079080993E+03  0.13331644275E+04  0.12472703812E+04 0.  0.
        3    1    3    3  502    0 -0.37222000772E+03  0.28362787604E+03 -0.67600708761E+03  0.82217887282E+03  0.10100000352E+00 0.  1.
       -3    1    3    3    0  502  0.37222000772E+03 -0.28362787604E+03  0.20521627768E+03  0.51098555463E+03  0.10100000352E+00 0. -1.
</event>
<event>
 5   0  0.6658994E-03  0.1195987E+04  0.7818609E-02  0.9116376E-01
       -2   -1    0    0    0  501  0.00000000000E+00  0.00000000000E+00  0.21396315826E+03  0.21396315827E+03  0.25500000920E-02 0. -1.
        2   -1    0    0  501    0  0.00000000000E+00  0.00000000000E+00 -0.16712987885E+04  0.16712987885E+04  0.25500000920E-02 0.  1.
    10030    2    1    2    0    0  0.00000000000E+00  0.00000000000E+00 -0.14573356302E+04  0.18852619467E+04  0.11959872360E+04 0.  0.
        4    1    3    3  502    0 -0.36951954615E+02  0.57741696189E+03 -0.96678628063E+03  0.11267001021E+04  0.12699999809E+01 0.  1.
       -4    1    3    3    0  502  0.36951954615E+02 -0.57741696189E+03 -0.49054934957E+03  0.75856184461E+03  0.12699999809E+01 0. -1.
</event>
<event>
 5   0  0.6493047E-03  0.1209737E+04  0.7818609E-02  0.9104377E-01
        2   -1    0    0  501    0  0.00000000000E+00  0.00000000000E+00  0.76730532762E+03  0.76730532763E+03  0.25500000920E-02 0.  1.
       -2   -1    0    0    0  501  0.00000000000E+00  0.00000000000E+00 -0.47681885879E+03  0.47681885879E+03  0.25500000920E-02 0. -1.
    10030    2    1    2    0    0  0.00000000000E+00  0.00000000000E+00  0.29048646884E+03  0.12441241864E+04  0.12097365840E+04 0.  0.
        3    1    3    3  502    0 -0.10184421877E+03  0.30790933236E+03 -0.37984361114E+03  0.49946129076E+03  0.10100000352E+00 0. -1.
       -3    1    3    3    0  502  0.10184421877E+03 -0.30790933236E+03  0.67033007997E+03  0.74466289566E+03  0.10100000352E+00 0.  1.
</event>
<event>
 5   0  0.6349142E-03  0.1288091E+04  0.7818609E-02  0.9039063E-01
        2   -1    0    0  501    0  0.00000000000E+00  0.00000000000E+00  0.94427795622E+03  0.94427795623E+03  0.25500000920E-02 0. -1.
       -2   -1    0    0    0  501  0.00000000000E+00  0.00000000000E+00 -0.43927190821E+03  0.43927190822E+03  0.25500000920E-02 0.  1.
    10030    2    1    2    0    0  0.00000000000E+00  0.00000000000E+00  0.50500604801E+03  0.13835498644E+04  0.12880912696E+04 0.  0.
        1    1    3    3  502    0  0.39979130449E+03 -0.87001698674E+02  0.78674911563E+03  0.88677875126E+03  0.50400001928E-02 0. -1.
       -1    1    3    3    0  502 -0.39979130449E+03  0.87001698674E+02 -0.28174306762E+03  0.49677111318E+03  0.50400001928E-02 0.  1.
</event>
<event>
 5   0  0.6493047E-03  0.1189003E+04  0.7818609E-02  0.9122537E-01
       -2   -1    0    0    0  501  0.00000000000E+00  0.00000000000E+00  0.17486666901E+03  0.17486666903E+03  0.25500000920E-02 0.  1.
        2   -1    0    0  501    0  0.00000000000E+00  0.00000000000E+00 -0.20211528263E+04  0.20211528263E+04  0.25500000920E-02 0. -1.
    10030    2    1    2    0    0  0.00000000000E+00  0.00000000000E+00 -0.18462861573E+04  0.21960194954E+04  0.11890033849E+04 0.  0.
        3    1    3    3  502    0 -0.20821754237E+03 -0.55623814823E+03 -0.87509314636E+03  0.10576121442E+04  0.10100000352E+00 0.  1.
       -3    1    3    3    0  502  0.20821754237E+03  0.55623814823E+03 -0.97119301095E+03  0.11384073512E+04  0.10100000352E+00 0. -1.
</event>
<event>
 5   0  0.6640844E-03  0.1205471E+04  0.7818609E-02  0.9108081E-01
       -2   -1    0    0    0  501  0.00000000000E+00  0.00000000000E+00  0.43401131183E+03  0.43401131184E+03  0.25500000920E-02 0.  1.
        2   -1    0    0  501    0  0.00000000000E+00  0.00000000000E+00 -0.83705276145E+03  0.83705276145E+03  0.25500000920E-02 0. -1.
    10030    2    1    2    0    0  0.00000000000E+00  0.00000000000E+00 -0.40304144962E+03  0.12710640733E+04  0.12054714714E+04 0.  0.
        5    1    3    3  502    0  0.50222370304E+03  0.29821175429E+03 -0.35830365496E+03  0.68524630422E+03  0.46999998093E+01 0. -1.
       -5    1    3    3    0  502 -0.50222370304E+03 -0.29821175429E+03 -0.44737794657E+02  0.58581776907E+03  0.46999998093E+01 0.  1.
</event>
<event>
 5   0  0.3772254E-03  0.8865442E+03  0.7818609E-02  0.9442560E-01
       -1   -1    0    0    0  501  0.00000000000E+00  0.00000000000E+00  0.18172493874E+03  0.18172493881E+03  0.50400001928E-02 0.  1.
        1   -1    0    0  501    0  0.00000000000E+00  0.00000000000E+00 -0.10812502812E+04  0.10812502812E+04  0.50400001928E-02 0. -1.
    10030    2    1    2    0    0  0.00000000000E+00  0.00000000000E+00 -0.89952534247E+03  0.12629752200E+04  0.88654416961E+03 0.  0.
        3    1    3    3  502    0  0.22497121399E+03  0.21971602323E+03 -0.46951217750E+01  0.31449838212E+03  0.10100000352E+00 0.  1.
       -3    1    3    3    0  502 -0.22497121399E+03 -0.21971602323E+03 -0.89483022070E+03  0.94847683791E+03  0.10100000352E+00 0. -1.
</event>
<event>
 5   0  0.3701879E-03  0.1207768E+04  0.7818609E-02  0.9106084E-01
        1   -1    0    0  501    0  0.00000000000E+00  0.00000000000E+00  0.35767438033E+03  0.35767438036E+03  0.50400001928E-02 0.  1.
       -1   -1    0    0    0  501  0.00000000000E+00  0.00000000000E+00 -0.10195748802E+04  0.10195748802E+04  0.50400001928E-02 0. -1.
    10030    2    1    2    0    0  0.00000000000E+00  0.00000000000E+00 -0.66190049990E+03  0.13772492606E+04  0.12077678809E+04 0.  0.
        1    1    3    3  502    0 -0.12955631030E+03  0.45325133558E+03 -0.76134474242E+03  0.89547050626E+03  0.50400001928E-02 0. -1.
       -1    1    3    3    0  502  0.12955631030E+03 -0.45325133558E+03  0.99444242516E+02  0.48177875435E+03  0.50400001928E-02 0.  1.
</event>
<event>
 5   0  0.3772254E-03  0.1342451E+04  0.7818609E-02  0.8996563E-01
        1   -1    0    0  501    0  0.00000000000E+00  0.00000000000E+00  0.53578502447E+03  0.53578502449E+03  0.50400001928E-02 0. -1.
       -1   -1    0    0    0  501  0.00000000000E+00  0.00000000000E+00 -0.84090342822E+03  0.84090342824E+03  0.50400001928E-02 0.  1.
    10030    2    1    2    0    0  0.00000000000E+00  0.00000000000E+00 -0.30511840376E+03  0.13766884527E+04  0.13424506902E+04 0.  0.
        3    1    3    3  502    0 -0.95837390012E+02 -0.66417123786E+03 -0.13683132914E+03  0.68485842432E+03  0.10100000352E+00 0. -1.
       -3    1    3    3    0  502  0.95837390012E+02  0.66417123786E+03 -0.16828707462E+03  0.69183002841E+03  0.10100000352E+00 0.  1.
</event>
<event>
 5   0  0.3944074E-03  0.1133084E+04  0.7818609E-02  0.9173532E-01
        1   -1    0    0  501    0  0.00000000000E+00  0.00000000000E+00  0.12278880771E+04  0.12278880771E+04  0.50400001928E-02 0.  1.
       -1   -1    0    0    0  501  0.00000000000E+00  0.00000000000E+00 -0.26139999697E+03  0.26139999702E+03  0.50400001928E-02 0. -1.
    10030    2    1    2    0    0  0.00000000000E+00  0.00000000000E+00  0.96648808016E+03  0.14892880742E+04  0.11330841799E+04 0.  0.
        4    1    3    3  502    0 -0.36927134739E+03  0.34353349379E+03  0.14406679459E+03  0.52453164209E+03  0.12699999809E+01 0. -1.
       -4    1    3    3    0  502  0.36927134739E+03 -0.34353349379E+03  0.82242128557E+03  0.96475643207E+03  0.12699999809E+01 0.  1.
</event>
<event>
 5   0  0.3944074E-03  0.1201763E+04  0.7818609E-02  0.9111315E-01
        1   -1    0    0  501    0  0.00000000000E+00  0.00000000000E+00  0.47938229540E+03  0.47938229543E+03  0.50400001928E-02 0.  1.
       -1   -1    0    0    0  501  0.00000000000E+00  0.00000000000E+00 -0.75317459548E+03  0.75317459550E+03  0.50400001928E-02 0. -1.
    10030    2    1    2    0    0  0.00000000000E+00  0.00000000000E+00 -0.27379230008E+03  0.12325568909E+04  0.12017629824E+04 0.  0.
        4    1    3    3  502    0  0.84490485069E+02 -0.58289399459E+03 -0.25891049983E+03  0.64338193230E+03  0.12699999809E+01 0. -1.
       -4    1    3    3    0  502 -0.84490485069E+02  0.58289399459E+03 -0.14881800255E+02  0.58917495863E+03  0.12699999809E+01 0.  1.
</event>
<event>
 5   0  0.6658994E-03  0.1225088E+04  0.7818609E-02  0.9091176E-01
       -2   -1    0    0    0  501  0.00000000000E+00  0.00000000000E+00  0.42929400859E+03  0.42929400860E+03  0.25500000920E-02 0.  1.
        2   -1    0    0  501    0  0.00000000000E+00  0.00000000000E+00 -0.87401687187E+03  0.87401687188E+03  0.25500000920E-02 0. -1.
    10030    2    1    2    0    0  0.00000000000E+00  0.00000000000E+00 -0.44472286328E+03  0.13033108805E+04  0.12250880891E+04 0.  0.
        4    1    3    3  502    0 -0.28441781238E+03 -0.54189824700E+03 -0.24972104843E+03  0.66099123824E+03  0.12699999809E+01 0.  1.
       -4    1    3    3    0  502  0.28441781238E+03  0.54189824700E+03 -0.19500181485E+03  0.64231964223E+03  0.12699999809E+01 0. -1.
</event>
<event>
 5   0  0.6640844E-03  0.1191438E+04  0.7818609E-02  0.9120384E-01
        2   -1    0    0  501    0  0.00000000000E+00  0.00000000000E+00  0.43038240340E+03  0.43038240340E+03  0.25500000920E-02 0. -1.
       -2   -1    0    0    0  501  0.00000000000E+00  0.00000000000E+00 -0.82457109031E+03  0.82457109031E+03  0.25500000920E-02 0.  1.
    10030    2    1    2    0    0  0.00000000000E+00  0.00000000000E+00 -0.39418868691E+03  0.12549534937E+04  0.11914375982E+04 0.  0.
        5    1    3    3  502    0 -0.48289847938E+03  0.25663239151E+03 -0.44592465517E+03  0.70563589326E+03  0.46999998093E+01 0. -1.
       -5    1    3    3    0  502  0.48289847938E+03 -0.25663239151E+03  0.51735968263E+02  0.54931760046E+03  0.46999998093E+01 0.  1.
</event>
<event>
 5   0  0.3944074E-03  0.9853553E+03  0.7818609E-02  0.9324754E-01
       -1   -1    0    0    0  501  0.00000000000E+00  0.00000000000E+00  0.12925105422E+03  0.12925105432E+03  0.50400001928E-02 0. -1.
        1   -1    0    0  501    0  0.00000000000E+00  0.00000000000E+00 -0.18779829348E+04  0.18779829348E+04  0.50400001928E-02 0.  1.
    10030    2    1    2    0    0  0.00000000000E+00  0.00000000000E+00 -0.17487318805E+04  0.20072339891E+04  0.98535531507E+03 0.  0.
        4    1    3    3  502    0 -0.37929045001E+03  0.14170088064E+03 -0.30257312432E+03  0.50546265292E+03  0.12699999809E+01 0. -1.
       -4    1    3    3    0  502  0.37929045001E+03 -0.14170088064E+03 -0.14461587562E+04  0.15017713362E+04  0.12699999809E+01 0.  1.
</event>
<event>
 5   0  0.6493047E-03  0.1219405E+04  0.7818609E-02  0.9096039E-01
       -2   -1    0    0    0  501  0.00000000000E+00  0.00000000000E+00  0.57988995304E+03  0.57988995304E+03  0.25500000920E-02 0. -1.
        2   -1    0    0  501    0  0.00000000000E+00  0.00000000000E+00 -0.64104747353E+03  0.64104747353E+03  0.25500000920E-02 0.  1.
    10030    2    1    2    0    0  0.00000000000E+00  0.00000000000E+00 -0.61157520493E+02  0.12209374266E+04  0.12194047553E+04 0.  0.
        3    1    3    3  502    0  0.72073308530E+02 -0.56944698701E+03  0.17528254722E+03  0.60015699145E+03  0.10100000352E+00 0. -1.
       -3    1    3    3    0  502 -0.72073308530E+02  0.56944698701E+03 -0.23644006771E+03  0.62078043513E+03  0.10100000352E+00 0.  1.
</event>
<event>
 5   0  0.6349142E-03  0.1168785E+04  0.7818609E-02  0.9140626E-01
       -2   -1    0    0    0  501  0.00000000000E+00  0.00000000000E+00  0.88074750841E+03  0.88074750841E+03  0.25500000920E-02 0. -1.
        2   -1    0    0  501    0  0.00000000000E+00  0.00000000000E+00 -0.38775563897E+03  0.38775563898E+03  0.25500000920E-02 0.  1.
    10030    2    1    2    0    0  0.00000000000E+00  0.00000000000E+00  0.49299186944E+03  0.12685031474E+04  0.11687853745E+04 0.  0.
        1    1    3    3  502    0  0.35302857061E+03 -0.30328992720E+03 -0.13706952980E+03  0.48518244778E+03  0.50400001928E-02 0.  1.
       -1    1    3    3    0  502 -0.35302857061E+03  0.30328992720E+03  0.63006139924E+03  0.78332069961E+03  0.50400001928E-02 0. -1.
</event>
<event>
 5   0  0.6585930E-03  0.1206825E+04  0.7818609E-02  0.9106904E-01
       -2   -1    0    0    0  501  0.00000000000E+00  0.00000000000E+00  0.43503232311E+03  0.43503232312E+03  0.25500000920E-02 0.  1.
        2   -1    0    0  501    0  0.00000000000E+00  0.00000000000E+00 -0.83696455019E+03  0.83696455019E+03  0.25500000920E-02 0. -1.
    10030    2    1    2    0    0  0.00000000000E+00  0.00000000000E+00 -0.40193222708E+03  0.12719968733E+04  0.12068249793E+04 0.  0.
        2    1    3    3  502    0 -0.49850245006E+03  0.45872286710E+02 -0.55605348918E+03  0.74820080342E+03  0.25500000920E-02 0. -1.
       -2    1    3    3    0  502  0.49850245006E+03 -0.45872286710E+02  0.15412126210E+03  0.52379606990E+03  0.25500000920E-02 0.  1.
</event>
<event>
 5   0  0.2537625E-03  0.1070561E+04  0.7818609E-02  0.9234370E-01
        4   -1    0    0  501    0  0.00000000000E+00  0.00000000000E+00  0.43849991411E+03  0.43850175322E+03  0.12699999809E+01 0. -1.
       -4   -1    0    0    0  501  0.00000000000E+00  0.00000000000E+00 -0.65341699710E+03  0.65341823130E+03  0.12699999809E+01 0.  1.
    10030    2    1    2    0    0  0.00000000000E+00  0.00000000000E+00 -0.21491708299E+03  0.10919199845E+04  0.10705605541E+04 0.  0.
        1    1    3    3  502    0  0.18307983967E+03 -0.60057649327E+02 -0.61682184135E+03  0.64621539205E+03  0.50400001928E-02 0.  1.
       -1    1    3    3    0  502 -0.18307983967E+03  0.60057649327E+02  0.40190475836E+03  0.44570459248E+03  0.50400001928E-02 0. -1.
</event>
<event>
 5   0  0.3944074E-03  0.1191279E+04  0.7818609E-02  0.9120525E-01
        1   -1    0    0  501    0  0.00000000000E+00  0.00000000000E+00  0.14125456138E+04  0.14125456139E+04  0.50400001928E-02 0. -1.
       -1   -1    0    0    0  501  0.00000000000E+00  0.00000000000E+00 -0.25116802346E+03  0.25116802351E+03  0.50400001928E-02 0.  1.
    10030    2    1    2    0    0  0.00000000000E+00  0.00000000000E+00  0.11613775904E+04  0.16637136374E+04  0.11912787918E+04 0.  0.
        4    1    3    3  502    0  0.24822805607E+03 -0.13413250926E+03  0.13132947200E+04  0.13432621979E+04  0.12699999809E+01 0. -1.
       -4    1    3    3    0  502 -0.24822805607E+03  0.13413250926E+03 -0.15191712963E+03  0.32045143943E+03  0.12699999809E+01 0.  1.
</event>
<event>
 5   0  0.6640844E-03  0.1685245E+04  0.7818609E-02  0.8769825E-01
        2   -1    0    0  501    0  0.00000000000E+00  0.00000000000E+00  0.64404136393E+03  0.64404136394E+03  0.25500000920E-02 0. -1.
       -2   -1    0    0    0  501  0.00000000000E+00  0.00000000000E+00 -0.11024333387E+04  0.11024333387E+04  0.25500000920E-02 0.  1.
    10030    2    1    2    0    0  0.00000000000E+00  0.00000000000E+00 -0.45839197472E+03  0.17464747026E+04  0.16852449924E+04 0.  0.
        5    1    3    3  502    0  0.40950791095E+03 -0.39429980477E+03  0.41535097395E+03  0.70406504439E+03  0.46999998093E+01 0. -1.
       -5    1    3    3    0  502 -0.40950791095E+03  0.39429980477E+03 -0.87374294867E+03  0.10424096582E+04  0.46999998093E+01 0.  1.
</event>
<event>
 5   0  0.2537625E-03  0.8918414E+03  0.7818609E-02  0.9435838E-01
       -4   -1    0    0    0  501  0.00000000000E+00  0.00000000000E+00  0.17295691161E+03  0.17296157427E+03  0.12699999809E+01 0. -1.
        4   -1    0    0  501    0  0.00000000000E+00  0.00000000000E+00 -0.11496605431E+04  0.11496612446E+04  0.12699999809E+01 0.  1.
    10030    2    1    2    0    0  0.00000000000E+00  0.00000000000E+00 -0.97670363152E+03  0.13226228189E+04  0.89184143050E+03 0.  0.
        2    1    3    3  502    0  0.22102062185E+03  0.55853721639E+02 -0.10567112746E+04  0.10810219570E+04  0.25500000920E-02 0.  1.
       -2    1    3    3    0  502 -0.22102062185E+03 -0.55853721639E+02  0.80007643115E+02  0.24160086189E+03  0.25500000920E-02 0. -1.
</event>
<event>
 5   0  0.3731281E-03  0.1013801E+04  0.7818609E-02  0.9293536E-01
       -1   -1    0    0    0  501  0.00000000000E+00  0.00000000000E+00  0.48323400137E+03  0.48323400139E+03  0.50400001928E-02 0. -1.
        1   -1    0    0  501    0  0.00000000000E+00  0.00000000000E+00 -0.53172638443E+03  0.53172638446E+03  0.50400001928E-02 0.  1.
    10030    2    1    2    0    0  0.00000000000E+00  0.00000000000E+00 -0.48492383066E+02  0.10149603858E+04  0.10138012989E+04 0.  0.
        5    1    3    3  502    0 -0.46378075987E+03 -0.13735756717E+03  0.12747404267E+03  0.50023136251E+03  0.46999998093E+01 0. -1.
       -5    1    3    3    0  502  0.46378075987E+03  0.13735756717E+03 -0.17596642573E+03  0.51472902334E+03  0.46999998093E+01 0.  1.
</event>
<event>
 5   0  0.3944074E-03  0.1177652E+04  0.7818609E-02  0.9132646E-01
       -1   -1    0    0    0  501  0.00000000000E+00  0.00000000000E+00  0.73293135619E+03  0.73293135620E+03  0.50400001928E-02 0.  1.
        1   -1    0    0  501    0  0.00000000000E+00  0.00000000000E+00 -0.47305405432E+03  0.47305405435E+03  0.50400001928E-02 0. -1.
    10030    2    1    2    0    0  0.00000000000E+00  0.00000000000E+00  0.25987730187E+03  0.12059854105E+04  0.11776521551E+04 0.  0.
        4    1    3    3  502    0  0.23019186665E+03 -0.22749151361E+02 -0.42457655747E+03  0.48350045027E+03  0.12699999809E+01 0. -1.
       -4    1    3    3    0  502 -0.23019186665E+03  0.22749151361E+02  0.68445385934E+03  0.72248496027E+03  0.12699999809E+01 0.  1.
</event>
<event>
 5   0  0.3772254E-03  0.1206104E+04  0.7818609E-02  0.9107530E-01
        1   -1    0    0  501    0  0.00000000000E+00  0.00000000000E+00  0.48023247083E+03  0.48023247085E+03  0.50400001928E-02 0.  1.
       -1   -1    0    0    0  501  0.00000000000E+00  0.00000000000E+00 -0.75728303169E+03  0.75728303171E+03  0.50400001928E-02 0. -1.
    10030    2    1    2    0    0  0.00000000000E+00  0.00000000000E+00 -0.27705056086E+03  0.12375155026E+04  0.12061043097E+04 0.  0.
        3    1    3    3  502    0 -0.39319210071E+03 -0.39836227060E+03  0.91773756305E+02  0.56719922360E+03  0.10100000352E+00 0.  1.
       -3    1    3    3    0  502  0.39319210071E+03  0.39836227060E+03 -0.36882431717E+03  0.67031627896E+03  0.10100000352E+00 0. -1.
</event>
<event>
 5   0  0.2537625E-03  0.1525254E+04  0.7818609E-02  0.8867831E-01
        3   -1    0    0  501    0  0.00000000000E+00  0.00000000000E+00  0.74988355807E+03  0.74988356487E+03  0.10100000352E+00 0. -1.
       -3   -1    0    0    0  501  0.00000000000E+00  0.00000000000E+00 -0.77558722718E+03  0.77558723376E+03  0.10100000352E+00 0.  1.
    10030    2    1    2    0    0  0.00000000000E+00  0.00000000000E+00 -0.25703669111E+02  0.15254707986E+04  0.15252542342E+04 0.  0.
        1    1    3    3  502    0  0.69104183867E+03 -0.37715776525E+01  0.30975724873E+03  0.75729954493E+03  0.50400001928E-02 0. -1.
       -1    1    3    3    0  502 -0.69104183867E+03  0.37715776525E+01 -0.33546091784E+03  0.76817125370E+03  0.50400001928E-02 0.  1.
</event>
<event>
 5   0  0.3731281E-03  0.1216581E+04  0.7818609E-02  0.9098466E-01
        1   -1    0    0  501    0  0.00000000000E+00  0.00000000000E+00  0.10353777282E+04  0.10353777282E+04  0.50400001928E-02 0.  1.
       -1   -1    0    0    0  501  0.00000000000E+00  0.00000000000E+00 -0.35737419290E+03  0.35737419294E+03  0.50400001928E-02 0. -1.
    10030    2    1    2    0    0  0.00000000000E+00  0.00000000000E+00  0.67800353528E+03  0.13927519211E+04  0.12165809139E+04 0.  0.
        5    1    3    3  502    0 -0.16999820044E+02 -0.38081728636E+03  0.88165103157E+03  0.96054225880E+03  0.46999998093E+01 0.  1.
       -5    1    3    3    0  502  0.16999820044E+02  0.38081728636E+03 -0.20364749629E+03  0.43220966234E+03  0.46999998093E+01 0. -1.
</event>
<event>
 5   0  0.3701879E-03  0.1172215E+04  0.7818609E-02  0.9137531E-01
       -1   -1    0    0    0  501  0.00000000000E+00  0.00000000000E+00  0.32689354073E+03  0.32689354077E+03  0.50400001928E-02 0. -1.
        1   -1    0    0  501    0  0.00000000000E+00  0.00000000000E+00 -0.10508677270E+04  0.10508677270E+04  0.50400001928E-02 0.  1.
    10030    2    1    2    0    0  0.00000000000E+00  0.00000000000E+00 -0.72397418628E+03  0.13777612678E+04  0.11722147792E+04 0.  0.
        1    1    3    3  502    0 -0.29888729662E+03  0.31917483615E+02  0.22940089174E+03  0.37812314264E+03  0.50400001928E-02 0. -1.
       -1    1    3    3    0  502  0.29888729662E+03 -0.31917483615E+02 -0.95337507802E+03  0.99963812515E+03  0.50400001928E-02 0.  1.
</event>
<event>
 5   0  0.2537625E-03  0.1156614E+04  0.7818609E-02  0.9151703E-01
        3   -1    0    0  501    0  0.00000000000E+00  0.00000000000E+00  0.24059410346E+03  0.24059412466E+03  0.10100000352E+00 0. -1.
       -3   -1    0    0    0  501  0.00000000000E+00  0.00000000000E+00 -0.13900557325E+04  0.13900557362E+04  0.10100000352E+00 0.  1.
    10030    2    1    2    0    0  0.00000000000E+00  0.00000000000E+00 -0.11494616290E+04  0.16306498608E+04  0.11566144267E+04 0.  0.
        2    1    3    3  502    0 -0.20697000170E+03  0.34820175137E+02  0.18500586739E+03  0.27977883618E+03  0.25500000920E-02 0. -1.
       -2    1    3    3    0  502  0.20697000170E+03 -0.34820175137E+02 -0.13344674964E+04  0.13508710246E+04  0.25500000920E-02 0.  1.
</event>
<event>
 5   0  0.6349142E-03  0.1373266E+04  0.7818609E-02  0.8973400E-01
        2   -1    0    0  501    0  0.00000000000E+00  0.00000000000E+00  0.53805666738E+03  0.53805666738E+03  0.25500000920E-02 0. -1.
       -2   -1    0    0    0  501  0.00000000000E+00  0.00000000000E+00 -0.87623685509E+03  0.87623685509E+03  0.25500000920E-02 0.  1.
    10030    2    1    2    0    0  0.00000000000E+00  0.00000000000E+00 -0.33818018771E+03  0.14142935225E+04  0.13732662991E+04 0.  0.
        1    1    3    3  502    0 -0.45145003727E+02  0.33771854434E+03  0.44485159383E+03  0.56034349029E+03  0.50400001928E-02 0. -1.
       -1    1    3    3    0  502  0.45145003727E+02 -0.33771854434E+03 -0.78303178154E+03  0.85395003219E+03  0.50400001928E-02 0.  1.
</event>
<event>
 5   0  0.3701879E-03  0.1218664E+04  0.7818609E-02  0.9096675E-01
        1   -1    0    0  501    0  0.00000000000E+00  0.00000000000E+00  0.73178654112E+03  0.73178654113E+03  0.50400001928E-02 0.  1.
       -1   -1    0    0    0  501  0.00000000000E+00  0.00000000000E+00 -0.50736836923E+03  0.50736836926E+03  0.50400001928E-02 0. -1.
    10030    2    1    2    0    0  0.00000000000E+00  0.00000000000E+00  0.22441817189E+03  0.12391549104E+04  0.12186637666E+04 0.  0.
        1    1    3    3  502    0 -0.20586158209E+03  0.43489308591E+03 -0.26794131653E+03  0.55073000307E+03  0.50400001928E-02 0. -1.
       -1    1    3    3    0  502  0.20586158209E+03 -0.43489308591E+03  0.49235948841E+03  0.68842490732E+03  0.50400001928E-02 0.  1.
</event>
<event>
 5   0  0.6658994E-03  0.1210113E+04  0.7818609E-02  0.9104051E-01
       -2   -1    0    0    0  501  0.00000000000E+00  0.00000000000E+00  0.23880005231E+03  0.23880005233E+03  0.25500000920E-02 0. -1.
        2   -1    0    0  501    0  0.00000000000E+00  0.00000000000E+00 -0.15330534380E+04  0.15330534380E+04  0.25500000920E-02 0.  1.
    10030    2    1    2    0    0  0.00000000000E+00  0.00000000000E+00 -0.12942533857E+04  0.17718534903E+04  0.12101127901E+04 0.  0.
        4    1    3    3  502    0  0.50574223302E+03 -0.13738128693E+02 -0.16122298406E+03  0.53099755737E+03  0.12699999809E+01 0. -1.
       -4    1    3    3    0  502 -0.50574223302E+03  0.13738128693E+02 -0.11330304016E+04  0.12408559329E+04  0.12699999809E+01 0.  1.
</event>
<event>
 5   0  0.6640844E-03  0.1236771E+04  0.7818609E-02  0.9081267E-01
        2   -1    0    0  501    0  0.00000000000E+00  0.00000000000E+00  0.11112450202E+04  0.11112450202E+04  0.25500000920E-02 0. -1.
       -2   -1    0    0    0  501  0.00000000000E+00  0.00000000000E+00 -0.34411882703E+03  0.34411882704E+03  0.25500000920E-02 0.  1.
    10030    2    1    2    0    0  0.00000000000E+00  0.00000000000E+00  0.76712619314E+03  0.14553638472E+04  0.12367705250E+04 0.  0.
        5    1    3    3  502    0 -0.51062080294E+03  0.30080693729E+03  0.59128388424E+03  0.83717210875E+03  0.46999998093E+01 0. -1.
       -5    1    3    3    0  502  0.51062080294E+03 -0.30080693729E+03  0.17584230890E+03  0.61819173847E+03  0.46999998093E+01 0.  1.
</event>
<event>
 5   0  0.2537625E-03  0.1084539E+04  0.7818609E-02  0.9220393E-01
        4   -1    0    0  501    0  0.00000000000E+00  0.00000000000E+00  0.65812112675E+03  0.65812235213E+03  0.12699999809E+01 0.  1.
       -4   -1    0    0    0  501  0.00000000000E+00  0.00000000000E+00 -0.44680925376E+03  0.44681105867E+03  0.12699999809E+01 0. -1.
    10030    2    1    2    0    0  0.00000000000E+00  0.00000000000E+00  0.21131187298E+03  0.11049334108E+04  0.10845391347E+04 0.  0.
        5    1    3    3  502    0  0.24524615843E+03 -0.48321094412E+03  0.12592218240E+03  0.55634250311E+03  0.46999998093E+01 0.  1.
       -5    1    3    3    0  502 -0.24524615843E+03  0.48321094412E+03  0.85389690587E+02  0.54859090769E+03  0.46999998093E+01 0. -1.
</event>
<event>
 5   0  0.3701879E-03  0.1221497E+04  0.7818609E-02  0.9094246E-01
       -1   -1    0    0    0  501  0.00000000000E+00  0.00000000000E+00  0.25246762113E+03  0.25246762118E+03  0.50400001928E-02 0. -1.
        1   -1    0    0  501    0  0.00000000000E+00  0.00000000000E+00 -0.14774706165E+04  0.14774706165E+04  0.50400001928E-02 0.  1.
    10030    2    1    2    0    0  0.00000000000E+00  0.00000000000E+00 -0.12250029954E+04  0.17299382377E+04  0.12214966097E+04 0.  0.
        1    1    3    3  502    0 -0.28746915194E+03 -0.53883354703E+03 -0.60431820686E+03  0.85917437106E+03  0.50400001928E-02 0. -1.
       -1    1    3    3    0  502  0.28746915194E+03  0.53883354703E+03 -0.62068478852E+03  0.87076386664E+03  0.50400001928E-02 0.  1.
</event>
<event>
 5   0  0.6585930E-03  0.1205562E+04  0.7818609E-02  0.9108002E-01
        2   -1    0    0  501    0  0.00000000000E+00  0.00000000000E+00  0.15286507438E+04  0.15286507438E+04  0.25500000920E-02 0. -1.
       -2   -1    0    0    0  501  0.00000000000E+00  0.00000000000E+00 -0.23768993058E+03  0.23768993059E+03  0.25500000920E-02 0.  1.
    10030    2    1    2    0    0  0.00000000000E+00  0.00000000000E+00  0.12909608132E+04  0.17663406744E+04  0.12055619257E+04 0.  0.
        2    1    3    3  502    0  0.34968143574E+03 -0.38748098800E+03  0.10872843887E+04  0.12060704641E+04  0.25500000920E-02 0. -1.
       -2    1    3    3    0  502 -0.34968143574E+03  0.38748098800E+03  0.20367642450E+03  0.56027021022E+03  0.25500000920E-02 0.  1.
</event>
<event>
 5   0  0.3772254E-03  0.1197141E+04  0.7818609E-02  0.9115363E-01
       -1   -1    0    0    0  501  0.00000000000E+00  0.00000000000E+00  0.52320021731E+03  0.52320021733E+03  0.50400001928E-02 0. -1.
        1   -1    0    0  501    0  0.00000000000E+00  0.00000000000E+00 -0.68479824277E+03  0.68479824279E+03  0.50400001928E-02 0.  1.
    10030    2    1    2    0    0  0.00000000000E+00  0.00000000000E+00 -0.16159802546E+03  0.12079984601E+04  0.11971409098E+04 0.  0.
        3    1    3    3  502    0  0.36281781269E+03 -0.76507907247E+02 -0.55495043490E+03  0.66742806389E+03  0.10100000352E+00 0.  1.
       -3    1    3    3    0  502 -0.36281781269E+03  0.76507907247E+02  0.39335240943E+03  0.54057039624E+03  0.10100000352E+00 0. -1.
</event>
<event>
 5   0  0.3772254E-03  0.1202539E+04  0.7818609E-02  0.9110637E-01
       -1   -1    0    0    0  501  0.00000000000E+00  0.00000000000E+00  0.41316173581E+03  0.41316173584E+03  0.50400001928E-02 0.  1.
        1   -1    0    0  501    0  0.00000000000E+00  0.00000000000E+00 -0.87502014247E+03  0.87502014248E+03  0.50400001928E-02 0. -1.
    10030    2    1    2    0    0  0.00000000000E+00  0.00000000000E+00 -0.46185840666E+03  0.12881818783E+04  0.12025387162E+04 0.  0.
        3    1    3    3  502    0  0.23622552608E+02  0.53051039835E+03 -0.53301575020E+03  0.75239956666E+03  0.10100000352E+00 0. -1.
       -3    1    3    3    0  502 -0.23622552608E+02 -0.53051039835E+03  0.71157343549E+02  0.53578231166E+03  0.10100000352E+00 0.  1.
</event>
<event>
 5   0  0.6585930E-03  0.1220622E+04  0.7818609E-02  0.9094995E-01
       -2   -1    0    0    0  501  0.00000000000E+00  0.00000000000E+00  0.78068635696E+03  0.78068635697E+03  0.25500000920E-02 0. -1.
        2   -1    0    0  501    0  0.00000000000E+00  0.00000000000E+00 -0.47711782536E+03  0.47711782536E+03  0.25500000920E-02 0.  1.
    10030    2    1    2    0    0  0.00000000000E+00  0.00000000000E+00  0.30356853160E+03  0.12578041823E+04  0.12206217709E+04 0.  0.
        2    1    3    3  502    0 -0.14335814083E+03 -0.45263383610E+03 -0.24336854298E+03  0.53353274862E+03  0.25500000920E-02 0. -1.
       -2    1    3    3    0  502  0.14335814083E+03  0.45263383610E+03  0.54693707459E+03  0.72427143371E+03  0.25500000920E-02 0.  1.
</event>
<event>
 5   0  0.3772254E-03  0.1196844E+04  0.7818609E-02  0.9115623E-01
        1   -1    0    0  501    0  0.00000000000E+00  0.00000000000E+00  0.19631972145E+04  0.19631972145E+04  0.50400001928E-02 0.  1.
       -1   -1    0    0    0  501  0.00000000000E+00  0.00000000000E+00 -0.18241109908E+03  0.18241109915E+03  0.50400001928E-02 0. -1.
    10030    2    1    2    0    0  0.00000000000E+00  0.00000000000E+00  0.17807861154E+04  0.21456083136E+04  0.11968441196E+04 0.  0.
        3    1    3    3  502    0  0.37180843360E+03 -0.28529780187E+03  0.15574989602E+04  0.16264806695E+04  0.10100000352E+00 0.  1.
       -3    1    3    3    0  502 -0.37180843360E+03  0.28529780187E+03  0.22328715524E+03  0.51912764417E+03  0.10100000352E+00 0. -1.
</event>
<event>
 5   0  0.6493047E-03  0.1401782E+04  0.7818609E-02  0.8952530E-01
        2   -1    0    0  501    0  0.00000000000E+00  0.00000000000E+00  0.15896858393E+04  0.15896858393E+04  0.25500000920E-02 0.  1.
       -2   -1    0    0    0  501  0.00000000000E+00  0.00000000000E+00 -0.30902214326E+03  0.30902214327E+03  0.25500000920E-02 0. -1.
    10030    2    1    2    0    0  0.00000000000E+00  0.00000000000E+00  0.12806636960E+04  0.18987079825E+04  0.14017819020E+04 0.  0.
        3    1    3    3  502    0 -0.64402013925E+03  0.27642005679E+03  0.62835949639E+03  0.94127873367E+03  0.10100000352E+00 0. -1.
       -3    1    3    3    0  502  0.64402013925E+03 -0.27642005679E+03  0.65230419961E+03  0.95742924887E+03  0.10100000352E+00 0.  1.
</event>
<event>
 5   0  0.6493047E-03  0.1193221E+04  0.7818609E-02  0.9118811E-01
        2   -1    0    0  501    0  0.00000000000E+00  0.00000000000E+00  0.94687020393E+03  0.94687020393E+03  0.25500000920E-02 0. -1.
       -2   -1    0    0    0  501  0.00000000000E+00  0.00000000000E+00 -0.37591649348E+03  0.37591649349E+03  0.25500000920E-02 0.  1.
    10030    2    1    2    0    0  0.00000000000E+00  0.00000000000E+00  0.57095371045E+03  0.13227866974E+04  0.11932210639E+04 0.  0.
        3    1    3    3  502    0 -0.42575535299E+03  0.92592889613E+02 -0.16633509611E+03  0.46637799927E+03  0.10100000352E+00 0.  1.
       -3    1    3    3    0  502  0.42575535299E+03 -0.92592889613E+02  0.73728880655E+03  0.85640869815E+03  0.10100000352E+00 0. -1.
</event>
<event>
 5   0  0.6585930E-03  0.1422361E+04  0.7818609E-02  0.8937790E-01
        2   -1    0    0  501    0  0.00000000000E+00  0.00000000000E+00  0.90706238015E+03  0.90706238015E+03  0.25500000920E-02 0.  1.
       -2   -1    0    0    0  501  0.00000000000E+00  0.00000000000E+00 -0.55759931696E+03  0.55759931697E+03  0.25500000920E-02 0. -1.
    10030    2    1    2    0    0  0.00000000000E+00  0.00000000000E+00  0.34946306319E+03  0.14646616971E+04  0.14223605220E+04 0.  0.
        2    1    3    3  502    0 -0.57118126349E+02  0.45894320652E+03 -0.38160077346E+03  0.59959194247E+03  0.25500000920E-02 0. -1.
       -2    1    3    3    0  502  0.57118126349E+02 -0.45894320652E+03  0.73106383664E+03  0.86506975465E+03  0.25500000920E-02 0.  1.
</event>
<event>
 5   0  0.3944074E-03  0.1154376E+04  0.7818609E-02  0.9153756E-01
       -1   -1    0    0    0  501  0.00000000000E+00  0.00000000000E+00  0.25796153355E+03  0.25796153360E+03  0.50400001928E-02 0.  1.
        1   -1    0    0  501    0  0.00000000000E+00  0.00000000000E+00 -0.12914554535E+04  0.12914554535E+04  0.50400001928E-02 0. -1.
    10030    2    1    2    0    0  0.00000000000E+00  0.00000000000E+00 -0.10334939200E+04  0.15494169871E+04  0.11543757263E+04 0.  0.
        4    1    3    3  502    0  0.30297136847E+03 -0.17639153763E+03  0.98681174836E+02  0.36420490363E+03  0.12699999809E+01 0.  1.
       -4    1    3    3    0  502 -0.30297136847E+03  0.17639153763E+03 -0.11321750948E+04  0.11852120835E+04  0.12699999809E+01 0. -1.
</event>
<event>
 5   0  0.6349142E-03  0.1232934E+04  0.7818609E-02  0.9084508E-01
        2   -1    0    0  501    0  0.00000000000E+00  0.00000000000E+00  0.22646693188E+04  0.22646693188E+04  0.25500000920E-02 0.  1.
       -2   -1    0    0    0  501  0.00000000000E+00  0.00000000000E+00 -0.16780886351E+03  0.16780886353E+03  0.25500000920E-02 0. -1.
    10030    2    1    2    0    0  0.00000000000E+00  0.00000000000E+00  0.20968604553E+04  0.24324781824E+04  0.12329340366E+04 0.  0.
        1    1    3    3  502    0 -0.38297644448E+03  0.62396280867E+02  0.10334811272E+03  0.40155334057E+03  0.50400001928E-02 0. -1.
       -1    1    3    3    0  502  0.38297644448E+03 -0.62396280867E+02  0.19935123426E+04  0.20309248418E+04  0.50400001928E-02 0.  1.
</event>
<event>
 5   0  0.6585930E-03  0.1175353E+04  0.7818609E-02  0.9134708E-01
       -2   -1    0    0    0  501  0.00000000000E+00  0.00000000000E+00  0.30361161413E+03  0.30361161414E+03  0.25500000920E-02 0. -1.
        2   -1    0    0  501    0  0.00000000000E+00  0.00000000000E+00 -0.11375178345E+04  0.11375178345E+04  0.25500000920E-02 0.  1.
    10030    2    1    2    0    0  0.00000000000E+00  0.00000000000E+00 -0.83390622032E+03  0.14411294486E+04  0.11753529271E+04 0.  0.
        2    1    3    3  502    0  0.14532876842E+03  0.56915686574E+03 -0.39558765758E+03  0.70820165461E+03  0.25500000920E-02 0.  1.
       -2    1    3    3    0  502 -0.14532876842E+03 -0.56915686574E+03 -0.43831856274E+03  0.73292779399E+03  0.25500000920E-02 0. -1.
</event>
<event>
 5   0  0.6349142E-03  0.1027435E+04  0.7818609E-02  0.9278956E-01
       -2   -1    0    0    0  501  0.00000000000E+00  0.00000000000E+00  0.52653913685E+03  0.52653913686E+03  0.25500000920E-02 0. -1.
        2   -1    0    0  501    0  0.00000000000E+00  0.00000000000E+00 -0.50120801602E+03  0.50120801603E+03  0.25500000920E-02 0.  1.
    10030    2    1    2    0    0  0.00000000000E+00  0.00000000000E+00  0.25331120831E+02  0.10277471529E+04  0.10274349345E+04 0.  0.
        1    1    3    3  502    0 -0.43127595159E+03  0.25437373764E+03 -0.10226361521E+03  0.51104089058E+03  0.50400001928E-02 0.  1.
       -1    1    3    3    0  502  0.43127595159E+03 -0.25437373764E+03  0.12759473604E+03  0.51670626231E+03  0.50400001928E-02 0. -1.
</event>
<event>
 5   0  0.6493047E-03  0.1181416E+04  0.7818609E-02  0.9129281E-01
       -2   -1    0    0    0  501  0.00000000000E+00  0.00000000000E+00  0.25235060991E+03  0.25235060992E+03  0.25500000920E-02 0. -1.
        2   -1    0    0  501    0  0.00000000000E+00  0.00000000000E+00 -0.13827416788E+04  0.13827416788E+04  0.25500000920E-02 0.  1.
    10030    2    1    2    0    0  0.00000000000E+00  0.00000000000E+00 -0.11303910689E+04  0.16350922887E+04  0.11814156017E+04 0.  0.
        3    1    3    3  502    0 -0.48919008472E+03  0.17121548661E+03 -0.17297056811E+03  0.54638860665E+03  0.10100000352E+00 0. -1.
       -3    1    3    3    0  502  0.48919008472E+03 -0.17121548661E+03 -0.95742050076E+03  0.10887036821E+04  0.10100000352E+00 0.  1.
</event>
<event>
 5   0  0.2537625E-03  0.1195130E+04  0.7818609E-02  0.9117130E-01
        4   -1    0    0  501    0  0.00000000000E+00  0.00000000000E+00  0.85228302311E+03  0.85228396933E+03  0.12699999809E+01 0. -1.
       -4   -1    0    0    0  501  0.00000000000E+00  0.00000000000E+00 -0.41897120804E+03  0.41897313287E+03  0.12699999809E+01 0.  1.
    10030    2    1    2    0    0  0.00000000000E+00  0.00000000000E+00  0.43331181507E+03  0.12712571022E+04  0.11951299054E+04 0.  0.
        5    1    3    3  502    0  0.38238322107E+03  0.22129033529E+03 -0.21130959492E+03  0.48975521963E+03  0.46999998093E+01 0.  1.
       -5    1    3    3    0  502 -0.38238322107E+03 -0.22129033529E+03  0.64462140999E+03  0.78150188258E+03  0.46999998093E+01 0. -1.
</event>
<event>
 5   0  0.6349142E-03  0.1209077E+04  0.7818609E-02  0.9104949E-01
       -2   -1    0    0    0  501  0.00000000000E+00  0.00000000000E+00  0.18437657383E+03  0.18437657385E+03  0.25500000920E-02 0. -1.
        2   -1    0    0  501    0  0.00000000000E+00  0.00000000000E+00 -0.19821749819E+04  0.19821749819E+04  0.25500000920E-02 0.  1.
    10030    2    1    2    0    0  0.00000000000E+00  0.00000000000E+00 -0.17977984080E+04  0.21665515557E+04  0.12090767253E+04 0.  0.
        1    1    3    3  502    0 -0.46696240824E+03 -0.37723313420E+03 -0.77083241679E+03  0.97700631679E+03  0.50400001928E-02 0. -1.
       -1    1    3    3    0  502  0.46696240824E+03  0.37723313420E+03 -0.10269659912E+04  0.11895452389E+04  0.50400001928E-02 0.  1.
</event>
<event>
 5   0  0.6658994E-03  0.1166170E+04  0.7818609E-02  0.9142995E-01
        2   -1    0    0  501    0  0.00000000000E+00  0.00000000000E+00  0.15032203745E+04  0.15032203745E+04  0.25500000920E-02 0. -1.
       -2   -1    0    0    0  501  0.00000000000E+00  0.00000000000E+00 -0.22617306020E+03  0.22617306021E+03  0.25500000920E-02 0.  1.
    10030    2    1    2    0    0  0.00000000000E+00  0.00000000000E+00  0.12770473143E+04  0.17293934347E+04  0.11661697171E+04 0.  0.
        4    1    3    3  502    0 -0.53315962681E+02  0.36677065698E+03  0.13060623623E+04  0.13576316930E+04  0.12699999809E+01 0. -1.
       -4    1    3    3    0  502  0.53315962681E+02 -0.36677065698E+03 -0.29015047996E+02  0.37176174172E+03  0.12699999809E+01 0.  1.
</event>
<event>
 5   0  0.3701879E-03  0.9913465E+03  0.7818609E-02  0.9318087E-01
        1   -1    0    0  501    0  0.00000000000E+00  0.00000000000E+00  0.14498315729E+04  0.14498315729E+04  0.50400001928E-02 0.  1.
       -1   -1    0    0    0  501  0.00000000000E+00  0.00000000000E+00 -0.16946242712E+03  0.16946242720E+03  0.50400001928E-02 0. -1.
    10030    2    1    2    0    0  0.00000000000E+00  0.00000000000E+00  0.12803691458E+04  0.16192940001E+04  0.99134651325E+03 0.  0.
        1    1    3    3  502    0  0.47877173894E+03 -0.12530704029E+03  0.68544396422E+03  0.84543341574E+03  0.50400001928E-02 0.  1.
       -1    1    3    3    0  502 -0.47877173894E+03  0.12530704029E+03  0.59492518155E+03  0.77386058436E+03  0.50400001928E-02 0. -1.
</event>
<event>
 5   0  0.3648616E-03  0.1210599E+04  0.7818609E-02  0.9103629E-01
        1   -1    0    0  501    0  0.00000000000E+00  0.00000000000E+00  0.78863605880E+03  0.78863605881E+03  0.50400001928E-02 0. -1.
       -1   -1    0    0    0  501  0.00000000000E+00  0.00000000000E+00 -0.46458377647E+03  0.46458377650E+03  0.50400001928E-02 0.  1.
    10030    2    1    2    0    0  0.00000000000E+00  0.00000000000E+00  0.32405228233E+03  0.12532198353E+04  0.12105990558E+04 0.  0.
        2    1    3    3  502    0  0.34524569068E+03 -0.10175476012E+03  0.66582067044E+03  0.75687897536E+03  0.25500000920E-02 0. -1.
       -2    1    3    3    0  502 -0.34524569068E+03  0.10175476012E+03 -0.34176838812E+03  0.49634085996E+03  0.25500000920E-02 0.  1.
</event>
<event>
 5   0  0.3731281E-03  0.1208227E+04  0.7818609E-02  0.9105686E-01
        1   -1    0    0  501    0  0.00000000000E+00  0.00000000000E+00  0.77694843400E+03  0.77694843402E+03  0.50400001928E-02 0.  1.
       -1   -1    0    0    0  501  0.00000000000E+00  0.00000000000E+00 -0.46972628442E+03  0.46972628445E+03  0.50400001928E-02 0. -1.
    10030    2    1    2    0    0  0.00000000000E+00  0.00000000000E+00  0.30722214958E+03  0.12466747185E+04  0.12082269673E+04 0.  0.
        5    1    3    3  502    0 -0.15695920265E+03 -0.35247567038E+03 -0.32599813432E+03  0.50514568501E+03  0.46999998093E+01 0. -1.
       -5    1    3    3    0  502  0.15695920265E+03  0.35247567038E+03  0.63322028390E+03  0.74152903345E+03  0.46999998093E+01 0.  1.
</event>
<event>
 5   0  0.3731281E-03  0.1226336E+04  0.7818609E-02  0.9090112E-01
        1   -1    0    0  501    0  0.00000000000E+00  0.00000000000E+00  0.12743079235E+04  0.12743079236E+04  0.50400001928E-02 0.  1.
       -1   -1    0    0    0  501  0.00000000000E+00  0.00000000000E+00 -0.29504263474E+03  0.29504263478E+03  0.50400001928E-02 0. -1.
    10030    2    1    2    0    0  0.00000000000E+00  0.00000000000E+00  0.97926528881E+03  0.15693505583E+04  0.12263362790E+04 0.  0.
        5    1    3    3  502    0  0.43237570522E+03  0.10669052146E+03 -0.49701737663E+02  0.44813387571E+03  0.46999998093E+01 0. -1.
       -5    1    3    3    0  502 -0.43237570522E+03 -0.10669052146E+03  0.10289670265E+04  0.11212166826E+04  0.46999998093E+01 0.  1.
</event>
<event>
 5   0  0.3772254E-03  0.1206582E+04  0.7818609E-02  0.9107114E-01
       -1   -1    0    0    0  501  0.00000000000E+00  0.00000000000E+00  0.22713863244E+03  0.22713863250E+03  0.50400001928E-02 0. -1.
        1   -1    0    0  501    0  0.00000000000E+00  0.00000000000E+00 -0.16023706653E+04  0.16023706653E+04  0.50400001928E-02 0.  1.
    10030    2    1    2    0    0  0.00000000000E+00  0.00000000000E+00 -0.13752320328E+04  0.18295092978E+04  0.12065824160E+04 0.  0.
        3    1    3    3  502    0 -0.28252962252E+03 -0.34152222856E+03 -0.67054496811E+02  0.44828198262E+03  0.10100000352E+00 0.  1.
       -3    1    3    3    0  502  0.28252962252E+03  0.34152222856E+03 -0.13081775360E+04  0.13812273152E+04  0.10100000352E+00 0. -1.
</event>
<event>
 5   0  0.6658994E-03  0.1216569E+04  0.7818609E-02  0.9098476E-01
       -2   -1    0    0    0  501  0.00000000000E+00  0.00000000000E+00  0.42054755728E+03  0.42054755729E+03  0.25500000920E-02 0. -1.
        2   -1    0    0  501    0  0.00000000000E+00  0.00000000000E+00 -0.87982991506E+03  0.87982991507E+03  0.25500000920E-02 0.  1.
    10030    2    1    2    0    0  0.00000000000E+00  0.00000000000E+00 -0.45928235778E+03  0.13003774724E+04  0.12165694746E+04 0.  0.
        4    1    3    3  502    0  0.35540897520E+02  0.47948954632E+03 -0.62791569418E+03  0.79085593652E+03  0.12699999809E+01 0.  1.
       -4    1    3    3    0  502 -0.35540897520E+02 -0.47948954632E+03  0.16863333640E+03  0.50952153583E+03  0.12699999809E+01 0. -1.
</event>
<event>
 5   0  0.3701879E-03  0.1265084E+04  0.7818609E-02  0.9057722E-01
        1   -1    0    0  501    0  0.00000000000E+00  0.00000000000E+00  0.92111560912E+03  0.92111560914E+03  0.50400001928E-02 0.  1.
       -1   -1    0    0    0  501  0.00000000000E+00  0.00000000000E+00 -0.43437451018E+03  0.43437451021E+03  0.50400001928E-02 0. -1.
    10030    2    1    2    0    0  0.00000000000E+00  0.00000000000E+00  0.48674109894E+03  0.13554901193E+04  0.12650836203E+04 0.  0.
        1    1    3    3  502    0  0.52952994819E+03  0.33215129331E+03  0.34715705672E+03  0.71501361506E+03  0.50400001928E-02 0.  1.
       -1    1    3    3    0  502 -0.52952994819E+03 -0.33215129331E+03  0.13958404222E+03  0.64047650428E+03  0.50400001928E-02 0. -1.
</event>
<event>
 5   0  0.6640844E-03  0.1228309E+04  0.7818609E-02  0.9088433E-01
        2   -1    0    0  501    0  0.00000000000E+00  0.00000000000E+00  0.16925076612E+04  0.16925076612E+04  0.25500000920E-02 0.  1.
       -2   -1    0    0    0  501  0.00000000000E+00  0.00000000000E+00 -0.22285604292E+03  0.22285604293E+03  0.25500000920E-02 0. -1.
    10030    2    1    2    0    0  0.00000000000E+00  0.00000000000E+00  0.14696516183E+04  0.19153637042E+04  0.12283086909E+04 0.  0.
        5    1    3    3  502    0  0.33697981150E+03  0.49640277561E+03  0.53036433402E+03  0.80079930431E+03  0.46999998093E+01 0. -1.
       -5    1    3    3    0  502 -0.33697981150E+03 -0.49640277561E+03  0.93928728429E+03  0.11145643999E+04  0.46999998093E+01 0.  1.
</event>
<event>
 5   0  0.6640844E-03  0.1196910E+04  0.7818609E-02  0.9115566E-01
       -2   -1    0    0    0  501  0.00000000000E+00  0.00000000000E+00  0.34171287304E+03  0.34171287305E+03  0.25500000920E-02 0. -1.
        2   -1    0    0  501    0  0.00000000000E+00  0.00000000000E+00 -0.10480969140E+04  0.10480969140E+04  0.25500000920E-02 0.  1.
    10030    2    1    2    0    0  0.00000000000E+00  0.00000000000E+00 -0.70638404092E+03  0.13898097870E+04  0.11969097003E+04 0.  0.
        5    1    3    3  502    0 -0.34397597925E+03  0.25792098654E+02  0.21464195283E+03  0.40629787664E+03  0.46999998093E+01 0. -1.
       -5    1    3    3    0  502  0.34397597925E+03 -0.25792098654E+02 -0.92102599375E+03  0.98351191036E+03  0.46999998093E+01 0.  1.
</event>
<event>
 5   0  0.6640844E-03  0.1180766E+04  0.7818609E-02  0.9129860E-01
       -2   -1    0    0    0  501  0.00000000000E+00  0.00000000000E+00  0.13392767996E+03  0.13392767998E+03  0.25500000920E-02 0.  1.
        2   -1    0    0  501    0  0.00000000000E+00  0.00000000000E+00 -0.26025414177E+04  0.26025414177E+04  0.25500000920E-02 0. -1.
    10030    2    1    2    0    0  0.00000000000E+00  0.00000000000E+00 -0.24686137377E+04  0.27364690976E+04  0.11807664191E+04 0.  0.
        5    1    3    3  502    0 -0.39382257785E+02 -0.50944356375E+03 -0.54897983584E+03  0.74998977128E+03  0.46999998093E+01 0.  1.
       -5    1    3    3    0  502  0.39382257785E+02  0.50944356375E+03 -0.19196339019E+04  0.19864793264E+04  0.46999998093E+01 0. -1.
</event>
<event>
 5   0  0.6585930E-03  0.1196753E+04  0.7818609E-02  0.9115703E-01
        2   -1    0    0  501    0  0.00000000000E+00  0.00000000000E+00  0.75348426143E+03  0.75348426144E+03  0.25500000920E-02 0. -1.
       -2   -1    0    0    0  501  0.00000000000E+00  0.00000000000E+00 -0.47519857996E+03  0.47519857997E+03  0.25500000920E-02 0.  1.
    10030    2    1    2    0    0  0.00000000000E+00  0.00000000000E+00  0.27828568147E+03  0.12286828414E+04  0.11967533598E+04 0.  0.
        2    1    3    3  502    0  0.70427920601E+02 -0.23616153916E+03  0.69896343374E+03  0.74113578128E+03  0.25500000920E-02 0. -1.
       -2    1    3    3    0  502 -0.70427920601E+02  0.23616153916E+03 -0.42067775227E+03  0.48754706013E+03  0.25500000920E-02 0.  1.
</event>
<event>
 5   0  0.3944074E-03  0.6290617E+03  0.7818609E-02  0.9846882E-01
        1   -1    0    0  501    0  0.00000000000E+00  0.00000000000E+00  0.20498364785E+03  0.20498364791E+03  0.50400001928E-02 0.  1.
       -1   -1    0    0    0  501  0.00000000000E+00  0.00000000000E+00 -0.48262212650E+03  0.48262212652E+03  0.50400001928E-02 0. -1.
    10030    2    1    2    0    0  0.00000000000E+00  0.00000000000E+00 -0.27763847865E+03  0.68760577443E+03  0.62906166328E+03 0.  0.
        4    1    3    3  502    0  0.20212514686E+02  0.28112422918E+03  0.13774673584E+02  0.28218917860E+03  0.12699999809E+01 0.  1.
       -4    1    3    3    0  502 -0.20212514686E+02 -0.28112422918E+03 -0.29141315224E+03  0.40541659584E+03  0.12699999809E+01 0. -1.
</event>
<event>
 5   0  0.6349142E-03  0.1270371E+04  0.7818609E-02  0.9053397E-01
       -2   -1    0    0    0  501  0.00000000000E+00  0.00000000000E+00  0.48748656723E+03  0.48748656724E+03  0.25500000920E-02 0.  1.
        2   -1    0    0  501    0  0.00000000000E+00  0.00000000000E+00 -0.82763423787E+03  0.82763423788E+03  0.25500000920E-02 0. -1.
    10030    2    1    2    0    0  0.00000000000E+00  0.00000000000E+00 -0.34014767064E+03  0.13151208051E+04  0.12703709278E+04 0.  0.
        1    1    3    3  502    0 -0.45436053138E+03 -0.25573908061E+03  0.20549291997E+03  0.56042243889E+03  0.50400001928E-02 0. -1.
       -1    1    3    3    0  502  0.45436053138E+03  0.25573908061E+03 -0.54564059061E+03  0.75469836622E+03  0.50400001928E-02 0.  1.
</event>
<event>
 5   0  0.6640844E-03  0.9479655E+03  0.7818609E-02  0.9367532E-01
       -2   -1    0    0    0  501  0.00000000000E+00  0.00000000000E+00  0.91318476640E+02  0.91318476676E+02  0.25500000920E-02 0. -1.
        2   -1    0    0  501    0  0.00000000000E+00  0.00000000000E+00 -0.24601773076E+04  0.24601773076E+04  0.25500000920E-02 0.  1.
    10030    2    1    2    0    0  0.00000000000E+00  0.00000000000E+00 -0.23688588310E+04  0.25514957843E+04  0.94796549313E+03 0.  0.
        5    1    3    3  502    0 -0.23310227728E+02  0.43777691766E+03 -0.16692487688E+04  0.17258637080E+04  0.46999998093E+01 0.  1.
       -5    1    3    3    0  502  0.23310227728E+02 -0.43777691766E+03 -0.69961006213E+03  0.82563207628E+03  0.46999998093E+01 0. -1.
</event>
<event>
 5   0  0.6658994E-03  0.9158924E+03  0.7818609E-02  0.9405930E-01
       -2   -1    0    0    0  501  0.00000000000E+00  0.00000000000E+00  0.22888719896E+03  0.22888719897E+03  0.25500000920E-02 0.  1.
        2   -1    0    0  501    0  0.00000000000E+00  0.00000000000E+00 -0.91623605124E+03  0.91623605124E+03  0.25500000920E-02 0. -1.
    10030    2    1    2    0    0  0.00000000000E+00  0.00000000000E+00 -0.68734885228E+03  0.11451232502E+04  0.91589235910E+03 0.  0.
        4    1    3    3  502    0  0.20473293238E+03 -0.38369973440E+03 -0.52300171320E+03  0.68020104726E+03  0.12699999809E+01 0. -1.
       -4    1    3    3    0  502 -0.20473293238E+03  0.38369973440E+03 -0.16434713908E+03  0.46492220296E+03  0.12699999809E+01 0.  1.
</event>
<event>
 5   0  0.6493047E-03  0.1205225E+04  0.7818609E-02  0.9108296E-01
       -2   -1    0    0    0  501  0.00000000000E+00  0.00000000000E+00  0.13658244399E+04  0.13658244399E+04  0.25500000920E-02 0.  1.
        2   -1    0    0  501    0  0.00000000000E+00  0.00000000000E+00 -0.26587724265E+03  0.26587724266E+03  0.25500000920E-02 0. -1.
    10030    2    1    2    0    0  0.00000000000E+00  0.00000000000E+00  0.10999471972E+04  0.16317016825E+04  0.12052246862E+04 0.  0.
        3    1    3    3  502    0 -0.86095411698E+02 -0.44752241204E+03  0.16181486106E+02  0.45601598644E+03  0.10100000352E+00 0. -1.
       -3    1    3    3    0  502  0.86095411698E+02  0.44752241204E+03  0.10837657111E+04  0.11756856961E+04  0.10100000352E+00 0.  1.
</event>
<event>
 5   0  0.6640844E-03  0.1190221E+04  0.7818609E-02  0.9121459E-01
        2   -1    0    0  501    0  0.00000000000E+00  0.00000000000E+00  0.15579797469E+04  0.15579797469E+04  0.25500000920E-02 0. -1.
       -2   -1    0    0    0  501  0.00000000000E+00  0.00000000000E+00 -0.22731786759E+03  0.22731786760E+03  0.25500000920E-02 0.  1.
    10030    2    1    2    0    0  0.00000000000E+00  0.00000000000E+00  0.13306618793E+04  0.17852976145E+04  0.11902212128E+04 0.  0.
        5    1    3    3  502    0 -0.25769233142E+03  0.43347154176E+03  0.11392640126E+04  0.12458922488E+04  0.46999998093E+01 0. -1.
       -5    1    3    3    0  502  0.25769233142E+03 -0.43347154176E+03  0.19139786673E+03  0.53940536573E+03  0.46999998093E+01 0.  1.
</event>
<event>
 5   0  0.3944074E-03  0.1200059E+04  0.7818609E-02  0.9112805E-01
        1   -1    0    0  501    0  0.00000000000E+00  0.00000000000E+00  0.78634098681E+03  0.78634098683E+03  0.50400001928E-02 0. -1.
       -1   -1    0    0    0  501  0.00000000000E+00  0.00000000000E+00 -0.45786137033E+03  0.45786137036E+03  0.50400001928E-02 0.  1.
    10030    2    1    2    0    0  0.00000000000E+00  0.00000000000E+00  0.32847961648E+03  0.12442023572E+04  0.12000586016E+04 0.  0.
        4    1    3    3  502    0 -0.15629423776E+03 -0.52181504411E+03 -0.96640266696E+02  0.55322670133E+03  0.12699999809E+01 0.  1.
       -4    1    3    3    0  502  0.15629423776E+03  0.52181504411E+03  0.42511988318E+03  0.69097565586E+03  0.12699999809E+01 0. -1.
</event>
<event>
 5   0  0.3772254E-03  0.1218551E+04  0.7818609E-02  0.9096772E-01
       -1   -1    0    0    0  501  0.00000000000E+00  0.00000000000E+00  0.13994056367E+03  0.13994056376E+03  0.50400001928E-02 0.  1.
        1   -1    0    0  501    0  0.00000000000E+00  0.00000000000E+00 -0.26526749529E+04  0.26526749529E+04  0.50400001928E-02 0. -1.
    10030    2    1    2    0    0  0.00000000000E+00  0.00000000000E+00 -0.25127343892E+04  0.27926155167E+04  0.12185513174E+04 0.  0.
        3    1    3    3  502    0 -0.16266049887E+03  0.40278354942E+03 -0.22354672277E+04  0.22772805628E+04  0.10100000352E+00 0. -1.
       -3    1    3    3    0  502  0.16266049887E+03 -0.40278354942E+03 -0.27726716154E+03  0.51533495383E+03  0.10100000352E+00 0.  1.
</event>
<event>
 5   0  0.3731281E-03  0.1193329E+04  0.7818609E-02  0.9118715E-01
       -1   -1    0    0    0  501  0.00000000000E+00  0.00000000000E+00  0.29663552929E+03  0.29663552933E+03  0.50400001928E-02 0. -1.
        1   -1    0    0  501    0  0.00000000000E+00  0.00000000000E+00 -0.12001554471E+04  0.12001554471E+04  0.50400001928E-02 0.  1.
    10030    2    1    2    0    0  0.00000000000E+00  0.00000000000E+00 -0.90351991779E+03  0.14967909764E+04  0.11933293700E+04 0.  0.
        5    1    3    3  502    0 -0.13638457863E+03 -0.50793975068E+03 -0.80515861108E+03  0.96172034532E+03  0.46999998093E+01 0.  1.
       -5    1    3    3    0  502  0.13638457863E+03  0.50793975068E+03 -0.98361306714E+02  0.53507063110E+03  0.46999998093E+01 0. -1.
</event>
<event>
 5   0  0.6349142E-03  0.1237507E+04  0.7818609E-02  0.9080645E-01
       -2   -1    0    0    0  501  0.00000000000E+00  0.00000000000E+00  0.15692489240E+03  0.15692489242E+03  0.25500000920E-02 0.  1.
        2   -1    0    0  501    0  0.00000000000E+00  0.00000000000E+00 -0.24397416804E+04  0.24397416804E+04  0.25500000920E-02 0. -1.
    10030    2    1    2    0    0  0.00000000000E+00  0.00000000000E+00 -0.22828167880E+04  0.25966665728E+04  0.12375074961E+04 0.  0.
        1    1    3    3  502    0  0.31190793203E+03  0.53347469585E+03 -0.12069074581E+04  0.13559157133E+04  0.50400001928E-02 0. -1.
       -1    1    3    3    0  502 -0.31190793203E+03 -0.53347469585E+03 -0.10759093299E+04  0.12407508595E+04  0.50400001928E-02 0.  1.
</event>
<event>
 5   0  0.6640844E-03  0.1184584E+04  0.7818609E-02  0.9126458E-01
        2   -1    0    0  501    0  0.00000000000E+00  0.00000000000E+00  0.13878624888E+04  0.13878624888E+04  0.25500000920E-02 0. -1.
       -2   -1    0    0    0  501  0.00000000000E+00  0.00000000000E+00 -0.25276977079E+03  0.25276977080E+03  0.25500000920E-02 0.  1.
    10030    2    1    2    0    0  0.00000000000E+00  0.00000000000E+00  0.11350927180E+04  0.16406322596E+04  0.11845837804E+04 0.  0.
        5    1    3    3  502    0  0.12892432083E+03  0.43289903265E+03  0.10981326615E+04  0.11874091482E+04  0.46999998093E+01 0. -1.
       -5    1    3    3    0  502 -0.12892432083E+03 -0.43289903265E+03  0.36960056554E+02  0.45322311145E+03  0.46999998093E+01 0.  1.
</event>
<event>
 5   0  0.3731281E-03  0.1171829E+04  0.7818609E-02  0.9137878E-01
        1   -1    0    0  501    0  0.00000000000E+00  0.00000000000E+00  0.15504884113E+04  0.15504884113E+04  0.50400001928E-02 0. -1.
       -1   -1    0    0    0  501  0.00000000000E+00  0.00000000000E+00 -0.22141152493E+03  0.22141152499E+03  0.50400001928E-02 0.  1.
    10030    2    1    2    0    0  0.00000000000E+00  0.00000000000E+00  0.13290768864E+04  0.17718999363E+04  0.11718293452E+04 0.  0.
        5    1    3    3  502    0  0.95444802735E+02 -0.44374680507E+03  0.12247289028E+04  0.13061408472E+04  0.46999998093E+01 0. -1.
       -5    1    3    3    0  502 -0.95444802735E+02  0.44374680507E+03  0.10434798355E+03  0.46575908907E+03  0.46999998093E+01 0.  1.
</event>
<event>
 5   0  0.3701879E-03  0.1188451E+04  0.7818609E-02  0.9123026E-01
        1   -1    0    0  501    0  0.00000000000E+00  0.00000000000E+00  0.85596256895E+03  0.85596256897E+03  0.50400001928E-02 0.  1.
       -1   -1    0    0    0  501  0.00000000000E+00  0.00000000000E+00 -0.41252231021E+03  0.41252231024E+03  0.50400001928E-02 0. -1.
    10030    2    1    2    0    0  0.00000000000E+00  0.00000000000E+00  0.44344025874E+03  0.12684848792E+04  0.11884505146E+04 0.  0.
        1    1    3    3  502    0 -0.39292554608E+03 -0.43471401957E+03  0.32704098691E+03  0.67106078020E+03  0.50400001928E-02 0. -1.
       -1    1    3    3    0  502  0.39292554608E+03  0.43471401957E+03  0.11639927183E+03  0.59742409901E+03  0.50400001928E-02 0.  1.
</event>
<event>
 5   0  0.6658994E-03  0.1191304E+04  0.7818609E-02  0.9120502E-01
       -2   -1    0    0    0  501  0.00000000000E+00  0.00000000000E+00  0.49027793817E+03  0.49027793817E+03  0.25500000920E-02 0. -1.
        2   -1    0    0  501    0  0.00000000000E+00  0.00000000000E+00 -0.72367425073E+03  0.72367425074E+03  0.25500000920E-02 0.  1.
    10030    2    1    2    0    0  0.00000000000E+00  0.00000000000E+00 -0.23339631257E+03  0.12139521889E+04  0.11913043600E+04 0.  0.
        4    1    3    3  502    0 -0.45742149546E+03  0.38142744550E+03 -0.12573155869E+03  0.60871287028E+03  0.12699999809E+01 0.  1.
       -4    1    3    3    0  502  0.45742149546E+03 -0.38142744550E+03 -0.10766475388E+03  0.60523931863E+03  0.12699999809E+01 0. -1.
</event>
<event>
 5   0  0.3701879E-03  0.1227764E+04  0.7818609E-02  0.9088896E-01
        1   -1    0    0  501    0  0.00000000000E+00  0.00000000000E+00  0.29846225426E+03  0.29846225430E+03  0.50400001928E-02 0.  1.
       -1   -1    0    0    0  501  0.00000000000E+00  0.00000000000E+00 -0.12626424737E+04  0.12626424737E+04  0.50400001928E-02 0. -1.
    10030    2    1    2    0    0  0.00000000000E+00  0.00000000000E+00 -0.96418021947E+03  0.15611047280E+04  0.12277640149E+04 0.  0.
        1    1    3    3  502    0  0.12847456218E+03 -0.22041555842E+03  0.22786190847E+03  0.34206692456E+03  0.50400001928E-02 0.  1.
       -1    1    3    3    0  502 -0.12847456218E+03  0.22041555842E+03 -0.11920421279E+04  0.12190378035E+04  0.50400001928E-02 0. -1.
</event>
<event>
 5   0  0.6658994E-03  0.7334832E+03  0.7818609E-02  0.9661625E-01
       -2   -1    0    0    0  501  0.00000000000E+00  0.00000000000E+00  0.40040173994E+03  0.40040173995E+03  0.25500000920E-02 0.  1.
        2   -1    0    0  501    0  0.00000000000E+00  0.00000000000E+00 -0.33591116302E+03  0.33591116303E+03  0.25500000920E-02 0. -1.
    10030    2    1    2    0    0  0.00000000000E+00  0.00000000000E+00  0.64490576922E+02  0.73631290298E+03  0.73348323538E+03 0.  0.
        4    1    3    3  502    0 -0.28387077961E+03  0.39190255271E+02 -0.19750289563E+03  0.34803376604E+03  0.12699999809E+01 0. -1.
       -4    1    3    3    0  502  0.28387077961E+03 -0.39190255271E+02  0.26199347255E+03  0.38827913694E+03  0.12699999809E+01 0.  1.
</event>
<event>
 5   0  0.6349142E-03  0.1204399E+04  0.7818609E-02  0.9109015E-01
       -2   -1    0    0    0  501  0.00000000000E+00  0.00000000000E+00  0.28939983184E+03  0.28939983185E+03  0.25500000920E-02 0. -1.
        2   -1    0    0  501    0  0.00000000000E+00  0.00000000000E+00 -0.12530908968E+04  0.12530908968E+04  0.25500000920E-02 0.  1.
    10030    2    1    2    0    0  0.00000000000E+00  0.00000000000E+00 -0.96369106500E+03  0.15424907287E+04  0.12043990947E+04 0.  0.
        1    1    3    3  502    0  0.12026022283E+03 -0.58911499954E+03 -0.43888352657E+03  0.74440429459E+03  0.50400001928E-02 0.  1.
       -1    1    3    3    0  502 -0.12026022283E+03  0.58911499954E+03 -0.52480753844E+03  0.79808643411E+03  0.50400001928E-02 0. -1.
</event>
<event>
 5   0  0.6640844E-03  0.1204061E+04  0.7818609E-02  0.9109309E-01
        2   -1    0    0  501    0  0.00000000000E+00  0.00000000000E+00  0.15586541820E+04  0.15586541820E+04  0.25500000920E-02 0. -1.
       -2   -1    0    0    0  501  0.00000000000E+00  0.00000000000E+00 -0.23253438572E+03  0.23253438573E+03  0.25500000920E-02 0.  1.
    10030    2    1    2    0    0  0.00000000000E+00  0.00000000000E+00  0.13261197963E+04  0.17911885677E+04  0.12040609499E+04 0.  0.
        5    1    3    3  502    0 -0.34417566032E+03 -0.45506990399E+03  0.37740106142E+03  0.68410463661E+03  0.46999998093E+01 0.  1.
       -5    1    3    3    0  502  0.34417566032E+03  0.45506990399E+03  0.94871873486E+03  0.11070839311E+04  0.46999998093E+01 0. -1.
</event>
<event>
 5   0  0.3701879E-03  0.1177012E+04  0.7818609E-02  0.9133219E-01
        1   -1    0    0  501    0  0.00000000000E+00  0.00000000000E+00  0.78831160710E+03  0.78831160711E+03  0.50400001928E-02 0. -1.
       -1   -1    0    0    0  501  0.00000000000E+00  0.00000000000E+00 -0.43934326587E+03  0.43934326590E+03  0.50400001928E-02 0.  1.
    10030    2    1    2    0    0  0.00000000000E+00  0.00000000000E+00  0.34896834123E+03  0.12276548730E+04  0.11770121427E+04 0.  0.
        1    1    3    3  502    0  0.75755239835E+02 -0.39521976017E+03  0.62238103483E+03  0.74114483587E+03  0.50400001928E-02 0. -1.
       -1    1    3    3    0  502 -0.75755239835E+02  0.39521976017E+03 -0.27341269360E+03  0.48651003715E+03  0.50400001928E-02 0.  1.
</event>
<event>
 5   0  0.3731281E-03  0.1194473E+04  0.7818609E-02  0.9117708E-01
       -1   -1    0    0    0  501  0.00000000000E+00  0.00000000000E+00  0.49238437780E+03  0.49238437783E+03  0.50400001928E-02 0. -1.
        1   -1    0    0  501    0  0.00000000000E+00  0.00000000000E+00 -0.72441721986E+03  0.72441721987E+03  0.50400001928E-02 0.  1.
    10030    2    1    2    0    0  0.00000000000E+00  0.00000000000E+00 -0.23203284205E+03  0.12168015977E+04  0.11944734775E+04 0.  0.
        5    1    3    3  502    0  0.10946471134E+03  0.32610376625E+03 -0.61334665786E+03  0.70323708811E+03  0.46999998093E+01 0.  1.
       -5    1    3    3    0  502 -0.10946471134E+03 -0.32610376625E+03  0.38131381581E+03  0.51356450959E+03  0.46999998093E+01 0. -1.
</event>
<event>
 5   0  0.6658994E-03  0.1044838E+04  0.7818609E-02  0.9260690E-01
        2   -1    0    0  501    0  0.00000000000E+00  0.00000000000E+00  0.18241954777E+04  0.18241954777E+04  0.25500000920E-02 0.  1.
       -2   -1    0    0    0  501  0.00000000000E+00  0.00000000000E+00 -0.14961200492E+03  0.14961200494E+03  0.25500000920E-02 0. -1.
    10030    2    1    2    0    0  0.00000000000E+00  0.00000000000E+00  0.16745834728E+04  0.19738074826E+04  0.10448378684E+04 0.  0.
        4    1    3    3  502    0 -0.47118449191E+03 -0.11236545770E+03  0.46768762515E+03  0.67333063878E+03  0.12699999809E+01 0. -1.
       -4    1    3    3    0  502  0.47118449191E+03  0.11236545770E+03  0.12068958476E+04  0.13004768438E+04  0.12699999809E+01 0.  1.
</event>
<event>
 5   0  0.3944074E-03  0.1233488E+04  0.7818609E-02  0.9084039E-01
        1   -1    0    0  501    0  0.00000000000E+00  0.00000000000E+00  0.24010777149E+03  0.24010777154E+03  0.50400001928E-02 0. -1.
       -1   -1    0    0    0  501  0.00000000000E+00  0.00000000000E+00 -0.15841778532E+04  0.15841778532E+04  0.50400001928E-02 0.  1.
    10030    2    1    2    0    0  0.00000000000E+00  0.00000000000E+00 -0.13440700817E+04  0.18242856248E+04  0.12334884094E+04 0.  0.
        4    1    3    3  502    0  0.15225696813E+03  0.54443648909E+03 -0.30742145643E+03  0.64350822821E+03  0.12699999809E+01 0. -1.
       -4    1    3    3    0  502 -0.15225696813E+03 -0.54443648909E+03 -0.10366486253E+04  0.11807773966E+04  0.12699999809E+01 0.  1.
</event>
<event>
 5   0  0.6658994E-03  0.1186661E+04  0.7818609E-02  0.9124613E-01
        2   -1    0    0  501    0  0.00000000000E+00  0.00000000000E+00  0.86750115007E+03  0.86750115007E+03  0.25500000920E-02 0.  1.
       -2   -1    0    0    0  501  0.00000000000E+00  0.00000000000E+00 -0.40581077375E+03  0.40581077376E+03  0.25500000920E-02 0. -1.
    10030    2    1    2    0    0  0.00000000000E+00  0.00000000000E+00  0.46169037632E+03  0.12733119238E+04  0.11866613889E+04 0.  0.
        4    1    3    3  502    0  0.55931043732E+03 -0.16202756107E+03  0.35299339818E+03  0.68094570114E+03  0.12699999809E+01 0.  1.
       -4    1    3    3    0  502 -0.55931043732E+03  0.16202756107E+03  0.10869697814E+03  0.59236622270E+03  0.12699999809E+01 0. -1.
</event>
<event>
 5   0  0.2537625E-03  0.1106999E+04  0.7818609E-02  0.9198397E-01
       -4   -1    0    0    0  501  0.00000000000E+00  0.00000000000E+00  0.41603005254E+03  0.41603199098E+03  0.12699999809E+01 0.  1.
        4   -1    0    0  501    0  0.00000000000E+00  0.00000000000E+00 -0.73638845330E+03  0.73638954844E+03  0.12699999809E+01 0. -1.
    10030    2    1    2    0    0  0.00000000000E+00  0.00000000000E+00 -0.32035840076E+03  0.11524215394E+04  0.11069985996E+04 0.  0.
        5    1    3    3  502    0 -0.35307702273E+02 -0.19543454785E+03  0.37764089720E+03  0.42670368357E+03  0.46999998093E+01 0.  1.
       -5    1    3    3    0  502  0.35307702273E+02  0.19543454785E+03 -0.69799929797E+03  0.72571785585E+03  0.46999998093E+01 0. -1.
</event>
<event>
 5   0  0.6349142E-03  0.1178796E+04  0.7818609E-02  0.9131621E-01
       -2   -1    0    0    0  501  0.00000000000E+00  0.00000000000E+00  0.22317535805E+03  0.22317535806E+03  0.25500000920E-02 0.  1.
        2   -1    0    0  501    0  0.00000000000E+00  0.00000000000E+00 -0.15565791728E+04  0.15565791728E+04  0.25500000920E-02 0. -1.
    10030    2    1    2    0    0  0.00000000000E+00  0.00000000000E+00 -0.13334038147E+04  0.17797545309E+04  0.11787961897E+04 0.  0.
        1    1    3    3  502    0  0.34777470716E+03 -0.44577857292E+03 -0.41530963538E+03  0.70153251976E+03  0.50400001928E-02 0.  1.
       -1    1    3    3    0  502 -0.34777470716E+03  0.44577857292E+03 -0.91809417937E+03  0.10782220111E+04  0.50400001928E-02 0. -1.
</event>
<event>
 5   0  0.3701879E-03  0.1212871E+04  0.7818609E-02  0.9101664E-01
        1   -1    0    0  501    0  0.00000000000E+00  0.00000000000E+00  0.87696528099E+03  0.87696528100E+03  0.50400001928E-02 0. -1.
       -1   -1    0    0    0  501  0.00000000000E+00  0.00000000000E+00 -0.41936008758E+03  0.41936008761E+03  0.50400001928E-02 0.  1.
    10030    2    1    2    0    0  0.00000000000E+00  0.00000000000E+00  0.45760519341E+03  0.12963253686E+04  0.12128713651E+04 0.  0.
        1    1    3    3  502    0 -0.27473649033E+03  0.32354084091E+03 -0.23413448586E+03  0.48474505913E+03  0.50400001928E-02 0.  1.
       -1    1    3    3    0  502  0.27473649033E+03 -0.32354084091E+03  0.69173967926E+03  0.81158030949E+03  0.50400001928E-02 0. -1.
</event>
<event>
 5   0  0.3701879E-03  0.1222668E+04  0.7818609E-02  0.9093243E-01
       -1   -1    0    0    0  501  0.00000000000E+00  0.00000000000E+00  0.54562870502E+03  0.54562870504E+03  0.50400001928E-02 0.  1.
        1   -1    0    0  501    0  0.00000000000E+00  0.00000000000E+00 -0.68495205468E+03  0.68495205469E+03  0.50400001928E-02 0. -1.
    10030    2    1    2    0    0  0.00000000000E+00  0.00000000000E+00 -0.13932334966E+03  0.12305807597E+04  0.12226683976E+04 0.  0.
        1    1    3    3  502    0  0.33383262016E+02  0.18743426369E+03  0.51503103397E+03  0.54909289866E+03  0.50400001928E-02 0.  1.
       -1    1    3    3    0  502 -0.33383262016E+02 -0.18743426369E+03 -0.65435438363E+03  0.68148786107E+03  0.50400001928E-02 0. -1.
</event>
<event>
 5   0  0.3772254E-03  0.1172472E+04  0.7818609E-02  0.9137299E-01
        1   -1    0    0  501    0  0.00000000000E+00  0.00000000000E+00  0.60246111367E+03  0.60246111369E+03  0.50400001928E-02 0. -1.
       -1   -1    0    0    0  501  0.00000000000E+00  0.00000000000E+00 -0.57044779017E+03  0.57044779019E+03  0.50400001928E-02 0.  1.
    10030    2    1    2    0    0  0.00000000000E+00  0.00000000000E+00  0.32013323508E+02  0.11729089039E+04  0.11724719374E+04 0.  0.
        3    1    3    3  502    0 -0.32527981962E+03 -0.26866937053E+03  0.42319940217E+03  0.59756835251E+03  0.10100000352E+00 0. -1.
       -3    1    3    3    0  502  0.32527981962E+03  0.26866937053E+03 -0.39118607866E+03  0.57534055138E+03  0.10100000352E+00 0.  1.
</event>
<event>
 5   0  0.6493047E-03  0.1184715E+04  0.7818609E-02  0.9126341E-01
        2   -1    0    0  501    0  0.00000000000E+00  0.00000000000E+00  0.17557498491E+04  0.17557498491E+04  0.25500000920E-02 0.  1.
       -2   -1    0    0    0  501  0.00000000000E+00  0.00000000000E+00 -0.19985059093E+03  0.19985059095E+03  0.25500000920E-02 0. -1.
    10030    2    1    2    0    0  0.00000000000E+00  0.00000000000E+00  0.15558992582E+04  0.19556004401E+04  0.11847154002E+04 0.  0.
        3    1    3    3  502    0 -0.10952402084E+03 -0.29636686549E+03 -0.49142371934E+02  0.31975586471E+03  0.10100000352E+00 0. -1.
       -3    1    3    3    0  502  0.10952402084E+03  0.29636686549E+03  0.16050416301E+04  0.16358445754E+04  0.10100000352E+00 0.  1.
</event>
<event>
 5   0  0.6585930E-03  0.1222181E+04  0.7818609E-02  0.9093660E-01
        2   -1    0    0  501    0  0.00000000000E+00  0.00000000000E+00  0.22721775070E+04  0.22721775070E+04  0.25500000920E-02 0.  1.
       -2   -1    0    0    0  501  0.00000000000E+00  0.00000000000E+00 -0.16434977159E+03  0.16434977161E+03  0.25500000920E-02 0. -1.
    10030    2    1    2    0    0  0.00000000000E+00  0.00000000000E+00  0.21078277354E+04  0.24365272786E+04  0.12221814175E+04 0.  0.
        2    1    3    3  502    0  0.23344969358E+03 -0.51764636274E+03  0.15040207555E+04  0.16076488887E+04  0.25500000920E-02 0.  1.
       -2    1    3    3    0  502 -0.23344969358E+03  0.51764636274E+03  0.60380697986E+03  0.82887838989E+03  0.25500000920E-02 0. -1.
</event>
<event>
 5   0  0.3648616E-03  0.1113514E+04  0.7818609E-02  0.9192119E-01
        1   -1    0    0  501    0  0.00000000000E+00  0.00000000000E+00  0.20285773496E+04  0.20285773497E+04  0.50400001928E-02 0. -1.
       -1   -1    0    0    0  501  0.00000000000E+00  0.00000000000E+00 -0.15280588867E+03  0.15280588875E+03  0.50400001928E-02 0.  1.
    10030    2    1    2    0    0  0.00000000000E+00  0.00000000000E+00  0.18757714610E+04  0.21813832384E+04  0.11135143731E+04 0.  0.
        2    1    3    3  502    0  0.48156152746E+02 -0.13087710780E+03  0.19938085705E+04  0.19986796762E+04  0.25500000920E-02 0. -1.
       -2    1    3    3    0  502 -0.48156152746E+02  0.13087710780E+03 -0.11803710953E+03  0.18270356216E+03  0.25500000920E-02 0.  1.
</event>
<event>
 5   0  0.6349142E-03  0.1225806E+04  0.7818609E-02  0.9090563E-01
        2   -1    0    0  501    0  0.00000000000E+00  0.00000000000E+00  0.30834125923E+03  0.30834125924E+03  0.25500000920E-02 0. -1.
       -2   -1    0    0    0  501  0.00000000000E+00  0.00000000000E+00 -0.12182940426E+04  0.12182940426E+04  0.25500000920E-02 0.  1.
    10030    2    1    2    0    0  0.00000000000E+00  0.00000000000E+00 -0.90995278332E+03  0.15266353018E+04  0.12258063782E+04 0.  0.
        1    1    3    3  502    0 -0.55736540344E+03 -0.44516505185E+02 -0.14234940924E+03  0.57697596702E+03  0.50400001928E-02 0. -1.
       -1    1    3    3    0  502  0.55736540344E+03  0.44516505185E+02 -0.76760337409E+03  0.94965933477E+03  0.50400001928E-02 0.  1.
</event>
<event>
 5   0  0.6640844E-03  0.1196519E+04  0.7818609E-02  0.9115909E-01
       -2   -1    0    0    0  501  0.00000000000E+00  0.00000000000E+00  0.27227546215E+03  0.27227546217E+03  0.25500000920E-02 0.  1.
        2   -1    0    0  501    0  0.00000000000E+00  0.00000000000E+00 -0.13145312460E+04  0.13145312460E+04  0.25500000920E-02 0. -1.
    10030    2    1    2    0    0  0.00000000000E+00  0.00000000000E+00 -0.10422557838E+04  0.15868067081E+04  0.11965192895E+04 0.  0.
        5    1    3    3  502    0  0.40462709590E+03 -0.42468824498E+03 -0.67697203162E+03  0.89576582529E+03  0.46999998093E+01 0. -1.
       -5    1    3    3    0  502 -0.40462709590E+03  0.42468824498E+03 -0.36528375218E+03  0.69104088284E+03  0.46999998093E+01 0.  1.
</event>
<event>
 5   0  0.3944074E-03  0.1175080E+04  0.7818609E-02  0.9134953E-01
       -1   -1    0    0    0  501  0.00000000000E+00  0.00000000000E+00  0.45090325666E+03  0.45090325669E+03  0.50400001928E-02 0.  1.
        1   -1    0    0  501    0  0.00000000000E+00  0.00000000000E+00 -0.76558208998E+03  0.76558208999E+03  0.50400001928E-02 0. -1.
    10030    2    1    2    0    0  0.00000000000E+00  0.00000000000E+00 -0.31467883332E+03  0.12164853467E+04  0.11750803507E+04 0.  0.
        4    1    3    3  502    0  0.30181545877E+03 -0.30311489319E+03  0.25963148806E+03  0.50038118682E+03  0.12699999809E+01 0.  1.
       -4    1    3    3    0  502 -0.30181545877E+03  0.30311489319E+03 -0.57431032138E+03  0.71610415986E+03  0.12699999809E+01 0. -1.
</event>
<event>
 5   0  0.6349142E-03  0.1186881E+04  0.7818609E-02  0.9124418E-01
       -2   -1    0    0    0  501  0.00000000000E+00  0.00000000000E+00  0.66156990342E+03  0.66156990342E+03  0.25500000920E-02 0.  1.
        2   -1    0    0  501    0  0.00000000000E+00  0.00000000000E+00 -0.53232712454E+03  0.53232712455E+03  0.25500000920E-02 0. -1.
    10030    2    1    2    0    0  0.00000000000E+00  0.00000000000E+00  0.12924277887E+03  0.11938970280E+04  0.11868809618E+04 0.  0.
        1    1    3    3  502    0  0.31665250074E+03  0.46420410287E+03 -0.12733999420E+03  0.57616814342E+03  0.50400001928E-02 0. -1.
       -1    1    3    3    0  502 -0.31665250074E+03 -0.46420410287E+03  0.25658277307E+03  0.61772888455E+03  0.50400001928E-02 0.  1.
</event>
<event>
 5   0  0.3701879E-03  0.1116563E+04  0.7818609E-02  0.9189198E-01
       -1   -1    0    0    0  501  0.00000000000E+00  0.00000000000E+00  0.73001980125E+03  0.73001980127E+03  0.50400001928E-02 0.  1.
        1   -1    0    0  501    0  0.00000000000E+00  0.00000000000E+00 -0.42694459761E+03  0.42694459763E+03  0.50400001928E-02 0. -1.
    10030    2    1    2    0    0  0.00000000000E+00  0.00000000000E+00  0.30307520364E+03  0.11569643989E+04  0.11165626007E+04 0.  0.
        1    1    3    3  502    0 -0.28801691290E+03 -0.12466811725E+03  0.62996089442E+03  0.70380864594E+03  0.50400001928E-02 0.  1.
       -1    1    3    3    0  502  0.28801691290E+03  0.12466811725E+03 -0.32688569078E+03  0.45315575296E+03  0.50400001928E-02 0. -1.
</event>
<event>
 5   0  0.6349142E-03  0.1170312E+04  0.7818609E-02  0.9139247E-01
       -2   -1    0    0    0  501  0.00000000000E+00  0.00000000000E+00  0.41080162880E+03  0.41080162881E+03  0.25500000920E-02 0. -1.
        2   -1    0    0  501    0  0.00000000000E+00  0.00000000000E+00 -0.83351009280E+03  0.83351009280E+03  0.25500000920E-02 0.  1.
    10030    2    1    2    0    0  0.00000000000E+00  0.00000000000E+00 -0.42270846400E+03  0.12443117216E+04  0.11703115888E+04 0.  0.
        1    1    3    3  502    0  0.46218418271E+03  0.75641882143E+02 -0.58435200654E+03  0.74886793272E+03  0.50400001928E-02 0.  1.
       -1    1    3    3    0  502 -0.46218418271E+03 -0.75641882143E+02  0.16164354254E+03  0.49544378889E+03  0.50400001928E-02 0. -1.
</event>
<event>
 5   0  0.3944074E-03  0.1013241E+04  0.7818609E-02  0.9294141E-01
        1   -1    0    0  501    0  0.00000000000E+00  0.00000000000E+00  0.23909540909E+03  0.23909540914E+03  0.50400001928E-02 0. -1.
       -1   -1    0    0    0  501  0.00000000000E+00  0.00000000000E+00 -0.10734798051E+04  0.10734798051E+04  0.50400001928E-02 0.  1.
    10030    2    1    2    0    0  0.00000000000E+00  0.00000000000E+00 -0.83438439602E+03  0.13125752143E+04  0.10132405306E+04 0.  0.
        4    1    3    3  502    0 -0.41280608715E+03 -0.26473161885E+03 -0.58192390270E+03  0.76100508346E+03  0.12699999809E+01 0. -1.
       -4    1    3    3    0  502  0.41280608715E+03  0.26473161885E+03 -0.25246049332E+03  0.55157013081E+03  0.12699999809E+01 0.  1.
</event>
<event>
 5   0  0.6585930E-03  0.1203241E+04  0.7818609E-02  0.9110024E-01
       -2   -1    0    0    0  501  0.00000000000E+00  0.00000000000E+00  0.23853692633E+03  0.23853692634E+03  0.25500000920E-02 0. -1.
        2   -1    0    0  501    0  0.00000000000E+00  0.00000000000E+00 -0.15173633486E+04  0.15173633486E+04  0.25500000920E-02 0.  1.
    10030    2    1    2    0    0  0.00000000000E+00  0.00000000000E+00 -0.12788264222E+04  0.17559002749E+04  0.12032409390E+04 0.  0.
        2    1    3    3  502    0  0.26513905033E+03  0.12438097218E+03  0.12749196113E+03  0.31941124340E+03  0.25500000920E-02 0. -1.
       -2    1    3    3    0  502 -0.26513905033E+03 -0.12438097218E+03 -0.14063183834E+04  0.14364890315E+04  0.25500000920E-02 0.  1.
</event>
<event>
 5   0  0.6585930E-03  0.1179026E+04  0.7818609E-02  0.9131416E-01
       -2   -1    0    0    0  501  0.00000000000E+00  0.00000000000E+00  0.13348191992E+03  0.13348191995E+03  0.25500000920E-02 0. -1.
        2   -1    0    0  501    0  0.00000000000E+00  0.00000000000E+00 -0.26035395840E+04  0.26035395840E+04  0.25500000920E-02 0.  1.
    10030    2    1    2    0    0  0.00000000000E+00  0.00000000000E+00 -0.24700576641E+04  0.27370215039E+04  0.11790258051E+04 0.  0.
        2    1    3    3  502    0 -0.44634597666E+03 -0.29696970348E+03 -0.18041795334E+04  0.18821475831E+04  0.25500000920E-02 0.  1.
       -2    1    3    3    0  502  0.44634597666E+03  0.29696970348E+03 -0.66587813061E+03  0.85487392082E+03  0.25500000920E-02 0. -1.
</event>
<event>
 5   0  0.3944074E-03  0.1170346E+04  0.7818609E-02  0.9139216E-01
       -1   -1    0    0    0  501  0.00000000000E+00  0.00000000000E+00  0.14269888154E+04  0.14269888154E+04  0.50400001928E-02 0. -1.
        1   -1    0    0  501    0  0.00000000000E+00  0.00000000000E+00 -0.23996512350E+03  0.23996512356E+03  0.50400001928E-02 0.  1.
    10030    2    1    2    0    0  0.00000000000E+00  0.00000000000E+00  0.11870236919E+04  0.16669539389E+04  0.11703461836E+04 0.  0.
        4    1    3    3  502    0  0.34705538695E+03  0.12014555894E+03  0.12423910621E+04  0.12955383287E+04  0.12699999809E+01 0. -1.
       -4    1    3    3    0  502 -0.34705538695E+03 -0.12014555894E+03 -0.55367370258E+02  0.37141561025E+03  0.12699999809E+01 0.  1.
</event>
<event>
 5   0  0.3731281E-03  0.1211527E+04  0.7818609E-02  0.9102826E-01
       -1   -1    0    0    0  501  0.00000000000E+00  0.00000000000E+00  0.51447483513E+03  0.51447483515E+03  0.50400001928E-02 0.  1.
        1   -1    0    0  501    0  0.00000000000E+00  0.00000000000E+00 -0.71325069037E+03  0.71325069038E+03  0.50400001928E-02 0. -1.
    10030    2    1    2    0    0  0.00000000000E+00  0.00000000000E+00 -0.19877585524E+03  0.12277255255E+04  0.12115271872E+04 0.  0.
        5    1    3    3  502    0  0.50989106350E+03 -0.20480383306E+03 -0.35773558971E+03  0.65569074175E+03  0.46999998093E+01 0. -1.
       -5    1    3    3    0  502 -0.50989106350E+03  0.20480383306E+03  0.15895973447E+03  0.57203478378E+03  0.46999998093E+01 0.  1.
</event>
<event>
 5   0  0.2537625E-03  0.1210368E+04  0.7818609E-02  0.9103830E-01
        4   -1    0    0  501    0  0.00000000000E+00  0.00000000000E+00  0.70373661114E+03  0.70373775709E+03  0.12699999809E+01 0.  1.
       -4   -1    0    0    0  501  0.00000000000E+00  0.00000000000E+00 -0.52043013747E+03  0.52043168705E+03  0.12699999809E+01 0. -1.
    10030    2    1    2    0    0  0.00000000000E+00  0.00000000000E+00  0.18330647367E+03  0.12241694441E+04  0.12103675329E+04 0.  0.
        3    1    3    3  502    0 -0.35217783001E+03  0.28107588632E+03 -0.31695173163E+03  0.55090043402E+03  0.10100000352E+00 0. -1.
       -3    1    3    3    0  502  0.35217783001E+03 -0.28107588632E+03  0.50025820529E+03  0.67326901012E+03  0.10100000352E+00 0.  1.
</event>
<event>
 5   0  0.6493047E-03  0.1135410E+04  0.7818609E-02  0.9171349E-01
       -2   -1    0    0    0  501  0.00000000000E+00  0.00000000000E+00  0.18300298668E+03  0.18300298670E+03  0.25500000920E-02 0.  1.
        2   -1    0    0  501    0  0.00000000000E+00  0.00000000000E+00 -0.17611147013E+04  0.17611147013E+04  0.25500000920E-02 0. -1.
    10030    2    1    2    0    0  0.00000000000E+00  0.00000000000E+00 -0.15781117146E+04  0.19441176880E+04  0.11354104989E+04 0.  0.
        3    1    3    3  502    0 -0.17784190190E+03 -0.48190671607E+03 -0.37517248223E+03  0.63609451081E+03  0.10100000352E+00 0.  1.
       -3    1    3    3    0  502  0.17784190190E+03  0.48190671607E+03 -0.12029392324E+04  0.13080231772E+04  0.10100000352E+00 0. -1.
</event>
<event>
 5   0  0.3648616E-03  0.1206116E+04  0.7818609E-02  0.9107520E-01
        1   -1    0    0  501    0  0.00000000000E+00  0.00000000000E+00  0.87395307160E+03  0.87395307161E+03  0.50400001928E-02 0.  1.
       -1   -1    0    0    0  501  0.00000000000E+00  0.00000000000E+00 -0.41613074698E+03  0.41613074701E+03  0.50400001928E-02 0. -1.
    10030    2    1    2    0    0  0.00000000000E+00  0.00000000000E+00  0.45782232461E+03  0.12900838186E+04  0.12061156570E+04 0.  0.
        2    1    3    3  502    0  0.51797096834E+03 -0.39962511558E+02 -0.98657380761E+02  0.52879505024E+03  0.25500000920E-02 0. -1.
       -2    1    3    3    0  502 -0.51797096834E+03  0.39962511558E+02  0.55647970537E+03  0.76128876839E+03  0.25500000920E-02 0.  1.
</event>
<event>
 5   0  0.3701879E-03  0.1294198E+04  0.7818609E-02  0.9034179E-01
       -1   -1    0    0    0  501  0.00000000000E+00  0.00000000000E+00  0.68915254364E+03  0.68915254366E+03  0.50400001928E-02 0. -1.
        1   -1    0    0  501    0  0.00000000000E+00  0.00000000000E+00 -0.60761202342E+03  0.60761202344E+03  0.50400001928E-02 0.  1.
    10030    2    1    2    0    0  0.00000000000E+00  0.00000000000E+00  0.81540520214E+02  0.12967645671E+04  0.12941983952E+04 0.  0.
        1    1    3    3  502    0  0.61877277310E+03  0.10887133762E+03  0.19601183690E+03  0.65814386962E+03  0.50400001928E-02 0.  1.
       -1    1    3    3    0  502 -0.61877277310E+03 -0.10887133762E+03 -0.11447131668E+03  0.63862069748E+03  0.50400001928E-02 0. -1.
</event>
<event>
 5   0  0.6349142E-03  0.1179373E+04  0.7818609E-02  0.9131106E-01
       -2   -1    0    0    0  501  0.00000000000E+00  0.00000000000E+00  0.31713456694E+03  0.31713456695E+03  0.25500000920E-02 0. -1.
        2   -1    0    0  501    0  0.00000000000E+00  0.00000000000E+00 -0.10964742710E+04  0.10964742710E+04  0.25500000920E-02 0.  1.
    10030    2    1    2    0    0  0.00000000000E+00  0.00000000000E+00 -0.77933970406E+03  0.14136088380E+04  0.11793725334E+04 0.  0.
        1    1    3    3  502    0 -0.58733953112E+03  0.31844440223E+02 -0.43978411703E+03  0.73443302132E+03  0.50400001928E-02 0. -1.
       -1    1    3    3    0  502  0.58733953112E+03 -0.31844440223E+02 -0.33955558704E+03  0.67917581664E+03  0.50400001928E-02 0.  1.
</event>
<event>
 5   0  0.3731281E-03  0.1183849E+04  0.7818609E-02  0.9127112E-01
        1   -1    0    0  501    0  0.00000000000E+00  0.00000000000E+00  0.12186811418E+04  0.12186811419E+04  0.50400001928E-02 0.  1.
       -1   -1    0    0    0  501  0.00000000000E+00  0.00000000000E+00 -0.28750322290E+03  0.28750322295E+03  0.50400001928E-02 0. -1.
    10030    2    1    2    0    0  0.00000000000E+00  0.00000000000E+00  0.93117791894E+03  0.15061843648E+04  0.11838492404E+04 0.  0.
        5    1    3    3  502    0 -0.53255229551E+02 -0.12243515192E+03 -0.26807072871E+03  0.29951709716E+03  0.46999998093E+01 0. -1.
       -5    1    3    3    0  502  0.53255229551E+02  0.12243515192E+03  0.11992486477E+04  0.12066672676E+04  0.46999998093E+01 0.  1.
</event>
<event>
 5   0  0.3731281E-03  0.1106024E+04  0.7818609E-02  0.9199341E-01
        1   -1    0    0  501    0  0.00000000000E+00  0.00000000000E+00  0.28426421425E+04  0.28426421426E+04  0.50400001928E-02 0.  1.
       -1   -1    0    0    0  501  0.00000000000E+00  0.00000000000E+00 -0.10758374613E+03  0.10758374625E+03  0.50400001928E-02 0. -1.
    10030    2    1    2    0    0  0.00000000000E+00  0.00000000000E+00  0.27350583964E+04  0.29502258888E+04  0.11060236720E+04 0.  0.
        5    1    3    3  502    0 -0.12048524789E+03  0.24889384261E+03  0.26449270155E+04  0.26593468836E+04  0.46999998093E+01 0.  1.
       -5    1    3    3    0  502  0.12048524789E+03 -0.24889384261E+03  0.90131380899E+02  0.29087900520E+03  0.46999998093E+01 0. -1.
</event>
<event>
 5   0  0.6585930E-03  0.1171771E+04  0.7818609E-02  0.9137930E-01
       -2   -1    0    0    0  501  0.00000000000E+00  0.00000000000E+00  0.29516154217E+03  0.29516154218E+03  0.25500000920E-02 0. -1.
        2   -1    0    0  501    0  0.00000000000E+00  0.00000000000E+00 -0.11629632002E+04  0.11629632002E+04  0.25500000920E-02 0.  1.
    10030    2    1    2    0    0  0.00000000000E+00  0.00000000000E+00 -0.86780165806E+03  0.14581247424E+04  0.11717713287E+04 0.  0.
        2    1    3    3  502    0  0.27577331963E+03 -0.51045430335E+03 -0.33244413066E+03  0.66868050640E+03  0.25500000920E-02 0. -1.
       -2    1    3    3    0  502 -0.27577331963E+03  0.51045430335E+03 -0.53535752740E+03  0.78944423601E+03  0.25500000920E-02 0.  1.
</event>
<event>
 5   0  0.6585930E-03  0.1191206E+04  0.7818609E-02  0.9120589E-01
        2   -1    0    0  501    0  0.00000000000E+00  0.00000000000E+00  0.17516217990E+04  0.17516217990E+04  0.25500000920E-02 0.  1.
       -2   -1    0    0    0  501  0.00000000000E+00  0.00000000000E+00 -0.20252245188E+03  0.20252245190E+03  0.25500000920E-02 0. -1.
    10030    2    1    2    0    0  0.00000000000E+00  0.00000000000E+00  0.15490993471E+04  0.19541442509E+04  0.11912056775E+04 0.  0.
        2    1    3    3  502    0  0.38719930843E+03 -0.67635666939E+02  0.40457580506E+02  0.39513884107E+03  0.25500000920E-02 0. -1.
       -2    1    3    3    0  502 -0.38719930843E+03  0.67635666939E+02  0.15086417666E+04  0.15590054098E+04  0.25500000920E-02 0.  1.
</event>
<event>
 5   0  0.3772254E-03  0.1188489E+04  0.7818609E-02  0.9122992E-01
        1   -1    0    0  501    0  0.00000000000E+00  0.00000000000E+00  0.63721999857E+03  0.63721999859E+03  0.50400001928E-02 0.  1.
       -1   -1    0    0    0  501  0.00000000000E+00  0.00000000000E+00 -0.55416782143E+03  0.55416782146E+03  0.50400001928E-02 0. -1.
    10030    2    1    2    0    0  0.00000000000E+00  0.00000000000E+00  0.83052177140E+02  0.11913878201E+04  0.11884894924E+04 0.  0.
        3    1    3    3  502    0  0.49349077371E+03 -0.23178895944E+03 -0.19541348059E+03  0.57917674682E+03  0.10100000352E+00 0.  1.
       -3    1    3    3    0  502 -0.49349077371E+03  0.23178895944E+03  0.27846565773E+03  0.61221107323E+03  0.10100000352E+00 0. -1.
</event>
<event>
 5   0  0.6640844E-03  0.1241996E+04  0.7818609E-02  0.9076872E-01
        2   -1    0    0  501    0  0.00000000000E+00  0.00000000000E+00  0.87261069083E+03  0.87261069084E+03  0.25500000920E-02 0. -1.
       -2   -1    0    0    0  501  0.00000000000E+00  0.00000000000E+00 -0.44193620885E+03  0.44193620886E+03  0.25500000920E-02 0.  1.
    10030    2    1    2    0    0  0.00000000000E+00  0.00000000000E+00  0.43067448198E+03  0.13145468997E+04  0.12419955886E+04 0.  0.
        5    1    3    3  502    0 -0.44207275528E+03 -0.29957365827E+03  0.55077881864E+03  0.76717148979E+03  0.46999998093E+01 0. -1.
       -5    1    3    3    0  502  0.44207275528E+03  0.29957365827E+03 -0.12010433666E+03  0.54737540990E+03  0.46999998093E+01 0.  1.
</event>
<event>
 5   0  0.3944074E-03  0.1152392E+04  0.7818609E-02  0.9155579E-01
       -1   -1    0    0    0  501  0.00000000000E+00  0.00000000000E+00  0.48719388572E+03  0.48719388574E+03  0.50400001928E-02 0.  1.
        1   -1    0    0  501    0  0.00000000000E+00  0.00000000000E+00 -0.68145789193E+03  0.68145789195E+03  0.50400001928E-02 0. -1.
    10030    2    1    2    0    0  0.00000000000E+00  0.00000000000E+00 -0.19426400621E+03  0.11686517777E+04  0.11523924997E+04 0.  0.
        4    1    3    3  502    0  0.14376439865E+03 -0.36148986070E+03 -0.52816702594E+03  0.65597647968E+03  0.12699999809E+01 0. -1.
       -4    1    3    3    0  502 -0.14376439865E+03  0.36148986070E+03  0.33390301973E+03  0.51267529801E+03  0.12699999809E+01 0.  1.
</event>
<event>
 5   0  0.6585930E-03  0.8278502E+03  0.7818609E-02  0.9520558E-01
       -2   -1    0    0    0  501  0.00000000000E+00  0.00000000000E+00  0.18426834840E+03  0.18426834842E+03  0.25500000920E-02 0. -1.
        2   -1    0    0  501    0  0.00000000000E+00  0.00000000000E+00 -0.92980695296E+03  0.92980695296E+03  0.25500000920E-02 0.  1.
    10030    2    1    2    0    0  0.00000000000E+00  0.00000000000E+00 -0.74553860456E+03  0.11140753014E+04  0.82785020762E+03 0.  0.
        2    1    3    3  502    0  0.39747014940E+03  0.83782125206E+02 -0.26568293733E+03  0.48537551170E+03  0.25500000920E-02 0. -1.
       -2    1    3    3    0  502 -0.39747014940E+03 -0.83782125206E+02 -0.47985566723E+03  0.62869978968E+03  0.25500000920E-02 0.  1.
</event>
<event>
 5   0  0.3772254E-03  0.1188629E+04  0.7818609E-02  0.9122868E-01
       -1   -1    0    0    0  501  0.00000000000E+00  0.00000000000E+00  0.13419477442E+04  0.13419477442E+04  0.50400001928E-02 0.  1.
        1   -1    0    0  501    0  0.00000000000E+00  0.00000000000E+00 -0.26320660026E+03  0.26320660030E+03  0.50400001928E-02 0. -1.
    10030    2    1    2    0    0  0.00000000000E+00  0.00000000000E+00  0.10787411439E+04  0.16051543445E+04  0.11886286275E+04 0.  0.
        3    1    3    3  502    0 -0.31750739105E+03  0.48479995704E+03  0.71733774897E+03  0.92217969941E+03  0.10100000352E+00 0.  1.
       -3    1    3    3    0  502  0.31750739105E+03 -0.48479995704E+03  0.36140339493E+03  0.68297464505E+03  0.10100000352E+00 0. -1.
</event>
<event>
 5   0  0.3731281E-03  0.1185088E+04  0.7818609E-02  0.9126010E-01
        1   -1    0    0  501    0  0.00000000000E+00  0.00000000000E+00  0.10599828966E+04  0.10599828967E+04  0.50400001928E-02 0. -1.
       -1   -1    0    0    0  501  0.00000000000E+00  0.00000000000E+00 -0.33123976698E+03  0.33123976702E+03  0.50400001928E-02 0.  1.
    10030    2    1    2    0    0  0.00000000000E+00  0.00000000000E+00  0.72874312966E+03  0.13912226637E+04  0.11850881617E+04 0.  0.
        5    1    3    3  502    0 -0.23577870084E+03  0.29118831480E+03 -0.17449662420E+03  0.41334415721E+03  0.46999998093E+01 0.  1.
       -5    1    3    3    0  502  0.23577870084E+03 -0.29118831480E+03  0.90323975386E+03  0.97787850646E+03  0.46999998093E+01 0. -1.
</event>
<event>
 5   0  0.3648616E-03  0.1180513E+04  0.7818609E-02  0.9130086E-01
        1   -1    0    0  501    0  0.00000000000E+00  0.00000000000E+00  0.12045839591E+04  0.12045839592E+04  0.50400001928E-02 0. -1.
       -1   -1    0    0    0  501  0.00000000000E+00  0.00000000000E+00 -0.28923083486E+03  0.28923083491E+03  0.50400001928E-02 0.  1.
    10030    2    1    2    0    0  0.00000000000E+00  0.00000000000E+00  0.91535312428E+03  0.14938147941E+04  0.11805131498E+04 0.  0.
        2    1    3    3  502    0 -0.52923861335E+03  0.28367700430E+02  0.78644685788E+03  0.94836538136E+03  0.25500000920E-02 0. -1.
       -2    1    3    3    0  502  0.52923861335E+03 -0.28367700430E+02  0.12890626640E+03  0.54544941270E+03  0.25500000920E-02 0.  1.
</event>
<event>
 5   0  0.3731281E-03  0.1206698E+04  0.7818609E-02  0.9107014E-01
        1   -1    0    0  501    0  0.00000000000E+00  0.00000000000E+00  0.55656706789E+03  0.55656706792E+03  0.50400001928E-02 0.  1.
       -1   -1    0    0    0  501  0.00000000000E+00  0.00000000000E+00 -0.65406274613E+03  0.65406274614E+03  0.50400001928E-02 0. -1.
    10030    2    1    2    0    0  0.00000000000E+00  0.00000000000E+00 -0.97495678230E+02  0.12106298141E+04  0.12066976172E+04 0.  0.
        5    1    3    3  502    0  0.17043578548E+03 -0.19173746912E+03 -0.59660062635E+03  0.64943514795E+03  0.46999998093E+01 0. -1.
       -5    1    3    3    0  502 -0.17043578548E+03  0.19173746912E+03  0.49910494812E+03  0.56119466611E+03  0.46999998093E+01 0.  1.
</event>
<event>
 5   0  0.6585930E-03  0.1213971E+04  0.7818609E-02  0.9100715E-01
       -2   -1    0    0    0  501  0.00000000000E+00  0.00000000000E+00  0.20629225525E+03  0.20629225527E+03  0.25500000920E-02 0.  1.
        2   -1    0    0  501    0  0.00000000000E+00  0.00000000000E+00 -0.17859682632E+04  0.17859682632E+04  0.25500000920E-02 0. -1.
    10030    2    1    2    0    0  0.00000000000E+00  0.00000000000E+00 -0.15796760079E+04  0.19922605184E+04  0.12139710389E+04 0.  0.
        2    1    3    3  502    0 -0.40893287089E+03 -0.44567828518E+03 -0.70654143958E+03  0.93008388473E+03  0.25500000920E-02 0.  1.
       -2    1    3    3    0  502  0.40893287089E+03  0.44567828518E+03 -0.87313456833E+03  0.10621766337E+04  0.25500000920E-02 0. -1.
</event>
<event>
 5   0  0.6585930E-03  0.1167185E+04  0.7818609E-02  0.9142075E-01
        2   -1    0    0  501    0  0.00000000000E+00  0.00000000000E+00  0.13990983967E+04  0.13990983967E+04  0.25500000920E-02 0.  1.
       -2   -1    0    0    0  501  0.00000000000E+00  0.00000000000E+00 -0.24342820284E+03  0.24342820286E+03  0.25500000920E-02 0. -1.
    10030    2    1    2    0    0  0.00000000000E+00  0.00000000000E+00  0.11556701938E+04  0.16425265995E+04  0.11671846612E+04 0.  0.
        2    1    3    3  502    0  0.29609478732E+03 -0.40130205434E+02 -0.12761594993E+03  0.32491289164E+03  0.25500000920E-02 0. -1.
       -2    1    3    3    0  502 -0.29609478732E+03  0.40130205434E+02  0.12832861437E+04  0.13176137079E+04  0.25500000920E-02 0.  1.
</event>
<event>
 5   0  0.3648616E-03  0.8544650E+03  0.7818609E-02  0.9484364E-01
       -1   -1    0    0    0  501  0.00000000000E+00  0.00000000000E+00  0.36121363501E+03  0.36121363505E+03  0.50400001928E-02 0. -1.
        1   -1    0    0  501    0  0.00000000000E+00  0.00000000000E+00 -0.50531760072E+03  0.50531760075E+03  0.50400001928E-02 0.  1.
    10030    2    1    2    0    0  0.00000000000E+00  0.00000000000E+00 -0.14410396571E+03  0.86653123579E+03  0.85446499616E+03 0.  0.
        2    1    3    3  502    0 -0.34297660445E+02 -0.26926997199E+03 -0.40662746181E+03  0.48890545101E+03  0.25500000920E-02 0.  1.
       -2    1    3    3    0  502  0.34297660445E+02  0.26926997199E+03  0.26252349610E+03  0.37762578478E+03  0.25500000920E-02 0. -1.
</event>
<event>
 5   0  0.6658994E-03  0.1211298E+04  0.7818609E-02  0.9103025E-01
       -2   -1    0    0    0  501  0.00000000000E+00  0.00000000000E+00  0.47914693922E+03  0.47914693922E+03  0.25500000920E-02 0.  1.
        2   -1    0    0  501    0  0.00000000000E+00  0.00000000000E+00 -0.76554894470E+03  0.76554894470E+03  0.25500000920E-02 0. -1.
    10030    2    1    2    0    0  0.00000000000E+00  0.00000000000E+00 -0.28640200548E+03  0.12446958839E+04  0.12112975418E+04 0.  0.
        4    1    3    3  502    0  0.51658167734E+02  0.29973377567E+03  0.39497614986E+03  0.49851446762E+03  0.12699999809E+01 0.  1.
       -4    1    3    3    0  502 -0.51658167734E+02 -0.29973377567E+03 -0.68137815534E+03  0.74618141631E+03  0.12699999809E+01 0. -1.
</event>
<event>
 5   0  0.3731281E-03  0.1126439E+04  0.7818609E-02  0.9179799E-01
       -1   -1    0    0    0  501  0.00000000000E+00  0.00000000000E+00  0.46274274965E+03  0.46274274968E+03  0.50400001928E-02 0.  1.
        1   -1    0    0  501    0  0.00000000000E+00  0.00000000000E+00 -0.68551368252E+03  0.68551368254E+03  0.50400001928E-02 0. -1.
    10030    2    1    2    0    0  0.00000000000E+00  0.00000000000E+00 -0.22277093287E+03  0.11482564322E+04  0.11264394993E+04 0.  0.
        5    1    3    3  502    0  0.38232771169E+03  0.30058368896E+03 -0.40090997318E+03  0.63029828635E+03  0.46999998093E+01 0. -1.
       -5    1    3    3    0  502 -0.38232771169E+03 -0.30058368896E+03  0.17813904030E+03  0.51795814587E+03  0.46999998093E+01 0.  1.
</event>
<event>
 5   0  0.3731281E-03  0.1198093E+04  0.7818609E-02  0.9114527E-01
        1   -1    0    0  501    0  0.00000000000E+00  0.00000000000E+00  0.14367460969E+04  0.14367460969E+04  0.50400001928E-02 0. -1.
       -1   -1    0    0    0  501  0.00000000000E+00  0.00000000000E+00 -0.24977047428E+03  0.24977047433E+03  0.50400001928E-02 0.  1.
    10030    2    1    2    0    0  0.00000000000E+00  0.00000000000E+00  0.11869756226E+04  0.16865165713E+04  0.11980930750E+04 0.  0.
        5    1    3    3  502    0 -0.63728136627E+02  0.17383594787E+03 -0.20845581533E+03  0.27884786015E+03  0.46999998093E+01 0.  1.
       -5    1    3    3    0  502  0.63728136627E+02 -0.17383594787E+03  0.13954314380E+04  0.14076687111E+04  0.46999998093E+01 0. -1.
</event>
<event>
 5   0  0.3772254E-03  0.1332116E+04  0.7818609E-02  0.9004477E-01
        1   -1    0    0  501    0  0.00000000000E+00  0.00000000000E+00  0.56190944280E+03  0.56190944282E+03  0.50400001928E-02 0. -1.
       -1   -1    0    0    0  501  0.00000000000E+00  0.00000000000E+00 -0.78951075219E+03  0.78951075221E+03  0.50400001928E-02 0.  1.
    10030    2    1    2    0    0  0.00000000000E+00  0.00000000000E+00 -0.22760130939E+03  0.13514201950E+04  0.13321164317E+04 0.  0.
        3    1    3    3  502    0 -0.38014021601E+03  0.23876572907E+03  0.38538448693E+03  0.59163913847E+03  0.10100000352E+00 0. -1.
       -3    1    3    3    0  502  0.38014021601E+03 -0.23876572907E+03 -0.61298579632E+03  0.75978105655E+03  0.10100000352E+00 0.  1.
</event>
<event>
 5   0  0.6585930E-03  0.1181517E+04  0.7818609E-02  0.9129191E-01
       -2   -1    0    0    0  501  0.00000000000E+00  0.00000000000E+00  0.74800349463E+03  0.74800349464E+03  0.25500000920E-02 0.  1.
        2   -1    0    0  501    0  0.00000000000E+00  0.00000000000E+00 -0.46656918445E+03  0.46656918446E+03  0.25500000920E-02 0. -1.
    10030    2    1    2    0    0  0.00000000000E+00  0.00000000000E+00  0.28143431018E+03  0.12145726791E+04  0.11815166194E+04 0.  0.
        2    1    3    3  502    0 -0.34685994487E+03 -0.43628785645E+03 -0.60557785600E+02  0.56064798265E+03  0.25500000920E-02 0. -1.
       -2    1    3    3    0  502  0.34685994487E+03  0.43628785645E+03  0.34199209578E+03  0.65392469645E+03  0.25500000920E-02 0.  1.
</event>
<event>
 5   0  0.3701879E-03  0.1169801E+04  0.7818609E-02  0.9139708E-01
        1   -1    0    0  501    0  0.00000000000E+00  0.00000000000E+00  0.18433183630E+04  0.18433183630E+04  0.50400001928E-02 0.  1.
       -1   -1    0    0    0  501  0.00000000000E+00  0.00000000000E+00 -0.18559400620E+03  0.18559400627E+03  0.50400001928E-02 0. -1.
    10030    2    1    2    0    0  0.00000000000E+00  0.00000000000E+00  0.16577243568E+04  0.20289123693E+04  0.11698014187E+04 0.  0.
        1    1    3    3  502    0  0.28445493104E+03 -0.40335643854E+03  0.28452945251E+03  0.56970872704E+03  0.50400001928E-02 0. -1.
       -1    1    3    3    0  502 -0.28445493104E+03  0.40335643854E+03  0.13731949043E+04  0.14592036423E+04  0.50400001928E-02 0.  1.
</event>
<event>
 5   0  0.6585930E-03  0.1165839E+04  0.7818609E-02  0.9143295E-01
        2   -1    0    0  501    0  0.00000000000E+00  0.00000000000E+00  0.42165035247E+03  0.42165035248E+03  0.25500000920E-02 0.  1.
       -2   -1    0    0    0  501  0.00000000000E+00  0.00000000000E+00 -0.80586938612E+03  0.80586938613E+03  0.25500000920E-02 0. -1.
    10030    2    1    2    0    0  0.00000000000E+00  0.00000000000E+00 -0.38421903366E+03  0.12275197386E+04  0.11658389438E+04 0.  0.
        2    1    3    3  502    0  0.52409667867E+03  0.24401202944E+02  0.75341996328E+02  0.53004637884E+03  0.25500000920E-02 0.  1.
       -2    1    3    3    0  502 -0.52409667867E+03 -0.24401202944E+02 -0.45956102998E+03  0.69747335977E+03  0.25500000920E-02 0. -1.
</event>
<event>
 5   0  0.6585930E-03  0.1173886E+04  0.7818609E-02  0.9136026E-01
        2   -1    0    0  501    0  0.00000000000E+00  0.00000000000E+00  0.15412579486E+04  0.15412579486E+04  0.25500000920E-02 0.  1.
       -2   -1    0    0    0  501  0.00000000000E+00  0.00000000000E+00 -0.22352010270E+03  0.22352010272E+03  0.25500000920E-02 0. -1.
    10030    2    1    2    0    0  0.00000000000E+00  0.00000000000E+00  0.13177378459E+04  0.17647780513E+04  0.11738860847E+04 0.  0.
        2    1    3    3  502    0  0.73869697187E+02 -0.14325387654E+02  0.15339768040E+04  0.15358212084E+04  0.25500000920E-02 0.  1.
       -2    1    3    3    0  502 -0.73869697187E+02  0.14325387654E+02 -0.21623895813E+03  0.22895684291E+03  0.25500000920E-02 0. -1.
</event>
<event>
 5   0  0.3772254E-03  0.1238396E+04  0.7818609E-02  0.9079897E-01
        1   -1    0    0  501    0  0.00000000000E+00  0.00000000000E+00  0.91238453178E+03  0.91238453179E+03  0.50400001928E-02 0. -1.
       -1   -1    0    0    0  501  0.00000000000E+00  0.00000000000E+00 -0.42022442322E+03  0.42022442325E+03  0.50400001928E-02 0.  1.
    10030    2    1    2    0    0  0.00000000000E+00  0.00000000000E+00  0.49216010856E+03  0.13326089550E+04  0.12383961622E+04 0.  0.
        3    1    3    3  502    0 -0.17364168889E+03  0.15938211722E+03 -0.37006384579E+03  0.43874976419E+03  0.10100000352E+00 0.  1.
       -3    1    3    3    0  502  0.17364168889E+03 -0.15938211722E+03  0.86222395435E+03  0.89385919085E+03  0.10100000352E+00 0. -1.
</event>
<event>
 5   0  0.3701879E-03  0.1197361E+04  0.7818609E-02  0.9115169E-01
        1   -1    0    0  501    0  0.00000000000E+00  0.00000000000E+00  0.23066047074E+04  0.23066047075E+04  0.50400001928E-02 0.  1.
       -1   -1    0    0    0  501  0.00000000000E+00  0.00000000000E+00 -0.15538787951E+03  0.15538787959E+03  0.50400001928E-02 0. -1.
    10030    2    1    2    0    0  0.00000000000E+00  0.00000000000E+00  0.21512168279E+04  0.24619925870E+04  0.11973611226E+04 0.  0.
        1    1    3    3  502    0  0.37138851597E+03  0.28645169448E+03  0.18406474884E+04  0.18994649719E+04  0.50400001928E-02 0.  1.
       -1    1    3    3    0  502 -0.37138851597E+03 -0.28645169448E+03  0.31056933955E+03  0.56252761511E+03  0.50400001928E-02 0. -1.
</event>
<event>
 5   0  0.3772254E-03  0.1187921E+04  0.7818609E-02  0.9123495E-01
        1   -1    0    0  501    0  0.00000000000E+00  0.00000000000E+00  0.29573342420E+03  0.29573342424E+03  0.50400001928E-02 0.  1.
       -1   -1    0    0    0  501  0.00000000000E+00  0.00000000000E+00 -0.11929292108E+04  0.11929292108E+04  0.50400001928E-02 0. -1.
    10030    2    1    2    0    0  0.00000000000E+00  0.00000000000E+00 -0.89719578660E+03  0.14886626350E+04  0.11879209408E+04 0.  0.
        3    1    3    3  502    0  0.42368360844E+03  0.65731486822E+01 -0.97018921887E+03  0.10586869872E+04  0.10100000352E+00 0. -1.
       -3    1    3    3    0  502 -0.42368360844E+03 -0.65731486822E+01  0.72993432275E+02  0.42997564780E+03  0.10100000352E+00 0.  1.
</event>
<event>
 5   0  0.3731281E-03  0.1221055E+04  0.7818609E-02  0.9094624E-01
        1   -1    0    0  501    0  0.00000000000E+00  0.00000000000E+00  0.72051120170E+03  0.72051120172E+03  0.50400001928E-02 0.  1.
       -1   -1    0    0    0  501  0.00000000000E+00  0.00000000000E+00 -0.51733221229E+03  0.51733221231E+03  0.50400001928E-02 0. -1.
    10030    2    1    2    0    0  0.00000000000E+00  0.00000000000E+00  0.20317898942E+03  0.12378434140E+04  0.12210547145E+04 0.  0.
        5    1    3    3  502    0 -0.25207542245E+03  0.45928543848E+03  0.41932582426E+03  0.67107478681E+03  0.46999998093E+01 0.  1.
       -5    1    3    3    0  502  0.25207542245E+03 -0.45928543848E+03 -0.21614683484E+03  0.56676862723E+03  0.46999998093E+01 0. -1.
</event>
<event>
 5   0  0.3944074E-03  0.1169550E+04  0.7818609E-02  0.9139935E-01
        1   -1    0    0  501    0  0.00000000000E+00  0.00000000000E+00  0.59868411948E+03  0.59868411950E+03  0.50400001928E-02 0. -1.
       -1   -1    0    0    0  501  0.00000000000E+00  0.00000000000E+00 -0.57118930903E+03  0.57118930905E+03  0.50400001928E-02 0.  1.
    10030    2    1    2    0    0  0.00000000000E+00  0.00000000000E+00  0.27494810451E+02  0.11698734286E+04  0.11695502872E+04 0.  0.
        4    1    3    3  502    0  0.94047800493E+02 -0.24951052617E+03 -0.50683837979E+03  0.57270170908E+03  0.12699999809E+01 0.  1.
       -4    1    3    3    0  502 -0.94047800493E+02  0.24951052617E+03  0.53433319025E+03  0.59717171948E+03  0.12699999809E+01 0. -1.
</event>
<event>
 5   0  0.3944074E-03  0.1229698E+04  0.7818609E-02  0.9087252E-01
        1   -1    0    0  501    0  0.00000000000E+00  0.00000000000E+00  0.12970373760E+04  0.12970373760E+04  0.50400001928E-02 0. -1.
       -1   -1    0    0    0  501  0.00000000000E+00  0.00000000000E+00 -0.29146367085E+03  0.29146367089E+03  0.50400001928E-02 0.  1.
    10030    2    1    2    0    0  0.00000000000E+00  0.00000000000E+00  0.10055737052E+04  0.15885010469E+04  0.12296979709E+04 0.  0.
        4    1    3    3  502    0  0.57776394041E+03  0.14364045802E+03  0.30436522491E+03  0.66864307000E+03  0.12699999809E+01 0.  1.
       -4    1    3    3    0  502 -0.57776394041E+03 -0.14364045802E+03  0.70120848024E+03  0.91985797691E+03  0.12699999809E+01 0. -1.
</event>
<event>
 5   0  0.6349142E-03  0.1174775E+04  0.7818609E-02  0.9135227E-01
       -2   -1    0    0    0  501  0.00000000000E+00  0.00000000000E+00  0.24596173731E+03  0.24596173732E+03  0.25500000920E-02 0.  1.
        2   -1    0    0  501    0  0.00000000000E+00  0.00000000000E+00 -0.14027557912E+04  0.14027557912E+04  0.25500000920E-02 0. -1.
    10030    2    1    2    0    0  0.00000000000E+00  0.00000000000E+00 -0.11567940539E+04  0.16487175285E+04  0.11747753001E+04 0.  0.
        1    1    3    3  502    0  0.30013205772E+03 -0.49357082329E+03 -0.42899349646E+03  0.71953236876E+03  0.50400001928E-02 0. -1.
       -1    1    3    3    0  502 -0.30013205772E+03  0.49357082329E+03 -0.72780055742E+03  0.92918515974E+03  0.50400001928E-02 0.  1.
</event>
<event>
 5   0  0.6493047E-03  0.1207882E+04  0.7818609E-02  0.9105985E-01
        2   -1    0    0  501    0  0.00000000000E+00  0.00000000000E+00  0.23535737935E+04  0.23535737935E+04  0.25500000920E-02 0.  1.
       -2   -1    0    0    0  501  0.00000000000E+00  0.00000000000E+00 -0.15497492366E+03  0.15497492368E+03  0.25500000920E-02 0. -1.
    10030    2    1    2    0    0  0.00000000000E+00  0.00000000000E+00  0.21985988699E+04  0.25085487172E+04  0.12078823105E+04 0.  0.
        3    1    3    3  502    0  0.48244079481E+03 -0.34647791993E+03  0.13263176888E+04  0.14532428191E+04  0.10100000352E+00 0.  1.
       -3    1    3    3    0  502 -0.48244079481E+03  0.34647791993E+03  0.87228118108E+03  0.10553058981E+04  0.10100000352E+00 0. -1.
</event>
<event>
 5   0  0.3731281E-03  0.1197950E+04  0.7818609E-02  0.9114652E-01
       -1   -1    0    0    0  501  0.00000000000E+00  0.00000000000E+00  0.18588491187E+03  0.18588491193E+03  0.50400001928E-02 0. -1.
        1   -1    0    0  501    0  0.00000000000E+00  0.00000000000E+00 -0.19300722764E+04  0.19300722764E+04  0.50400001928E-02 0.  1.
    10030    2    1    2    0    0  0.00000000000E+00  0.00000000000E+00 -0.17441873646E+04  0.21159571884E+04  0.11979504415E+04 0.  0.
        5    1    3    3  502    0 -0.57811124476E+03 -0.15018460665E+03 -0.79347388303E+03  0.99317215046E+03  0.46999998093E+01 0. -1.
       -5    1    3    3    0  502  0.57811124476E+03  0.15018460665E+03 -0.95071348153E+03  0.11227850379E+04  0.46999998093E+01 0.  1.
</event>
<event>
 5   0  0.6585930E-03  0.1198200E+04  0.7818609E-02  0.9114434E-01
        2   -1    0    0  501    0  0.00000000000E+00  0.00000000000E+00  0.35775347704E+03  0.35775347705E+03  0.25500000920E-02 0.  1.
       -2   -1    0    0    0  501  0.00000000000E+00  0.00000000000E+00 -0.10032629958E+04  0.10032629958E+04  0.25500000920E-02 0. -1.
    10030    2    1    2    0    0  0.00000000000E+00  0.00000000000E+00 -0.64550951876E+03  0.13610164729E+04  0.11982000253E+04 0.  0.
        2    1    3    3  502    0  0.49663659994E+03  0.17035781470E+03  0.49849918948E+01  0.52506623161E+03  0.25500000920E-02 0.  1.
       -2    1    3    3    0  502 -0.49663659994E+03 -0.17035781470E+03 -0.65049451065E+03  0.83595024124E+03  0.25500000920E-02 0. -1.
</event>
<event>
 5   0  0.6658994E-03  0.1226615E+04  0.7818609E-02  0.9089874E-01
       -2   -1    0    0    0  501  0.00000000000E+00  0.00000000000E+00  0.21662666057E+03  0.21662666058E+03  0.25500000920E-02 0. -1.
        2   -1    0    0  501    0  0.00000000000E+00  0.00000000000E+00 -0.17363797611E+04  0.17363797611E+04  0.25500000920E-02 0.  1.
    10030    2    1    2    0    0  0.00000000000E+00  0.00000000000E+00 -0.15197531005E+04  0.19530064217E+04  0.12266150971E+04 0.  0.
        4    1    3    3  502    0 -0.37456728503E+03 -0.48328667380E+03 -0.83586724574E+03  0.10356361936E+04  0.12699999809E+01 0.  1.
       -4    1    3    3    0  502  0.37456728503E+03  0.48328667380E+03 -0.68388585478E+03  0.91737022807E+03  0.12699999809E+01 0. -1.
</event>
<event>
 5   0  0.3944074E-03  0.1213979E+04  0.7818609E-02  0.9100708E-01
       -1   -1    0    0    0  501  0.00000000000E+00  0.00000000000E+00  0.30805126669E+03  0.30805126673E+03  0.50400001928E-02 0. -1.
        1   -1    0    0  501    0  0.00000000000E+00  0.00000000000E+00 -0.11960227930E+04  0.11960227930E+04  0.50400001928E-02 0.  1.
    10030    2    1    2    0    0  0.00000000000E+00  0.00000000000E+00 -0.88797152635E+03  0.15040740598E+04  0.12139791372E+04 0.  0.
        4    1    3    3  502    0  0.46284005747E+03 -0.13703111538E+03  0.11972933132E+02  0.48284926158E+03  0.12699999809E+01 0. -1.
       -4    1    3    3    0  502 -0.46284005747E+03  0.13703111538E+03 -0.89994445948E+03  0.10212247982E+04  0.12699999809E+01 0.  1.
</event>
<event>
 5   0  0.6640844E-03  0.1130554E+04  0.7818609E-02  0.9175913E-01
       -2   -1    0    0    0  501  0.00000000000E+00  0.00000000000E+00  0.24851477583E+03  0.24851477584E+03  0.25500000920E-02 0. -1.
        2   -1    0    0  501    0  0.00000000000E+00  0.00000000000E+00 -0.12857915204E+04  0.12857915204E+04  0.25500000920E-02 0.  1.
    10030    2    1    2    0    0  0.00000000000E+00  0.00000000000E+00 -0.10372767446E+04  0.15343062962E+04  0.11305541853E+04 0.  0.
        5    1    3    3  502    0 -0.24574569091E+03 -0.46016811215E+03 -0.81401390032E+03  0.96684350128E+03  0.46999998093E+01 0. -1.
       -5    1    3    3    0  502  0.24574569091E+03  0.46016811215E+03 -0.22326284424E+03  0.56746279496E+03  0.46999998093E+01 0.  1.
</event>
<event>
 5   0  0.6349142E-03  0.1369011E+04  0.7818609E-02  0.8976560E-01
        2   -1    0    0  501    0  0.00000000000E+00  0.00000000000E+00  0.21747359601E+04  0.21747359601E+04  0.25500000920E-02 0. -1.
       -2   -1    0    0    0  501  0.00000000000E+00  0.00000000000E+00 -0.21545051225E+03  0.21545051226E+03  0.25500000920E-02 0.  1.
    10030    2    1    2    0    0  0.00000000000E+00  0.00000000000E+00  0.19592854478E+04  0.23901864724E+04  0.13690112879E+04 0.  0.
        1    1    3    3  502    0  0.36268500885E+02  0.58878544585E+03  0.37341740916E+03  0.69815776647E+03  0.50400001928E-02 0. -1.
       -1    1    3    3    0  502 -0.36268500885E+02 -0.58878544585E+03  0.15858680387E+04  0.16920287059E+04  0.50400001928E-02 0.  1.
</event>
<event>
 5   0  0.3944074E-03  0.1163583E+04  0.7818609E-02  0.9145343E-01
       -1   -1    0    0    0  501  0.00000000000E+00  0.00000000000E+00  0.30533129625E+03  0.30533129629E+03  0.50400001928E-02 0. -1.
        1   -1    0    0  501    0  0.00000000000E+00  0.00000000000E+00 -0.11085714401E+04  0.11085714402E+04  0.50400001928E-02 0.  1.
    10030    2    1    2    0    0  0.00000000000E+00  0.00000000000E+00 -0.80324014390E+03  0.14139027364E+04  0.11635833530E+04 0.  0.
        4    1    3    3  502    0 -0.15566929336E+03 -0.12569709639E+03 -0.10654484721E+04  0.10840732211E+04  0.12699999809E+01 0.  1.
       -4    1    3    3    0  502  0.15566929336E+03  0.12569709639E+03  0.26220832823E+03  0.32982951540E+03  0.12699999809E+01 0. -1.
</event>
<event>
 5   0  0.2537625E-03  0.1209823E+04  0.7818609E-02  0.9104302E-01
        3   -1    0    0  501    0  0.00000000000E+00  0.00000000000E+00  0.45265522408E+03  0.45265523535E+03  0.10100000352E+00 0. -1.
       -3   -1    0    0    0  501  0.00000000000E+00  0.00000000000E+00 -0.80838057438E+03  0.80838058069E+03  0.10100000352E+00 0.  1.
    10030    2    1    2    0    0  0.00000000000E+00  0.00000000000E+00 -0.35572535030E+03  0.12610358160E+04  0.12098226335E+04 0.  0.
        3    1    3    3  502    0 -0.34251677728E+03 -0.26259893331E+03  0.26392068413E+03  0.50589532535E+03  0.10100000352E+00 0. -1.
       -3    1    3    3    0  502  0.34251677728E+03  0.26259893331E+03 -0.61964603443E+03  0.75514049069E+03  0.10100000352E+00 0.  1.
</event>
<event>
 5   0  0.3701879E-03  0.1194753E+04  0.7818609E-02  0.9117461E-01
        1   -1    0    0  501    0  0.00000000000E+00  0.00000000000E+00  0.40052267325E+03  0.40052267328E+03  0.50400001928E-02 0.  1.
       -1   -1    0    0    0  501  0.00000000000E+00  0.00000000000E+00 -0.89098294001E+03  0.89098294002E+03  0.50400001928E-02 0. -1.
    10030    2    1    2    0    0  0.00000000000E+00  0.00000000000E+00 -0.49046026676E+03  0.12915056133E+04  0.11947533117E+04 0.  0.
        1    1    3    3  502    0 -0.58639292242E+03 -0.38562473784E+02 -0.36122873738E+03  0.68980426541E+03  0.50400001928E-02 0. -1.
       -1    1    3    3    0  502  0.58639292242E+03  0.38562473784E+02 -0.12923152938E+03  0.60170134789E+03  0.50400001928E-02 0.  1.
</event>
<event>
 5   0  0.6658994E-03  0.1144698E+04  0.7818609E-02  0.9162688E-01
       -2   -1    0    0    0  501  0.00000000000E+00  0.00000000000E+00  0.61891092108E+03  0.61891092108E+03  0.25500000920E-02 0. -1.
        2   -1    0    0  501    0  0.00000000000E+00  0.00000000000E+00 -0.52929045562E+03  0.52929045563E+03  0.25500000920E-02 0.  1.
    10030    2    1    2    0    0  0.00000000000E+00  0.00000000000E+00  0.89620465457E+02  0.11482013767E+04  0.11446984641E+04 0.  0.
        4    1    3    3  502    0 -0.77527235263E+02 -0.32659240965E+03 -0.42019112465E+03  0.53780597653E+03  0.12699999809E+01 0.  1.
       -4    1    3    3    0  502  0.77527235263E+02  0.32659240965E+03  0.50981159011E+03  0.61039540018E+03  0.12699999809E+01 0. -1.
</event>
<event>
 5   0  0.6493047E-03  0.1208235E+04  0.7818609E-02  0.9105679E-01
        2   -1    0    0  501    0  0.00000000000E+00  0.00000000000E+00  0.13952756333E+04  0.13952756333E+04  0.25500000920E-02 0.  1.
       -2   -1    0    0    0  501  0.00000000000E+00  0.00000000000E+00 -0.26156709131E+03  0.26156709133E+03  0.25500000920E-02 0. -1.
    10030    2    1    2    0    0  0.00000000000E+00  0.00000000000E+00  0.11337085420E+04  0.16568427246E+04  0.12082353893E+04 0.  0.
        3    1    3    3  502    0 -0.23701919851E+02  0.13548033077E+03 -0.23981183979E+03  0.27645330480E+03  0.10100000352E+00 0. -1.
       -3    1    3    3    0  502  0.23701919851E+02 -0.13548033077E+03  0.13735203817E+04  0.13803894198E+04  0.10100000352E+00 0.  1.
</event>
<event>
 5   0  0.6585930E-03  0.1190403E+04  0.7818609E-02  0.9121298E-01
        2   -1    0    0  501    0  0.00000000000E+00  0.00000000000E+00  0.74901230988E+03  0.74901230989E+03  0.25500000920E-02 0.  1.
       -2   -1    0    0    0  501  0.00000000000E+00  0.00000000000E+00 -0.47297632816E+03  0.47297632817E+03  0.25500000920E-02 0. -1.
    10030    2    1    2    0    0  0.00000000000E+00  0.00000000000E+00  0.27603598172E+03  0.12219886381E+04  0.11904034477E+04 0.  0.
        2    1    3    3  502    0 -0.56255237138E+03 -0.14132785233E+03  0.27507597009E+03  0.64195445456E+03  0.25500000920E-02 0.  1.
       -2    1    3    3    0  502  0.56255237138E+03  0.14132785233E+03  0.96001162988E+00  0.58003418350E+03  0.25500000920E-02 0. -1.
</event>
<event>
 5   0  0.6585930E-03  0.1163867E+04  0.7818609E-02  0.9145085E-01
        2   -1    0    0  501    0  0.00000000000E+00  0.00000000000E+00  0.22199490417E+04  0.22199490417E+04  0.25500000920E-02 0.  1.
       -2   -1    0    0    0  501  0.00000000000E+00  0.00000000000E+00 -0.15254701577E+03  0.15254701579E+03  0.25500000920E-02 0. -1.
    10030    2    1    2    0    0  0.00000000000E+00  0.00000000000E+00  0.20674020259E+04  0.23724960575E+04  0.11638670053E+04 0.  0.
        2    1    3    3  502    0 -0.36737288326E+03 -0.12027469228E+03  0.19204140557E+04  0.19589331235E+04  0.25500000920E-02 0.  1.
       -2    1    3    3    0  502  0.36737288326E+03  0.12027469228E+03  0.14698797018E+03  0.41356293395E+03  0.25500000920E-02 0. -1.
</event>
<event>
 5   0  0.6658994E-03  0.1174951E+04  0.7818609E-02  0.9135069E-01
       -2   -1    0    0    0  501  0.00000000000E+00  0.00000000000E+00  0.34579987831E+03  0.34579987832E+03  0.25500000920E-02 0. -1.
        2   -1    0    0  501    0  0.00000000000E+00  0.00000000000E+00 -0.99805494049E+03  0.99805494049E+03  0.25500000920E-02 0.  1.
    10030    2    1    2    0    0  0.00000000000E+00  0.00000000000E+00 -0.65225506218E+03  0.13438548188E+04  0.11749506832E+04 0.  0.
        4    1    3    3  502    0  0.21920537157E+03  0.29619867894E+03  0.19718348158E+03  0.41793251924E+03  0.12699999809E+01 0. -1.
       -4    1    3    3    0  502 -0.21920537157E+03 -0.29619867894E+03 -0.84943854375E+03  0.92592229957E+03  0.12699999809E+01 0.  1.
</event>
<event>
 5   0  0.6640844E-03  0.1195399E+04  0.7818609E-02  0.9116893E-01
        2   -1    0    0  501    0  0.00000000000E+00  0.00000000000E+00  0.90208665906E+03  0.90208665906E+03  0.25500000920E-02 0.  1.
       -2   -1    0    0    0  501  0.00000000000E+00  0.00000000000E+00 -0.39602036696E+03  0.39602036696E+03  0.25500000920E-02 0. -1.
    10030    2    1    2    0    0  0.00000000000E+00  0.00000000000E+00  0.50606629210E+03  0.12981070260E+04  0.11953989957E+04 0.  0.
        5    1    3    3  502    0 -0.19126584109E+03 -0.39917114522E+03  0.68916518757E+03  0.81907934347E+03  0.46999998093E+01 0.  1.
       -5    1    3    3    0  502  0.19126584109E+03  0.39917114522E+03 -0.18309889547E+03  0.47902768256E+03  0.46999998093E+01 0. -1.
</event>
<event>
 5   0  0.6640844E-03  0.1137400E+04  0.7818609E-02  0.9169487E-01
       -2   -1    0    0    0  501  0.00000000000E+00  0.00000000000E+00  0.38991506564E+03  0.38991506565E+03  0.25500000920E-02 0. -1.
        2   -1    0    0  501    0  0.00000000000E+00  0.00000000000E+00 -0.82946234707E+03  0.82946234708E+03  0.25500000920E-02 0.  1.
    10030    2    1    2    0    0  0.00000000000E+00  0.00000000000E+00 -0.43954728144E+03  0.12193774127E+04  0.11374003086E+04 0.  0.
        5    1    3    3  502    0  0.15567922915E+03  0.44643221323E+03 -0.55855589615E+03  0.73180907518E+03  0.46999998093E+01 0.  1.
       -5    1    3    3    0  502 -0.15567922915E+03 -0.44643221323E+03  0.11900861472E+03  0.48756833754E+03  0.46999998093E+01 0. -1.
</event>
<event>
 5   0  0.6493047E-03  0.1176087E+04  0.7818609E-02  0.9134049E-01
        2   -1    0    0  501    0  0.00000000000E+00  0.00000000000E+00  0.94765899833E+03  0.94765899833E+03  0.25500000920E-02 0.  1.
       -2   -1    0    0    0  501  0.00000000000E+00  0.00000000000E+00 -0.36489384723E+03  0.36489384723E+03  0.25500000920E-02 0. -1.
    10030    2    1    2    0    0  0.00000000000E+00  0.00000000000E+00  0.58276515110E+03  0.13125528456E+04  0.11760866257E+04 0.  0.
        3    1    3    3  502    0 -0.55351037924E+03 -0.54278915681E+02  0.78237619779E+02  0.56164141226E+03  0.10100000352E+00 0. -1.
       -3    1    3    3    0  502  0.55351037924E+03  0.54278915681E+02  0.50452753132E+03  0.75091143331E+03  0.10100000352E+00 0.  1.
</event>
<event>
 5   0  0.3944074E-03  0.1085973E+04  0.7818609E-02  0.9218972E-01
        1   -1    0    0  501    0  0.00000000000E+00  0.00000000000E+00  0.34414697963E+03  0.34414697966E+03  0.50400001928E-02 0. -1.
       -1   -1    0    0    0  501  0.00000000000E+00  0.00000000000E+00 -0.85671123266E+03  0.85671123268E+03  0.50400001928E-02 0.  1.
    10030    2    1    2    0    0  0.00000000000E+00  0.00000000000E+00 -0.51256425304E+03  0.12008582123E+04  0.10859734493E+04 0.  0.
        4    1    3    3  502    0  0.24071833614E+03 -0.29713428623E+02 -0.79347830047E+03  0.82972141796E+03  0.12699999809E+01 0.  1.
       -4    1    3    3    0  502 -0.24071833614E+03  0.29713428623E+02  0.28091404744E+03  0.37113679438E+03  0.12699999809E+01 0. -1.
</event>
<event>
 5   0  0.3701879E-03  0.1210656E+04  0.7818609E-02  0.9103580E-01
        1   -1    0    0  501    0  0.00000000000E+00  0.00000000000E+00  0.61671721685E+03  0.61671721687E+03  0.50400001928E-02 0.  1.
       -1   -1    0    0    0  501  0.00000000000E+00  0.00000000000E+00 -0.59414885283E+03  0.59414885285E+03  0.50400001928E-02 0. -1.
    10030    2    1    2    0    0  0.00000000000E+00  0.00000000000E+00  0.22568364022E+02  0.12108660697E+04  0.12106557346E+04 0.  0.
        1    1    3    3  502    0 -0.29229534945E+03  0.46176719600E+03  0.27162983269E+03  0.61028540917E+03  0.50400001928E-02 0.  1.
       -1    1    3    3    0  502  0.29229534945E+03 -0.46176719600E+03 -0.24906146867E+03  0.60058066054E+03  0.50400001928E-02 0. -1.
</event>
<event>
 5   0  0.6585930E-03  0.1192313E+04  0.7818609E-02  0.9119612E-01
        2   -1    0    0  501    0  0.00000000000E+00  0.00000000000E+00  0.78403649970E+03  0.78403649970E+03  0.25500000920E-02 0. -1.
       -2   -1    0    0    0  501  0.00000000000E+00  0.00000000000E+00 -0.45329826426E+03  0.45329826427E+03  0.25500000920E-02 0.  1.
    10030    2    1    2    0    0  0.00000000000E+00  0.00000000000E+00  0.33073823544E+03  0.12373347640E+04  0.11923126846E+04 0.  0.
        2    1    3    3  502    0 -0.25848896886E+03 -0.36437678864E+03 -0.24427076283E+03  0.50917108785E+03  0.25500000920E-02 0.  1.
       -2    1    3    3    0  502  0.25848896886E+03  0.36437678864E+03  0.57500899827E+03  0.72816367612E+03  0.25500000920E-02 0. -1.
</event>
<event>
 5   0  0.6658994E-03  0.1205120E+04  0.7818609E-02  0.9108387E-01
        2   -1    0    0  501    0  0.00000000000E+00  0.00000000000E+00  0.12565242365E+04  0.12565242365E+04  0.25500000920E-02 0.  1.
       -2   -1    0    0    0  501  0.00000000000E+00  0.00000000000E+00 -0.28895454016E+03  0.28895454017E+03  0.25500000920E-02 0. -1.
    10030    2    1    2    0    0  0.00000000000E+00  0.00000000000E+00  0.96756969631E+03  0.15454787766E+04  0.12051197168E+04 0.  0.
        4    1    3    3  502    0  0.14585320141E+03 -0.33732886335E+03  0.10961528884E+04  0.11561213976E+04  0.12699999809E+01 0.  1.
       -4    1    3    3    0  502 -0.14585320141E+03  0.33732886335E+03 -0.12858319208E+03  0.38935737902E+03  0.12699999809E+01 0. -1.
</event>
<event>
 5   0  0.3731281E-03  0.1182106E+04  0.7818609E-02  0.9128665E-01
       -1   -1    0    0    0  501  0.00000000000E+00  0.00000000000E+00  0.52743931215E+03  0.52743931217E+03  0.50400001928E-02 0. -1.
        1   -1    0    0  501    0  0.00000000000E+00  0.00000000000E+00 -0.66233909588E+03  0.66233909589E+03  0.50400001928E-02 0.  1.
    10030    2    1    2    0    0  0.00000000000E+00  0.00000000000E+00 -0.13489978373E+03  0.11897784081E+04  0.11821060480E+04 0.  0.
        5    1    3    3  502    0  0.40628104218E+03  0.17772623819E+03 -0.46071686234E+03  0.63947870818E+03  0.46999998093E+01 0.  1.
       -5    1    3    3    0  502 -0.40628104218E+03 -0.17772623819E+03  0.32581707861E+03  0.55029969988E+03  0.46999998093E+01 0. -1.
</event>
<event>
 5   0  0.2537625E-03  0.1148088E+04  0.7818609E-02  0.9159549E-01
        3   -1    0    0  501    0  0.00000000000E+00  0.00000000000E+00  0.43453881009E+03  0.43453882183E+03  0.10100000352E+00 0. -1.
       -3   -1    0    0    0  501  0.00000000000E+00  0.00000000000E+00 -0.75833666369E+03  0.75833667041E+03  0.10100000352E+00 0.  1.
    10030    2    1    2    0    0  0.00000000000E+00  0.00000000000E+00 -0.32379785359E+03  0.11928754922E+04  0.11480883633E+04 0.  0.
        4    1    3    3  502    0  0.27076957091E+03  0.50136146378E+03 -0.23422501922E+03  0.61607016680E+03  0.12699999809E+01 0.  1.
       -4    1    3    3    0  502 -0.27076957091E+03 -0.50136146378E+03 -0.89572834373E+02  0.57680532544E+03  0.12699999809E+01 0. -1.
</event>
<event>
 5   0  0.6349142E-03  0.1186355E+04  0.7818609E-02  0.9124885E-01
       -2   -1    0    0    0  501  0.00000000000E+00  0.00000000000E+00  0.39606082466E+03  0.39606082467E+03  0.25500000920E-02 0.  1.
        2   -1    0    0  501    0  0.00000000000E+00  0.00000000000E+00 -0.88839721344E+03  0.88839721345E+03  0.25500000920E-02 0. -1.
    10030    2    1    2    0    0  0.00000000000E+00  0.00000000000E+00 -0.49233638879E+03  0.12844580381E+04  0.11863546400E+04 0.  0.
        1    1    3    3  502    0 -0.22627378039E+03  0.43815578854E+03  0.11075784507E+03  0.50541826143E+03  0.50400001928E-02 0.  1.
       -1    1    3    3    0  502  0.22627378039E+03 -0.43815578854E+03 -0.60309423385E+03  0.77903977668E+03  0.50400001928E-02 0. -1.
</event>
<event>
 5   0  0.3731281E-03  0.1205779E+04  0.7818609E-02  0.9107813E-01
        1   -1    0    0  501    0  0.00000000000E+00  0.00000000000E+00  0.23827177486E+03  0.23827177491E+03  0.50400001928E-02 0.  1.
       -1   -1    0    0    0  501  0.00000000000E+00  0.00000000000E+00 -0.15254675174E+04  0.15254675174E+04  0.50400001928E-02 0. -1.
    10030    2    1    2    0    0  0.00000000000E+00  0.00000000000E+00 -0.12871957425E+04  0.17637392923E+04  0.12057791720E+04 0.  0.
        5    1    3    3  502    0  0.50986229102E+02 -0.37052457161E+03 -0.13352205222E+04  0.13866232317E+04  0.46999998093E+01 0. -1.
       -5    1    3    3    0  502 -0.50986229102E+02  0.37052457161E+03  0.48024779667E+02  0.37711606063E+03  0.46999998093E+01 0.  1.
</event>
<event>
 5   0  0.3944074E-03  0.1214248E+04  0.7818609E-02  0.9100476E-01
        1   -1    0    0  501    0  0.00000000000E+00  0.00000000000E+00  0.12817324768E+04  0.12817324768E+04  0.50400001928E-02 0. -1.
       -1   -1    0    0    0  501  0.00000000000E+00  0.00000000000E+00 -0.28757935264E+03  0.28757935269E+03  0.50400001928E-02 0.  1.
    10030    2    1    2    0    0  0.00000000000E+00  0.00000000000E+00  0.99415312418E+03  0.15693118295E+04  0.12142484029E+04 0.  0.
        4    1    3    3  502    0  0.34871624160E+03 -0.47925527983E+03  0.32703914291E+03  0.67693785113E+03  0.12699999809E+01 0.  1.
       -4    1    3    3    0  502 -0.34871624160E+03  0.47925527983E+03  0.66711398127E+03  0.89237397839E+03  0.12699999809E+01 0. -1.
</event>
<event>
 5   0  0.3944074E-03  0.1190725E+04  0.7818609E-02  0.9121014E-01
        1   -1    0    0  501    0  0.00000000000E+00  0.00000000000E+00  0.97636909255E+03  0.97636909256E+03  0.50400001928E-02 0.  1.
       -1   -1    0    0    0  501  0.00000000000E+00  0.00000000000E+00 -0.36303535049E+03  0.36303535052E+03  0.50400001928E-02 0. -1.
    10030    2    1    2    0    0  0.00000000000E+00  0.00000000000E+00  0.61333374207E+03  0.13394044431E+04  0.11907249821E+04 0.  0.
        4    1    3    3  502    0 -0.18720033360E+02  0.30180520480E+03  0.88355693121E+03  0.93386898700E+03  0.12699999809E+01 0.  1.
       -4    1    3    3    0  502  0.18720033360E+02 -0.30180520480E+03 -0.27022318914E+03  0.40553545609E+03  0.12699999809E+01 0. -1.
</event>
<event>
 5   0  0.3701879E-03  0.1154014E+04  0.7818609E-02  0.9154088E-01
       -1   -1    0    0    0  501  0.00000000000E+00  0.00000000000E+00  0.31145802654E+03  0.31145802658E+03  0.50400001928E-02 0. -1.
        1   -1    0    0  501    0  0.00000000000E+00  0.00000000000E+00 -0.10689631977E+04  0.10689631977E+04  0.50400001928E-02 0.  1.
    10030    2    1    2    0    0  0.00000000000E+00  0.00000000000E+00 -0.75750517111E+03  0.13804212242E+04  0.11540141559E+04 0.  0.
        1    1    3    3  502    0  0.16023595575E+03  0.33340549091E+03 -0.90846716923E+03  0.98089111551E+03  0.50400001928E-02 0.  1.
       -1    1    3    3    0  502 -0.16023595575E+03 -0.33340549091E+03  0.15096199812E+03  0.39953010874E+03  0.50400001928E-02 0. -1.
</event>
<event>
 5   0  0.3701879E-03  0.1172902E+04  0.7818609E-02  0.9136911E-01
       -1   -1    0    0    0  501  0.00000000000E+00  0.00000000000E+00  0.23679857243E+03  0.23679857249E+03  0.50400001928E-02 0. -1.
        1   -1    0    0  501    0  0.00000000000E+00  0.00000000000E+00 -0.14523949393E+04  0.14523949393E+04  0.50400001928E-02 0.  1.
    10030    2    1    2    0    0  0.00000000000E+00  0.00000000000E+00 -0.12155963669E+04  0.16891935118E+04  0.11729024653E+04 0.  0.
        1    1    3    3  502    0 -0.33691296162E+03  0.24490217815E+03 -0.13231943588E+02  0.41672833468E+03  0.50400001928E-02 0. -1.
       -1    1    3    3    0  502  0.33691296162E+03 -0.24490217815E+03 -0.12023644233E+04  0.12724651771E+04  0.50400001928E-02 0.  1.
</event>
<event>
 5   0  0.2537625E-03  0.1177756E+04  0.7818609E-02  0.9132552E-01
        4   -1    0    0  501    0  0.00000000000E+00  0.00000000000E+00  0.70999294493E+03  0.70999408079E+03  0.12699999809E+01 0. -1.
       -4   -1    0    0    0  501  0.00000000000E+00  0.00000000000E+00 -0.48842144856E+03  0.48842309969E+03  0.12699999809E+01 0.  1.
    10030    2    1    2    0    0  0.00000000000E+00  0.00000000000E+00  0.22157149637E+03  0.11984171805E+04  0.11777562611E+04 0.  0.
        1    1    3    3  502    0 -0.25289883546E+03 -0.47457160408E+03  0.35499899385E+03  0.64436039143E+03  0.50400001928E-02 0. -1.
       -1    1    3    3    0  502  0.25289883546E+03  0.47457160408E+03 -0.13342749748E+03  0.55405678905E+03  0.50400001928E-02 0.  1.
</event>
<event>
 5   0  0.3731281E-03  0.1196424E+04  0.7818609E-02  0.9115992E-01
        1   -1    0    0  501    0  0.00000000000E+00  0.00000000000E+00  0.33913946139E+03  0.33913946142E+03  0.50400001928E-02 0.  1.
       -1   -1    0    0    0  501  0.00000000000E+00  0.00000000000E+00 -0.10551933274E+04  0.10551933274E+04  0.50400001928E-02 0. -1.
    10030    2    1    2    0    0  0.00000000000E+00  0.00000000000E+00 -0.71605386597E+03  0.13943327888E+04  0.11964241668E+04 0.  0.
        5    1    3    3  502    0 -0.30097227349E+03 -0.32551355392E+03  0.11001846337E+03  0.45680360712E+03  0.46999998093E+01 0.  1.
       -5    1    3    3    0  502  0.30097227349E+03  0.32551355392E+03 -0.82607232934E+03  0.93752918167E+03  0.46999998093E+01 0. -1.
</event>
<event>
 5   0  0.6493047E-03  0.1316332E+04  0.7818609E-02  0.9016713E-01
        2   -1    0    0  501    0  0.00000000000E+00  0.00000000000E+00  0.85143189522E+03  0.85143189523E+03  0.25500000920E-02 0.  1.
       -2   -1    0    0    0  501  0.00000000000E+00  0.00000000000E+00 -0.50876955617E+03  0.50876955617E+03  0.25500000920E-02 0. -1.
    10030    2    1    2    0    0  0.00000000000E+00  0.00000000000E+00  0.34266233905E+03  0.13602014514E+04  0.13163322186E+04 0.  0.
        3    1    3    3  502    0  0.39972139784E+03 -0.42905015287E+03 -0.13749596617E+03  0.60230090526E+03  0.10100000352E+00 0. -1.
       -3    1    3    3    0  502 -0.39972139784E+03  0.42905015287E+03  0.48015830522E+03  0.75790054614E+03  0.10100000352E+00 0.  1.
</event>
<event>
 5   0  0.3772254E-03  0.1545389E+04  0.7818609E-02  0.8854819E-01
       -1   -1    0    0    0  501  0.00000000000E+00  0.00000000000E+00  0.63173662177E+03  0.63173662179E+03  0.50400001928E-02 0. -1.
        1   -1    0    0  501    0  0.00000000000E+00  0.00000000000E+00 -0.94510364855E+03  0.94510364857E+03  0.50400001928E-02 0.  1.
    10030    2    1    2    0    0  0.00000000000E+00  0.00000000000E+00 -0.31336702678E+03  0.15768402704E+04  0.15453887358E+04 0.  0.
        3    1    3    3  502    0  0.70882287803E+03  0.44341285823E+01  0.15715894170E+03  0.72604991362E+03  0.10100000352E+00 0. -1.
       -3    1    3    3    0  502 -0.70882287803E+03 -0.44341285823E+01 -0.47052596847E+03  0.85079035674E+03  0.10100000352E+00 0.  1.
</event>
<event>
 5   0  0.3648616E-03  0.1196499E+04  0.7818609E-02  0.9115927E-01
        1   -1    0    0  501    0  0.00000000000E+00  0.00000000000E+00  0.60261557986E+03  0.60261557988E+03  0.50400001928E-02 0. -1.
       -1   -1    0    0    0  501  0.00000000000E+00  0.00000000000E+00 -0.59391479793E+03  0.59391479795E+03  0.50400001928E-02 0.  1.
    10030    2    1    2    0    0  0.00000000000E+00  0.00000000000E+00  0.87007819310E+01  0.11965303778E+04  0.11964987428E+04 0.  0.
        2    1    3    3  502    0  0.17808644294E+03 -0.45472687661E+03  0.34991849040E+03  0.60077804837E+03  0.25500000920E-02 0. -1.
       -2    1    3    3    0  502 -0.17808644294E+03  0.45472687661E+03 -0.34121770847E+03  0.59575232946E+03  0.25500000920E-02 0.  1.
</event>
<event>
 5   0  0.6640844E-03  0.1221537E+04  0.7818609E-02  0.9094211E-01
        2   -1    0    0  501    0  0.00000000000E+00  0.00000000000E+00  0.15875504969E+04  0.15875504969E+04  0.25500000920E-02 0.  1.
       -2   -1    0    0    0  501  0.00000000000E+00  0.00000000000E+00 -0.23497737292E+03  0.23497737293E+03  0.25500000920E-02 0. -1.
    10030    2    1    2    0    0  0.00000000000E+00  0.00000000000E+00  0.13525731240E+04  0.18225278698E+04  0.12215374659E+04 0.  0.
        5    1    3    3  502    0 -0.27754203745E+03 -0.32298592786E+03  0.23094491649E+02  0.42650315086E+03  0.46999998093E+01 0. -1.
       -5    1    3    3    0  502  0.27754203745E+03  0.32298592786E+03  0.13294786323E+04  0.13960247190E+04  0.46999998093E+01 0.  1.
</event>
<event>
 5   0  0.6493047E-03  0.1236874E+04  0.7818609E-02  0.9081179E-01
       -2   -1    0    0    0  501  0.00000000000E+00  0.00000000000E+00  0.25962362602E+03  0.25962362604E+03  0.25500000920E-02 0. -1.
        2   -1    0    0  501    0  0.00000000000E+00  0.00000000000E+00 -0.14731488851E+04  0.14731488851E+04  0.25500000920E-02 0.  1.
    10030    2    1    2    0    0  0.00000000000E+00  0.00000000000E+00 -0.12135252591E+04  0.17327725112E+04  0.12368738905E+04 0.  0.
        3    1    3    3  502    0 -0.36459946381E+03  0.43635532202E+03 -0.94740884936E+03  0.11049535167E+04  0.10100000352E+00 0. -1.
       -3    1    3    3    0  502  0.36459946381E+03 -0.43635532202E+03 -0.26611640975E+03  0.62781899446E+03  0.10100000352E+00 0.  1.
</event>
<event>
 5   0  0.3701879E-03  0.1204881E+04  0.7818609E-02  0.9108595E-01
       -1   -1    0    0    0  501  0.00000000000E+00  0.00000000000E+00  0.50026470822E+03  0.50026470824E+03  0.50400001928E-02 0. -1.
        1   -1    0    0  501    0  0.00000000000E+00  0.00000000000E+00 -0.72548450009E+03  0.72548450011E+03  0.50400001928E-02 0.  1.
    10030    2    1    2    0    0  0.00000000000E+00  0.00000000000E+00 -0.22521979187E+03  0.12257492084E+04  0.12048805614E+04 0.  0.
        1    1    3    3  502    0  0.16113442006E+02 -0.30581766711E+03 -0.64039238822E+03  0.70984963158E+03  0.50400001928E-02 0.  1.
       -1    1    3    3    0  502 -0.16113442006E+02  0.30581766711E+03  0.41517259635E+03  0.51589957678E+03  0.50400001928E-02 0. -1.
</event>
<event>
 5   0  0.6658994E-03  0.1203632E+04  0.7818609E-02  0.9109683E-01
        2   -1    0    0  501    0  0.00000000000E+00  0.00000000000E+00  0.56426570499E+03  0.56426570499E+03  0.25500000920E-02 0. -1.
       -2   -1    0    0    0  501  0.00000000000E+00  0.00000000000E+00 -0.64186511082E+03  0.64186511082E+03  0.25500000920E-02 0.  1.
    10030    2    1    2    0    0  0.00000000000E+00  0.00000000000E+00 -0.77599405829E+02  0.12061308158E+04  0.12036319525E+04 0.  0.
        4    1    3    3  502    0 -0.50966998755E+03 -0.11445350126E+03  0.26068152659E+03  0.58379754313E+03  0.12699999809E+01 0. -1.
       -4    1    3    3    0  502  0.50966998755E+03  0.11445350126E+03 -0.33828093242E+03  0.62233327269E+03  0.12699999809E+01 0.  1.
</event>
<event>
 5   0  0.6349142E-03  0.1197498E+04  0.7818609E-02  0.9115049E-01
       -2   -1    0    0    0  501  0.00000000000E+00  0.00000000000E+00  0.24746430353E+03  0.24746430355E+03  0.25500000920E-02 0. -1.
        2   -1    0    0  501    0  0.00000000000E+00  0.00000000000E+00 -0.14486953064E+04  0.14486953064E+04  0.25500000920E-02 0.  1.
    10030    2    1    2    0    0  0.00000000000E+00  0.00000000000E+00 -0.12012310029E+04  0.16961596100E+04  0.11974980168E+04 0.  0.
        1    1    3    3  502    0 -0.19417732402E+03 -0.45568682019E+03 -0.10770571517E+04  0.11854988061E+04  0.50400001928E-02 0.  1.
       -1    1    3    3    0  502  0.19417732402E+03  0.45568682019E+03 -0.12417385120E+03  0.51066080386E+03  0.50400001928E-02 0. -1.
</event>
<event>
 5   0  0.6493047E-03  0.1082010E+04  0.7818609E-02  0.9222906E-01
       -2   -1    0    0    0  501  0.00000000000E+00  0.00000000000E+00  0.51317772900E+03  0.51317772901E+03  0.25500000920E-02 0.  1.
        2   -1    0    0  501    0  0.00000000000E+00  0.00000000000E+00 -0.57034111799E+03  0.57034111799E+03  0.25500000920E-02 0. -1.
    10030    2    1    2    0    0  0.00000000000E+00  0.00000000000E+00 -0.57163388984E+02  0.10835188470E+04  0.10820099070E+04 0.  0.
        3    1    3    3  502    0 -0.26337522407E+03  0.12173663716E+03 -0.48583651826E+03  0.56588289438E+03  0.10100000352E+00 0. -1.
       -3    1    3    3    0  502  0.26337522407E+03 -0.12173663716E+03  0.42867312927E+03  0.51763595262E+03  0.10100000352E+00 0.  1.
</event>
<event>
 5   0  0.3731281E-03  0.1213799E+04  0.7818609E-02  0.9100864E-01
       -1   -1    0    0    0  501  0.00000000000E+00  0.00000000000E+00  0.27665692711E+03  0.27665692716E+03  0.50400001928E-02 0.  1.
        1   -1    0    0  501    0  0.00000000000E+00  0.00000000000E+00 -0.13313482151E+04  0.13313482151E+04  0.50400001928E-02 0. -1.
    10030    2    1    2    0    0  0.00000000000E+00  0.00000000000E+00 -0.10546912880E+04  0.16080051423E+04  0.12137985107E+04 0.  0.
        5    1    3    3  502    0  0.16845041520E+03 -0.16475129002E+03  0.21356280263E+03  0.31804039147E+03  0.46999998093E+01 0.  1.
       -5    1    3    3    0  502 -0.16845041520E+03  0.16475129002E+03 -0.12682540906E+04  0.12899647508E+04  0.46999998093E+01 0. -1.
</event>
<event>
 5   0  0.3648616E-03  0.1214045E+04  0.7818609E-02  0.9100651E-01
        1   -1    0    0  501    0  0.00000000000E+00  0.00000000000E+00  0.78660880481E+03  0.78660880483E+03  0.50400001928E-02 0.  1.
       -1   -1    0    0    0  501  0.00000000000E+00  0.00000000000E+00 -0.46843672045E+03  0.46843672048E+03  0.50400001928E-02 0. -1.
    10030    2    1    2    0    0  0.00000000000E+00  0.00000000000E+00  0.31817208436E+03  0.12550455253E+04  0.12140452196E+04 0.  0.
        2    1    3    3  502    0  0.19005452015E+03  0.24924861362E+03 -0.37830705733E+03  0.49128588587E+03  0.25500000920E-02 0. -1.
       -2    1    3    3    0  502 -0.19005452015E+03 -0.24924861362E+03  0.69647914169E+03  0.76375963944E+03  0.25500000920E-02 0.  1.
</event>
<event>
 5   0  0.3701879E-03  0.1179011E+04  0.7818609E-02  0.9131429E-01
       -1   -1    0    0    0  501  0.00000000000E+00  0.00000000000E+00  0.42211803717E+03  0.42211803720E+03  0.50400001928E-02 0. -1.
        1   -1    0    0  501    0  0.00000000000E+00  0.00000000000E+00 -0.82326895595E+03  0.82326895596E+03  0.50400001928E-02 0.  1.
    10030    2    1    2    0    0  0.00000000000E+00  0.00000000000E+00 -0.40115091878E+03  0.12453869932E+04  0.11790109003E+04 0.  0.
        1    1    3    3  502    0  0.56371174701E+03 -0.16551832759E+03 -0.25177514835E+03  0.63918540021E+03  0.50400001928E-02 0.  1.
       -1    1    3    3    0  502 -0.56371174701E+03  0.16551832759E+03 -0.14937577042E+03  0.60620159295E+03  0.50400001928E-02 0. -1.
</event>
<event>
 5   0  0.6585930E-03  0.1200910E+04  0.7818609E-02  0.9112060E-01
       -2   -1    0    0    0  501  0.00000000000E+00  0.00000000000E+00  0.63908318166E+03  0.63908318167E+03  0.25500000920E-02 0.  1.
        2   -1    0    0  501    0  0.00000000000E+00  0.00000000000E+00 -0.56416194898E+03  0.56416194899E+03  0.25500000920E-02 0. -1.
    10030    2    1    2    0    0  0.00000000000E+00  0.00000000000E+00  0.74921232679E+02  0.12032451307E+04  0.12009103436E+04 0.  0.
        2    1    3    3  502    0  0.55610121727E+03  0.18605130264E+03 -0.91952265325E+02  0.59356454592E+03  0.25500000920E-02 0. -1.
       -2    1    3    3    0  502 -0.55610121727E+03 -0.18605130264E+03  0.16687349800E+03  0.60968058474E+03  0.25500000920E-02 0.  1.
</event>
<event>
 5   0  0.6658994E-03  0.1221928E+04  0.7818609E-02  0.9093876E-01
       -2   -1    0    0    0  501  0.00000000000E+00  0.00000000000E+00  0.27764343503E+03  0.27764343505E+03  0.25500000920E-02 0. -1.
        2   -1    0    0  501    0  0.00000000000E+00  0.00000000000E+00 -0.13444480269E+04  0.13444480269E+04  0.25500000920E-02 0.  1.
    10030    2    1    2    0    0  0.00000000000E+00  0.00000000000E+00 -0.10668045919E+04  0.16220914620E+04  0.12219282605E+04 0.  0.
        4    1    3    3  502    0  0.18479770480E+03 -0.46100816409E+02 -0.13040300220E+04  0.13178662254E+04  0.12699999809E+01 0.  1.
       -4    1    3    3    0  502 -0.18479770480E+03  0.46100816409E+02  0.23722543009E+03  0.30422523655E+03  0.12699999809E+01 0. -1.
</event>
<event>
 5   0  0.3648616E-03  0.1168047E+04  0.7818609E-02  0.9141294E-01
       -1   -1    0    0    0  501  0.00000000000E+00  0.00000000000E+00  0.53513960467E+03  0.53513960469E+03  0.50400001928E-02 0. -1.
        1   -1    0    0  501    0  0.00000000000E+00  0.00000000000E+00 -0.63737314709E+03  0.63737314711E+03  0.50400001928E-02 0.  1.
    10030    2    1    2    0    0  0.00000000000E+00  0.00000000000E+00 -0.10223354242E+03  0.11725127518E+04  0.11680472833E+04 0.  0.
        2    1    3    3  502    0  0.28633490735E+03 -0.19876859858E+03  0.41927578759E+03  0.54524198391E+03  0.25500000920E-02 0. -1.
       -2    1    3    3    0  502 -0.28633490735E+03  0.19876859858E+03 -0.52150933002E+03  0.62727076789E+03  0.25500000920E-02 0.  1.
</event>
<event>
 5   0  0.3731281E-03  0.1192332E+04  0.7818609E-02  0.9119595E-01
        1   -1    0    0  501    0  0.00000000000E+00  0.00000000000E+00  0.27465560519E+03  0.27465560523E+03  0.50400001928E-02 0.  1.
       -1   -1    0    0    0  501  0.00000000000E+00  0.00000000000E+00 -0.12940343921E+04  0.12940343922E+04  0.50400001928E-02 0. -1.
    10030    2    1    2    0    0  0.00000000000E+00  0.00000000000E+00 -0.10193787870E+04  0.15686899974E+04  0.11923318316E+04 0.  0.
        5    1    3    3  502    0 -0.27047918527E+03  0.22287344382E+02  0.18864134084E+03  0.33055008827E+03  0.46999998093E+01 0.  1.
       -5    1    3    3    0  502  0.27047918527E+03 -0.22287344382E+02 -0.12080201278E+04  0.12381399091E+04  0.46999998093E+01 0. -1.
</event>
<event>
 5   0  0.3648616E-03  0.1165492E+04  0.7818609E-02  0.9143609E-01
       -1   -1    0    0    0  501  0.00000000000E+00  0.00000000000E+00  0.72268529575E+03  0.72268529577E+03  0.50400001928E-02 0. -1.
        1   -1    0    0  501    0  0.00000000000E+00  0.00000000000E+00 -0.46990419207E+03  0.46990419210E+03  0.50400001928E-02 0.  1.
    10030    2    1    2    0    0  0.00000000000E+00  0.00000000000E+00  0.25278110368E+03  0.11925894879E+04  0.11654919134E+04 0.  0.
        2    1    3    3  502    0 -0.47377097530E+03  0.93776324402E+01  0.47346082940E+03  0.66985971219E+03  0.25500000920E-02 0. -1.
       -2    1    3    3    0  502  0.47377097530E+03 -0.93776324402E+01 -0.22067972572E+03  0.52272977568E+03  0.25500000920E-02 0.  1.
</event>
<event>
 5   0  0.2537625E-03  0.1222774E+04  0.7818609E-02  0.9093152E-01
        3   -1    0    0  501    0  0.00000000000E+00  0.00000000000E+00  0.46357928437E+03  0.46357929537E+03  0.10100000352E+00 0.  1.
       -3   -1    0    0    0  501  0.00000000000E+00  0.00000000000E+00 -0.80632235347E+03  0.80632235979E+03  0.10100000352E+00 0. -1.
    10030    2    1    2    0    0  0.00000000000E+00  0.00000000000E+00 -0.34274306910E+03  0.12699016552E+04  0.12227744691E+04 0.  0.
        2    1    3    3  502    0  0.45448659109E+03  0.40251619111E+03 -0.24638415777E+03  0.65519653448E+03  0.25500000920E-02 0.  1.
       -2    1    3    3    0  502 -0.45448659109E+03 -0.40251619111E+03 -0.96358911334E+02  0.61470512068E+03  0.25500000920E-02 0. -1.
</event>
<event>
 5   0  0.6585930E-03  0.1186199E+04  0.7818609E-02  0.9125023E-01
       -2   -1    0    0    0  501  0.00000000000E+00  0.00000000000E+00  0.30759237193E+03  0.30759237194E+03  0.25500000920E-02 0. -1.
        2   -1    0    0  501    0  0.00000000000E+00  0.00000000000E+00 -0.11436145038E+04  0.11436145038E+04  0.25500000920E-02 0.  1.
    10030    2    1    2    0    0  0.00000000000E+00  0.00000000000E+00 -0.83602213188E+03  0.14512068758E+04  0.11861991364E+04 0.  0.
        2    1    3    3  502    0  0.45941075504E+03  0.65773520479E+02  0.33794280464E+02  0.46532402823E+03  0.25500000920E-02 0. -1.
       -2    1    3    3    0  502 -0.45941075504E+03 -0.65773520479E+02 -0.86981641235E+03  0.98588284752E+03  0.25500000920E-02 0.  1.
</event>
<event>
 5   0  0.6493047E-03  0.1216887E+04  0.7818609E-02  0.9098203E-01
        2   -1    0    0  501    0  0.00000000000E+00  0.00000000000E+00  0.18634039833E+04  0.18634039833E+04  0.25500000920E-02 0. -1.
       -2   -1    0    0    0  501  0.00000000000E+00  0.00000000000E+00 -0.19867046978E+03  0.19867046979E+03  0.25500000920E-02 0.  1.
    10030    2    1    2    0    0  0.00000000000E+00  0.00000000000E+00  0.16647335135E+04  0.20620744531E+04  0.12168867569E+04 0.  0.
        3    1    3    3  502    0  0.19617197663E+03  0.56971014216E+03  0.68907717665E+03  0.91535810264E+03  0.10100000352E+00 0.  1.
       -3    1    3    3    0  502 -0.19617197663E+03 -0.56971014216E+03  0.97565633686E+03  0.11467163504E+04  0.10100000352E+00 0. -1.
</event>
<event>
 5   0  0.6585930E-03  0.1168634E+04  0.7818609E-02  0.9140763E-01
        2   -1    0    0  501    0  0.00000000000E+00  0.00000000000E+00  0.49750498912E+03  0.49750498913E+03  0.25500000920E-02 0. -1.
       -2   -1    0    0    0  501  0.00000000000E+00  0.00000000000E+00 -0.68627740145E+03  0.68627740145E+03  0.25500000920E-02 0.  1.
    10030    2    1    2    0    0  0.00000000000E+00  0.00000000000E+00 -0.18877241233E+03  0.11837823906E+04  0.11686341278E+04 0.  0.
        2    1    3    3  502    0 -0.94522949285E+02 -0.10242616714E+02 -0.67838947883E+03  0.68501955019E+03  0.25500000920E-02 0.  1.
       -2    1    3    3    0  502  0.94522949285E+02  0.10242616714E+02  0.48961706651E+03  0.49876284039E+03  0.25500000920E-02 0. -1.
</event>
<event>
 5   0  0.3772254E-03  0.1191255E+04  0.7818609E-02  0.9120545E-01
       -1   -1    0    0    0  501  0.00000000000E+00  0.00000000000E+00  0.10615691646E+04  0.10615691646E+04  0.50400001928E-02 0. -1.
        1   -1    0    0  501    0  0.00000000000E+00  0.00000000000E+00 -0.33419613530E+03  0.33419613534E+03  0.50400001928E-02 0.  1.
    10030    2    1    2    0    0  0.00000000000E+00  0.00000000000E+00  0.72737302928E+03  0.13957652999E+04  0.11912553248E+04 0.  0.
        3    1    3    3  502    0 -0.21195424679E+03 -0.57509805423E+02 -0.28502461137E+03  0.35982081616E+03  0.10100000352E+00 0.  1.
       -3    1    3    3    0  502  0.21195424679E+03  0.57509805423E+02  0.10123976407E+04  0.10359444838E+04  0.10100000352E+00 0. -1.
</event>
<event>
 5   0  0.3731281E-03  0.1160473E+04  0.7818609E-02  0.9148176E-01
        1   -1    0    0  501    0  0.00000000000E+00  0.00000000000E+00  0.84994473461E+03  0.84994473463E+03  0.50400001928E-02 0.  1.
       -1   -1    0    0    0  501  0.00000000000E+00  0.00000000000E+00 -0.39611294270E+03  0.39611294273E+03  0.50400001928E-02 0. -1.
    10030    2    1    2    0    0  0.00000000000E+00  0.00000000000E+00  0.45383179191E+03  0.12460576774E+04  0.11604725072E+04 0.  0.
        5    1    3    3  502    0  0.54910927951E+03  0.11452725579E+03  0.67600419411E+02  0.56500389368E+03  0.46999998093E+01 0. -1.
       -5    1    3    3    0  502 -0.54910927951E+03 -0.11452725579E+03  0.38623137250E+03  0.68105378368E+03  0.46999998093E+01 0.  1.
</event>
<event>
 5   0  0.6640844E-03  0.1206055E+04  0.7818609E-02  0.9107573E-01
       -2   -1    0    0    0  501  0.00000000000E+00  0.00000000000E+00  0.21990811603E+03  0.21990811604E+03  0.25500000920E-02 0.  1.
        2   -1    0    0  501    0  0.00000000000E+00  0.00000000000E+00 -0.16536088588E+04  0.16536088588E+04  0.25500000920E-02 0. -1.
    10030    2    1    2    0    0  0.00000000000E+00  0.00000000000E+00 -0.14337007428E+04  0.18735169749E+04  0.12060547397E+04 0.  0.
        5    1    3    3  502    0  0.41017401808E+03  0.32618168169E+03 -0.25346383363E+03  0.58215394831E+03  0.46999998093E+01 0. -1.
       -5    1    3    3    0  502 -0.41017401808E+03 -0.32618168169E+03 -0.11802369092E+04  0.12913630265E+04  0.46999998093E+01 0.  1.
</event>
<event>
 5   0  0.3731281E-03  0.1289933E+04  0.7818609E-02  0.9037587E-01
        1   -1    0    0  501    0  0.00000000000E+00  0.00000000000E+00  0.10235724394E+04  0.10235724394E+04  0.50400001928E-02 0.  1.
       -1   -1    0    0    0  501  0.00000000000E+00  0.00000000000E+00 -0.40640201942E+03  0.40640201945E+03  0.50400001928E-02 0. -1.
    10030    2    1    2    0    0  0.00000000000E+00  0.00000000000E+00  0.61717042000E+03  0.14299744589E+04  0.12899331865E+04 0.  0.
        5    1    3    3  502    0 -0.19398350079E+03 -0.80415284524E+02 -0.36742444537E+03  0.42322456169E+03  0.46999998093E+01 0. -1.
       -5    1    3    3    0  502  0.19398350079E+03  0.80415284524E+02  0.98459486537E+03  0.10067498972E+04  0.46999998093E+01 0.  1.
</event>
<event>
 5   0  0.3648616E-03  0.1195452E+04  0.7818609E-02  0.9116847E-01
       -1   -1    0    0    0  501  0.00000000000E+00  0.00000000000E+00  0.61247887777E+03  0.61247887779E+03  0.50400001928E-02 0.  1.
        1   -1    0    0  501    0  0.00000000000E+00  0.00000000000E+00 -0.58332806628E+03  0.58332806630E+03  0.50400001928E-02 0. -1.
    10030    2    1    2    0    0  0.00000000000E+00  0.00000000000E+00  0.29150811491E+02  0.11958069441E+04  0.11954515790E+04 0.  0.
        2    1    3    3  502    0  0.16184914457E+03  0.22258069523E+03 -0.51618463015E+03  0.58496485697E+03  0.25500000920E-02 0. -1.
       -2    1    3    3    0  502 -0.16184914457E+03 -0.22258069523E+03  0.54533544164E+03  0.61084208712E+03  0.25500000920E-02 0.  1.
</event>
<event>
 5   0  0.6640844E-03  0.1211191E+04  0.7818609E-02  0.9103117E-01
        2   -1    0    0  501    0  0.00000000000E+00  0.00000000000E+00  0.80447343731E+03  0.80447343732E+03  0.25500000920E-02 0.  1.
       -2   -1    0    0    0  501  0.00000000000E+00  0.00000000000E+00 -0.45588336272E+03  0.45588336273E+03  0.25500000920E-02 0. -1.
    10030    2    1    2    0    0  0.00000000000E+00  0.00000000000E+00  0.34859007459E+03  0.12603568000E+04  0.12111912414E+04 0.  0.
        5    1    3    3  502    0  0.10774128303E+03  0.11306103576E+02  0.79428919231E+03  0.80165667406E+03  0.46999998093E+01 0.  1.
       -5    1    3    3    0  502 -0.10774128303E+03 -0.11306103576E+02 -0.44569911772E+03  0.45870012599E+03  0.46999998093E+01 0. -1.
</event>
<event>
 5   0  0.3701879E-03  0.1199694E+04  0.7818609E-02  0.9113125E-01
       -1   -1    0    0    0  501  0.00000000000E+00  0.00000000000E+00  0.38520541517E+03  0.38520541520E+03  0.50400001928E-02 0. -1.
        1   -1    0    0  501    0  0.00000000000E+00  0.00000000000E+00 -0.93408912791E+03  0.93408912792E+03  0.50400001928E-02 0.  1.
    10030    2    1    2    0    0  0.00000000000E+00  0.00000000000E+00 -0.54888371274E+03  0.13192945431E+04  0.11996936115E+04 0.  0.
        1    1    3    3  502    0 -0.36713891119E+03 -0.25455165347E+03  0.16574951807E+03  0.47650858037E+03  0.50400001928E-02 0. -1.
       -1    1    3    3    0  502  0.36713891119E+03  0.25455165347E+03 -0.71463323081E+03  0.84278596275E+03  0.50400001928E-02 0.  1.
</event>
<event>
 5   0  0.6493047E-03  0.1254442E+04  0.7818609E-02  0.9066495E-01
       -2   -1    0    0    0  501  0.00000000000E+00  0.00000000000E+00  0.22135130182E+03  0.22135130183E+03  0.25500000920E-02 0.  1.
        2   -1    0    0  501    0  0.00000000000E+00  0.00000000000E+00 -0.17772921910E+04  0.17772921910E+04  0.25500000920E-02 0. -1.
    10030    2    1    2    0    0  0.00000000000E+00  0.00000000000E+00 -0.15559408892E+04  0.19986434929E+04  0.12544416132E+04 0.  0.
        3    1    3    3  502    0  0.17809114112E+03  0.29757998419E+03  0.54701742852E+02  0.35108772751E+03  0.10100000352E+00 0.  1.
       -3    1    3    3    0  502 -0.17809114112E+03 -0.29757998419E+03 -0.16106426321E+04  0.16475557654E+04  0.10100000352E+00 0. -1.
</event>
<event>
 5   0  0.6349142E-03  0.1177472E+04  0.7818609E-02  0.9132807E-01
       -2   -1    0    0    0  501  0.00000000000E+00  0.00000000000E+00  0.14431333293E+04  0.14431333293E+04  0.25500000920E-02 0.  1.
        2   -1    0    0  501    0  0.00000000000E+00  0.00000000000E+00 -0.24017891890E+03  0.24017891892E+03  0.25500000920E-02 0. -1.
    10030    2    1    2    0    0  0.00000000000E+00  0.00000000000E+00  0.12029544104E+04  0.16833122482E+04  0.11774722126E+04 0.  0.
        1    1    3    3  502    0 -0.29776781667E+03  0.48567968221E+03  0.81380877497E+03  0.99339576635E+03  0.50400001928E-02 0.  1.
       -1    1    3    3    0  502  0.29776781667E+03 -0.48567968221E+03  0.38914563542E+03  0.68991648187E+03  0.50400001928E-02 0. -1.
</event>
<event>
 5   0  0.6493047E-03  0.1167780E+04  0.7818609E-02  0.9141536E-01
        2   -1    0    0  501    0  0.00000000000E+00  0.00000000000E+00  0.12573026813E+04  0.12573026813E+04  0.25500000920E-02 0. -1.
       -2   -1    0    0    0  501  0.00000000000E+00  0.00000000000E+00 -0.27115792720E+03  0.27115792721E+03  0.25500000920E-02 0.  1.
    10030    2    1    2    0    0  0.00000000000E+00  0.00000000000E+00  0.98614475408E+03  0.15284606085E+04  0.11677800973E+04 0.  0.
        3    1    3    3  502    0  0.44962591076E+03 -0.93659113526E+02  0.21170566310E+02  0.45976482277E+03  0.10100000352E+00 0.  1.
       -3    1    3    3    0  502 -0.44962591076E+03  0.93659113526E+02  0.96497418777E+03  0.10686957857E+04  0.10100000352E+00 0. -1.
</event>
<event>
 5   0  0.2537625E-03  0.8566661E+03  0.7818609E-02  0.9481433E-01
        4   -1    0    0  501    0  0.00000000000E+00  0.00000000000E+00  0.49368942808E+03  0.49369106160E+03  0.12699999809E+01 0. -1.
       -4   -1    0    0    0  501  0.00000000000E+00  0.00000000000E+00 -0.37162543680E+03  0.37162760685E+03  0.12699999809E+01 0.  1.
    10030    2    1    2    0    0  0.00000000000E+00  0.00000000000E+00  0.12206399129E+03  0.86531866845E+03  0.85666608430E+03 0.  0.
        3    1    3    3  502    0  0.23842570636E+03 -0.16613068736E+03 -0.25682549942E+03  0.38782156991E+03  0.10100000352E+00 0.  1.
       -3    1    3    3    0  502 -0.23842570636E+03  0.16613068736E+03  0.37888949071E+03  0.47749709853E+03  0.10100000352E+00 0. -1.
</event>
<event>
 5   0  0.6658994E-03  0.1214217E+04  0.7818609E-02  0.9100503E-01
        2   -1    0    0  501    0  0.00000000000E+00  0.00000000000E+00  0.83619660973E+03  0.83619660973E+03  0.25500000920E-02 0. -1.
       -2   -1    0    0    0  501  0.00000000000E+00  0.00000000000E+00 -0.44078239017E+03  0.44078239017E+03  0.25500000920E-02 0.  1.
    10030    2    1    2    0    0  0.00000000000E+00  0.00000000000E+00  0.39541421956E+03  0.12769789999E+04  0.12142170157E+04 0.  0.
        4    1    3    3  502    0  0.60520057231E+03 -0.30731738769E+02  0.23659053669E+03  0.65052968222E+03  0.12699999809E+01 0. -1.
       -4    1    3    3    0  502 -0.60520057231E+03  0.30731738769E+02  0.15882368288E+03  0.62644931769E+03  0.12699999809E+01 0.  1.
</event>
<event>
 5   0  0.3731281E-03  0.1210383E+04  0.7818609E-02  0.9103816E-01
        1   -1    0    0  501    0  0.00000000000E+00  0.00000000000E+00  0.12438442439E+04  0.12438442439E+04  0.50400001928E-02 0.  1.
       -1   -1    0    0    0  501  0.00000000000E+00  0.00000000000E+00 -0.29445563782E+03  0.29445563787E+03  0.50400001928E-02 0. -1.
    10030    2    1    2    0    0  0.00000000000E+00  0.00000000000E+00  0.94938860611E+03  0.15382998818E+04  0.12103833281E+04 0.  0.
        5    1    3    3  502    0 -0.36565188550E+03 -0.43137973378E+03  0.74859172890E+03  0.93819051512E+03  0.46999998093E+01 0.  1.
       -5    1    3    3    0  502  0.36565188550E+03  0.43137973378E+03  0.20079687721E+03  0.60010936669E+03  0.46999998093E+01 0. -1.
</event>
<event>
 5   0  0.2537625E-03  0.1220094E+04  0.7818609E-02  0.9095448E-01
        4   -1    0    0  501    0  0.00000000000E+00  0.00000000000E+00  0.54746138598E+03  0.54746285905E+03  0.12699999809E+01 0. -1.
       -4   -1    0    0    0  501  0.00000000000E+00  0.00000000000E+00 -0.67978482504E+03  0.67978601137E+03  0.12699999809E+01 0.  1.
    10030    2    1    2    0    0  0.00000000000E+00  0.00000000000E+00 -0.13232343905E+03  0.12272488704E+04  0.12200943805E+04 0.  0.
        4    1    3    3  502    0 -0.83093712646E+02 -0.47493579507E+03  0.30977765178E+03  0.57309020317E+03  0.12699999809E+01 0. -1.
       -4    1    3    3    0  502  0.83093712646E+02  0.47493579507E+03 -0.44210109084E+03  0.65415866725E+03  0.12699999809E+01 0.  1.
</event>
<event>
 5   0  0.2537625E-03  0.1181527E+04  0.7818609E-02  0.9129182E-01
        3   -1    0    0  501    0  0.00000000000E+00  0.00000000000E+00  0.83173429559E+03  0.83173430173E+03  0.10100000352E+00 0.  1.
       -3   -1    0    0    0  501  0.00000000000E+00  0.00000000000E+00 -0.41960664288E+03  0.41960665504E+03  0.10100000352E+00 0. -1.
    10030    2    1    2    0    0  0.00000000000E+00  0.00000000000E+00  0.41212765271E+03  0.12513409568E+04  0.11815265498E+04 0.  0.
        3    1    3    3  502    0 -0.27980251086E+03  0.39169280667E+03  0.56877418499E+03  0.74512870271E+03  0.10100000352E+00 0.  1.
       -3    1    3    3    0  502  0.27980251086E+03 -0.39169280667E+03 -0.15664653228E+03  0.50621225406E+03  0.10100000352E+00 0. -1.
</event>
<event>
 5   0  0.2537625E-03  0.1207814E+04  0.7818609E-02  0.9106044E-01
        3   -1    0    0  501    0  0.00000000000E+00  0.00000000000E+00  0.13226441068E+04  0.13226441107E+04  0.10100000352E+00 0. -1.
       -3   -1    0    0    0  501  0.00000000000E+00  0.00000000000E+00 -0.27573845565E+03  0.27573847415E+03  0.10100000352E+00 0.  1.
    10030    2    1    2    0    0  0.00000000000E+00  0.00000000000E+00  0.10469056512E+04  0.15983825848E+04  0.12078143256E+04 0.  0.
        3    1    3    3  502    0 -0.37903322259E+03 -0.29027195499E+03  0.34021639010E+02  0.47862456456E+03  0.10100000352E+00 0.  1.
       -3    1    3    3    0  502  0.37903322259E+03  0.29027195499E+03  0.10128840122E+04  0.11197580203E+04  0.10100000352E+00 0. -1.
</event>
<event>
 5   0  0.2537625E-03  0.1234663E+04  0.7818609E-02  0.9083046E-01
       -3   -1    0    0    0  501  0.00000000000E+00  0.00000000000E+00  0.57441559310E+03  0.57441560198E+03  0.10100000352E+00 0.  1.
        3   -1    0    0  501    0  0.00000000000E+00  0.00000000000E+00 -0.66345332298E+03  0.66345333067E+03  0.10100000352E+00 0. -1.
    10030    2    1    2    0    0  0.00000000000E+00  0.00000000000E+00 -0.89037729887E+02  0.12378689326E+04  0.12346626167E+04 0.  0.
        2    1    3    3  502    0 -0.47722419371E+03  0.38775033381E+03 -0.99476284473E+02  0.62288745662E+03  0.25500000920E-02 0.  1.
       -2    1    3    3    0  502  0.47722419371E+03 -0.38775033381E+03  0.10438554586E+02  0.61498147603E+03  0.25500000920E-02 0. -1.
</event>
<event>
 5   0  0.3648616E-03  0.1272148E+04  0.7818609E-02  0.9051949E-01
       -1   -1    0    0    0  501  0.00000000000E+00  0.00000000000E+00  0.18125223666E+04  0.18125223666E+04  0.50400001928E-02 0. -1.
        1   -1    0    0  501    0  0.00000000000E+00  0.00000000000E+00 -0.22321929184E+03  0.22321929190E+03  0.50400001928E-02 0.  1.
    10030    2    1    2    0    0  0.00000000000E+00  0.00000000000E+00  0.15893030748E+04  0.20357416586E+04  0.12721477260E+04 0.  0.
        2    1    3    3  502    0  0.11469220041E+03  0.27466687656E+03  0.16941996049E+04  0.17201478120E+04  0.25500000920E-02 0. -1.
       -2    1    3    3    0  502 -0.11469220041E+03 -0.27466687656E+03 -0.10489653013E+03  0.31559384651E+03  0.25500000920E-02 0.  1.
</event>
<event>
 5   0  0.3772254E-03  0.1175689E+04  0.7818609E-02  0.9134406E-01
       -1   -1    0    0    0  501  0.00000000000E+00  0.00000000000E+00  0.63969185054E+03  0.63969185056E+03  0.50400001928E-02 0.  1.
        1   -1    0    0  501    0  0.00000000000E+00  0.00000000000E+00 -0.54019908913E+03  0.54019908915E+03  0.50400001928E-02 0. -1.
    10030    2    1    2    0    0  0.00000000000E+00  0.00000000000E+00  0.99492761411E+02  0.11798909397E+04  0.11756886578E+04 0.  0.
        3    1    3    3  502    0 -0.16369656501E+03  0.24925014751E+03 -0.45865959653E+03  0.54707480030E+03  0.10100000352E+00 0. -1.
       -3    1    3    3    0  502  0.16369656501E+03 -0.24925014751E+03  0.55815235794E+03  0.63281613942E+03  0.10100000352E+00 0.  1.
</event>
<event>
 5   0  0.3731281E-03  0.1180430E+04  0.7818609E-02  0.9130161E-01
       -1   -1    0    0    0  501  0.00000000000E+00  0.00000000000E+00  0.29436698090E+03  0.29436698094E+03  0.50400001928E-02 0. -1.
        1   -1    0    0  501    0  0.00000000000E+00  0.00000000000E+00 -0.11833991275E+04  0.11833991275E+04  0.50400001928E-02 0.  1.
    10030    2    1    2    0    0  0.00000000000E+00  0.00000000000E+00 -0.88903214657E+03  0.14777661084E+04  0.11804298004E+04 0.  0.
        5    1    3    3  502    0  0.60570913333E+02 -0.48151622949E+03 -0.24051535978E+02  0.48592929649E+03  0.46999998093E+01 0. -1.
       -5    1    3    3    0  502 -0.60570913333E+02  0.48151622949E+03 -0.86498061059E+03  0.99183681193E+03  0.46999998093E+01 0.  1.
</event>
<event>
 5   0  0.6640844E-03  0.9129129E+03  0.7818609E-02  0.9409582E-01
        2   -1    0    0  501    0  0.00000000000E+00  0.00000000000E+00  0.53676112549E+03  0.53676112550E+03  0.25500000920E-02 0. -1.
       -2   -1    0    0    0  501  0.00000000000E+00  0.00000000000E+00 -0.38816616832E+03  0.38816616833E+03  0.25500000920E-02 0.  1.
    10030    2    1    2    0    0  0.00000000000E+00  0.00000000000E+00  0.14859495717E+03  0.92492729383E+03  0.91291294085E+03 0.  0.
        5    1    3    3  502    0 -0.30900336308E+03 -0.22987268390E+03  0.32248227495E+03  0.50233598005E+03  0.46999998093E+01 0. -1.
       -5    1    3    3    0  502  0.30900336308E+03  0.22987268390E+03 -0.17388731778E+03  0.42259131378E+03  0.46999998093E+01 0.  1.
</event>
<event>
 5   0  0.3701879E-03  0.1203113E+04  0.7818609E-02  0.9110136E-01
        1   -1    0    0  501    0  0.00000000000E+00  0.00000000000E+00  0.20302495723E+04  0.20302495723E+04  0.50400001928E-02 0. -1.
       -1   -1    0    0    0  501  0.00000000000E+00  0.00000000000E+00 -0.17823923813E+03  0.17823923820E+03  0.50400001928E-02 0.  1.
    10030    2    1    2    0    0  0.00000000000E+00  0.00000000000E+00  0.18520103341E+04  0.22084888105E+04  0.12031128576E+04 0.  0.
        1    1    3    3  502    0  0.32677985018E+03 -0.23456131870E+03  0.10494395002E+03  0.41571302047E+03  0.50400001928E-02 0.  1.
       -1    1    3    3    0  502 -0.32677985018E+03  0.23456131870E+03  0.17470663841E+04  0.17927757900E+04  0.50400001928E-02 0. -1.
</event>
<event>
 5   0  0.3731281E-03  0.1184820E+04  0.7818609E-02  0.9126248E-01
       -1   -1    0    0    0  501  0.00000000000E+00  0.00000000000E+00  0.19408352133E+03  0.19408352139E+03  0.50400001928E-02 0. -1.
        1   -1    0    0  501    0  0.00000000000E+00  0.00000000000E+00 -0.18082414127E+04  0.18082414127E+04  0.50400001928E-02 0.  1.
    10030    2    1    2    0    0  0.00000000000E+00  0.00000000000E+00 -0.16141578914E+04  0.20023249341E+04  0.11848204267E+04 0.  0.
        5    1    3    3  502    0  0.15606696031E+02 -0.54894221755E+03 -0.43166462763E+03  0.69852528080E+03  0.46999998093E+01 0. -1.
       -5    1    3    3    0  502 -0.15606696031E+02  0.54894221755E+03 -0.11824932637E+04  0.13037996533E+04  0.46999998093E+01 0.  1.
</event>
<event>
 5   0  0.3944074E-03  0.7728773E+03  0.7818609E-02  0.9600128E-01
        1   -1    0    0  501    0  0.00000000000E+00  0.00000000000E+00  0.14591515952E+04  0.14591515952E+04  0.50400001928E-02 0.  1.
       -1   -1    0    0    0  501  0.00000000000E+00  0.00000000000E+00 -0.10234359343E+03  0.10234359356E+03  0.50400001928E-02 0. -1.
    10030    2    1    2    0    0  0.00000000000E+00  0.00000000000E+00  0.13568080017E+04  0.15614951887E+04  0.77287726766E+03 0.  0.
        4    1    3    3  502    0  0.35523703782E+03  0.13010175818E+03  0.51914857994E+03  0.64236802651E+03  0.12699999809E+01 0. -1.
       -4    1    3    3    0  502 -0.35523703782E+03 -0.13010175818E+03  0.83765942179E+03  0.91912716223E+03  0.12699999809E+01 0.  1.
</event>
<event>
 5   0  0.3648616E-03  0.1257026E+04  0.7818609E-02  0.9064356E-01
        1   -1    0    0  501    0  0.00000000000E+00  0.00000000000E+00  0.14720043250E+04  0.14720043250E+04  0.50400001928E-02 0. -1.
       -1   -1    0    0    0  501  0.00000000000E+00  0.00000000000E+00 -0.26836104165E+03  0.26836104170E+03  0.50400001928E-02 0.  1.
    10030    2    1    2    0    0  0.00000000000E+00  0.00000000000E+00  0.12036432833E+04  0.17403653667E+04  0.12570260364E+04 0.  0.
        2    1    3    3  502    0 -0.32346059576E+03  0.53600124655E+03  0.67896409368E+03  0.92353469552E+03  0.25500000920E-02 0. -1.
       -2    1    3    3    0  502  0.32346059576E+03 -0.53600124655E+03  0.52467918966E+03  0.81683067119E+03  0.25500000920E-02 0.  1.
</event>
<event>
 5   0  0.6585930E-03  0.1194892E+04  0.7818609E-02  0.9117339E-01
        2   -1    0    0  501    0  0.00000000000E+00  0.00000000000E+00  0.97588960623E+03  0.97588960623E+03  0.25500000920E-02 0. -1.
       -2   -1    0    0    0  501  0.00000000000E+00  0.00000000000E+00 -0.36576063570E+03  0.36576063571E+03  0.25500000920E-02 0.  1.
    10030    2    1    2    0    0  0.00000000000E+00  0.00000000000E+00  0.61012897053E+03  0.13416502419E+04  0.11948924684E+04 0.  0.
        2    1    3    3  502    0 -0.28570778099E+03  0.19530857600E+02 -0.28367454613E+03  0.40309011232E+03  0.25500000920E-02 0.  1.
       -2    1    3    3    0  502  0.28570778099E+03 -0.19530857600E+02  0.89380351666E+03  0.93856012962E+03  0.25500000920E-02 0. -1.
</event>
<event>
 5   0  0.6493047E-03  0.1212302E+04  0.7818609E-02  0.9102156E-01
       -2   -1    0    0    0  501  0.00000000000E+00  0.00000000000E+00  0.24517715872E+03  0.24517715873E+03  0.25500000920E-02 0.  1.
        2   -1    0    0  501    0  0.00000000000E+00  0.00000000000E+00 -0.14985868965E+04  0.14985868965E+04  0.25500000920E-02 0. -1.
    10030    2    1    2    0    0  0.00000000000E+00  0.00000000000E+00 -0.12534097378E+04  0.17437640552E+04  0.12123024002E+04 0.  0.
        3    1    3    3  502    0 -0.57172379056E+03  0.20059192707E+03 -0.60121436449E+03  0.85355956803E+03  0.10100000352E+00 0. -1.
       -3    1    3    3    0  502  0.57172379056E+03 -0.20059192707E+03 -0.65219537329E+03  0.89020448721E+03  0.10100000352E+00 0.  1.
</event>
<event>
 5   0  0.6658994E-03  0.1175564E+04  0.7818609E-02  0.9134518E-01
       -2   -1    0    0    0  501  0.00000000000E+00  0.00000000000E+00  0.59911454319E+03  0.59911454320E+03  0.25500000920E-02 0.  1.
        2   -1    0    0  501    0  0.00000000000E+00  0.00000000000E+00 -0.57666365552E+03  0.57666365552E+03  0.25500000920E-02 0. -1.
    10030    2    1    2    0    0  0.00000000000E+00  0.00000000000E+00  0.22450887672E+02  0.11757781987E+04  0.11755638350E+04 0.  0.
        4    1    3    3  502    0 -0.44442095979E+03 -0.89680162457E+02 -0.36291956403E+03  0.58074499042E+03  0.12699999809E+01 0. -1.
       -4    1    3    3    0  502  0.44442095979E+03  0.89680162457E+02  0.38537045171E+03  0.59503320830E+03  0.12699999809E+01 0.  1.
</event>
<event>
 5   0  0.3772254E-03  0.1105294E+04  0.7818609E-02  0.9200047E-01
        1   -1    0    0  501    0  0.00000000000E+00  0.00000000000E+00  0.11561989980E+04  0.11561989980E+04  0.50400001928E-02 0.  1.
       -1   -1    0    0    0  501  0.00000000000E+00  0.00000000000E+00 -0.26415761260E+03  0.26415761265E+03  0.50400001928E-02 0. -1.
    10030    2    1    2    0    0  0.00000000000E+00  0.00000000000E+00  0.89204138540E+03  0.14203566107E+04  0.11052941094E+04 0.  0.
        3    1    3    3  502    0  0.16608201774E+03  0.16411094640E+03 -0.19766309412E+03  0.30591885904E+03  0.10100000352E+00 0. -1.
       -3    1    3    3    0  502 -0.16608201774E+03 -0.16411094640E+03  0.10897044795E+04  0.11144377516E+04  0.10100000352E+00 0.  1.
</event>
<event>
 5   0  0.6349142E-03  0.1143460E+04  0.7818609E-02  0.9163838E-01
        2   -1    0    0  501    0  0.00000000000E+00  0.00000000000E+00  0.81477276593E+03  0.81477276593E+03  0.25500000920E-02 0. -1.
       -2   -1    0    0    0  501  0.00000000000E+00  0.00000000000E+00 -0.40118580662E+03  0.40118580662E+03  0.25500000920E-02 0.  1.
    10030    2    1    2    0    0  0.00000000000E+00  0.00000000000E+00  0.41358695932E+03  0.12159585726E+04  0.11434601337E+04 0.  0.
        1    1    3    3  502    0 -0.63121961547E+02 -0.52230752063E+03  0.44478133951E+03  0.68892667835E+03  0.50400001928E-02 0. -1.
       -1    1    3    3    0  502  0.63121961547E+02  0.52230752063E+03 -0.31194380197E+02  0.52703189421E+03  0.50400001928E-02 0.  1.
</event>
<event>
 5   0  0.6640844E-03  0.1149857E+04  0.7818609E-02  0.9157916E-01
       -2   -1    0    0    0  501  0.00000000000E+00  0.00000000000E+00  0.49545999923E+03  0.49545999924E+03  0.25500000920E-02 0.  1.
        2   -1    0    0  501    0  0.00000000000E+00  0.00000000000E+00 -0.66714265453E+03  0.66714265453E+03  0.25500000920E-02 0. -1.
    10030    2    1    2    0    0  0.00000000000E+00  0.00000000000E+00 -0.17168265529E+03  0.11626026538E+04  0.11498565112E+04 0.  0.
        5    1    3    3  502    0 -0.53052090037E+03 -0.19239049387E+02  0.13728073744E+03  0.54835267632E+03  0.46999998093E+01 0.  1.
       -5    1    3    3    0  502  0.53052090037E+03  0.19239049387E+02 -0.30896339274E+03  0.61424997746E+03  0.46999998093E+01 0. -1.
</event>
<event>
 5   0  0.3944074E-03  0.1198031E+04  0.7818609E-02  0.9114582E-01
        1   -1    0    0  501    0  0.00000000000E+00  0.00000000000E+00  0.12128551592E+04  0.12128551592E+04  0.50400001928E-02 0. -1.
       -1   -1    0    0    0  501  0.00000000000E+00  0.00000000000E+00 -0.29584684738E+03  0.29584684743E+03  0.50400001928E-02 0.  1.
    10030    2    1    2    0    0  0.00000000000E+00  0.00000000000E+00  0.91700831183E+03  0.15087020067E+04  0.11980306761E+04 0.  0.
        4    1    3    3  502    0  0.31020532386E+03 -0.26957202652E+03 -0.90306347520E+02  0.42077698337E+03  0.12699999809E+01 0.  1.
       -4    1    3    3    0  502 -0.31020532386E+03  0.26957202652E+03  0.10073146594E+04  0.10879250233E+04  0.12699999809E+01 0. -1.
</event>
<event>
 5   0  0.3648616E-03  0.1207485E+04  0.7818609E-02  0.9106330E-01
        1   -1    0    0  501    0  0.00000000000E+00  0.00000000000E+00  0.81283803573E+03  0.81283803575E+03  0.50400001928E-02 0. -1.
       -1   -1    0    0    0  501  0.00000000000E+00  0.00000000000E+00 -0.44843533367E+03  0.44843533370E+03  0.50400001928E-02 0.  1.
    10030    2    1    2    0    0  0.00000000000E+00  0.00000000000E+00  0.36440270206E+03  0.12612733694E+04  0.12074854795E+04 0.  0.
        2    1    3    3  502    0 -0.44272085265E+03 -0.90252411637E+02 -0.23608402886E+03  0.50978713191E+03  0.25500000920E-02 0.  1.
       -2    1    3    3    0  502  0.44272085265E+03  0.90252411637E+02  0.60048673092E+03  0.75148623753E+03  0.25500000920E-02 0. -1.
</event>
<event>
 5   0  0.3648616E-03  0.9553266E+03  0.7818609E-02  0.9358946E-01
        1   -1    0    0  501    0  0.00000000000E+00  0.00000000000E+00  0.12542319782E+04  0.12542319782E+04  0.50400001928E-02 0.  1.
       -1   -1    0    0    0  501  0.00000000000E+00  0.00000000000E+00 -0.18191391558E+03  0.18191391565E+03  0.50400001928E-02 0. -1.
    10030    2    1    2    0    0  0.00000000000E+00  0.00000000000E+00  0.10723180627E+04  0.14361458939E+04  0.95532664625E+03 0.  0.
        2    1    3    3  502    0 -0.39017524970E+03 -0.49438584890E+02  0.94366618401E+03  0.10223437612E+04  0.25500000920E-02 0.  1.
       -2    1    3    3    0  502  0.39017524970E+03  0.49438584890E+02  0.12865187864E+03  0.41380213271E+03  0.25500000920E-02 0. -1.
</event>
<event>
 5   0  0.3772254E-03  0.1195865E+04  0.7818609E-02  0.9116484E-01
       -1   -1    0    0    0  501  0.00000000000E+00  0.00000000000E+00  0.31216025944E+03  0.31216025948E+03  0.50400001928E-02 0.  1.
        1   -1    0    0  501    0  0.00000000000E+00  0.00000000000E+00 -0.11453198213E+04  0.11453198213E+04  0.50400001928E-02 0. -1.
    10030    2    1    2    0    0  0.00000000000E+00  0.00000000000E+00 -0.83315956186E+03  0.14574800808E+04  0.11958650971E+04 0.  0.
        3    1    3    3  502    0  0.43408333615E+03 -0.39344840061E+03 -0.56228906847E+03  0.81203386222E+03  0.10100000352E+00 0. -1.
       -3    1    3    3    0  502 -0.43408333615E+03  0.39344840061E+03 -0.27087049338E+03  0.64544621856E+03  0.10100000352E+00 0.  1.
</event>
<event>
 5   0  0.3648616E-03  0.1140191E+04  0.7818609E-02  0.9166880E-01
        1   -1    0    0  501    0  0.00000000000E+00  0.00000000000E+00  0.17837050448E+04  0.17837050449E+04  0.50400001928E-02 0.  1.
       -1   -1    0    0    0  501  0.00000000000E+00  0.00000000000E+00 -0.18221008060E+03  0.18221008067E+03  0.50400001928E-02 0. -1.
    10030    2    1    2    0    0  0.00000000000E+00  0.00000000000E+00  0.16014949642E+04  0.19659151255E+04  0.11401912823E+04 0.  0.
        2    1    3    3  502    0 -0.32933660184E+03 -0.20256481261E+02  0.16023345852E+04  0.16359550866E+04  0.25500000920E-02 0.  1.
       -2    1    3    3    0  502  0.32933660184E+03  0.20256481261E+02 -0.83962093106E+00  0.32996003897E+03  0.25500000920E-02 0. -1.
</event>
<event>
 5   0  0.6585930E-03  0.1181203E+04  0.7818609E-02  0.9129470E-01
        2   -1    0    0  501    0  0.00000000000E+00  0.00000000000E+00  0.53879986530E+03  0.53879986530E+03  0.25500000920E-02 0.  1.
       -2   -1    0    0    0  501  0.00000000000E+00  0.00000000000E+00 -0.64738357795E+03  0.64738357796E+03  0.25500000920E-02 0. -1.
    10030    2    1    2    0    0  0.00000000000E+00  0.00000000000E+00 -0.10858371266E+03  0.11861834433E+04  0.11812030894E+04 0.  0.
        2    1    3    3  502    0 -0.50482852810E+03  0.12514617256E+03  0.22670355450E+03  0.56736928795E+03  0.25500000920E-02 0.  1.
       -2    1    3    3    0  502  0.50482852810E+03 -0.12514617256E+03 -0.33528726716E+03  0.61881415531E+03  0.25500000920E-02 0. -1.
</event>
<event>
 5   0  0.6585930E-03  0.1211096E+04  0.7818609E-02  0.9103199E-01
        2   -1    0    0  501    0  0.00000000000E+00  0.00000000000E+00  0.13310131399E+04  0.13310131400E+04  0.25500000920E-02 0. -1.
       -2   -1    0    0    0  501  0.00000000000E+00  0.00000000000E+00 -0.27549591219E+03  0.27549591220E+03  0.25500000920E-02 0.  1.
    10030    2    1    2    0    0  0.00000000000E+00  0.00000000000E+00  0.10555172278E+04  0.16065090522E+04  0.12110964935E+04 0.  0.
        2    1    3    3  502    0 -0.41607452960E+02 -0.40477881891E+03 -0.67112660898E+02  0.41240899801E+03  0.25500000920E-02 0.  1.
       -2    1    3    3    0  502  0.41607452960E+02  0.40477881891E+03  0.11226298887E+04  0.11941000541E+04  0.25500000920E-02 0. -1.
</event>
<event>
 5   0  0.6493047E-03  0.1214025E+04  0.7818609E-02  0.9100668E-01
        2   -1    0    0  501    0  0.00000000000E+00  0.00000000000E+00  0.82494192005E+03  0.82494192006E+03  0.25500000920E-02 0. -1.
       -2   -1    0    0    0  501  0.00000000000E+00  0.00000000000E+00 -0.44665456100E+03  0.44665456101E+03  0.25500000920E-02 0.  1.
    10030    2    1    2    0    0  0.00000000000E+00  0.00000000000E+00  0.37828735905E+03  0.12715964811E+04  0.12140248287E+04 0.  0.
        3    1    3    3  502    0  0.25797394076E+02 -0.46125785996E+03 -0.22327969096E+03  0.51310637251E+03  0.10100000352E+00 0.  1.
       -3    1    3    3    0  502 -0.25797394076E+02  0.46125785996E+03  0.60156705001E+03  0.75849010855E+03  0.10100000352E+00 0. -1.
</event>
<event>
 5   0  0.2537625E-03  0.1186153E+04  0.7818609E-02  0.9125064E-01
       -3   -1    0    0    0  501  0.00000000000E+00  0.00000000000E+00  0.10806900290E+04  0.10806900337E+04  0.10100000352E+00 0.  1.
        3   -1    0    0  501    0  0.00000000000E+00  0.00000000000E+00 -0.32547701472E+03  0.32547703039E+03  0.10100000352E+00 0. -1.
    10030    2    1    2    0    0  0.00000000000E+00  0.00000000000E+00  0.75521301427E+03  0.14061670641E+04  0.11861530741E+04 0.  0.
        5    1    3    3  502    0 -0.16715563484E+03  0.24265455599E+02  0.10515503486E+04  0.10650399261E+04  0.46999998093E+01 0.  1.
       -5    1    3    3    0  502  0.16715563484E+03 -0.24265455599E+02 -0.29633733430E+03  0.34112713801E+03  0.46999998093E+01 0. -1.
</event>
<event>
 5   0  0.3701879E-03  0.1201232E+04  0.7818609E-02  0.9111779E-01
       -1   -1    0    0    0  501  0.00000000000E+00  0.00000000000E+00  0.82099566283E+03  0.82099566285E+03  0.50400001928E-02 0. -1.
        1   -1    0    0  501    0  0.00000000000E+00  0.00000000000E+00 -0.43939254920E+03  0.43939254922E+03  0.50400001928E-02 0.  1.
    10030    2    1    2    0    0  0.00000000000E+00  0.00000000000E+00  0.38160311364E+03  0.12603882121E+04  0.12012316632E+04 0.  0.
        1    1    3    3  502    0  0.54650619057E+03  0.10839883775E+03 -0.44566816375E+02  0.55893248743E+03  0.50400001928E-02 0.  1.
       -1    1    3    3    0  502 -0.54650619057E+03 -0.10839883775E+03  0.42616993001E+03  0.70145572464E+03  0.50400001928E-02 0. -1.
</event>
<event>
 5   0  0.3648616E-03  0.1168771E+04  0.7818609E-02  0.9140639E-01
        1   -1    0    0  501    0  0.00000000000E+00  0.00000000000E+00  0.10013156265E+04  0.10013156265E+04  0.50400001928E-02 0. -1.
       -1   -1    0    0    0  501  0.00000000000E+00  0.00000000000E+00 -0.34105778023E+03  0.34105778027E+03  0.50400001928E-02 0.  1.
    10030    2    1    2    0    0  0.00000000000E+00  0.00000000000E+00  0.66025784627E+03  0.13423734068E+04  0.11687711237E+04 0.  0.
        2    1    3    3  502    0  0.23887191898E+02  0.11698955907E+03  0.98715597296E+03  0.99435107976E+03  0.25500000920E-02 0. -1.
       -2    1    3    3    0  502 -0.23887191898E+02 -0.11698955907E+03 -0.32689812669E+03  0.34802232702E+03  0.25500000920E-02 0.  1.
</event>
<event>
 5   0  0.3648616E-03  0.1205732E+04  0.7818609E-02  0.9107854E-01
        1   -1    0    0  501    0  0.00000000000E+00  0.00000000000E+00  0.14777874249E+04  0.14777874249E+04  0.50400001928E-02 0.  1.
       -1   -1    0    0    0  501  0.00000000000E+00  0.00000000000E+00 -0.24594038162E+03  0.24594038167E+03  0.50400001928E-02 0. -1.
    10030    2    1    2    0    0  0.00000000000E+00  0.00000000000E+00  0.12318470433E+04  0.17237278066E+04  0.12057323140E+04 0.  0.
        2    1    3    3  502    0 -0.11972446342E+03 -0.56074416522E+03  0.34969470566E+03  0.67160580189E+03  0.25500000920E-02 0. -1.
       -2    1    3    3    0  502  0.11972446342E+03  0.56074416522E+03  0.88215233762E+03  0.10521220047E+04  0.25500000920E-02 0.  1.
</event>
<event>
 5   0  0.6493047E-03  0.1206091E+04  0.7818609E-02  0.9107541E-01
       -2   -1    0    0    0  501  0.00000000000E+00  0.00000000000E+00  0.46754286983E+03  0.46754286984E+03  0.25500000920E-02 0.  1.
        2   -1    0    0  501    0  0.00000000000E+00  0.00000000000E+00 -0.77781986674E+03  0.77781986675E+03  0.25500000920E-02 0. -1.
    10030    2    1    2    0    0  0.00000000000E+00  0.00000000000E+00 -0.31027699691E+03  0.12453627366E+04  0.12060914272E+04 0.  0.
        3    1    3    3  502    0  0.39976593207E+03  0.40418599180E+03 -0.36289888312E+03  0.67444401249E+03  0.10100000352E+00 0. -1.
       -3    1    3    3    0  502 -0.39976593207E+03 -0.40418599180E+03  0.52621886208E+02  0.57091872409E+03  0.10100000352E+00 0.  1.
</event>
<event>
 5   0  0.6585930E-03  0.1114486E+04  0.7818609E-02  0.9191187E-01
       -2   -1    0    0    0  501  0.00000000000E+00  0.00000000000E+00  0.23921674962E+03  0.23921674963E+03  0.25500000920E-02 0.  1.
        2   -1    0    0  501    0  0.00000000000E+00  0.00000000000E+00 -0.12980686043E+04  0.12980686043E+04  0.25500000920E-02 0. -1.
    10030    2    1    2    0    0  0.00000000000E+00  0.00000000000E+00 -0.10588518547E+04  0.15372853539E+04  0.11144859843E+04 0.  0.
        2    1    3    3  502    0 -0.10912866869E+03 -0.26485798856E+03  0.12987828476E+03  0.31452692936E+03  0.25500000920E-02 0.  1.
       -2    1    3    3    0  502  0.10912866869E+03  0.26485798856E+03 -0.11887301394E+04  0.12227584246E+04  0.25500000920E-02 0. -1.
</event>
<event>
 5   0  0.6585930E-03  0.1188362E+04  0.7818609E-02  0.9123105E-01
       -2   -1    0    0    0  501  0.00000000000E+00  0.00000000000E+00  0.97760957383E+03  0.97760957383E+03  0.25500000920E-02 0. -1.
        2   -1    0    0  501    0  0.00000000000E+00  0.00000000000E+00 -0.36113696247E+03  0.36113696248E+03  0.25500000920E-02 0.  1.
    10030    2    1    2    0    0  0.00000000000E+00  0.00000000000E+00  0.61647261135E+03  0.13387465363E+04  0.11883618169E+04 0.  0.
        2    1    3    3  502    0 -0.16572188028E+03 -0.55550672096E+03  0.45511799541E+03  0.73701007346E+03  0.25500000920E-02 0. -1.
       -2    1    3    3    0  502  0.16572188028E+03  0.55550672096E+03  0.16135461594E+03  0.60173646285E+03  0.25500000920E-02 0.  1.
</event>
<event>
 5   0  0.3944074E-03  0.1248314E+04  0.7818609E-02  0.9071588E-01
       -1   -1    0    0    0  501  0.00000000000E+00  0.00000000000E+00  0.54484249468E+03  0.54484249470E+03  0.50400001928E-02 0. -1.
        1   -1    0    0  501    0  0.00000000000E+00  0.00000000000E+00 -0.71501778679E+03  0.71501778680E+03  0.50400001928E-02 0.  1.
    10030    2    1    2    0    0  0.00000000000E+00  0.00000000000E+00 -0.17017529211E+03  0.12598602815E+04  0.12483141828E+04 0.  0.
        4    1    3    3  502    0 -0.28906296902E+03  0.54222991645E+03  0.25469065434E+02  0.61499672238E+03  0.12699999809E+01 0. -1.
       -4    1    3    3    0  502  0.28906296902E+03 -0.54222991645E+03 -0.19564435754E+03  0.64486355912E+03  0.12699999809E+01 0.  1.
</event>
<event>
 5   0  0.3731281E-03  0.1202791E+04  0.7818609E-02  0.9110417E-01
       -1   -1    0    0    0  501  0.00000000000E+00  0.00000000000E+00  0.50519652504E+03  0.50519652506E+03  0.50400001928E-02 0.  1.
        1   -1    0    0  501    0  0.00000000000E+00  0.00000000000E+00 -0.71591243938E+03  0.71591243939E+03  0.50400001928E-02 0. -1.
    10030    2    1    2    0    0  0.00000000000E+00  0.00000000000E+00 -0.21071591434E+03  0.12211089645E+04  0.12027908823E+04 0.  0.
        5    1    3    3  502    0  0.26744515865E+03  0.33427214955E+03 -0.53415231548E+03  0.68454771126E+03  0.46999998093E+01 0. -1.
       -5    1    3    3    0  502 -0.26744515865E+03 -0.33427214955E+03  0.32343640114E+03  0.53656125320E+03  0.46999998093E+01 0.  1.
</event>
<event>
 5   0  0.6349142E-03  0.1203011E+04  0.7818609E-02  0.9110225E-01
        2   -1    0    0  501    0  0.00000000000E+00  0.00000000000E+00  0.21772903917E+04  0.21772903917E+04  0.25500000920E-02 0.  1.
       -2   -1    0    0    0  501  0.00000000000E+00  0.00000000000E+00 -0.16617383316E+03  0.16617383318E+03  0.25500000920E-02 0. -1.
    10030    2    1    2    0    0  0.00000000000E+00  0.00000000000E+00  0.20111165586E+04  0.23434642249E+04  0.12030107070E+04 0.  0.
        1    1    3    3  502    0 -0.30557116502E+03 -0.38957916573E+03  0.34020016792E+03  0.60073439850E+03  0.50400001928E-02 0. -1.
       -1    1    3    3    0  502  0.30557116502E+03  0.38957916573E+03  0.16709163906E+04  0.17427298264E+04  0.50400001928E-02 0.  1.
</event>
<event>
 5   0  0.6493047E-03  0.1168705E+04  0.7818609E-02  0.9140698E-01
       -2   -1    0    0    0  501  0.00000000000E+00  0.00000000000E+00  0.19979755945E+03  0.19979755946E+03  0.25500000920E-02 0. -1.
        2   -1    0    0  501    0  0.00000000000E+00  0.00000000000E+00 -0.17090699485E+04  0.17090699485E+04  0.25500000920E-02 0.  1.
    10030    2    1    2    0    0  0.00000000000E+00  0.00000000000E+00 -0.15092723891E+04  0.19088675080E+04  0.11687052745E+04 0.  0.
        3    1    3    3  502    0  0.24801480488E+03  0.51942155704E+03 -0.91925243760E+03  0.10845898541E+04  0.10100000352E+00 0.  1.
       -3    1    3    3    0  502 -0.24801480488E+03 -0.51942155704E+03 -0.59001995146E+03  0.82427765388E+03  0.10100000352E+00 0. -1.
</event>
<event>
 5   0  0.2537625E-03  0.1171522E+04  0.7818609E-02  0.9138155E-01
       -4   -1    0    0    0  501  0.00000000000E+00  0.00000000000E+00  0.54618876694E+03  0.54619024344E+03  0.12699999809E+01 0.  1.
        4   -1    0    0  501    0  0.00000000000E+00  0.00000000000E+00 -0.62819714244E+03  0.62819842620E+03  0.12699999809E+01 0. -1.
    10030    2    1    2    0    0  0.00000000000E+00  0.00000000000E+00 -0.82008375505E+02  0.11743886696E+04  0.11715218196E+04 0.  0.
        1    1    3    3  502    0 -0.27982509900E+03 -0.26773677220E+03  0.39953770771E+03  0.55643098864E+03  0.50400001928E-02 0.  1.
       -1    1    3    3    0  502  0.27982509900E+03  0.26773677220E+03 -0.48154608321E+03  0.61795768099E+03  0.50400001928E-02 0. -1.
</event>
<event>
 5   0  0.6493047E-03  0.1132540E+04  0.7818609E-02  0.9174044E-01
       -2   -1    0    0    0  501  0.00000000000E+00  0.00000000000E+00  0.73932207866E+03  0.73932207866E+03  0.25500000920E-02 0. -1.
        2   -1    0    0  501    0  0.00000000000E+00  0.00000000000E+00 -0.43372373991E+03  0.43372373992E+03  0.25500000920E-02 0.  1.
    10030    2    1    2    0    0  0.00000000000E+00  0.00000000000E+00  0.30559833874E+03  0.11730458186E+04  0.11325396893E+04 0.  0.
        3    1    3    3  502    0 -0.49718003957E+03  0.15078050862E+02  0.43311915167E+03  0.65955102085E+03  0.10100000352E+00 0. -1.
       -3    1    3    3    0  502  0.49718003957E+03 -0.15078050862E+02 -0.12752081293E+03  0.51349479773E+03  0.10100000352E+00 0.  1.
</event>
<event>
 5   0  0.6585930E-03  0.1216710E+04  0.7818609E-02  0.9098355E-01
       -2   -1    0    0    0  501  0.00000000000E+00  0.00000000000E+00  0.26353761244E+03  0.26353761246E+03  0.25500000920E-02 0. -1.
        2   -1    0    0  501    0  0.00000000000E+00  0.00000000000E+00 -0.14043376734E+04  0.14043376734E+04  0.25500000920E-02 0.  1.
    10030    2    1    2    0    0  0.00000000000E+00  0.00000000000E+00 -0.11408000610E+04  0.16678752859E+04  0.12167099860E+04 0.  0.
        2    1    3    3  502    0 -0.46970727415E+03  0.97836376245E+01 -0.11002045818E+04  0.11963154955E+04  0.25500000920E-02 0.  1.
       -2    1    3    3    0  502  0.46970727415E+03 -0.97836376245E+01 -0.40595479164E+02  0.47155979036E+03  0.25500000920E-02 0. -1.
</event>
<event>
 5   0  0.6493047E-03  0.1131555E+04  0.7818609E-02  0.9174970E-01
        2   -1    0    0  501    0  0.00000000000E+00  0.00000000000E+00  0.11179467873E+04  0.11179467873E+04  0.25500000920E-02 0. -1.
       -2   -1    0    0    0  501  0.00000000000E+00  0.00000000000E+00 -0.28633226614E+03  0.28633226616E+03  0.25500000920E-02 0.  1.
    10030    2    1    2    0    0  0.00000000000E+00  0.00000000000E+00  0.83161452112E+03  0.14042790534E+04  0.11315551017E+04 0.  0.
        3    1    3    3  502    0 -0.42378144156E+03 -0.36397957838E+03  0.52703162142E+03  0.76800663010E+03  0.10100000352E+00 0. -1.
       -3    1    3    3    0  502  0.42378144156E+03  0.36397957838E+03  0.30458289970E+03  0.63627242332E+03  0.10100000352E+00 0.  1.
</event>
<event>
 5   0  0.3772254E-03  0.1196292E+04  0.7818609E-02  0.9116108E-01
        1   -1    0    0  501    0  0.00000000000E+00  0.00000000000E+00  0.68626312293E+03  0.68626312295E+03  0.50400001928E-02 0. -1.
       -1   -1    0    0    0  501  0.00000000000E+00  0.00000000000E+00 -0.52134349012E+03  0.52134349015E+03  0.50400001928E-02 0.  1.
    10030    2    1    2    0    0  0.00000000000E+00  0.00000000000E+00  0.16491963281E+03  0.12076066131E+04  0.11962922915E+04 0.  0.
        3    1    3    3  502    0  0.89224929698E+02 -0.33653200733E+03  0.57343827002E+03  0.67085493198E+03  0.10100000352E+00 0. -1.
       -3    1    3    3    0  502 -0.89224929698E+02  0.33653200733E+03 -0.40851863721E+03  0.53675168112E+03  0.10100000352E+00 0.  1.
</event>
<event>
 5   0  0.3731281E-03  0.1196216E+04  0.7818609E-02  0.9116176E-01
       -1   -1    0    0    0  501  0.00000000000E+00  0.00000000000E+00  0.35661726362E+03  0.35661726365E+03  0.50400001928E-02 0.  1.
        1   -1    0    0  501    0  0.00000000000E+00  0.00000000000E+00 -0.10031284055E+04  0.10031284055E+04  0.50400001928E-02 0. -1.
    10030    2    1    2    0    0  0.00000000000E+00  0.00000000000E+00 -0.64651114192E+03  0.13597456692E+04  0.11962155442E+04 0.  0.
        5    1    3    3  502    0 -0.29897764116E+03  0.73534754424E+02  0.25959417030E+03  0.40274832498E+03  0.46999998093E+01 0.  1.
       -5    1    3    3    0  502  0.29897764116E+03 -0.73534754424E+02 -0.90610531221E+03  0.95699734422E+03  0.46999998093E+01 0. -1.
</event>
<event>
 5   0  0.6349142E-03  0.1097296E+04  0.7818609E-02  0.9207831E-01
       -2   -1    0    0    0  501  0.00000000000E+00  0.00000000000E+00  0.29299929509E+03  0.29299929510E+03  0.25500000920E-02 0.  1.
        2   -1    0    0  501    0  0.00000000000E+00  0.00000000000E+00 -0.10273565166E+04  0.10273565166E+04  0.25500000920E-02 0. -1.
    10030    2    1    2    0    0  0.00000000000E+00  0.00000000000E+00 -0.73435722155E+03  0.13203558117E+04  0.10972961955E+04 0.  0.
        1    1    3    3  502    0 -0.49585285525E+03  0.18989058465E+01 -0.84622487547E+02  0.50302547185E+03  0.50400001928E-02 0.  1.
       -1    1    3    3    0  502  0.49585285525E+03 -0.18989058465E+01 -0.64973473401E+03  0.81733033989E+03  0.50400001928E-02 0. -1.
</event>
<event>
 5   0  0.3648616E-03  0.1237285E+04  0.7818609E-02  0.9080833E-01
       -1   -1    0    0    0  501  0.00000000000E+00  0.00000000000E+00  0.12482737352E+04  0.12482737352E+04  0.50400001928E-02 0.  1.
        1   -1    0    0  501    0  0.00000000000E+00  0.00000000000E+00 -0.30659806304E+03  0.30659806308E+03  0.50400001928E-02 0. -1.
    10030    2    1    2    0    0  0.00000000000E+00  0.00000000000E+00  0.94167567212E+03  0.15548717983E+04  0.12372846227E+04 0.  0.
        2    1    3    3  502    0  0.14072416674E+03 -0.55022720647E+03  0.16259210244E+03  0.59075330014E+03  0.25500000920E-02 0. -1.
       -2    1    3    3    0  502 -0.14072416674E+03  0.55022720647E+03  0.77908356968E+03  0.96411849811E+03  0.25500000920E-02 0.  1.
</event>
<event>
 5   0  0.6585930E-03  0.9351350E+03  0.7818609E-02  0.9382696E-01
       -2   -1    0    0    0  501  0.00000000000E+00  0.00000000000E+00  0.21447757110E+03  0.21447757112E+03  0.25500000920E-02 0.  1.
        2   -1    0    0  501    0  0.00000000000E+00  0.00000000000E+00 -0.10193111041E+04  0.10193111041E+04  0.25500000920E-02 0. -1.
    10030    2    1    2    0    0  0.00000000000E+00  0.00000000000E+00 -0.80483353295E+03  0.12337886752E+04  0.93513500588E+03 0.  0.
        2    1    3    3  502    0 -0.27939714490E+03  0.27859537736E+03 -0.73342137958E+03  0.83281754839E+03  0.25500000920E-02 0. -1.
       -2    1    3    3    0  502  0.27939714490E+03 -0.27859537736E+03 -0.71412153371E+02  0.40097112679E+03  0.25500000920E-02 0.  1.
</event>
<event>
 5   0  0.3701879E-03  0.1228141E+04  0.7818609E-02  0.9088575E-01
        1   -1    0    0  501    0  0.00000000000E+00  0.00000000000E+00  0.31896841309E+03  0.31896841313E+03  0.50400001928E-02 0.  1.
       -1   -1    0    0    0  501  0.00000000000E+00  0.00000000000E+00 -0.11821950680E+04  0.11821950680E+04  0.50400001928E-02 0. -1.
    10030    2    1    2    0    0  0.00000000000E+00  0.00000000000E+00 -0.86322665489E+03  0.15011634811E+04  0.12281414981E+04 0.  0.
        1    1    3    3  502    0 -0.42264008752E+02 -0.50212121718E+03 -0.26366509867E+01  0.50390367644E+03  0.50400001928E-02 0.  1.
       -1    1    3    3    0  502  0.42264008752E+02  0.50212121718E+03 -0.86059000390E+03  0.99725980467E+03  0.50400001928E-02 0. -1.
</event>
<event>
 5   0  0.6658994E-03  0.1198348E+04  0.7818609E-02  0.9114304E-01
        2   -1    0    0  501    0  0.00000000000E+00  0.00000000000E+00  0.87001226252E+03  0.87001226252E+03  0.25500000920E-02 0.  1.
       -2   -1    0    0    0  501  0.00000000000E+00  0.00000000000E+00 -0.41264847286E+03  0.41264847287E+03  0.25500000920E-02 0. -1.
    10030    2    1    2    0    0  0.00000000000E+00  0.00000000000E+00  0.45736378966E+03  0.12826607354E+04  0.11983475815E+04 0.  0.
        4    1    3    3  502    0  0.31663890107E+03 -0.46954247923E+03  0.19270861251E+02  0.56665978547E+03  0.12699999809E+01 0. -1.
       -4    1    3    3    0  502 -0.31663890107E+03  0.46954247923E+03  0.43809292841E+03  0.71600094992E+03  0.12699999809E+01 0.  1.
</event>
<event>
 5   0  0.3944074E-03  0.1183400E+04  0.7818609E-02  0.9127512E-01
        1   -1    0    0  501    0  0.00000000000E+00  0.00000000000E+00  0.84554785294E+03  0.84554785296E+03  0.50400001928E-02 0.  1.
       -1   -1    0    0    0  501  0.00000000000E+00  0.00000000000E+00 -0.41406153829E+03  0.41406153832E+03  0.50400001928E-02 0. -1.
    10030    2    1    2    0    0  0.00000000000E+00  0.00000000000E+00  0.43148631465E+03  0.12596093913E+04  0.11833999235E+04 0.  0.
        4    1    3    3  502    0  0.58565375836E+02 -0.47062322912E+03  0.59235249964E+03  0.75881435395E+03  0.12699999809E+01 0.  1.
       -4    1    3    3    0  502 -0.58565375836E+02  0.47062322912E+03 -0.16086618499E+03  0.50079503732E+03  0.12699999809E+01 0. -1.
</event>
<event>
 5   0  0.6640844E-03  0.1177195E+04  0.7818609E-02  0.9133055E-01
        2   -1    0    0  501    0  0.00000000000E+00  0.00000000000E+00  0.12530712396E+04  0.12530712396E+04  0.25500000920E-02 0. -1.
       -2   -1    0    0    0  501  0.00000000000E+00  0.00000000000E+00 -0.27647847034E+03  0.27647847035E+03  0.25500000920E-02 0.  1.
    10030    2    1    2    0    0  0.00000000000E+00  0.00000000000E+00  0.97659276928E+03  0.15295497100E+04  0.11771953442E+04 0.  0.
        5    1    3    3  502    0  0.49611950472E+03  0.29770548127E+03  0.62861064826E+03  0.85436324456E+03  0.46999998093E+01 0. -1.
       -5    1    3    3    0  502 -0.49611950472E+03 -0.29770548127E+03  0.34798212102E+03  0.67518646543E+03  0.46999998093E+01 0.  1.
</event>
<event>
 5   0  0.3648616E-03  0.1247414E+04  0.7818609E-02  0.9072338E-01
       -1   -1    0    0    0  501  0.00000000000E+00  0.00000000000E+00  0.67577894787E+03  0.67577894789E+03  0.50400001928E-02 0. -1.
        1   -1    0    0  501    0  0.00000000000E+00  0.00000000000E+00 -0.57564757257E+03  0.57564757260E+03  0.50400001928E-02 0.  1.
    10030    2    1    2    0    0  0.00000000000E+00  0.00000000000E+00  0.10013137530E+03  0.12514265205E+04  0.12474141429E+04 0.  0.
        2    1    3    3  502    0 -0.62285957630E+03 -0.15192562958E+02  0.78892154772E+02  0.62801977505E+03  0.25500000920E-02 0.  1.
       -2    1    3    3    0  502  0.62285957630E+03  0.15192562958E+02  0.21239220525E+02  0.62340674544E+03  0.25500000920E-02 0. -1.
</event>
<event>
 5   0  0.3772254E-03  0.1152898E+04  0.7818609E-02  0.9155114E-01
       -1   -1    0    0    0  501  0.00000000000E+00  0.00000000000E+00  0.42909842506E+03  0.42909842509E+03  0.50400001928E-02 0.  1.
        1   -1    0    0  501    0  0.00000000000E+00  0.00000000000E+00 -0.77439898443E+03  0.77439898445E+03  0.50400001928E-02 0. -1.
    10030    2    1    2    0    0  0.00000000000E+00  0.00000000000E+00 -0.34530055938E+03  0.12034974095E+04  0.11528978873E+04 0.  0.
        3    1    3    3  502    0  0.18177512032E+03  0.18560350437E+03  0.36452420110E+03  0.44762569027E+03  0.10100000352E+00 0.  1.
       -3    1    3    3    0  502 -0.18177512032E+03 -0.18560350437E+03 -0.70982476047E+03  0.75587171927E+03  0.10100000352E+00 0. -1.
</event>
<event>
 5   0  0.6349142E-03  0.1208388E+04  0.7818609E-02  0.9105546E-01
       -2   -1    0    0    0  501  0.00000000000E+00  0.00000000000E+00  0.59275415756E+03  0.59275415756E+03  0.25500000920E-02 0. -1.
        2   -1    0    0  501    0  0.00000000000E+00  0.00000000000E+00 -0.61585414841E+03  0.61585414841E+03  0.25500000920E-02 0.  1.
    10030    2    1    2    0    0  0.00000000000E+00  0.00000000000E+00 -0.23099990849E+02  0.12086083060E+04  0.12083875321E+04 0.  0.
        1    1    3    3  502    0  0.25312336300E+03  0.43198894271E+03  0.32668958855E+03  0.59783941892E+03  0.50400001928E-02 0. -1.
       -1    1    3    3    0  502 -0.25312336300E+03 -0.43198894271E+03 -0.34978957940E+03  0.61076888706E+03  0.50400001928E-02 0.  1.
</event>
<event>
 5   0  0.3772254E-03  0.1187493E+04  0.7818609E-02  0.9123875E-01
        1   -1    0    0  501    0  0.00000000000E+00  0.00000000000E+00  0.38819890875E+03  0.38819890879E+03  0.50400001928E-02 0. -1.
       -1   -1    0    0    0  501  0.00000000000E+00  0.00000000000E+00 -0.90813001186E+03  0.90813001187E+03  0.50400001928E-02 0.  1.
    10030    2    1    2    0    0  0.00000000000E+00  0.00000000000E+00 -0.51993110310E+03  0.12963289207E+04  0.11874932920E+04 0.  0.
        3    1    3    3  502    0 -0.34821518792E+03 -0.28672728344E+03 -0.68144587268E+03  0.81721162483E+03  0.10100000352E+00 0.  1.
       -3    1    3    3    0  502  0.34821518792E+03  0.28672728344E+03  0.16151476958E+03  0.47911729582E+03  0.10100000352E+00 0. -1.
</event>
<event>
 5   0  0.6349142E-03  0.1188120E+04  0.7818609E-02  0.9123319E-01
        2   -1    0    0  501    0  0.00000000000E+00  0.00000000000E+00  0.16160355903E+04  0.16160355903E+04  0.25500000920E-02 0.  1.
       -2   -1    0    0    0  501  0.00000000000E+00  0.00000000000E+00 -0.21837828847E+03  0.21837828849E+03  0.25500000920E-02 0. -1.
    10030    2    1    2    0    0  0.00000000000E+00  0.00000000000E+00  0.13976573018E+04  0.18344138788E+04  0.11881196679E+04 0.  0.
        1    1    3    3  502    0 -0.17851844014E+01 -0.47407334075E+03  0.14610172088E+03  0.49607905838E+03  0.50400001928E-02 0. -1.
       -1    1    3    3    0  502  0.17851844014E+01  0.47407334075E+03  0.12515555809E+04  0.13383348204E+04  0.50400001928E-02 0.  1.
</event>
<event>
 5   0  0.3772254E-03  0.1079699E+04  0.7818609E-02  0.9225207E-01
        1   -1    0    0  501    0  0.00000000000E+00  0.00000000000E+00  0.45495739100E+03  0.45495739103E+03  0.50400001928E-02 0.  1.
       -1   -1    0    0    0  501  0.00000000000E+00  0.00000000000E+00 -0.64058223704E+03  0.64058223706E+03  0.50400001928E-02 0. -1.
    10030    2    1    2    0    0  0.00000000000E+00  0.00000000000E+00 -0.18562484604E+03  0.10955396281E+04  0.10796992605E+04 0.  0.
        3    1    3    3  502    0  0.30358271952E+03 -0.28412928561E+03  0.25654355607E+03  0.48857601752E+03  0.10100000352E+00 0.  1.
       -3    1    3    3    0  502 -0.30358271952E+03  0.28412928561E+03 -0.44216840211E+03  0.60696361057E+03  0.10100000352E+00 0. -1.
</event>
<event>
 5   0  0.3731281E-03  0.1197443E+04  0.7818609E-02  0.9115097E-01
        1   -1    0    0  501    0  0.00000000000E+00  0.00000000000E+00  0.12273786413E+04  0.12273786414E+04  0.50400001928E-02 0.  1.
       -1   -1    0    0    0  501  0.00000000000E+00  0.00000000000E+00 -0.29205950828E+03  0.29205950832E+03  0.50400001928E-02 0. -1.
    10030    2    1    2    0    0  0.00000000000E+00  0.00000000000E+00  0.93531913307E+03  0.15194381497E+04  0.11974432805E+04 0.  0.
        5    1    3    3  502    0 -0.13256622168E+03 -0.49168374480E+03  0.68169391679E+02  0.51380527829E+03  0.46999998093E+01 0. -1.
       -5    1    3    3    0  502  0.13256622168E+03  0.49168374480E+03  0.86714974139E+03  0.10056328714E+04  0.46999998093E+01 0.  1.
</event>
<event>
 5   0  0.6658994E-03  0.1214351E+04  0.7818609E-02  0.9100387E-01
       -2   -1    0    0    0  501  0.00000000000E+00  0.00000000000E+00  0.39054050374E+03  0.39054050375E+03  0.25500000920E-02 0. -1.
        2   -1    0    0  501    0  0.00000000000E+00  0.00000000000E+00 -0.94397852234E+03  0.94397852234E+03  0.25500000920E-02 0.  1.
    10030    2    1    2    0    0  0.00000000000E+00  0.00000000000E+00 -0.55343801859E+03  0.13345190261E+04  0.12143506045E+04 0.  0.
        4    1    3    3  502    0  0.42110587335E+03  0.11676048055E+03  0.18653672941E+03  0.47514285295E+03  0.12699999809E+01 0. -1.
       -4    1    3    3    0  502 -0.42110587335E+03 -0.11676048055E+03 -0.73997474800E+03  0.85937617314E+03  0.12699999809E+01 0.  1.
</event>
<event>
 5   0  0.6585930E-03  0.8624615E+03  0.7818609E-02  0.9473762E-01
        2   -1    0    0  501    0  0.00000000000E+00  0.00000000000E+00  0.14391558267E+03  0.14391558269E+03  0.25500000920E-02 0. -1.
       -2   -1    0    0    0  501  0.00000000000E+00  0.00000000000E+00 -0.12921462014E+04  0.12921462014E+04  0.25500000920E-02 0.  1.
    10030    2    1    2    0    0  0.00000000000E+00  0.00000000000E+00 -0.11482306188E+04  0.14360617841E+04  0.86246153187E+03 0.  0.
        2    1    3    3  502    0  0.11127847523E+03  0.90397093898E+02 -0.12513018004E+04  0.12594882807E+04  0.25500000920E-02 0.  1.
       -2    1    3    3    0  502 -0.11127847523E+03 -0.90397093898E+02  0.10307118159E+03  0.17657350343E+03  0.25500000920E-02 0. -1.
</event>
<event>
 5   0  0.3944074E-03  0.1222072E+04  0.7818609E-02  0.9093754E-01
        1   -1    0    0  501    0  0.00000000000E+00  0.00000000000E+00  0.19065259560E+04  0.19065259560E+04  0.50400001928E-02 0.  1.
       -1   -1    0    0    0  501  0.00000000000E+00  0.00000000000E+00 -0.19583516450E+03  0.19583516456E+03  0.50400001928E-02 0. -1.
    10030    2    1    2    0    0  0.00000000000E+00  0.00000000000E+00  0.17106907915E+04  0.21023611205E+04  0.12220717234E+04 0.  0.
        4    1    3    3  502    0  0.47694926530E+03 -0.29916642057E+03  0.44685570508E+03  0.71879258687E+03  0.12699999809E+01 0. -1.
       -4    1    3    3    0  502 -0.47694926530E+03  0.29916642057E+03  0.12638350864E+04  0.13835685337E+04  0.12699999809E+01 0.  1.
</event>
<event>
 5   0  0.2537625E-03  0.1143911E+04  0.7818609E-02  0.9163419E-01
       -3   -1    0    0    0  501  0.00000000000E+00  0.00000000000E+00  0.22925228008E+04  0.22925228030E+04  0.10100000352E+00 0. -1.
        3   -1    0    0  501    0  0.00000000000E+00  0.00000000000E+00 -0.14269575279E+03  0.14269578854E+03  0.10100000352E+00 0.  1.
    10030    2    1    2    0    0  0.00000000000E+00  0.00000000000E+00  0.21498270480E+04  0.24352185916E+04  0.11439113831E+04 0.  0.
        1    1    3    3  502    0 -0.15110144969E+03  0.49095740848E+03  0.16103632530E+04  0.16903078511E+04  0.50400001928E-02 0.  1.
       -1    1    3    3    0  502  0.15110144969E+03 -0.49095740848E+03  0.53946379504E+03  0.74491074043E+03  0.50400001928E-02 0. -1.
</event>
<event>
 5   0  0.6640844E-03  0.1198180E+04  0.7818609E-02  0.9114451E-01
       -2   -1    0    0    0  501  0.00000000000E+00  0.00000000000E+00  0.12180496539E+04  0.12180496539E+04  0.25500000920E-02 0.  1.
        2   -1    0    0  501    0  0.00000000000E+00  0.00000000000E+00 -0.29465880622E+03  0.29465880623E+03  0.25500000920E-02 0. -1.
    10030    2    1    2    0    0  0.00000000000E+00  0.00000000000E+00  0.92339084765E+03  0.15127084601E+04  0.11981803820E+04 0.  0.
        5    1    3    3  502    0  0.61977950645E+02 -0.53231437007E+02 -0.28756911048E+03  0.29898651400E+03  0.46999998093E+01 0. -1.
       -5    1    3    3    0  502 -0.61977950645E+02  0.53231437007E+02  0.12109599581E+04  0.12137219461E+04  0.46999998093E+01 0.  1.
</event>
<event>
 5   0  0.3944074E-03  0.1137102E+04  0.7818609E-02  0.9169766E-01
        1   -1    0    0  501    0  0.00000000000E+00  0.00000000000E+00  0.80504402259E+03  0.80504402261E+03  0.50400001928E-02 0.  1.
       -1   -1    0    0    0  501  0.00000000000E+00  0.00000000000E+00 -0.40153100092E+03  0.40153100095E+03  0.50400001928E-02 0. -1.
    10030    2    1    2    0    0  0.00000000000E+00  0.00000000000E+00  0.40351302167E+03  0.12065750236E+04  0.11371018111E+04 0.  0.
        4    1    3    3  502    0 -0.22035228529E+03 -0.50268528582E+03  0.44367235729E+02  0.55065205958E+03  0.12699999809E+01 0.  1.
       -4    1    3    3    0  502  0.22035228529E+03  0.50268528582E+03  0.35914578594E+03  0.65592296398E+03  0.12699999809E+01 0. -1.
</event>
<event>
 5   0  0.6658994E-03  0.1138163E+04  0.7818609E-02  0.9168773E-01
        2   -1    0    0  501    0  0.00000000000E+00  0.00000000000E+00  0.10085526568E+04  0.10085526568E+04  0.25500000920E-02 0.  1.
       -2   -1    0    0    0  501  0.00000000000E+00  0.00000000000E+00 -0.32110755190E+03  0.32110755191E+03  0.25500000920E-02 0. -1.
    10030    2    1    2    0    0  0.00000000000E+00  0.00000000000E+00  0.68744510492E+03  0.13296602087E+04  0.11381632125E+04 0.  0.
        4    1    3    3  502    0  0.38209588882E+03 -0.23551910089E+03 -0.64974540564E+02  0.45353039475E+03  0.12699999809E+01 0. -1.
       -4    1    3    3    0  502 -0.38209588882E+03  0.23551910089E+03  0.75241964549E+03  0.87612981398E+03  0.12699999809E+01 0.  1.
</event>
<event>
 5   0  0.3648616E-03  0.1232778E+04  0.7818609E-02  0.9084640E-01
        1   -1    0    0  501    0  0.00000000000E+00  0.00000000000E+00  0.40800676556E+03  0.40800676559E+03  0.50400001928E-02 0. -1.
       -1   -1    0    0    0  501  0.00000000000E+00  0.00000000000E+00 -0.93119831227E+03  0.93119831229E+03  0.50400001928E-02 0.  1.
    10030    2    1    2    0    0  0.00000000000E+00  0.00000000000E+00 -0.52319154671E+03  0.13392050779E+04  0.12327776953E+04 0.  0.
        2    1    3    3  502    0 -0.15332340818E+03  0.37021659971E+03 -0.77039656985E+03  0.86837737939E+03  0.25500000920E-02 0.  1.
       -2    1    3    3    0  502  0.15332340818E+03 -0.37021659971E+03  0.24720502314E+03  0.47082769849E+03  0.25500000920E-02 0. -1.
</event>
<event>
 5   0  0.3648616E-03  0.1199773E+04  0.7818609E-02  0.9113055E-01
       -1   -1    0    0    0  501  0.00000000000E+00  0.00000000000E+00  0.36063788238E+03  0.36063788242E+03  0.50400001928E-02 0.  1.
        1   -1    0    0  501    0  0.00000000000E+00  0.00000000000E+00 -0.99785439712E+03  0.99785439714E+03  0.50400001928E-02 0. -1.
    10030    2    1    2    0    0  0.00000000000E+00  0.00000000000E+00 -0.63721651474E+03  0.13584922796E+04  0.11997734732E+04 0.  0.
        2    1    3    3  502    0 -0.42511977540E+03  0.38065944150E+03 -0.52811465519E+03  0.77751753862E+03  0.25500000920E-02 0. -1.
       -2    1    3    3    0  502  0.42511977540E+03 -0.38065944150E+03 -0.10910185955E+03  0.58097474093E+03  0.25500000920E-02 0.  1.
</event>
<event>
 5   0  0.6585930E-03  0.1219050E+04  0.7818609E-02  0.9096343E-01
        2   -1    0    0  501    0  0.00000000000E+00  0.00000000000E+00  0.17506178312E+04  0.17506178312E+04  0.25500000920E-02 0. -1.
       -2   -1    0    0    0  501  0.00000000000E+00  0.00000000000E+00 -0.21222274016E+03  0.21222274018E+03  0.25500000920E-02 0.  1.
    10030    2    1    2    0    0  0.00000000000E+00  0.00000000000E+00  0.15383950910E+04  0.19628405713E+04  0.12190503076E+04 0.  0.
        2    1    3    3  502    0 -0.41748972468E+03 -0.44260152750E+03  0.71054049043E+03  0.93544725715E+03  0.25500000920E-02 0. -1.
       -2    1    3    3    0  502  0.41748972468E+03  0.44260152750E+03  0.82785460055E+03  0.10273933142E+04  0.25500000920E-02 0.  1.
</event>
<event>
 5   0  0.3731281E-03  0.1184520E+04  0.7818609E-02  0.9126515E-01
       -1   -1    0    0    0  501  0.00000000000E+00  0.00000000000E+00  0.31782782758E+03  0.31782782762E+03  0.50400001928E-02 0.  1.
        1   -1    0    0  501    0  0.00000000000E+00  0.00000000000E+00 -0.11036533953E+04  0.11036533953E+04  0.50400001928E-02 0. -1.
    10030    2    1    2    0    0  0.00000000000E+00  0.00000000000E+00 -0.78582556768E+03  0.14214812229E+04  0.11845197526E+04 0.  0.
        5    1    3    3  502    0 -0.57452746706E+03 -0.21176991008E+02 -0.22227197307E+03  0.61640668017E+03  0.46999998093E+01 0. -1.
       -5    1    3    3    0  502  0.57452746706E+03  0.21176991008E+02 -0.56355359461E+03  0.80507454273E+03  0.46999998093E+01 0.  1.
</event>
<event>
 5   0  0.3944074E-03  0.1087002E+04  0.7818609E-02  0.9217954E-01
       -1   -1    0    0    0  501  0.00000000000E+00  0.00000000000E+00  0.36089236332E+03  0.36089236336E+03  0.50400001928E-02 0.  1.
        1   -1    0    0  501    0  0.00000000000E+00  0.00000000000E+00 -0.81850778684E+03  0.81850778686E+03  0.50400001928E-02 0. -1.
    10030    2    1    2    0    0  0.00000000000E+00  0.00000000000E+00 -0.45761542352E+03  0.11794001502E+04  0.10870017656E+04 0.  0.
        4    1    3    3  502    0 -0.12239021829E+03  0.22773713864E+03  0.28989637218E+03  0.38843929944E+03  0.12699999809E+01 0.  1.
       -4    1    3    3    0  502  0.12239021829E+03 -0.22773713864E+03 -0.74751179570E+03  0.79096085077E+03  0.12699999809E+01 0. -1.
</event>
<event>
 5   0  0.3731281E-03  0.1234819E+04  0.7818609E-02  0.9082914E-01
        1   -1    0    0  501    0  0.00000000000E+00  0.00000000000E+00  0.89216053998E+03  0.89216054000E+03  0.50400001928E-02 0.  1.
       -1   -1    0    0    0  501  0.00000000000E+00  0.00000000000E+00 -0.42727122941E+03  0.42727122944E+03  0.50400001928E-02 0. -1.
    10030    2    1    2    0    0  0.00000000000E+00  0.00000000000E+00  0.46488931057E+03  0.13194317694E+04  0.12348190649E+04 0.  0.
        5    1    3    3  502    0 -0.29441159610E+03 -0.47448538952E+03 -0.48960129883E+02  0.56056556896E+03  0.46999998093E+01 0. -1.
       -5    1    3    3    0  502  0.29441159610E+03  0.47448538952E+03  0.51384944045E+03  0.75886620048E+03  0.46999998093E+01 0.  1.
</event>
<event>
 5   0  0.6585930E-03  0.1166210E+04  0.7818609E-02  0.9142958E-01
       -2   -1    0    0    0  501  0.00000000000E+00  0.00000000000E+00  0.34204823639E+03  0.34204823640E+03  0.25500000920E-02 0.  1.
        2   -1    0    0  501    0  0.00000000000E+00  0.00000000000E+00 -0.99404569229E+03  0.99404569229E+03  0.25500000920E-02 0. -1.
    10030    2    1    2    0    0  0.00000000000E+00  0.00000000000E+00 -0.65199745590E+03  0.13360939287E+04  0.11662102314E+04 0.  0.
        2    1    3    3  502    0 -0.52780307691E+03 -0.71404520673E+02 -0.54069087640E+02  0.53534863389E+03  0.25500000920E-02 0.  1.
       -2    1    3    3    0  502  0.52780307691E+03  0.71404520673E+02 -0.59792836826E+03  0.80074529480E+03  0.25500000920E-02 0. -1.
</event>
<event>
 5   0  0.6585930E-03  0.1254909E+04  0.7818609E-02  0.9066108E-01
        2   -1    0    0  501    0  0.00000000000E+00  0.00000000000E+00  0.57137829815E+03  0.57137829816E+03  0.25500000920E-02 0.  1.
       -2   -1    0    0    0  501  0.00000000000E+00  0.00000000000E+00 -0.68903396798E+03  0.68903396799E+03  0.25500000920E-02 0. -1.
    10030    2    1    2    0    0  0.00000000000E+00  0.00000000000E+00 -0.11765566983E+03  0.12604122661E+04  0.12549088509E+04 0.  0.
        2    1    3    3  502    0  0.62416083670E+03 -0.61539062316E+02 -0.40437710660E+02  0.62848947064E+03  0.25500000920E-02 0.  1.
       -2    1    3    3    0  502 -0.62416083670E+03  0.61539062316E+02 -0.77217959168E+02  0.63192279551E+03  0.25500000920E-02 0. -1.
</event>
<event>
 5   0  0.3701879E-03  0.9975127E+03  0.7818609E-02  0.9311277E-01
       -1   -1    0    0    0  501  0.00000000000E+00  0.00000000000E+00  0.45164946324E+03  0.45164946327E+03  0.50400001928E-02 0.  1.
        1   -1    0    0  501    0  0.00000000000E+00  0.00000000000E+00 -0.55077647160E+03  0.55077647162E+03  0.50400001928E-02 0. -1.
    10030    2    1    2    0    0  0.00000000000E+00  0.00000000000E+00 -0.99127008357E+02  0.10024259349E+04  0.99751270225E+03 0.  0.
        1    1    3    3  502    0 -0.14495493041E+03 -0.45778717658E+03  0.85922168756E+02  0.48781518017E+03  0.50400001928E-02 0. -1.
       -1    1    3    3    0  502  0.14495493041E+03  0.45778717658E+03 -0.18504917711E+03  0.51461075472E+03  0.50400001928E-02 0.  1.
</event>
<event>
 5   0  0.6493047E-03  0.1201920E+04  0.7818609E-02  0.9111177E-01
       -2   -1    0    0    0  501  0.00000000000E+00  0.00000000000E+00  0.34359299832E+03  0.34359299833E+03  0.25500000920E-02 0. -1.
        2   -1    0    0  501    0  0.00000000000E+00  0.00000000000E+00 -0.10511076222E+04  0.10511076222E+04  0.25500000920E-02 0.  1.
    10030    2    1    2    0    0  0.00000000000E+00  0.00000000000E+00 -0.70751462391E+03  0.13947006206E+04  0.12019204957E+04 0.  0.
        3    1    3    3  502    0 -0.17935516271E+03 -0.49106116403E+03 -0.98345034254E+01  0.52288246181E+03  0.10100000352E+00 0. -1.
       -3    1    3    3    0  502  0.17935516271E+03  0.49106116403E+03 -0.69768012048E+03  0.87181815875E+03  0.10100000352E+00 0.  1.
</event>
<event>
 5   0  0.6493047E-03  0.1219970E+04  0.7818609E-02  0.9095554E-01
       -2   -1    0    0    0  501  0.00000000000E+00  0.00000000000E+00  0.13564142215E+03  0.13564142217E+03  0.25500000920E-02 0. -1.
        2   -1    0    0  501    0  0.00000000000E+00  0.00000000000E+00 -0.27431269306E+04  0.27431269306E+04  0.25500000920E-02 0.  1.
    10030    2    1    2    0    0  0.00000000000E+00  0.00000000000E+00 -0.26074855085E+04  0.28787683528E+04  0.12199698981E+04 0.  0.
        3    1    3    3  502    0  0.51862320031E+03  0.24147786653E+03 -0.80428722580E+03  0.98699520552E+03  0.10100000352E+00 0. -1.
       -3    1    3    3    0  502 -0.51862320031E+03 -0.24147786653E+03 -0.18031982827E+04  0.18917731473E+04  0.10100000352E+00 0.  1.
</event>
<event>
 5   0  0.6658994E-03  0.1169627E+04  0.7818609E-02  0.9139865E-01
        2   -1    0    0  501    0  0.00000000000E+00  0.00000000000E+00  0.55926914420E+03  0.55926914421E+03  0.25500000920E-02 0.  1.
       -2   -1    0    0    0  501  0.00000000000E+00  0.00000000000E+00 -0.61152488398E+03  0.61152488399E+03  0.25500000920E-02 0. -1.
    10030    2    1    2    0    0  0.00000000000E+00  0.00000000000E+00 -0.52255739781E+02  0.11707940282E+04  0.11696272886E+04 0.  0.
        4    1    3    3  502    0  0.20966771802E+03 -0.39493784738E+03  0.35116844349E+03  0.56855724767E+03  0.12699999809E+01 0.  1.
       -4    1    3    3    0  502 -0.20966771802E+03  0.39493784738E+03 -0.40342418327E+03  0.60223678053E+03  0.12699999809E+01 0. -1.
</event>
<event>
 5   0  0.3944074E-03  0.1183374E+04  0.7818609E-02  0.9127535E-01
       -1   -1    0    0    0  501  0.00000000000E+00  0.00000000000E+00  0.98872617359E+03  0.98872617360E+03  0.50400001928E-02 0.  1.
        1   -1    0    0  501    0  0.00000000000E+00  0.00000000000E+00 -0.35408520141E+03  0.35408520144E+03  0.50400001928E-02 0. -1.
    10030    2    1    2    0    0  0.00000000000E+00  0.00000000000E+00  0.63464097218E+03  0.13428113750E+04  0.11833736626E+04 0.  0.
        4    1    3    3  502    0 -0.13483415535E+03  0.51577731270E+03  0.26056310103E+02  0.53374809596E+03  0.12699999809E+01 0. -1.
       -4    1    3    3    0  502  0.13483415535E+03 -0.51577731270E+03  0.60858466208E+03  0.80906327909E+03  0.12699999809E+01 0.  1.
</event>
<event>
 5   0  0.3944074E-03  0.1193953E+04  0.7818609E-02  0.9118166E-01
       -1   -1    0    0    0  501  0.00000000000E+00  0.00000000000E+00  0.91396161391E+03  0.91396161393E+03  0.50400001928E-02 0.  1.
        1   -1    0    0  501    0  0.00000000000E+00  0.00000000000E+00 -0.38992980694E+03  0.38992980698E+03  0.50400001928E-02 0. -1.
    10030    2    1    2    0    0  0.00000000000E+00  0.00000000000E+00  0.52403180697E+03  0.13038914209E+04  0.11939528897E+04 0.  0.
        4    1    3    3  502    0 -0.15333622735E+02 -0.84705989026E+02 -0.38311476065E+03  0.39266876282E+03  0.12699999809E+01 0. -1.
       -4    1    3    3    0  502  0.15333622735E+02  0.84705989026E+02  0.90714656762E+03  0.91122265809E+03  0.12699999809E+01 0.  1.
</event>
<event>
 5   0  0.6640844E-03  0.1159827E+04  0.7818609E-02  0.9148766E-01
       -2   -1    0    0    0  501  0.00000000000E+00  0.00000000000E+00  0.22097388989E+03  0.22097388991E+03  0.25500000920E-02 0. -1.
        2   -1    0    0  501    0  0.00000000000E+00  0.00000000000E+00 -0.15218968603E+04  0.15218968603E+04  0.25500000920E-02 0.  1.
    10030    2    1    2    0    0  0.00000000000E+00  0.00000000000E+00 -0.13009229704E+04  0.17428707502E+04  0.11598266582E+04 0.  0.
        5    1    3    3  502    0  0.27756394168E+02  0.31476225116E+03  0.80214670855E+02  0.32604014414E+03  0.46999998093E+01 0. -1.
       -5    1    3    3    0  502 -0.27756394168E+02 -0.31476225116E+03 -0.13811376413E+04  0.14168306061E+04  0.46999998093E+01 0.  1.
</event>
<event>
 5   0  0.3944074E-03  0.1216999E+04  0.7818609E-02  0.9098106E-01
       -1   -1    0    0    0  501  0.00000000000E+00  0.00000000000E+00  0.49525749805E+03  0.49525749808E+03  0.50400001928E-02 0. -1.
        1   -1    0    0  501    0  0.00000000000E+00  0.00000000000E+00 -0.74763431586E+03  0.74763431588E+03  0.50400001928E-02 0.  1.
    10030    2    1    2    0    0  0.00000000000E+00  0.00000000000E+00 -0.25237681781E+03  0.12428918140E+04  0.12169987687E+04 0.  0.
        4    1    3    3  502    0  0.24051282258E+03  0.53008429575E+03  0.54880451869E+02  0.58467876251E+03  0.12699999809E+01 0. -1.
       -4    1    3    3    0  502 -0.24051282258E+03 -0.53008429575E+03 -0.30725726968E+03  0.65821305145E+03  0.12699999809E+01 0.  1.
</event>
<event>
 5   0  0.6493047E-03  0.1190187E+04  0.7818609E-02  0.9121490E-01
       -2   -1    0    0    0  501  0.00000000000E+00  0.00000000000E+00  0.47755263976E+03  0.47755263977E+03  0.25500000920E-02 0.  1.
        2   -1    0    0  501    0  0.00000000000E+00  0.00000000000E+00 -0.74156455882E+03  0.74156455883E+03  0.25500000920E-02 0. -1.
    10030    2    1    2    0    0  0.00000000000E+00  0.00000000000E+00 -0.26401191906E+03  0.12191171986E+04  0.11901867293E+04 0.  0.
        3    1    3    3  502    0  0.29670983980E+03 -0.24864487219E+03 -0.59496020536E+03  0.70981593224E+03  0.10100000352E+00 0. -1.
       -3    1    3    3    0  502 -0.29670983980E+03  0.24864487219E+03  0.33094828630E+03  0.50930126635E+03  0.10100000352E+00 0.  1.
</event>
<event>
 5   0  0.6493047E-03  0.1213503E+04  0.7818609E-02  0.9101119E-01
        2   -1    0    0  501    0  0.00000000000E+00  0.00000000000E+00  0.14885945162E+04  0.14885945162E+04  0.25500000920E-02 0.  1.
       -2   -1    0    0    0  501  0.00000000000E+00  0.00000000000E+00 -0.24731210830E+03  0.24731210831E+03  0.25500000920E-02 0. -1.
    10030    2    1    2    0    0  0.00000000000E+00  0.00000000000E+00  0.12412824079E+04  0.17359066245E+04  0.12135031079E+04 0.  0.
        3    1    3    3  502    0  0.58469308352E+02 -0.60371709791E+03  0.64345940017E+03  0.88426975760E+03  0.10100000352E+00 0. -1.
       -3    1    3    3    0  502 -0.58469308352E+02  0.60371709791E+03  0.59782300774E+03  0.85163686694E+03  0.10100000352E+00 0.  1.
</event>
<event>
 5   0  0.3944074E-03  0.1183087E+04  0.7818609E-02  0.9127791E-01
        1   -1    0    0  501    0  0.00000000000E+00  0.00000000000E+00  0.15928216308E+04  0.15928216308E+04  0.50400001928E-02 0. -1.
       -1   -1    0    0    0  501  0.00000000000E+00  0.00000000000E+00 -0.21968778242E+03  0.21968778248E+03  0.50400001928E-02 0.  1.
    10030    2    1    2    0    0  0.00000000000E+00  0.00000000000E+00  0.13731338484E+04  0.18125094133E+04  0.11830865597E+04 0.  0.
        4    1    3    3  502    0 -0.27433821201E+03 -0.11655289482E+03  0.14693601611E+04  0.14992888073E+04  0.12699999809E+01 0. -1.
       -4    1    3    3    0  502  0.27433821201E+03  0.11655289482E+03 -0.96226312685E+02  0.31322060599E+03  0.12699999809E+01 0.  1.
</event>
<event>
 5   0  0.3772254E-03  0.1178942E+04  0.7818609E-02  0.9131491E-01
        1   -1    0    0  501    0  0.00000000000E+00  0.00000000000E+00  0.13045761814E+04  0.13045761814E+04  0.50400001928E-02 0. -1.
       -1   -1    0    0    0  501  0.00000000000E+00  0.00000000000E+00 -0.26635180932E+03  0.26635180936E+03  0.50400001928E-02 0.  1.
    10030    2    1    2    0    0  0.00000000000E+00  0.00000000000E+00  0.10382243721E+04  0.15709279908E+04  0.11789422825E+04 0.  0.
        3    1    3    3  502    0  0.42701623285E+02  0.37586640981E+03 -0.83280913016E+02  0.38734313900E+03  0.10100000352E+00 0.  1.
       -3    1    3    3    0  502 -0.42701623285E+02 -0.37586640981E+03  0.11215052851E+04  0.11835848518E+04  0.10100000352E+00 0. -1.
</event>
<event>
 5   0  0.3944074E-03  0.1129176E+04  0.7818609E-02  0.9177213E-01
        1   -1    0    0  501    0  0.00000000000E+00  0.00000000000E+00  0.17722369049E+04  0.17722369049E+04  0.50400001928E-02 0. -1.
       -1   -1    0    0    0  501  0.00000000000E+00  0.00000000000E+00 -0.17986272028E+03  0.17986272035E+03  0.50400001928E-02 0.  1.
    10030    2    1    2    0    0  0.00000000000E+00  0.00000000000E+00  0.15923741846E+04  0.19520996253E+04  0.11291755413E+04 0.  0.
        4    1    3    3  502    0  0.78951547177E+02  0.34156942460E+03  0.15612683021E+04  0.16001447880E+04  0.12699999809E+01 0. -1.
       -4    1    3    3    0  502 -0.78951547177E+02 -0.34156942460E+03  0.31105882520E+02  0.35195483723E+03  0.12699999809E+01 0.  1.
</event>
<event>
 5   0  0.6640844E-03  0.1221444E+04  0.7818609E-02  0.9094291E-01
        2   -1    0    0  501    0  0.00000000000E+00  0.00000000000E+00  0.11018314502E+04  0.11018314502E+04  0.25500000920E-02 0.  1.
       -2   -1    0    0    0  501  0.00000000000E+00  0.00000000000E+00 -0.33851022153E+03  0.33851022154E+03  0.25500000920E-02 0. -1.
    10030    2    1    2    0    0  0.00000000000E+00  0.00000000000E+00  0.76332122871E+03  0.14403416718E+04  0.12214437495E+04 0.  0.
        5    1    3    3  502    0 -0.46208818728E+03 -0.21960499004E+03  0.77490148741E+03  0.92857215641E+03  0.46999998093E+01 0.  1.
       -5    1    3    3    0  502  0.46208818728E+03  0.21960499004E+03 -0.11580258699E+02  0.51176951537E+03  0.46999998093E+01 0. -1.
</event>
<event>
 5   0  0.3944074E-03  0.1219827E+04  0.7818609E-02  0.9095677E-01
       -1   -1    0    0    0  501  0.00000000000E+00  0.00000000000E+00  0.43143562353E+03  0.43143562356E+03  0.50400001928E-02 0. -1.
        1   -1    0    0  501    0  0.00000000000E+00  0.00000000000E+00 -0.86222436071E+03  0.86222436073E+03  0.50400001928E-02 0.  1.
    10030    2    1    2    0    0  0.00000000000E+00  0.00000000000E+00 -0.43078873718E+03  0.12936599843E+04  0.12198267167E+04 0.  0.
        4    1    3    3  502    0  0.28113657816E+03 -0.52594710383E+03 -0.79851795260E+02  0.60169431916E+03  0.12699999809E+01 0. -1.
       -4    1    3    3    0  502 -0.28113657816E+03  0.52594710383E+03 -0.35093694192E+03  0.69196566512E+03  0.12699999809E+01 0.  1.
</event>
<event>
 5   0  0.2537625E-03  0.1198077E+04  0.7818609E-02  0.9114541E-01
        3   -1    0    0  501    0  0.00000000000E+00  0.00000000000E+00  0.48666020019E+03  0.48666021067E+03  0.10100000352E+00 0.  1.
       -3   -1    0    0    0  501  0.00000000000E+00  0.00000000000E+00 -0.73736738578E+03  0.73736739270E+03  0.10100000352E+00 0. -1.
    10030    2    1    2    0    0  0.00000000000E+00  0.00000000000E+00 -0.25070718559E+03  0.12240276034E+04  0.11980774102E+04 0.  0.
        4    1    3    3  502    0  0.51893772442E+03 -0.19639706903E+03  0.10531898476E+03  0.56476709536E+03  0.12699999809E+01 0. -1.
       -4    1    3    3    0  502 -0.51893772442E+03  0.19639706903E+03 -0.35602617035E+03  0.65926050801E+03  0.12699999809E+01 0.  1.
</event>
<event>
 5   0  0.3648616E-03  0.1356793E+04  0.7818609E-02  0.8985702E-01
        1   -1    0    0  501    0  0.00000000000E+00  0.00000000000E+00  0.71857859386E+03  0.71857859388E+03  0.50400001928E-02 0. -1.
       -1   -1    0    0    0  501  0.00000000000E+00  0.00000000000E+00 -0.64046108242E+03  0.64046108244E+03  0.50400001928E-02 0.  1.
    10030    2    1    2    0    0  0.00000000000E+00  0.00000000000E+00  0.78117511439E+02  0.13590396763E+04  0.13567927241E+04 0.  0.
        2    1    3    3  502    0 -0.63568946924E+02 -0.63189886121E+03  0.27795833335E+03  0.69325177021E+03  0.25500000920E-02 0. -1.
       -2    1    3    3    0  502  0.63568946924E+02  0.63189886121E+03 -0.19984082191E+03  0.66578790611E+03  0.25500000920E-02 0.  1.
</event>
<event>
 5   0  0.3731281E-03  0.1180583E+04  0.7818609E-02  0.9130024E-01
        1   -1    0    0  501    0  0.00000000000E+00  0.00000000000E+00  0.10340972601E+04  0.10340972601E+04  0.50400001928E-02 0. -1.
       -1   -1    0    0    0  501  0.00000000000E+00  0.00000000000E+00 -0.33695473463E+03  0.33695473467E+03  0.50400001928E-02 0.  1.
    10030    2    1    2    0    0  0.00000000000E+00  0.00000000000E+00  0.69714252543E+03  0.13710519947E+04  0.11805828525E+04 0.  0.
        5    1    3    3  502    0 -0.48340548468E+03  0.13624107236E+03 -0.11591204689E+02  0.50239321098E+03  0.46999998093E+01 0. -1.
       -5    1    3    3    0  502  0.48340548468E+03 -0.13624107236E+03  0.70873373012E+03  0.86865878377E+03  0.46999998093E+01 0.  1.
</event>
<event>
 5   0  0.6585930E-03  0.1194328E+04  0.7818609E-02  0.9117835E-01
       -2   -1    0    0    0  501  0.00000000000E+00  0.00000000000E+00  0.16878391837E+03  0.16878391839E+03  0.25500000920E-02 0.  1.
        2   -1    0    0  501    0  0.00000000000E+00  0.00000000000E+00 -0.21127905036E+04  0.21127905036E+04  0.25500000920E-02 0. -1.
    10030    2    1    2    0    0  0.00000000000E+00  0.00000000000E+00 -0.19440065852E+04  0.22815744220E+04  0.11943283634E+04 0.  0.
        2    1    3    3  502    0  0.11570541856E+03  0.83953901186E+02 -0.20796206735E+04  0.20845282793E+04  0.25500000920E-02 0. -1.
       -2    1    3    3    0  502 -0.11570541856E+03 -0.83953901186E+02  0.13561408828E+03  0.19704614271E+03  0.25500000920E-02 0.  1.
</event>
<event>
 5   0  0.6658994E-03  0.1214392E+04  0.7818609E-02  0.9100351E-01
        2   -1    0    0  501    0  0.00000000000E+00  0.00000000000E+00  0.11311251986E+04  0.11311251986E+04  0.25500000920E-02 0.  1.
       -2   -1    0    0    0  501  0.00000000000E+00  0.00000000000E+00 -0.32594734096E+03  0.32594734097E+03  0.25500000920E-02 0. -1.
    10030    2    1    2    0    0  0.00000000000E+00  0.00000000000E+00  0.80517785765E+03  0.14570725396E+04  0.12143924420E+04 0.  0.
        4    1    3    3  502    0  0.33398717253E+03 -0.23491154004E+03 -0.13661019848E+03  0.43057499032E+03  0.12699999809E+01 0. -1.
       -4    1    3    3    0  502 -0.33398717253E+03  0.23491154004E+03  0.94178805613E+03  0.10264975493E+04  0.12699999809E+01 0.  1.
</event>
<event>
 5   0  0.6493047E-03  0.1179912E+04  0.7818609E-02  0.9130623E-01
       -2   -1    0    0    0  501  0.00000000000E+00  0.00000000000E+00  0.24797183676E+03  0.24797183677E+03  0.25500000920E-02 0.  1.
        2   -1    0    0  501    0  0.00000000000E+00  0.00000000000E+00 -0.14035799356E+04  0.14035799356E+04  0.25500000920E-02 0. -1.
    10030    2    1    2    0    0  0.00000000000E+00  0.00000000000E+00 -0.11556080988E+04  0.16515517724E+04  0.11799123606E+04 0.  0.
        3    1    3    3  502    0 -0.52839502824E+03  0.26092192336E+03 -0.61656221836E+03  0.85289538354E+03  0.10100000352E+00 0.  1.
       -3    1    3    3    0  502  0.52839502824E+03 -0.26092192336E+03 -0.53904588048E+03  0.79865638883E+03  0.10100000352E+00 0. -1.
</event>
<event>
 5   0  0.3944074E-03  0.1178300E+04  0.7818609E-02  0.9132065E-01
        1   -1    0    0  501    0  0.00000000000E+00  0.00000000000E+00  0.14646780567E+04  0.14646780567E+04  0.50400001928E-02 0.  1.
       -1   -1    0    0    0  501  0.00000000000E+00  0.00000000000E+00 -0.23697896314E+03  0.23697896319E+03  0.50400001928E-02 0. -1.
    10030    2    1    2    0    0  0.00000000000E+00  0.00000000000E+00  0.12276990936E+04  0.17016570199E+04  0.11783002797E+04 0.  0.
        4    1    3    3  502    0 -0.44019104519E+03 -0.18196763939E+03  0.11312717195E+03  0.48957098360E+03  0.12699999809E+01 0. -1.
       -4    1    3    3    0  502  0.44019104519E+03  0.18196763939E+03  0.11145719216E+04  0.12120860363E+04  0.12699999809E+01 0.  1.
</event>
<event>
 5   0  0.3772254E-03  0.1181072E+04  0.7818609E-02  0.9129587E-01
        1   -1    0    0  501    0  0.00000000000E+00  0.00000000000E+00  0.25386407395E+03  0.25386407400E+03  0.50400001928E-02 0.  1.
       -1   -1    0    0    0  501  0.00000000000E+00  0.00000000000E+00 -0.13736987932E+04  0.13736987932E+04  0.50400001928E-02 0. -1.
    10030    2    1    2    0    0  0.00000000000E+00  0.00000000000E+00 -0.11198347192E+04  0.16275628672E+04  0.11810720081E+04 0.  0.
        3    1    3    3  502    0  0.57377855369E+03 -0.67495572781E+02 -0.72844016589E+03  0.92973252417E+03  0.10100000352E+00 0. -1.
       -3    1    3    3    0  502 -0.57377855369E+03  0.67495572781E+02 -0.39139455332E+03  0.69783034299E+03  0.10100000352E+00 0.  1.
</event>
<event>
 5   0  0.3731281E-03  0.1198602E+04  0.7818609E-02  0.9114081E-01
        1   -1    0    0  501    0  0.00000000000E+00  0.00000000000E+00  0.14833000247E+04  0.14833000247E+04  0.50400001928E-02 0. -1.
       -1   -1    0    0    0  501  0.00000000000E+00  0.00000000000E+00 -0.24213683869E+03  0.24213683874E+03  0.50400001928E-02 0.  1.
    10030    2    1    2    0    0  0.00000000000E+00  0.00000000000E+00  0.12411631860E+04  0.17254368634E+04  0.11986018169E+04 0.  0.
        5    1    3    3  502    0  0.72753907316E+02  0.57003035466E+03  0.37580981073E+03  0.68664608068E+03  0.46999998093E+01 0. -1.
       -5    1    3    3    0  502 -0.72753907316E+02 -0.57003035466E+03  0.86535337526E+03  0.10387907828E+04  0.46999998093E+01 0.  1.
</event>
<event>
 5   0  0.3731281E-03  0.1119682E+04  0.7818609E-02  0.9186218E-01
        1   -1    0    0  501    0  0.00000000000E+00  0.00000000000E+00  0.68375715987E+03  0.68375715989E+03  0.50400001928E-02 0. -1.
       -1   -1    0    0    0  501  0.00000000000E+00  0.00000000000E+00 -0.45838216017E+03  0.45838216020E+03  0.50400001928E-02 0.  1.
    10030    2    1    2    0    0  0.00000000000E+00  0.00000000000E+00  0.22537499970E+03  0.11421393201E+04  0.11196822478E+04 0.  0.
        5    1    3    3  502    0  0.13303672889E+02  0.28723614131E+03 -0.37727789875E+03  0.47438622605E+03  0.46999998093E+01 0.  1.
       -5    1    3    3    0  502 -0.13303672889E+02 -0.28723614131E+03  0.60265289844E+03  0.66775309403E+03  0.46999998093E+01 0. -1.
</event>
<event>
 5   0  0.6585930E-03  0.1227129E+04  0.7818609E-02  0.9089436E-01
        2   -1    0    0  501    0  0.00000000000E+00  0.00000000000E+00  0.14848821848E+04  0.14848821848E+04  0.25500000920E-02 0. -1.
       -2   -1    0    0    0  501  0.00000000000E+00  0.00000000000E+00 -0.25352956934E+03  0.25352956936E+03  0.25500000920E-02 0.  1.
    10030    2    1    2    0    0  0.00000000000E+00  0.00000000000E+00  0.12313526154E+04  0.17384117541E+04  0.12271292366E+04 0.  0.
        2    1    3    3  502    0  0.52570249756E+03  0.22343182052E+03  0.29834482391E+03  0.64443349411E+03  0.25500000920E-02 0.  1.
       -2    1    3    3    0  502 -0.52570249756E+03 -0.22343182052E+03  0.93300779153E+03  0.10939782600E+04  0.25500000920E-02 0. -1.
</event>
<event>
 5   0  0.6585930E-03  0.8256260E+03  0.7818609E-02  0.9523648E-01
       -2   -1    0    0    0  501  0.00000000000E+00  0.00000000000E+00  0.22939881775E+03  0.22939881776E+03  0.25500000920E-02 0.  1.
        2   -1    0    0  501    0  0.00000000000E+00  0.00000000000E+00 -0.74287462697E+03  0.74287462697E+03  0.25500000920E-02 0. -1.
    10030    2    1    2    0    0  0.00000000000E+00  0.00000000000E+00 -0.51347580922E+03  0.97227344474E+03  0.82562597142E+03 0.  0.
        2    1    3    3  502    0  0.90175771091E+02 -0.91060441091E+02  0.20537978067E+03  0.24208372093E+03  0.25500000920E-02 0.  1.
       -2    1    3    3    0  502 -0.90175771091E+02  0.91060441091E+02 -0.71885558989E+03  0.73018972381E+03  0.25500000920E-02 0. -1.
</event>
<event>
 5   0  0.3772254E-03  0.1127223E+04  0.7818609E-02  0.9179057E-01
       -1   -1    0    0    0  501  0.00000000000E+00  0.00000000000E+00  0.72155545749E+03  0.72155545750E+03  0.50400001928E-02 0.  1.
        1   -1    0    0  501    0  0.00000000000E+00  0.00000000000E+00 -0.44024062251E+03  0.44024062254E+03  0.50400001928E-02 0. -1.
    10030    2    1    2    0    0  0.00000000000E+00  0.00000000000E+00  0.28131483498E+03  0.11617960800E+04  0.11272231790E+04 0.  0.
        3    1    3    3  502    0  0.25596014566E+02  0.16091464635E+03  0.69675122865E+03  0.71554941422E+03  0.10100000352E+00 0.  1.
       -3    1    3    3    0  502 -0.25596014566E+02 -0.16091464635E+03 -0.41543639367E+03  0.44624666582E+03  0.10100000352E+00 0. -1.
</event>
<event>
 5   0  0.3701879E-03  0.1312772E+04  0.7818609E-02  0.9019498E-01
       -1   -1    0    0    0  501  0.00000000000E+00  0.00000000000E+00  0.15317255244E+03  0.15317255252E+03  0.50400001928E-02 0.  1.
        1   -1    0    0  501    0  0.00000000000E+00  0.00000000000E+00 -0.28127932369E+04  0.28127932369E+04  0.50400001928E-02 0. -1.
    10030    2    1    2    0    0  0.00000000000E+00  0.00000000000E+00 -0.26596206844E+04  0.29659657894E+04  0.13127722113E+04 0.  0.
        1    1    3    3  502    0 -0.34411174653E+03  0.74869769789E+02 -0.25812838742E+04  0.26051957347E+04  0.50400001928E-02 0. -1.
       -1    1    3    3    0  502  0.34411174653E+03 -0.74869769789E+02 -0.78336810187E+02  0.36077005472E+03  0.50400001928E-02 0.  1.
</event>
<event>
 5   0  0.6349142E-03  0.1083213E+04  0.7818609E-02  0.9221709E-01
       -2   -1    0    0    0  501  0.00000000000E+00  0.00000000000E+00  0.26324967050E+03  0.26324967051E+03  0.25500000920E-02 0.  1.
        2   -1    0    0  501    0  0.00000000000E+00  0.00000000000E+00 -0.11142950445E+04  0.11142950445E+04  0.25500000920E-02 0. -1.
    10030    2    1    2    0    0  0.00000000000E+00  0.00000000000E+00 -0.85104537399E+03  0.13775447150E+04  0.10832133738E+04 0.  0.
        1    1    3    3  502    0  0.21726032195E+03 -0.29657226698E+03 -0.93131050414E+03  0.10012474281E+04  0.50400001928E-02 0. -1.
       -1    1    3    3    0  502 -0.21726032195E+03  0.29657226698E+03  0.80265130143E+02  0.37629728696E+03  0.50400001928E-02 0.  1.
</event>
<event>
 5   0  0.6640844E-03  0.1730232E+04  0.7818609E-02  0.8744307E-01
       -2   -1    0    0    0  501  0.00000000000E+00  0.00000000000E+00  0.31136217171E+03  0.31136217172E+03  0.25500000920E-02 0.  1.
        2   -1    0    0  501    0  0.00000000000E+00  0.00000000000E+00 -0.24037137478E+04  0.24037137478E+04  0.25500000920E-02 0. -1.
    10030    2    1    2    0    0  0.00000000000E+00  0.00000000000E+00 -0.20923515761E+04  0.27150759196E+04  0.17302318142E+04 0.  0.
        5    1    3    3  502    0 -0.49616878467E+03 -0.31405046802E+03 -0.20430700855E+04  0.21257865894E+04  0.46999998093E+01 0. -1.
       -5    1    3    3    0  502  0.49616878467E+03  0.31405046802E+03 -0.49281490630E+02  0.58928933018E+03  0.46999998093E+01 0.  1.
</event>
<event>
 5   0  0.3648616E-03  0.1167772E+04  0.7818609E-02  0.9141543E-01
       -1   -1    0    0    0  501  0.00000000000E+00  0.00000000000E+00  0.92804608307E+03  0.92804608308E+03  0.50400001928E-02 0. -1.
        1   -1    0    0  501    0  0.00000000000E+00  0.00000000000E+00 -0.36735525250E+03  0.36735525254E+03  0.50400001928E-02 0.  1.
    10030    2    1    2    0    0  0.00000000000E+00  0.00000000000E+00  0.56069083057E+03  0.12954013356E+04  0.11677715585E+04 0.  0.
        2    1    3    3  502    0  0.28256604462E+03  0.17606494832E+03 -0.25174573937E+03  0.41739472073E+03  0.25500000920E-02 0.  1.
       -2    1    3    3    0  502 -0.28256604462E+03 -0.17606494832E+03  0.81243656994E+03  0.87800661488E+03  0.25500000920E-02 0. -1.
</event>
<event>
 5   0  0.3648616E-03  0.1195285E+04  0.7818609E-02  0.9116993E-01
       -1   -1    0    0    0  501  0.00000000000E+00  0.00000000000E+00  0.32604903306E+03  0.32604903310E+03  0.50400001928E-02 0. -1.
        1   -1    0    0  501    0  0.00000000000E+00  0.00000000000E+00 -0.10954695764E+04  0.10954695765E+04  0.50400001928E-02 0.  1.
    10030    2    1    2    0    0  0.00000000000E+00  0.00000000000E+00 -0.76942054338E+03  0.14215186096E+04  0.11952853989E+04 0.  0.
        2    1    3    3  502    0 -0.36873736970E+03 -0.33650651648E+03  0.60751409153E+01  0.49924021351E+03  0.25500000920E-02 0. -1.
       -2    1    3    3    0  502  0.36873736970E+03  0.33650651648E+03 -0.77549568429E+03  0.92227839604E+03  0.25500000920E-02 0.  1.
</event>
<event>
 5   0  0.3772254E-03  0.1095824E+04  0.7818609E-02  0.9209272E-01
        1   -1    0    0  501    0  0.00000000000E+00  0.00000000000E+00  0.47760477230E+03  0.47760477233E+03  0.50400001928E-02 0. -1.
       -1   -1    0    0    0  501  0.00000000000E+00  0.00000000000E+00 -0.62856847397E+03  0.62856847399E+03  0.50400001928E-02 0.  1.
    10030    2    1    2    0    0  0.00000000000E+00  0.00000000000E+00 -0.15096370167E+03  0.11061732463E+04  0.10958235313E+04 0.  0.
        3    1    3    3  502    0  0.47203063104E+03 -0.35045887677E+02  0.20310689230E+03  0.51506654986E+03  0.10100000352E+00 0.  1.
       -3    1    3    3    0  502 -0.47203063104E+03  0.35045887677E+02 -0.35407059397E+03  0.59110669646E+03  0.10100000352E+00 0. -1.
</event>
<event>
 5   0  0.6493047E-03  0.1200942E+04  0.7818609E-02  0.9112032E-01
        2   -1    0    0  501    0  0.00000000000E+00  0.00000000000E+00  0.17943817605E+04  0.17943817605E+04  0.25500000920E-02 0. -1.
       -2   -1    0    0    0  501  0.00000000000E+00  0.00000000000E+00 -0.20094131397E+03  0.20094131399E+03  0.25500000920E-02 0.  1.
    10030    2    1    2    0    0  0.00000000000E+00  0.00000000000E+00  0.15934404466E+04  0.19953230745E+04  0.12009420115E+04 0.  0.
        3    1    3    3  502    0 -0.25104991794E+03 -0.54450608832E+03  0.74281913918E+03  0.95461679498E+03  0.10100000352E+00 0.  1.
       -3    1    3    3    0  502  0.25104991794E+03  0.54450608832E+03  0.85062130738E+03  0.10407062795E+04  0.10100000352E+00 0. -1.
</event>
<event>
 5   0  0.3731281E-03  0.1196830E+04  0.7818609E-02  0.9115636E-01
        1   -1    0    0  501    0  0.00000000000E+00  0.00000000000E+00  0.10135482568E+04  0.10135482568E+04  0.50400001928E-02 0. -1.
       -1   -1    0    0    0  501  0.00000000000E+00  0.00000000000E+00 -0.35331389157E+03  0.35331389160E+03  0.50400001928E-02 0.  1.
    10030    2    1    2    0    0  0.00000000000E+00  0.00000000000E+00  0.66023436519E+03  0.13668621484E+04  0.11968302786E+04 0.  0.
        5    1    3    3  502    0 -0.48799637014E+03 -0.25037528617E+03  0.60338042276E+03  0.81542520550E+03  0.46999998093E+01 0. -1.
       -5    1    3    3    0  502  0.48799637014E+03  0.25037528617E+03  0.56853942423E+02  0.55143694287E+03  0.46999998093E+01 0.  1.
</event>
<event>
 5   0  0.3648616E-03  0.1238361E+04  0.7818609E-02  0.9079926E-01
       -1   -1    0    0    0  501  0.00000000000E+00  0.00000000000E+00  0.22079536100E+03  0.22079536106E+03  0.50400001928E-02 0. -1.
        1   -1    0    0  501    0  0.00000000000E+00  0.00000000000E+00 -0.17363794742E+04  0.17363794742E+04  0.50400001928E-02 0.  1.
    10030    2    1    2    0    0  0.00000000000E+00  0.00000000000E+00 -0.15155841132E+04  0.19571748352E+04  0.12383610667E+04 0.  0.
        2    1    3    3  502    0  0.10907890403E+03 -0.25930133886E+03 -0.16295522094E+04  0.16536552830E+04  0.25500000920E-02 0.  1.
       -2    1    3    3    0  502 -0.10907890403E+03  0.25930133886E+03  0.11396809626E+03  0.30351955227E+03  0.25500000920E-02 0. -1.
</event>
<event>
 5   0  0.6493047E-03  0.1201745E+04  0.7818609E-02  0.9111331E-01
        2   -1    0    0  501    0  0.00000000000E+00  0.00000000000E+00  0.12908480060E+04  0.12908480060E+04  0.25500000920E-02 0. -1.
       -2   -1    0    0    0  501  0.00000000000E+00  0.00000000000E+00 -0.27969795341E+03  0.27969795342E+03  0.25500000920E-02 0.  1.
    10030    2    1    2    0    0  0.00000000000E+00  0.00000000000E+00  0.10111500526E+04  0.15705459594E+04  0.12017446408E+04 0.  0.
        3    1    3    3  502    0  0.85206864552E+02  0.73637614296E+02 -0.26578229452E+03  0.28865714314E+03  0.10100000352E+00 0.  1.
       -3    1    3    3    0  502 -0.85206864552E+02 -0.73637614296E+02  0.12769323471E+04  0.12818888162E+04  0.10100000352E+00 0. -1.
</event>
<event>
 5   0  0.6640844E-03  0.1203126E+04  0.7818609E-02  0.9110124E-01
       -2   -1    0    0    0  501  0.00000000000E+00  0.00000000000E+00  0.45512727030E+03  0.45512727031E+03  0.25500000920E-02 0.  1.
        2   -1    0    0  501    0  0.00000000000E+00  0.00000000000E+00 -0.79511455498E+03  0.79511455499E+03  0.25500000920E-02 0. -1.
    10030    2    1    2    0    0  0.00000000000E+00  0.00000000000E+00 -0.33998728468E+03  0.12502418253E+04  0.12031264555E+04 0.  0.
        5    1    3    3  502    0 -0.26877406839E+03  0.12753599344E+03  0.37331087606E+03  0.47737619300E+03  0.46999998093E+01 0.  1.
       -5    1    3    3    0  502  0.26877406839E+03 -0.12753599344E+03 -0.71329816074E+03  0.77286563229E+03  0.46999998093E+01 0. -1.
</event>
<event>
 5   0  0.6640844E-03  0.1213165E+04  0.7818609E-02  0.9101410E-01
       -2   -1    0    0    0  501  0.00000000000E+00  0.00000000000E+00  0.36840152323E+03  0.36840152323E+03  0.25500000920E-02 0. -1.
        2   -1    0    0  501    0  0.00000000000E+00  0.00000000000E+00 -0.99875423276E+03  0.99875423277E+03  0.25500000920E-02 0.  1.
    10030    2    1    2    0    0  0.00000000000E+00  0.00000000000E+00 -0.63035270954E+03  0.13671557560E+04  0.12131654144E+04 0.  0.
        5    1    3    3  502    0 -0.50839585329E+03 -0.11677458352E+03  0.33659543398E+02  0.52274056840E+03  0.46999998093E+01 0. -1.
       -5    1    3    3    0  502  0.50839585329E+03  0.11677458352E+03 -0.66401225294E+03  0.84441518760E+03  0.46999998093E+01 0.  1.
</event>
<event>
 5   0  0.6640844E-03  0.1237233E+04  0.7818609E-02  0.9080876E-01
       -2   -1    0    0    0  501  0.00000000000E+00  0.00000000000E+00  0.33732546777E+03  0.33732546778E+03  0.25500000920E-02 0. -1.
        2   -1    0    0  501    0  0.00000000000E+00  0.00000000000E+00 -0.11344727857E+04  0.11344727857E+04  0.25500000920E-02 0.  1.
    10030    2    1    2    0    0  0.00000000000E+00  0.00000000000E+00 -0.79714731788E+03  0.14717982534E+04  0.12372333056E+04 0.  0.
        5    1    3    3  502    0 -0.35533628187E+03 -0.50065568579E+03 -0.48873538128E+03  0.78473202550E+03  0.46999998093E+01 0. -1.
       -5    1    3    3    0  502  0.35533628187E+03  0.50065568579E+03 -0.30841193661E+03  0.68706622793E+03  0.46999998093E+01 0.  1.
</event>
<event>
 5   0  0.6585930E-03  0.1251233E+04  0.7818609E-02  0.9069157E-01
       -2   -1    0    0    0  501  0.00000000000E+00  0.00000000000E+00  0.47193351094E+03  0.47193351095E+03  0.25500000920E-02 0. -1.
        2   -1    0    0  501    0  0.00000000000E+00  0.00000000000E+00 -0.82934612220E+03  0.82934612221E+03  0.25500000920E-02 0.  1.
    10030    2    1    2    0    0  0.00000000000E+00  0.00000000000E+00 -0.35741261126E+03  0.13012796332E+04  0.12512333551E+04 0.  0.
        2    1    3    3  502    0 -0.57899281459E+02 -0.39337605875E+03  0.32362347092E+03  0.51266870524E+03  0.25500000920E-02 0. -1.
       -2    1    3    3    0  502  0.57899281459E+02  0.39337605875E+03 -0.68103608218E+03  0.78861092792E+03  0.25500000920E-02 0.  1.
</event>
<event>
 5   0  0.6658994E-03  0.1383751E+04  0.7818609E-02  0.8965665E-01
       -2   -1    0    0    0  501  0.00000000000E+00  0.00000000000E+00  0.91954679601E+03  0.91954679601E+03  0.25500000920E-02 0. -1.
        2   -1    0    0  501    0  0.00000000000E+00  0.00000000000E+00 -0.52057366446E+03  0.52057366447E+03  0.25500000920E-02 0.  1.
    10030    2    1    2    0    0  0.00000000000E+00  0.00000000000E+00  0.39897313155E+03  0.14401204605E+04  0.13837511991E+04 0.  0.
        4    1    3    3  502    0 -0.16469043632E+03  0.94827404025E+02 -0.49287711315E+03  0.52824675857E+03  0.12699999809E+01 0.  1.
       -4    1    3    3    0  502  0.16469043632E+03 -0.94827404025E+02  0.89185024470E+03  0.91187370191E+03  0.12699999809E+01 0. -1.
</event>
<event>
 5   0  0.6493047E-03  0.1201682E+04  0.7818609E-02  0.9111385E-01
        2   -1    0    0  501    0  0.00000000000E+00  0.00000000000E+00  0.62969718733E+03  0.62969718734E+03  0.25500000920E-02 0. -1.
       -2   -1    0    0    0  501  0.00000000000E+00  0.00000000000E+00 -0.57330752438E+03  0.57330752438E+03  0.25500000920E-02 0.  1.
    10030    2    1    2    0    0  0.00000000000E+00  0.00000000000E+00  0.56389662957E+02  0.12030047117E+04  0.12016823800E+04 0.  0.
        3    1    3    3  502    0 -0.52838548848E+03 -0.21454898188E+03 -0.16118953986E+03  0.59262514967E+03  0.10100000352E+00 0.  1.
       -3    1    3    3    0  502  0.52838548848E+03  0.21454898188E+03  0.21757920282E+03  0.61037956205E+03  0.10100000352E+00 0. -1.
</event>
<event>
 5   0  0.6640844E-03  0.1190662E+04  0.7818609E-02  0.9121069E-01
        2   -1    0    0  501    0  0.00000000000E+00  0.00000000000E+00  0.86853476005E+03  0.86853476006E+03  0.25500000920E-02 0. -1.
       -2   -1    0    0    0  501  0.00000000000E+00  0.00000000000E+00 -0.40806559618E+03  0.40806559619E+03  0.25500000920E-02 0.  1.
    10030    2    1    2    0    0  0.00000000000E+00  0.00000000000E+00  0.46046916387E+03  0.12766003562E+04  0.11906622605E+04 0.  0.
        5    1    3    3  502    0 -0.36676558198E+03  0.86819897907E+02  0.72430028949E+03  0.81650945258E+03  0.46999998093E+01 0. -1.
       -5    1    3    3    0  502  0.36676558198E+03 -0.86819897907E+02 -0.26383112562E+03  0.46009090367E+03  0.46999998093E+01 0.  1.
</event>
<event>
 5   0  0.6349142E-03  0.9280658E+03  0.7818609E-02  0.9391162E-01
        2   -1    0    0  501    0  0.00000000000E+00  0.00000000000E+00  0.71964989244E+03  0.71964989245E+03  0.25500000920E-02 0. -1.
       -2   -1    0    0    0  501  0.00000000000E+00  0.00000000000E+00 -0.29921009633E+03  0.29921009634E+03  0.25500000920E-02 0.  1.
    10030    2    1    2    0    0  0.00000000000E+00  0.00000000000E+00  0.42043979611E+03  0.10188599888E+04  0.92806575985E+03 0.  0.
        1    1    3    3  502    0 -0.16608203564E+03 -0.39959362016E+02 -0.26343629361E+03  0.31397240960E+03  0.50400001928E-02 0.  1.
       -1    1    3    3    0  502  0.16608203564E+03  0.39959362016E+02  0.68387608972E+03  0.70488757919E+03  0.50400001928E-02 0. -1.
</event>
<event>
 5   0  0.3731281E-03  0.1216752E+04  0.7818609E-02  0.9098319E-01
        1   -1    0    0  501    0  0.00000000000E+00  0.00000000000E+00  0.17201452609E+04  0.17201452609E+04  0.50400001928E-02 0.  1.
       -1   -1    0    0    0  501  0.00000000000E+00  0.00000000000E+00 -0.21516870465E+03  0.21516870471E+03  0.50400001928E-02 0. -1.
    10030    2    1    2    0    0  0.00000000000E+00  0.00000000000E+00  0.15049765562E+04  0.19353139656E+04  0.12167521155E+04 0.  0.
        5    1    3    3  502    0 -0.23203456416E+03 -0.12533238433E+03 -0.11949564083E+03  0.28956785682E+03  0.46999998093E+01 0. -1.
       -5    1    3    3    0  502  0.23203456416E+03  0.12533238433E+03  0.16244721971E+04  0.16457461088E+04  0.46999998093E+01 0.  1.
</event>
<event>
 5   0  0.6349142E-03  0.1184365E+04  0.7818609E-02  0.9126653E-01
       -2   -1    0    0    0  501  0.00000000000E+00  0.00000000000E+00  0.23493551760E+03  0.23493551762E+03  0.25500000920E-02 0. -1.
        2   -1    0    0  501    0  0.00000000000E+00  0.00000000000E+00 -0.14926657018E+04  0.14926657018E+04  0.25500000920E-02 0.  1.
    10030    2    1    2    0    0  0.00000000000E+00  0.00000000000E+00 -0.12577301842E+04  0.17276012194E+04  0.11843651283E+04 0.  0.
        1    1    3    3  502    0  0.14220109050E+03  0.29136794294E+02  0.20858346110E+03  0.25412037146E+03  0.50400001928E-02 0. -1.
       -1    1    3    3    0  502 -0.14220109050E+03 -0.29136794294E+02 -0.14663136453E+04  0.14734808479E+04  0.50400001928E-02 0.  1.
</event>
<event>
 5   0  0.3648616E-03  0.1180917E+04  0.7818609E-02  0.9129725E-01
       -1   -1    0    0    0  501  0.00000000000E+00  0.00000000000E+00  0.12814644382E+04  0.12814644382E+04  0.50400001928E-02 0.  1.
        1   -1    0    0  501    0  0.00000000000E+00  0.00000000000E+00 -0.27206487966E+03  0.27206487971E+03  0.50400001928E-02 0. -1.
    10030    2    1    2    0    0  0.00000000000E+00  0.00000000000E+00  0.10093995586E+04  0.15535293179E+04  0.11809173861E+04 0.  0.
        2    1    3    3  502    0  0.27884740504E+02  0.50652800029E+03  0.90218352758E+03  0.10350281597E+04  0.25500000920E-02 0.  1.
       -2    1    3    3    0  502 -0.27884740504E+02 -0.50652800029E+03  0.10721603097E+03  0.51850115828E+03  0.25500000920E-02 0. -1.
</event>
<event>
 5   0  0.6493047E-03  0.1207398E+04  0.7818609E-02  0.9106406E-01
        2   -1    0    0  501    0  0.00000000000E+00  0.00000000000E+00  0.11242588367E+04  0.11242588367E+04  0.25500000920E-02 0. -1.
       -2   -1    0    0    0  501  0.00000000000E+00  0.00000000000E+00 -0.32417137715E+03  0.32417137716E+03  0.25500000920E-02 0.  1.
    10030    2    1    2    0    0  0.00000000000E+00  0.00000000000E+00  0.80008745953E+03  0.14484302138E+04  0.12073980874E+04 0.  0.
        3    1    3    3  502    0 -0.78192262286E+02 -0.58254760400E+03  0.23478728580E+03  0.63293034417E+03  0.10100000352E+00 0. -1.
       -3    1    3    3    0  502  0.78192262286E+02  0.58254760400E+03  0.56530017372E+03  0.81549986966E+03  0.10100000352E+00 0.  1.
</event>
<event>
 5   0  0.3944074E-03  0.1165678E+04  0.7818609E-02  0.9143440E-01
       -1   -1    0    0    0  501  0.00000000000E+00  0.00000000000E+00  0.74336732762E+03  0.74336732764E+03  0.50400001928E-02 0.  1.
        1   -1    0    0  501    0  0.00000000000E+00  0.00000000000E+00 -0.45697644012E+03  0.45697644015E+03  0.50400001928E-02 0. -1.
    10030    2    1    2    0    0  0.00000000000E+00  0.00000000000E+00  0.28639088750E+03  0.12003437678E+04  0.11656780947E+04 0.  0.
        4    1    3    3  502    0  0.48239761555E+03 -0.32457475669E+03  0.10144960537E+03  0.59021171413E+03  0.12699999809E+01 0. -1.
       -4    1    3    3    0  502 -0.48239761555E+03  0.32457475669E+03  0.18494128214E+03  0.61013205366E+03  0.12699999809E+01 0.  1.
</event>
<event>
 5   0  0.3701879E-03  0.1172446E+04  0.7818609E-02  0.9137323E-01
       -1   -1    0    0    0  501  0.00000000000E+00  0.00000000000E+00  0.59043606621E+03  0.59043606623E+03  0.50400001928E-02 0.  1.
        1   -1    0    0  501    0  0.00000000000E+00  0.00000000000E+00 -0.58203950948E+03  0.58203950950E+03  0.50400001928E-02 0. -1.
    10030    2    1    2    0    0  0.00000000000E+00  0.00000000000E+00  0.83965567274E+01  0.11724755757E+04  0.11724455098E+04 0.  0.
        1    1    3    3  502    0 -0.48252572453E+03  0.33290081250E+03  0.24396663325E+01  0.58622519376E+03  0.50400001928E-02 0. -1.
       -1    1    3    3    0  502  0.48252572453E+03 -0.33290081250E+03  0.59568903949E+01  0.58625038197E+03  0.50400001928E-02 0.  1.
</event>
<event>
 5   0  0.3731281E-03  0.1207717E+04  0.7818609E-02  0.9106128E-01
        1   -1    0    0  501    0  0.00000000000E+00  0.00000000000E+00  0.10171103943E+04  0.10171103943E+04  0.50400001928E-02 0. -1.
       -1   -1    0    0    0  501  0.00000000000E+00  0.00000000000E+00 -0.35851105331E+03  0.35851105335E+03  0.50400001928E-02 0.  1.
    10030    2    1    2    0    0  0.00000000000E+00  0.00000000000E+00  0.65859934095E+03  0.13756214476E+04  0.12077173822E+04 0.  0.
        5    1    3    3  502    0 -0.58017030558E+02 -0.60096108893E+03  0.34086078812E+03  0.69334578178E+03  0.46999998093E+01 0.  1.
       -5    1    3    3    0  502  0.58017030558E+02  0.60096108893E+03  0.31773855283E+03  0.68227566584E+03  0.46999998093E+01 0. -1.
</event>
<event>
 5   0  0.6658994E-03  0.1183931E+04  0.7818609E-02  0.9127039E-01
       -2   -1    0    0    0  501  0.00000000000E+00  0.00000000000E+00  0.86379185025E+03  0.86379185025E+03  0.25500000920E-02 0. -1.
        2   -1    0    0  501    0  0.00000000000E+00  0.00000000000E+00 -0.40568038905E+03  0.40568038906E+03  0.25500000920E-02 0.  1.
    10030    2    1    2    0    0  0.00000000000E+00  0.00000000000E+00  0.45811146120E+03  0.12694722393E+04  0.11839314404E+04 0.  0.
        4    1    3    3  502    0  0.82646650161E+02 -0.29803814667E+03 -0.31215474151E+03  0.43943076951E+03  0.12699999809E+01 0.  1.
       -4    1    3    3    0  502 -0.82646650161E+02  0.29803814667E+03  0.77026620270E+03  0.83004146979E+03  0.12699999809E+01 0. -1.
</event>
<event>
 5   0  0.3648616E-03  0.1055136E+04  0.7818609E-02  0.9250058E-01
       -1   -1    0    0    0  501  0.00000000000E+00  0.00000000000E+00  0.29069781740E+03  0.29069781744E+03  0.50400001928E-02 0.  1.
        1   -1    0    0  501    0  0.00000000000E+00  0.00000000000E+00 -0.95744759262E+03  0.95744759263E+03  0.50400001928E-02 0. -1.
    10030    2    1    2    0    0  0.00000000000E+00  0.00000000000E+00 -0.66674977522E+03  0.12481454101E+04  0.10551358690E+04 0.  0.
        2    1    3    3  502    0  0.23346451936E+03 -0.65151717519E+02 -0.88768233361E+03  0.92017952243E+03  0.25500000920E-02 0. -1.
       -2    1    3    3    0  502 -0.23346451936E+03  0.65151717519E+02  0.22093255839E+03  0.32796588765E+03  0.25500000920E-02 0.  1.
</event>
<event>
 5   0  0.6585930E-03  0.1203587E+04  0.7818609E-02  0.9109723E-01
       -2   -1    0    0    0  501  0.00000000000E+00  0.00000000000E+00  0.11251109029E+04  0.11251109029E+04  0.25500000920E-02 0. -1.
        2   -1    0    0  501    0  0.00000000000E+00  0.00000000000E+00 -0.32188419323E+03  0.32188419324E+03  0.25500000920E-02 0.  1.
    10030    2    1    2    0    0  0.00000000000E+00  0.00000000000E+00  0.80322670964E+03  0.14469950961E+04  0.12035869977E+04 0.  0.
        2    1    3    3  502    0 -0.51082295712E+03  0.25950724745E+03  0.62287471119E+03  0.84631968597E+03  0.25500000920E-02 0.  1.
       -2    1    3    3    0  502  0.51082295712E+03 -0.25950724745E+03  0.18035199844E+03  0.60067541015E+03  0.25500000920E-02 0. -1.
</event>
<event>
 5   0  0.6349142E-03  0.8523591E+03  0.7818609E-02  0.9487176E-01
        2   -1    0    0  501    0  0.00000000000E+00  0.00000000000E+00  0.39177113197E+03  0.39177113198E+03  0.25500000920E-02 0.  1.
       -2   -1    0    0    0  501  0.00000000000E+00  0.00000000000E+00 -0.46361003937E+03  0.46361003938E+03  0.25500000920E-02 0. -1.
    10030    2    1    2    0    0  0.00000000000E+00  0.00000000000E+00 -0.71838907400E+02  0.85538117136E+03  0.85235914948E+03 0.  0.
        1    1    3    3  502    0 -0.38843537162E+03  0.16606453098E+03 -0.92417936984E+02  0.43243559229E+03  0.50400001928E-02 0. -1.
       -1    1    3    3    0  502  0.38843537162E+03 -0.16606453098E+03  0.20579029584E+02  0.42294557907E+03  0.50400001928E-02 0.  1.
</event>
<event>
 5   0  0.6640844E-03  0.9928964E+03  0.7818609E-02  0.9316370E-01
        2   -1    0    0  501    0  0.00000000000E+00  0.00000000000E+00  0.37112307608E+03  0.37112307609E+03  0.25500000920E-02 0.  1.
       -2   -1    0    0    0  501  0.00000000000E+00  0.00000000000E+00 -0.66409458019E+03  0.66409458020E+03  0.25500000920E-02 0. -1.
    10030    2    1    2    0    0  0.00000000000E+00  0.00000000000E+00 -0.29297150411E+03  0.10352176563E+04  0.99289641639E+03 0.  0.
        5    1    3    3  502    0 -0.26153072626E+03  0.47597906069E+01 -0.58639124989E+03  0.64210416937E+03  0.46999998093E+01 0. -1.
       -5    1    3    3    0  502  0.26153072626E+03 -0.47597906069E+01  0.29341974578E+03  0.39311348691E+03  0.46999998093E+01 0.  1.
</event>
<event>
 5   0  0.3648616E-03  0.8328728E+03  0.7818609E-02  0.9513617E-01
        1   -1    0    0  501    0  0.00000000000E+00  0.00000000000E+00  0.95358041797E+03  0.95358041798E+03  0.50400001928E-02 0. -1.
       -1   -1    0    0    0  501  0.00000000000E+00  0.00000000000E+00 -0.18186117915E+03  0.18186117922E+03  0.50400001928E-02 0.  1.
    10030    2    1    2    0    0  0.00000000000E+00  0.00000000000E+00  0.77171923882E+03  0.11354415972E+04  0.83287276165E+03 0.  0.
        2    1    3    3  502    0  0.29858138884E+03 -0.16090561685E+03  0.71524929974E+03  0.79159524006E+03  0.25500000920E-02 0. -1.
       -2    1    3    3    0  502 -0.29858138884E+03  0.16090561685E+03  0.56469939076E+02  0.34384635715E+03  0.25500000920E-02 0.  1.
</event>
<event>
 5   0  0.3944074E-03  0.1246947E+04  0.7818609E-02  0.9072728E-01
        1   -1    0    0  501    0  0.00000000000E+00  0.00000000000E+00  0.79569924221E+03  0.79569924222E+03  0.50400001928E-02 0.  1.
       -1   -1    0    0    0  501  0.00000000000E+00  0.00000000000E+00 -0.48852491840E+03  0.48852491842E+03  0.50400001928E-02 0. -1.
    10030    2    1    2    0    0  0.00000000000E+00  0.00000000000E+00  0.30717432381E+03  0.12842241606E+04  0.12469465223E+04 0.  0.
        4    1    3    3  502    0 -0.59943348729E+03 -0.17127146594E+03  0.16175350711E+03  0.64406539318E+03  0.12699999809E+01 0. -1.
       -4    1    3    3    0  502  0.59943348729E+03  0.17127146594E+03  0.14542081670E+03  0.64015876747E+03  0.12699999809E+01 0.  1.
</event>
<event>
 5   0  0.6658994E-03  0.1221309E+04  0.7818609E-02  0.9094407E-01
       -2   -1    0    0    0  501  0.00000000000E+00  0.00000000000E+00  0.21419173941E+03  0.21419173942E+03  0.25500000920E-02 0. -1.
        2   -1    0    0  501    0  0.00000000000E+00  0.00000000000E+00 -0.17409572445E+04  0.17409572445E+04  0.25500000920E-02 0.  1.
    10030    2    1    2    0    0  0.00000000000E+00  0.00000000000E+00 -0.15267655051E+04  0.19551489839E+04  0.12213085776E+04 0.  0.
        4    1    3    3  502    0  0.57019268419E+03  0.11665630447E+03 -0.46746678223E+03  0.74649527518E+03  0.12699999809E+01 0. -1.
       -4    1    3    3    0  502 -0.57019268419E+03 -0.11665630447E+03 -0.10592987228E+04  0.12086537087E+04  0.12699999809E+01 0.  1.
</event>
<event>
 5   0  0.6493047E-03  0.1171206E+04  0.7818609E-02  0.9138440E-01
       -2   -1    0    0    0  501  0.00000000000E+00  0.00000000000E+00  0.42280156962E+03  0.42280156963E+03  0.25500000920E-02 0.  1.
        2   -1    0    0  501    0  0.00000000000E+00  0.00000000000E+00 -0.81109178146E+03  0.81109178147E+03  0.25500000920E-02 0. -1.
    10030    2    1    2    0    0  0.00000000000E+00  0.00000000000E+00 -0.38829021184E+03  0.12338933511E+04  0.11712060080E+04 0.  0.
        3    1    3    3  502    0 -0.24048338325E+03  0.52939869321E+03 -0.26740580341E+03  0.64000086554E+03  0.10100000352E+00 0.  1.
       -3    1    3    3    0  502  0.24048338325E+03 -0.52939869321E+03 -0.12088440843E+03  0.59389248555E+03  0.10100000352E+00 0. -1.
</event>
<event>
 5   0  0.3701879E-03  0.1165719E+04  0.7818609E-02  0.9143403E-01
       -1   -1    0    0    0  501  0.00000000000E+00  0.00000000000E+00  0.49480179131E+03  0.49480179134E+03  0.50400001928E-02 0.  1.
        1   -1    0    0  501    0  0.00000000000E+00  0.00000000000E+00 -0.68658847720E+03  0.68658847722E+03  0.50400001928E-02 0. -1.
    10030    2    1    2    0    0  0.00000000000E+00  0.00000000000E+00 -0.19178668589E+03  0.11813902686E+04  0.11657190201E+04 0.  0.
        1    1    3    3  502    0 -0.31312888872E+03  0.14194282373E+03  0.38110137212E+03  0.51325989715E+03  0.50400001928E-02 0.  1.
       -1    1    3    3    0  502  0.31312888872E+03 -0.14194282373E+03 -0.57288805801E+03  0.66813037141E+03  0.50400001928E-02 0. -1.
</event>
<event>
 5   0  0.3701879E-03  0.1036876E+04  0.7818609E-02  0.9269000E-01
       -1   -1    0    0    0  501  0.00000000000E+00  0.00000000000E+00  0.27759046433E+03  0.27759046437E+03  0.50400001928E-02 0. -1.
        1   -1    0    0  501    0  0.00000000000E+00  0.00000000000E+00 -0.96825319063E+03  0.96825319065E+03  0.50400001928E-02 0.  1.
    10030    2    1    2    0    0  0.00000000000E+00  0.00000000000E+00 -0.69066272631E+03  0.12458436550E+04  0.10368757935E+04 0.  0.
        1    1    3    3  502    0  0.82647918772E+02  0.24644536822E+03 -0.88430012078E+03  0.92171183221E+03  0.50400001928E-02 0.  1.
       -1    1    3    3    0  502 -0.82647918772E+02 -0.24644536822E+03  0.19363739447E+03  0.32413182281E+03  0.50400001928E-02 0. -1.
</event>
<event>
 5   0  0.3648616E-03  0.1165863E+04  0.7818609E-02  0.9143272E-01
       -1   -1    0    0    0  501  0.00000000000E+00  0.00000000000E+00  0.42077490751E+03  0.42077490754E+03  0.50400001928E-02 0. -1.
        1   -1    0    0  501    0  0.00000000000E+00  0.00000000000E+00 -0.80757980961E+03  0.80757980962E+03  0.50400001928E-02 0.  1.
    10030    2    1    2    0    0  0.00000000000E+00  0.00000000000E+00 -0.38680490210E+03  0.12283547172E+04  0.11658633191E+04 0.  0.
        2    1    3    3  502    0  0.42968000026E+03 -0.28781652181E+03  0.89986962267E+02  0.52493895477E+03  0.25500000920E-02 0. -1.
       -2    1    3    3    0  502 -0.42968000026E+03  0.28781652181E+03 -0.47679186436E+03  0.70341576239E+03  0.25500000920E-02 0.  1.
</event>
<event>
 5   0  0.3648616E-03  0.1207566E+04  0.7818609E-02  0.9106259E-01
       -1   -1    0    0    0  501  0.00000000000E+00  0.00000000000E+00  0.37874851263E+03  0.37874851267E+03  0.50400001928E-02 0. -1.
        1   -1    0    0  501    0  0.00000000000E+00  0.00000000000E+00 -0.96252294651E+03  0.96252294652E+03  0.50400001928E-02 0.  1.
    10030    2    1    2    0    0  0.00000000000E+00  0.00000000000E+00 -0.58377443387E+03  0.13412714592E+04  0.12075663698E+04 0.  0.
        2    1    3    3  502    0  0.85144743035E+02  0.56645646165E+03 -0.50389153270E+03  0.76290840010E+03  0.25500000920E-02 0.  1.
       -2    1    3    3    0  502 -0.85144743035E+02 -0.56645646165E+03 -0.79882901170E+02  0.57836305909E+03  0.25500000920E-02 0. -1.
</event>
<event>
 5   0  0.6640844E-03  0.1206977E+04  0.7818609E-02  0.9106772E-01
        2   -1    0    0  501    0  0.00000000000E+00  0.00000000000E+00  0.65041675153E+03  0.65041675154E+03  0.25500000920E-02 0.  1.
       -2   -1    0    0    0  501  0.00000000000E+00  0.00000000000E+00 -0.55994603442E+03  0.55994603442E+03  0.25500000920E-02 0. -1.
    10030    2    1    2    0    0  0.00000000000E+00  0.00000000000E+00  0.90470717117E+02  0.12103627860E+04  0.12069768527E+04 0.  0.
        5    1    3    3  502    0 -0.26463660771E+03 -0.19559990684E+03  0.55250452959E+03  0.64309812853E+03  0.46999998093E+01 0.  1.
       -5    1    3    3    0  502  0.26463660771E+03  0.19559990684E+03 -0.46203381248E+03  0.56726465743E+03  0.46999998093E+01 0. -1.
</event>
<event>
 5   0  0.3731281E-03  0.1201828E+04  0.7818609E-02  0.9111258E-01
        1   -1    0    0  501    0  0.00000000000E+00  0.00000000000E+00  0.39696210860E+03  0.39696210863E+03  0.50400001928E-02 0. -1.
       -1   -1    0    0    0  501  0.00000000000E+00  0.00000000000E+00 -0.90965195305E+03  0.90965195306E+03  0.50400001928E-02 0.  1.
    10030    2    1    2    0    0  0.00000000000E+00  0.00000000000E+00 -0.51268984445E+03  0.13066140617E+04  0.12018275374E+04 0.  0.
        5    1    3    3  502    0  0.93054320067E+02 -0.27855544160E+03 -0.82628833197E+03  0.87694169593E+03  0.46999998093E+01 0.  1.
       -5    1    3    3    0  502 -0.93054320067E+02  0.27855544160E+03  0.31359848752E+03  0.42967236576E+03  0.46999998093E+01 0. -1.
</event>
<event>
 5   0  0.3772254E-03  0.1236842E+04  0.7818609E-02  0.9081206E-01
        1   -1    0    0  501    0  0.00000000000E+00  0.00000000000E+00  0.97577680005E+03  0.97577680007E+03  0.50400001928E-02 0. -1.
       -1   -1    0    0    0  501  0.00000000000E+00  0.00000000000E+00 -0.39193857303E+03  0.39193857306E+03  0.50400001928E-02 0.  1.
    10030    2    1    2    0    0  0.00000000000E+00  0.00000000000E+00  0.58383822703E+03  0.13677153731E+04  0.12368420540E+04 0.  0.
        3    1    3    3  502    0  0.49627658654E+02 -0.31764512477E+03 -0.29226313077E+03  0.43448714320E+03  0.10100000352E+00 0.  1.
       -3    1    3    3    0  502 -0.49627658654E+02  0.31764512477E+03  0.87610135780E+03  0.93322822993E+03  0.10100000352E+00 0. -1.
</event>
<event>
 5   0  0.3772254E-03  0.1166010E+04  0.7818609E-02  0.9143139E-01
       -1   -1    0    0    0  501  0.00000000000E+00  0.00000000000E+00  0.70720403674E+03  0.70720403675E+03  0.50400001928E-02 0. -1.
        1   -1    0    0  501    0  0.00000000000E+00  0.00000000000E+00 -0.48061816287E+03  0.48061816289E+03  0.50400001928E-02 0.  1.
    10030    2    1    2    0    0  0.00000000000E+00  0.00000000000E+00  0.22658587387E+03  0.11878221996E+04  0.11660104715E+04 0.  0.
        3    1    3    3  502    0 -0.10165055088E+03 -0.20707864292E+03 -0.43214860551E+03  0.48986408961E+03  0.10100000352E+00 0.  1.
       -3    1    3    3    0  502  0.10165055088E+03  0.20707864292E+03  0.65873447937E+03  0.69795811004E+03  0.10100000352E+00 0. -1.
</event>
<event>
 5   0  0.3944074E-03  0.7857846E+03  0.7818609E-02  0.9580824E-01
       -1   -1    0    0    0  501  0.00000000000E+00  0.00000000000E+00  0.16278290905E+03  0.16278290913E+03  0.50400001928E-02 0. -1.
        1   -1    0    0  501    0  0.00000000000E+00  0.00000000000E+00 -0.94828364526E+03  0.94828364527E+03  0.50400001928E-02 0.  1.
    10030    2    1    2    0    0  0.00000000000E+00  0.00000000000E+00 -0.78550073621E+03  0.11110665544E+04  0.78578462808E+03 0.  0.
        4    1    3    3  502    0  0.28124124008E+02 -0.37832972902E+03 -0.24828835394E+03  0.45340166499E+03  0.12699999809E+01 0.  1.
       -4    1    3    3    0  502 -0.28124124008E+02  0.37832972902E+03 -0.53721238226E+03  0.65766488941E+03  0.12699999809E+01 0. -1.
</event>
<event>
 5   0  0.6585930E-03  0.1216764E+04  0.7818609E-02  0.9098308E-01
        2   -1    0    0  501    0  0.00000000000E+00  0.00000000000E+00  0.10714895893E+04  0.10714895893E+04  0.25500000920E-02 0.  1.
       -2   -1    0    0    0  501  0.00000000000E+00  0.00000000000E+00 -0.34543392175E+03  0.34543392176E+03  0.25500000920E-02 0. -1.
    10030    2    1    2    0    0  0.00000000000E+00  0.00000000000E+00  0.72605566750E+03  0.14169235110E+04  0.12167643173E+04 0.  0.
        2    1    3    3  502    0 -0.33162107895E+03 -0.50242826200E+03  0.46535928366E+03  0.76089812811E+03  0.25500000920E-02 0. -1.
       -2    1    3    3    0  502  0.33162107895E+03  0.50242826200E+03  0.26069638385E+03  0.65602538291E+03  0.25500000920E-02 0.  1.
</event>
<event>
 5   0  0.6349142E-03  0.1159184E+04  0.7818609E-02  0.9149353E-01
       -2   -1    0    0    0  501  0.00000000000E+00  0.00000000000E+00  0.20136669332E+03  0.20136669334E+03  0.25500000920E-02 0.  1.
        2   -1    0    0  501    0  0.00000000000E+00  0.00000000000E+00 -0.16682336281E+04  0.16682336281E+04  0.25500000920E-02 0. -1.
    10030    2    1    2    0    0  0.00000000000E+00  0.00000000000E+00 -0.14668669348E+04  0.18696003214E+04  0.11591836600E+04 0.  0.
        1    1    3    3  502    0 -0.15170461610E+03 -0.24051814824E+03  0.81121904287E+02  0.29570937348E+03  0.50400001928E-02 0.  1.
       -1    1    3    3    0  502  0.15170461610E+03  0.24051814824E+03 -0.15479888391E+04  0.15738909480E+04  0.50400001928E-02 0. -1.
</event>
<event>
 5   0  0.3731281E-03  0.1192786E+04  0.7818609E-02  0.9119194E-01
       -1   -1    0    0    0  501  0.00000000000E+00  0.00000000000E+00  0.62723821319E+03  0.62723821321E+03  0.50400001928E-02 0.  1.
        1   -1    0    0  501    0  0.00000000000E+00  0.00000000000E+00 -0.56706463329E+03  0.56706463331E+03  0.50400001928E-02 0. -1.
    10030    2    1    2    0    0  0.00000000000E+00  0.00000000000E+00  0.60173579900E+02  0.11943028465E+04  0.11927859948E+04 0.  0.
        5    1    3    3  502    0 -0.42086729879E+02  0.57454607259E+03  0.18451662970E+03  0.60493219372E+03  0.46999998093E+01 0.  1.
       -5    1    3    3    0  502  0.42086729879E+02 -0.57454607259E+03 -0.12434304980E+03  0.58937065281E+03  0.46999998093E+01 0. -1.
</event>
<event>
 5   0  0.3648616E-03  0.1206551E+04  0.7818609E-02  0.9107142E-01
       -1   -1    0    0    0  501  0.00000000000E+00  0.00000000000E+00  0.20712715401E+03  0.20712715407E+03  0.50400001928E-02 0.  1.
        1   -1    0    0  501    0  0.00000000000E+00  0.00000000000E+00 -0.17570910537E+04  0.17570910537E+04  0.50400001928E-02 0. -1.
    10030    2    1    2    0    0  0.00000000000E+00  0.00000000000E+00 -0.15499638997E+04  0.19642182078E+04  0.12065509013E+04 0.  0.
        2    1    3    3  502    0 -0.29289613359E+03  0.89556033277E+02  0.71139641075E+02  0.31443485289E+03  0.25500000920E-02 0.  1.
       -2    1    3    3    0  502  0.29289613359E+03 -0.89556033277E+02 -0.16211035408E+04  0.16497833549E+04  0.25500000920E-02 0. -1.
</event>
<event>
 5   0  0.3772254E-03  0.9063989E+03  0.7818609E-02  0.9417618E-01
       -1   -1    0    0    0  501  0.00000000000E+00  0.00000000000E+00  0.18210620142E+03  0.18210620149E+03  0.50400001928E-02 0. -1.
        1   -1    0    0  501    0  0.00000000000E+00  0.00000000000E+00 -0.11278568894E+04  0.11278568895E+04  0.50400001928E-02 0.  1.
    10030    2    1    2    0    0  0.00000000000E+00  0.00000000000E+00 -0.94575068803E+03  0.13099630909E+04  0.90639888334E+03 0.  0.
        3    1    3    3  502    0  0.39342714820E+03  0.21637488052E+03 -0.38394070585E+03  0.59077363319E+03  0.10100000352E+00 0.  1.
       -3    1    3    3    0  502 -0.39342714820E+03 -0.21637488052E+03 -0.56180998218E+03  0.71918945776E+03  0.10100000352E+00 0. -1.
</event>
<event>
 5   0  0.6585930E-03  0.1303742E+04  0.7818609E-02  0.9026603E-01
       -2   -1    0    0    0  501  0.00000000000E+00  0.00000000000E+00  0.64080147762E+03  0.64080147762E+03  0.25500000920E-02 0.  1.
        2   -1    0    0  501    0  0.00000000000E+00  0.00000000000E+00 -0.66313131360E+03  0.66313131360E+03  0.25500000920E-02 0. -1.
    10030    2    1    2    0    0  0.00000000000E+00  0.00000000000E+00 -0.22329835983E+02  0.13039327912E+04  0.13037415781E+04 0.  0.
        2    1    3    3  502    0  0.10414179964E+03 -0.24012472340E+03 -0.60827017474E+03  0.66219181715E+03  0.25500000920E-02 0. -1.
       -2    1    3    3    0  502 -0.10414179964E+03  0.24012472340E+03  0.58594033876E+03  0.64174097408E+03  0.25500000920E-02 0.  1.
</event>
<event>
 5   0  0.6349142E-03  0.1180933E+04  0.7818609E-02  0.9129712E-01
       -2   -1    0    0    0  501  0.00000000000E+00  0.00000000000E+00  0.96407143198E+03  0.96407143199E+03  0.25500000920E-02 0.  1.
        2   -1    0    0  501    0  0.00000000000E+00  0.00000000000E+00 -0.36164380937E+03  0.36164380938E+03  0.25500000920E-02 0. -1.
    10030    2    1    2    0    0  0.00000000000E+00  0.00000000000E+00  0.60242762261E+03  0.13257152414E+04  0.11809326233E+04 0.  0.
        1    1    3    3  502    0  0.40122377023E+03 -0.47330913939E+01  0.78750519812E+03  0.88383672307E+03  0.50400001928E-02 0.  1.
       -1    1    3    3    0  502 -0.40122377023E+03  0.47330913939E+01 -0.18507757551E+03  0.44187851830E+03  0.50400001928E-02 0. -1.
</event>
<event>
 5   0  0.3701879E-03  0.1211676E+04  0.7818609E-02  0.9102698E-01
        1   -1    0    0  501    0  0.00000000000E+00  0.00000000000E+00  0.17714788060E+04  0.17714788060E+04  0.50400001928E-02 0.  1.
       -1   -1    0    0    0  501  0.00000000000E+00  0.00000000000E+00 -0.20719380415E+03  0.20719380421E+03  0.50400001928E-02 0. -1.
    10030    2    1    2    0    0  0.00000000000E+00  0.00000000000E+00  0.15642850018E+04  0.19786726102E+04  0.12116755883E+04 0.  0.
        1    1    3    3  502    0 -0.54751095923E+03 -0.19906338377E+03  0.51062645486E+03  0.77468306918E+03  0.50400001928E-02 0.  1.
       -1    1    3    3    0  502  0.54751095923E+03  0.19906338377E+03  0.10536585470E+04  0.12039895410E+04  0.50400001928E-02 0. -1.
</event>
<event>
 5   0  0.6585930E-03  0.1195306E+04  0.7818609E-02  0.9116975E-01
        2   -1    0    0  501    0  0.00000000000E+00  0.00000000000E+00  0.47392150724E+03  0.47392150724E+03  0.25500000920E-02 0.  1.
       -2   -1    0    0    0  501  0.00000000000E+00  0.00000000000E+00 -0.75368833475E+03  0.75368833476E+03  0.25500000920E-02 0. -1.
    10030    2    1    2    0    0  0.00000000000E+00  0.00000000000E+00 -0.27976682752E+03  0.12276098420E+04  0.11953060053E+04 0.  0.
        2    1    3    3  502    0  0.46028192190E+03 -0.10673689394E+03 -0.51574797579E+03  0.69946278435E+03  0.25500000920E-02 0. -1.
       -2    1    3    3    0  502 -0.46028192190E+03  0.10673689394E+03  0.23598114827E+03  0.52814705765E+03  0.25500000920E-02 0.  1.
</event>
<event>
 5   0  0.3648616E-03  0.1728952E+04  0.7818609E-02  0.8745022E-01
        1   -1    0    0  501    0  0.00000000000E+00  0.00000000000E+00  0.14913645634E+04  0.14913645634E+04  0.50400001928E-02 0. -1.
       -1   -1    0    0    0  501  0.00000000000E+00  0.00000000000E+00 -0.50109726208E+03  0.50109726210E+03  0.50400001928E-02 0.  1.
    10030    2    1    2    0    0  0.00000000000E+00  0.00000000000E+00  0.99026730128E+03  0.19924618255E+04  0.17289519363E+04 0.  0.
        2    1    3    3  502    0 -0.57835517307E+02 -0.37957717531E+03 -0.39744127260E+03  0.55261500545E+03  0.25500000920E-02 0.  1.
       -2    1    3    3    0  502  0.57835517307E+02  0.37957717531E+03  0.13877085739E+04  0.14398468200E+04  0.25500000920E-02 0. -1.
</event>
<event>
 5   0  0.2537625E-03  0.1192206E+04  0.7818609E-02  0.9119707E-01
       -3   -1    0    0    0  501  0.00000000000E+00  0.00000000000E+00  0.26535181654E+03  0.26535183576E+03  0.10100000352E+00 0.  1.
        3   -1    0    0  501    0  0.00000000000E+00  0.00000000000E+00 -0.13391220902E+04  0.13391220940E+04  0.10100000352E+00 0. -1.
    10030    2    1    2    0    0  0.00000000000E+00  0.00000000000E+00 -0.10737702737E+04  0.16044739298E+04  0.11922055153E+04 0.  0.
        4    1    3    3  502    0  0.10288195802E+03 -0.29758243566E+03 -0.12180754411E+04  0.12581134275E+04  0.12699999809E+01 0. -1.
       -4    1    3    3    0  502 -0.10288195802E+03  0.29758243566E+03  0.14430516744E+03  0.34636050229E+03  0.12699999809E+01 0.  1.
</event>
<event>
 5   0  0.3772254E-03  0.1287329E+04  0.7818609E-02  0.9039674E-01
       -1   -1    0    0    0  501  0.00000000000E+00  0.00000000000E+00  0.15552589368E+04  0.15552589368E+04  0.50400001928E-02 0. -1.
        1   -1    0    0  501    0  0.00000000000E+00  0.00000000000E+00 -0.26638893907E+03  0.26638893912E+03  0.50400001928E-02 0.  1.
    10030    2    1    2    0    0  0.00000000000E+00  0.00000000000E+00  0.12888699977E+04  0.18216478759E+04  0.12873286732E+04 0.  0.
        3    1    3    3  502    0  0.31381503276E+02 -0.43747919412E+02  0.15520670398E+04  0.15530005749E+04  0.10100000352E+00 0. -1.
       -3    1    3    3    0  502 -0.31381503276E+02  0.43747919412E+02 -0.26319704210E+03  0.26864730107E+03  0.10100000352E+00 0.  1.
</event>
<event>
 5   0  0.6640844E-03  0.1189565E+04  0.7818609E-02  0.9122039E-01
       -2   -1    0    0    0  501  0.00000000000E+00  0.00000000000E+00  0.39567503213E+03  0.39567503214E+03  0.25500000920E-02 0. -1.
        2   -1    0    0  501    0  0.00000000000E+00  0.00000000000E+00 -0.89408313446E+03  0.89408313446E+03  0.25500000920E-02 0.  1.
    10030    2    1    2    0    0  0.00000000000E+00  0.00000000000E+00 -0.49840810233E+03  0.12897581666E+04  0.11895652533E+04 0.  0.
        5    1    3    3  502    0  0.18061421350E+03 -0.27954230089E+03  0.28524251241E+03  0.43835005759E+03  0.46999998093E+01 0. -1.
       -5    1    3    3    0  502 -0.18061421350E+03  0.27954230089E+03 -0.78365061474E+03  0.85140810901E+03  0.46999998093E+01 0.  1.
</event>
<event>
 5   0  0.6585930E-03  0.1679341E+04  0.7818609E-02  0.8773236E-01
       -2   -1    0    0    0  501  0.00000000000E+00  0.00000000000E+00  0.24668777259E+03  0.24668777261E+03  0.25500000920E-02 0. -1.
        2   -1    0    0  501    0  0.00000000000E+00  0.00000000000E+00 -0.28580509905E+04  0.28580509905E+04  0.25500000920E-02 0.  1.
    10030    2    1    2    0    0  0.00000000000E+00  0.00000000000E+00 -0.26113632180E+04  0.31047387632E+04  0.16793406240E+04 0.  0.
        2    1    3    3  502    0 -0.56603952504E+03  0.31925465988E+03 -0.32265327742E+03  0.72555455976E+03  0.25500000920E-02 0.  1.
       -2    1    3    3    0  502  0.56603952504E+03 -0.31925465988E+03 -0.22887099405E+04  0.23791842034E+04  0.25500000920E-02 0. -1.
</event>
<event>
 5   0  0.3731281E-03  0.1196073E+04  0.7818609E-02  0.9116301E-01
        1   -1    0    0  501    0  0.00000000000E+00  0.00000000000E+00  0.50822273578E+03  0.50822273581E+03  0.50400001928E-02 0.  1.
       -1   -1    0    0    0  501  0.00000000000E+00  0.00000000000E+00 -0.70372177689E+03  0.70372177691E+03  0.50400001928E-02 0. -1.
    10030    2    1    2    0    0  0.00000000000E+00  0.00000000000E+00 -0.19549904111E+03  0.12119445127E+04  0.11960725843E+04 0.  0.
        5    1    3    3  502    0 -0.28521568682E+03 -0.95564018747E+01  0.43475835356E+03  0.52007329178E+03  0.46999998093E+01 0.  1.
       -5    1    3    3    0  502  0.28521568682E+03  0.95564018747E+01 -0.63025739467E+03  0.69187122094E+03  0.46999998093E+01 0. -1.
</event>
<event>
 5   0  0.3731281E-03  0.1005051E+04  0.7818609E-02  0.9303022E-01
       -1   -1    0    0    0  501  0.00000000000E+00  0.00000000000E+00  0.12985796179E+03  0.12985796188E+03  0.50400001928E-02 0.  1.
        1   -1    0    0  501    0  0.00000000000E+00  0.00000000000E+00 -0.19446779058E+04  0.19446779058E+04  0.50400001928E-02 0. -1.
    10030    2    1    2    0    0  0.00000000000E+00  0.00000000000E+00 -0.18148199440E+04  0.20745358676E+04  0.10050510619E+04 0.  0.
        5    1    3    3  502    0  0.17176031800E+03 -0.67095613755E+02  0.57451340797E+02  0.19319983121E+03  0.46999998093E+01 0.  1.
       -5    1    3    3    0  502 -0.17176031800E+03  0.67095613755E+02 -0.18722712848E+04  0.18813360364E+04  0.46999998093E+01 0. -1.
</event>
<event>
 5   0  0.3648616E-03  0.1225835E+04  0.7818609E-02  0.9090539E-01
        1   -1    0    0  501    0  0.00000000000E+00  0.00000000000E+00  0.32451582455E+03  0.32451582459E+03  0.50400001928E-02 0.  1.
       -1   -1    0    0    0  501  0.00000000000E+00  0.00000000000E+00 -0.11576251134E+04  0.11576251134E+04  0.50400001928E-02 0. -1.
    10030    2    1    2    0    0  0.00000000000E+00  0.00000000000E+00 -0.83310928887E+03  0.14821409380E+04  0.12258346842E+04 0.  0.
        2    1    3    3  502    0  0.22307979694E+03 -0.39377381179E+03  0.83202557868E+02  0.46015766461E+03  0.25500000920E-02 0.  1.
       -2    1    3    3    0  502 -0.22307979694E+03  0.39377381179E+03 -0.91631184674E+03  0.10219832734E+04  0.25500000920E-02 0. -1.
</event>
<event>
 5   0  0.3701879E-03  0.1194812E+04  0.7818609E-02  0.9117409E-01
       -1   -1    0    0    0  501  0.00000000000E+00  0.00000000000E+00  0.67532128912E+03  0.67532128914E+03  0.50400001928E-02 0.  1.
        1   -1    0    0  501    0  0.00000000000E+00  0.00000000000E+00 -0.52848061527E+03  0.52848061530E+03  0.50400001928E-02 0. -1.
    10030    2    1    2    0    0  0.00000000000E+00  0.00000000000E+00  0.14684067384E+03  0.12038019044E+04  0.11948124713E+04 0.  0.
        1    1    3    3  502    0 -0.18045221236E+03  0.36275362078E+03  0.51574622233E+03  0.65585620086E+03  0.50400001928E-02 0.  1.
       -1    1    3    3    0  502  0.18045221236E+03 -0.36275362078E+03 -0.36890554848E+03  0.54794570357E+03  0.50400001928E-02 0. -1.
</event>
<event>
 5   0  0.6585930E-03  0.1250327E+04  0.7818609E-02  0.9069911E-01
       -2   -1    0    0    0  501  0.00000000000E+00  0.00000000000E+00  0.20611775678E+03  0.20611775680E+03  0.25500000920E-02 0.  1.
        2   -1    0    0  501    0  0.00000000000E+00  0.00000000000E+00 -0.18961466520E+04  0.18961466520E+04  0.25500000920E-02 0. -1.
    10030    2    1    2    0    0  0.00000000000E+00  0.00000000000E+00 -0.16900288952E+04  0.21022644088E+04  0.12503271483E+04 0.  0.
        2    1    3    3  502    0 -0.45339099593E+03 -0.12893119645E+03 -0.15354889375E+04  0.16062107351E+04  0.25500000920E-02 0. -1.
       -2    1    3    3    0  502  0.45339099593E+03  0.12893119645E+03 -0.15453995776E+03  0.49605367366E+03  0.25500000920E-02 0.  1.
</event>
<event>
 5   0  0.3701879E-03  0.1087591E+04  0.7818609E-02  0.9217372E-01
        1   -1    0    0  501    0  0.00000000000E+00  0.00000000000E+00  0.82322072353E+03  0.82322072354E+03  0.50400001928E-02 0.  1.
       -1   -1    0    0    0  501  0.00000000000E+00  0.00000000000E+00 -0.35921542005E+03  0.35921542008E+03  0.50400001928E-02 0. -1.
    10030    2    1    2    0    0  0.00000000000E+00  0.00000000000E+00  0.46400530348E+03  0.11824361436E+04  0.10875910592E+04 0.  0.
        1    1    3    3  502    0 -0.33796735019E+03 -0.42065006813E+03  0.30529979633E+03  0.61998094751E+03  0.50400001928E-02 0. -1.
       -1    1    3    3    0  502  0.33796735019E+03  0.42065006813E+03  0.15870550715E+03  0.56245519612E+03  0.50400001928E-02 0.  1.
</event>
<event>
 5   0  0.2537625E-03  0.1181654E+04  0.7818609E-02  0.9129068E-01
        3   -1    0    0  501    0  0.00000000000E+00  0.00000000000E+00  0.77457993055E+03  0.77457993713E+03  0.10100000352E+00 0.  1.
       -3   -1    0    0    0  501  0.00000000000E+00  0.00000000000E+00 -0.45066559424E+03  0.45066560556E+03  0.10100000352E+00 0. -1.
    10030    2    1    2    0    0  0.00000000000E+00  0.00000000000E+00  0.32391433631E+03  0.12252455427E+04  0.11816539860E+04 0.  0.
        5    1    3    3  502    0 -0.39220149909E+03  0.25780672249E+03  0.53403773713E+03  0.71098854894E+03  0.46999998093E+01 0.  1.
       -5    1    3    3    0  502  0.39220149909E+03 -0.25780672249E+03 -0.21012340082E+03  0.51425699375E+03  0.46999998093E+01 0. -1.
</event>
<event>
 5   0  0.6640844E-03  0.1183063E+04  0.7818609E-02  0.9127812E-01
       -2   -1    0    0    0  501  0.00000000000E+00  0.00000000000E+00  0.26960690511E+03  0.26960690512E+03  0.25500000920E-02 0. -1.
        2   -1    0    0  501    0  0.00000000000E+00  0.00000000000E+00 -0.12978507894E+04  0.12978507894E+04  0.25500000920E-02 0.  1.
    10030    2    1    2    0    0  0.00000000000E+00  0.00000000000E+00 -0.10282438843E+04  0.15674576945E+04  0.11830630323E+04 0.  0.
        5    1    3    3  502    0 -0.23873667777E+03 -0.48079843465E+03 -0.18495298217E+03  0.56779576583E+03  0.46999998093E+01 0. -1.
       -5    1    3    3    0  502  0.23873667777E+03  0.48079843465E+03 -0.84329090208E+03  0.99966192866E+03  0.46999998093E+01 0.  1.
</event>
<event>
 5   0  0.3772254E-03  0.1187917E+04  0.7818609E-02  0.9123499E-01
        1   -1    0    0  501    0  0.00000000000E+00  0.00000000000E+00  0.90744092817E+03  0.90744092819E+03  0.50400001928E-02 0.  1.
       -1   -1    0    0    0  501  0.00000000000E+00  0.00000000000E+00 -0.38877097363E+03  0.38877097366E+03  0.50400001928E-02 0. -1.
    10030    2    1    2    0    0  0.00000000000E+00  0.00000000000E+00  0.51866995454E+03  0.12962119018E+04  0.11879169890E+04 0.  0.
        3    1    3    3  502    0 -0.34432672522E+03  0.47033313926E+03  0.13486324324E+03  0.59829947365E+03  0.10100000352E+00 0. -1.
       -3    1    3    3    0  502  0.34432672522E+03 -0.47033313926E+03  0.38380671130E+03  0.69791242820E+03  0.10100000352E+00 0.  1.
</event>
<event>
 5   0  0.3731281E-03  0.1017660E+04  0.7818609E-02  0.9289385E-01
       -1   -1    0    0    0  501  0.00000000000E+00  0.00000000000E+00  0.26094196826E+03  0.26094196831E+03  0.50400001928E-02 0. -1.
        1   -1    0    0  501    0  0.00000000000E+00  0.00000000000E+00 -0.99220584289E+03  0.99220584291E+03  0.50400001928E-02 0.  1.
    10030    2    1    2    0    0  0.00000000000E+00  0.00000000000E+00 -0.73126387463E+03  0.12531478112E+04  0.10176603473E+04 0.  0.
        5    1    3    3  502    0  0.31120075916E+03 -0.33469367612E+03 -0.90226485193E+02  0.46586336835E+03  0.46999998093E+01 0. -1.
       -5    1    3    3    0  502 -0.31120075916E+03  0.33469367612E+03 -0.64103738944E+03  0.78728444287E+03  0.46999998093E+01 0.  1.
</event>
<event>
 5   0  0.3731281E-03  0.1049212E+04  0.7818609E-02  0.9256158E-01
        1   -1    0    0  501    0  0.00000000000E+00  0.00000000000E+00  0.98291400292E+03  0.98291400294E+03  0.50400001928E-02 0. -1.
       -1   -1    0    0    0  501  0.00000000000E+00  0.00000000000E+00 -0.27999525618E+03  0.27999525623E+03  0.50400001928E-02 0.  1.
    10030    2    1    2    0    0  0.00000000000E+00  0.00000000000E+00  0.70291874674E+03  0.12629092592E+04  0.10492116242E+04 0.  0.
        5    1    3    3  502    0  0.76833811395E+02 -0.85055181936E+01 -0.27307648947E+03  0.28384615113E+03  0.46999998093E+01 0.  1.
       -5    1    3    3    0  502 -0.76833811395E+02  0.85055181936E+01  0.97599523621E+03  0.97906310803E+03  0.46999998093E+01 0. -1.
</event>
<event>
 5   0  0.6585930E-03  0.8165943E+03  0.7818609E-02  0.9536303E-01
        2   -1    0    0  501    0  0.00000000000E+00  0.00000000000E+00  0.20949495754E+04  0.20949495754E+04  0.25500000920E-02 0. -1.
       -2   -1    0    0    0  501  0.00000000000E+00  0.00000000000E+00 -0.79575447635E+02  0.79575447676E+02  0.25500000920E-02 0.  1.
    10030    2    1    2    0    0  0.00000000000E+00  0.00000000000E+00  0.20153741278E+04  0.21745250231E+04  0.81659426960E+03 0.  0.
        2    1    3    3  502    0  0.58054346532E+02  0.36483896725E+03  0.14706735638E+04  0.15163635812E+04  0.25500000920E-02 0. -1.
       -2    1    3    3    0  502 -0.58054346532E+02 -0.36483896725E+03  0.54470056401E+03  0.65816144191E+03  0.25500000920E-02 0.  1.
</event>
<event>
 5   0  0.3731281E-03  0.1185943E+04  0.7818609E-02  0.9125250E-01
        1   -1    0    0  501    0  0.00000000000E+00  0.00000000000E+00  0.35101613088E+03  0.35101613091E+03  0.50400001928E-02 0.  1.
       -1   -1    0    0    0  501  0.00000000000E+00  0.00000000000E+00 -0.10017065821E+04  0.10017065821E+04  0.50400001928E-02 0. -1.
    10030    2    1    2    0    0  0.00000000000E+00  0.00000000000E+00 -0.65069045120E+03  0.13527227130E+04  0.11859429476E+04 0.  0.
        5    1    3    3  502    0 -0.27910890853E+02  0.55473813157E+03 -0.56209040823E+03  0.79024118437E+03  0.46999998093E+01 0. -1.
       -5    1    3    3    0  502  0.27910890853E+02 -0.55473813157E+03 -0.88600042975E+02  0.56248152864E+03  0.46999998093E+01 0.  1.
</event>
<event>
 5   0  0.3701879E-03  0.1228861E+04  0.7818609E-02  0.9087963E-01
        1   -1    0    0  501    0  0.00000000000E+00  0.00000000000E+00  0.97359928456E+03  0.97359928457E+03  0.50400001928E-02 0. -1.
       -1   -1    0    0    0  501  0.00000000000E+00  0.00000000000E+00 -0.38776222936E+03  0.38776222939E+03  0.50400001928E-02 0.  1.
    10030    2    1    2    0    0  0.00000000000E+00  0.00000000000E+00  0.58583705520E+03  0.13613615140E+04  0.12288613089E+04 0.  0.
        1    1    3    3  502    0  0.78393688498E+02 -0.20342335036E+03 -0.34347611492E+03  0.40681994963E+03  0.50400001928E-02 0.  1.
       -1    1    3    3    0  502 -0.78393688498E+02  0.20342335036E+03  0.92931317012E+03  0.95454156434E+03  0.50400001928E-02 0. -1.
</event>
<event>
 5   0  0.6585930E-03  0.7192250E+03  0.7818609E-02  0.9684908E-01
        2   -1    0    0  501    0  0.00000000000E+00  0.00000000000E+00  0.30017891913E+03  0.30017891914E+03  0.25500000920E-02 0. -1.
       -2   -1    0    0    0  501  0.00000000000E+00  0.00000000000E+00 -0.43081353601E+03  0.43081353601E+03  0.25500000920E-02 0.  1.
    10030    2    1    2    0    0  0.00000000000E+00  0.00000000000E+00 -0.13063461688E+03  0.73099245515E+03  0.71922497618E+03 0.  0.
        2    1    3    3  502    0 -0.53750905347E+02  0.29795186317E+03 -0.26254554168E+03  0.40074260325E+03  0.25500000920E-02 0.  1.
       -2    1    3    3    0  502  0.53750905347E+02 -0.29795186317E+03  0.13191092480E+03  0.33024985190E+03  0.25500000920E-02 0. -1.
</event>
<event>
 5   0  0.2537625E-03  0.1081846E+04  0.7818609E-02  0.9223069E-01
        4   -1    0    0  501    0  0.00000000000E+00  0.00000000000E+00  0.43596025555E+03  0.43596210537E+03  0.12699999809E+01 0. -1.
       -4   -1    0    0    0  501  0.00000000000E+00  0.00000000000E+00 -0.67115309593E+03  0.67115429752E+03  0.12699999809E+01 0.  1.
    10030    2    1    2    0    0  0.00000000000E+00  0.00000000000E+00 -0.23519284039E+03  0.11071164029E+04  0.10818461339E+04 0.  0.
        3    1    3    3  502    0 -0.27019681597E+03 -0.45103023640E+03 -0.24770050510E+03  0.58119716443E+03  0.10100000352E+00 0. -1.
       -3    1    3    3    0  502  0.27019681597E+03  0.45103023640E+03  0.12507664712E+02  0.52591923846E+03  0.10100000352E+00 0.  1.
</event>
<event>
 5   0  0.3648616E-03  0.1242464E+04  0.7818609E-02  0.9076479E-01
       -1   -1    0    0    0  501  0.00000000000E+00  0.00000000000E+00  0.82631090079E+03  0.82631090080E+03  0.50400001928E-02 0.  1.
        1   -1    0    0  501    0  0.00000000000E+00  0.00000000000E+00 -0.46705090949E+03  0.46705090952E+03  0.50400001928E-02 0. -1.
    10030    2    1    2    0    0  0.00000000000E+00  0.00000000000E+00  0.35925999130E+03  0.12933618103E+04  0.12424640965E+04 0.  0.
        2    1    3    3  502    0 -0.29660577163E+03 -0.25289843353E+03 -0.32391816188E+03  0.50680921168E+03  0.25500000920E-02 0. -1.
       -2    1    3    3    0  502  0.29660577163E+03  0.25289843353E+03  0.68317815317E+03  0.78655259864E+03  0.25500000920E-02 0.  1.
</event>
<event>
 5   0  0.3944074E-03  0.1176896E+04  0.7818609E-02  0.9133323E-01
        1   -1    0    0  501    0  0.00000000000E+00  0.00000000000E+00  0.77248386061E+03  0.77248386063E+03  0.50400001928E-02 0.  1.
       -1   -1    0    0    0  501  0.00000000000E+00  0.00000000000E+00 -0.44825690344E+03  0.44825690346E+03  0.50400001928E-02 0. -1.
    10030    2    1    2    0    0  0.00000000000E+00  0.00000000000E+00  0.32422695718E+03  0.12207407641E+04  0.11768962968E+04 0.  0.
        4    1    3    3  502    0  0.35880400856E+03 -0.19551476000E+03  0.60133069871E+03  0.72702583176E+03  0.12699999809E+01 0.  1.
       -4    1    3    3    0  502 -0.35880400856E+03  0.19551476000E+03 -0.27710374153E+03  0.49371493233E+03  0.12699999809E+01 0. -1.
</event>
<event>
 5   0  0.3944074E-03  0.1201031E+04  0.7818609E-02  0.9111955E-01
       -1   -1    0    0    0  501  0.00000000000E+00  0.00000000000E+00  0.26451845712E+03  0.26451845716E+03  0.50400001928E-02 0.  1.
        1   -1    0    0  501    0  0.00000000000E+00  0.00000000000E+00 -0.13633024983E+04  0.13633024983E+04  0.50400001928E-02 0. -1.
    10030    2    1    2    0    0  0.00000000000E+00  0.00000000000E+00 -0.10987840412E+04  0.16278209555E+04  0.12010306799E+04 0.  0.
        4    1    3    3  502    0  0.11652508003E+03 -0.39824530525E+03 -0.11377459661E+04  0.12110511606E+04  0.12699999809E+01 0. -1.
       -4    1    3    3    0  502 -0.11652508003E+03  0.39824530525E+03  0.38961924863E+02  0.41676979488E+03  0.12699999809E+01 0.  1.
</event>
<event>
 5   0  0.3731281E-03  0.1208961E+04  0.7818609E-02  0.9105049E-01
        1   -1    0    0  501    0  0.00000000000E+00  0.00000000000E+00  0.86539151383E+03  0.86539151384E+03  0.50400001928E-02 0. -1.
       -1   -1    0    0    0  501  0.00000000000E+00  0.00000000000E+00 -0.42223254304E+03  0.42223254307E+03  0.50400001928E-02 0.  1.
    10030    2    1    2    0    0  0.00000000000E+00  0.00000000000E+00  0.44315897078E+03  0.12876240569E+04  0.12089606439E+04 0.  0.
        5    1    3    3  502    0 -0.44457319832E+03 -0.40716037974E+03  0.26860513102E+03  0.65999674992E+03  0.46999998093E+01 0.  1.
       -5    1    3    3    0  502  0.44457319832E+03  0.40716037974E+03  0.17455383976E+03  0.62762730699E+03  0.46999998093E+01 0. -1.
</event>
<event>
 5   0  0.3772254E-03  0.1161995E+04  0.7818609E-02  0.9146788E-01
       -1   -1    0    0    0  501  0.00000000000E+00  0.00000000000E+00  0.48794189043E+03  0.48794189045E+03  0.50400001928E-02 0.  1.
        1   -1    0    0  501    0  0.00000000000E+00  0.00000000000E+00 -0.69180023111E+03  0.69180023113E+03  0.50400001928E-02 0. -1.
    10030    2    1    2    0    0  0.00000000000E+00  0.00000000000E+00 -0.20385834068E+03  0.11797421216E+04  0.11619953745E+04 0.  0.
        3    1    3    3  502    0  0.45941988386E+03 -0.23745550245E+03  0.16689109546E+03  0.54341916904E+03  0.10100000352E+00 0. -1.
       -3    1    3    3    0  502 -0.45941988386E+03  0.23745550245E+03 -0.37074943614E+03  0.63632295254E+03  0.10100000352E+00 0.  1.
</event>
<event>
 5   0  0.6640844E-03  0.1200247E+04  0.7818609E-02  0.9112640E-01
        2   -1    0    0  501    0  0.00000000000E+00  0.00000000000E+00  0.82413025413E+03  0.82413025413E+03  0.25500000920E-02 0. -1.
       -2   -1    0    0    0  501  0.00000000000E+00  0.00000000000E+00 -0.43700433023E+03  0.43700433024E+03  0.25500000920E-02 0.  1.
    10030    2    1    2    0    0  0.00000000000E+00  0.00000000000E+00  0.38712592390E+03  0.12611345844E+04  0.12002474574E+04 0.  0.
        5    1    3    3  502    0  0.22089181025E+03  0.38721134001E+03  0.61569002354E+03  0.76014611013E+03  0.46999998093E+01 0. -1.
       -5    1    3    3    0  502 -0.22089181025E+03 -0.38721134001E+03 -0.22856409964E+03  0.50098847423E+03  0.46999998093E+01 0.  1.
</event>
<event>
 5   0  0.3731281E-03  0.1225515E+04  0.7818609E-02  0.9090812E-01
        1   -1    0    0  501    0  0.00000000000E+00  0.00000000000E+00  0.38904437163E+03  0.38904437166E+03  0.50400001928E-02 0. -1.
       -1   -1    0    0    0  501  0.00000000000E+00  0.00000000000E+00 -0.96511227634E+03  0.96511227636E+03  0.50400001928E-02 0.  1.
    10030    2    1    2    0    0  0.00000000000E+00  0.00000000000E+00 -0.57606790471E+03  0.13541566480E+04  0.12255145844E+04 0.  0.
        5    1    3    3  502    0  0.10103696413E+03 -0.23965464440E+03  0.32500684966E+03  0.41628639064E+03  0.46999998093E+01 0. -1.
       -5    1    3    3    0  502 -0.10103696413E+03  0.23965464440E+03 -0.90107475438E+03  0.93787025738E+03  0.46999998093E+01 0.  1.
</event>
<event>
 5   0  0.6349142E-03  0.1189922E+04  0.7818609E-02  0.9121724E-01
        2   -1    0    0  501    0  0.00000000000E+00  0.00000000000E+00  0.12276431926E+04  0.12276431926E+04  0.25500000920E-02 0. -1.
       -2   -1    0    0    0  501  0.00000000000E+00  0.00000000000E+00 -0.28833981800E+03  0.28833981801E+03  0.25500000920E-02 0.  1.
    10030    2    1    2    0    0  0.00000000000E+00  0.00000000000E+00  0.93930337456E+03  0.15159830106E+04  0.11899217028E+04 0.  0.
        1    1    3    3  502    0 -0.48475257657E+03  0.13886737915E+03  0.87194570627E+03  0.10072529594E+04  0.50400001928E-02 0. -1.
       -1    1    3    3    0  502  0.48475257657E+03 -0.13886737915E+03  0.67357668294E+02  0.50873005119E+03  0.50400001928E-02 0.  1.
</event>
<event>
 5   0  0.3772254E-03  0.1217220E+04  0.7818609E-02  0.9097916E-01
        1   -1    0    0  501    0  0.00000000000E+00  0.00000000000E+00  0.11012901069E+04  0.11012901069E+04  0.50400001928E-02 0.  1.
       -1   -1    0    0    0  501  0.00000000000E+00  0.00000000000E+00 -0.33633811179E+03  0.33633811183E+03  0.50400001928E-02 0. -1.
    10030    2    1    2    0    0  0.00000000000E+00  0.00000000000E+00  0.76495199511E+03  0.14376282187E+04  0.12172195120E+04 0.  0.
        3    1    3    3  502    0 -0.26785303713E+03  0.46639719080E+03  0.71889441101E+03  0.89782001174E+03  0.10100000352E+00 0.  1.
       -3    1    3    3    0  502  0.26785303713E+03 -0.46639719080E+03  0.46057584091E+02  0.53980820700E+03  0.10100000352E+00 0. -1.
</event>
<event>
 5   0  0.3648616E-03  0.1188847E+04  0.7818609E-02  0.9122675E-01
        1   -1    0    0  501    0  0.00000000000E+00  0.00000000000E+00  0.20000521414E+04  0.20000521414E+04  0.50400001928E-02 0.  1.
       -1   -1    0    0    0  501  0.00000000000E+00  0.00000000000E+00 -0.17666510850E+03  0.17666510857E+03  0.50400001928E-02 0. -1.
    10030    2    1    2    0    0  0.00000000000E+00  0.00000000000E+00  0.18233870329E+04  0.21767172500E+04  0.11888472209E+04 0.  0.
        2    1    3    3  502    0  0.33868479260E+03  0.38023494351E+03  0.35017602946E+03  0.61798806834E+03  0.25500000920E-02 0. -1.
       -2    1    3    3    0  502 -0.33868479260E+03 -0.38023494351E+03  0.14732110035E+04  0.15587291817E+04  0.25500000920E-02 0.  1.
</event>
<event>
 5   0  0.2537625E-03  0.1217255E+04  0.7818609E-02  0.9097886E-01
        3   -1    0    0  501    0  0.00000000000E+00  0.00000000000E+00  0.96852263102E+03  0.96852263629E+03  0.10100000352E+00 0. -1.
       -3   -1    0    0    0  501  0.00000000000E+00  0.00000000000E+00 -0.38246675337E+03  0.38246676670E+03  0.10100000352E+00 0.  1.
    10030    2    1    2    0    0  0.00000000000E+00  0.00000000000E+00  0.58605587766E+03  0.13509894030E+04  0.12172554684E+04 0.  0.
        1    1    3    3  502    0  0.31705072526E+03  0.51355267070E+03  0.38020861027E+03  0.71331346218E+03  0.50400001928E-02 0.  1.
       -1    1    3    3    0  502 -0.31705072526E+03 -0.51355267070E+03  0.20584726738E+03  0.63767594081E+03  0.50400001928E-02 0. -1.
</event>
<event>
 5   0  0.6349142E-03  0.1204222E+04  0.7818609E-02  0.9109169E-01
       -2   -1    0    0    0  501  0.00000000000E+00  0.00000000000E+00  0.20731732072E+03  0.20731732074E+03  0.25500000920E-02 0. -1.
        2   -1    0    0  501    0  0.00000000000E+00  0.00000000000E+00 -0.17487080279E+04  0.17487080279E+04  0.25500000920E-02 0.  1.
    10030    2    1    2    0    0  0.00000000000E+00  0.00000000000E+00 -0.15413907072E+04  0.19560253486E+04  0.12042216791E+04 0.  0.
        1    1    3    3  502    0  0.20945229217E+03  0.42188648527E+03 -0.16146341322E+03  0.49792459568E+03  0.50400001928E-02 0. -1.
       -1    1    3    3    0  502 -0.20945229217E+03 -0.42188648527E+03 -0.13799272939E+04  0.14581007529E+04  0.50400001928E-02 0.  1.
</event>
<event>
 5   0  0.6493047E-03  0.1240061E+04  0.7818609E-02  0.9078496E-01
        2   -1    0    0  501    0  0.00000000000E+00  0.00000000000E+00  0.94425751973E+03  0.94425751974E+03  0.25500000920E-02 0.  1.
       -2   -1    0    0    0  501  0.00000000000E+00  0.00000000000E+00 -0.40713244434E+03  0.40713244435E+03  0.25500000920E-02 0. -1.
    10030    2    1    2    0    0  0.00000000000E+00  0.00000000000E+00  0.53712507539E+03  0.13513899641E+04  0.12400610825E+04 0.  0.
        3    1    3    3  502    0  0.13619313568E+03 -0.45924859898E+02  0.92585271087E+03  0.93694232234E+03  0.10100000352E+00 0.  1.
       -3    1    3    3    0  502 -0.13619313568E+03  0.45924859898E+02 -0.38872763548E+03  0.41444764175E+03  0.10100000352E+00 0. -1.
</event>
<event>
 5   0  0.6349142E-03  0.1129103E+04  0.7818609E-02  0.9177282E-01
       -2   -1    0    0    0  501  0.00000000000E+00  0.00000000000E+00  0.20551386378E+03  0.20551386379E+03  0.25500000920E-02 0. -1.
        2   -1    0    0  501    0  0.00000000000E+00  0.00000000000E+00 -0.15508358068E+04  0.15508358068E+04  0.25500000920E-02 0.  1.
    10030    2    1    2    0    0  0.00000000000E+00  0.00000000000E+00 -0.13453219430E+04  0.17563496706E+04  0.11291027566E+04 0.  0.
        1    1    3    3  502    0  0.18995708058E+03  0.26008932027E+03 -0.13939091652E+04  0.14306337435E+04  0.50400001928E-02 0.  1.
       -1    1    3    3    0  502 -0.18995708058E+03 -0.26008932027E+03  0.48587222243E+02  0.32571592711E+03  0.50400001928E-02 0. -1.
</event>
<event>
 5   0  0.6493047E-03  0.1185122E+04  0.7818609E-02  0.9125980E-01
        2   -1    0    0  501    0  0.00000000000E+00  0.00000000000E+00  0.18485304636E+04  0.18485304636E+04  0.25500000920E-02 0.  1.
       -2   -1    0    0    0  501  0.00000000000E+00  0.00000000000E+00 -0.18995003098E+03  0.18995003100E+03  0.25500000920E-02 0. -1.
    10030    2    1    2    0    0  0.00000000000E+00  0.00000000000E+00  0.16585804327E+04  0.20384804946E+04  0.11851217977E+04 0.  0.
        3    1    3    3  502    0  0.34795265942E+03  0.43385396755E+03  0.47750499333E+03  0.73301524351E+03  0.10100000352E+00 0. -1.
       -3    1    3    3    0  502 -0.34795265942E+03 -0.43385396755E+03  0.11810754393E+04  0.13054652511E+04  0.10100000352E+00 0.  1.
</event>
<event>
 5   0  0.6585930E-03  0.1159440E+04  0.7818609E-02  0.9149119E-01
        2   -1    0    0  501    0  0.00000000000E+00  0.00000000000E+00  0.14872805513E+04  0.14872805513E+04  0.25500000920E-02 0. -1.
       -2   -1    0    0    0  501  0.00000000000E+00  0.00000000000E+00 -0.22596610353E+03  0.22596610354E+03  0.25500000920E-02 0.  1.
    10030    2    1    2    0    0  0.00000000000E+00  0.00000000000E+00  0.12613144478E+04  0.17132466549E+04  0.11594395043E+04 0.  0.
        2    1    3    3  502    0  0.45426924821E+02 -0.46481409359E+02 -0.22056563048E+03  0.22994200197E+03  0.25500000920E-02 0.  1.
       -2    1    3    3    0  502 -0.45426924821E+02  0.46481409359E+02  0.14818800783E+04  0.14833046529E+04  0.25500000920E-02 0. -1.
</event>
<event>
 5   0  0.6349142E-03  0.1240001E+04  0.7818609E-02  0.9078547E-01
        2   -1    0    0  501    0  0.00000000000E+00  0.00000000000E+00  0.34568815869E+03  0.34568815870E+03  0.25500000920E-02 0. -1.
       -2   -1    0    0    0  501  0.00000000000E+00  0.00000000000E+00 -0.11119860362E+04  0.11119860362E+04  0.25500000920E-02 0.  1.
    10030    2    1    2    0    0  0.00000000000E+00  0.00000000000E+00 -0.76629787754E+03  0.14576741949E+04  0.12400006538E+04 0.  0.
        1    1    3    3  502    0  0.21915312177E+03 -0.57344583322E+03 -0.28112567532E+03  0.67520356913E+03  0.50400001928E-02 0.  1.
       -1    1    3    3    0  502 -0.21915312177E+03  0.57344583322E+03 -0.48517220222E+03  0.78247062581E+03  0.50400001928E-02 0. -1.
</event>
<event>
 5   0  0.3731281E-03  0.1187024E+04  0.7818609E-02  0.9124291E-01
        1   -1    0    0  501    0  0.00000000000E+00  0.00000000000E+00  0.19146499531E+04  0.19146499531E+04  0.50400001928E-02 0. -1.
       -1   -1    0    0    0  501  0.00000000000E+00  0.00000000000E+00 -0.18397944149E+03  0.18397944156E+03  0.50400001928E-02 0.  1.
    10030    2    1    2    0    0  0.00000000000E+00  0.00000000000E+00  0.17306705116E+04  0.20986293947E+04  0.11870235534E+04 0.  0.
        5    1    3    3  502    0 -0.14335053003E+03  0.27004926024E+03 -0.34003778422E+02  0.30765942917E+03  0.46999998093E+01 0.  1.
       -5    1    3    3    0  502  0.14335053003E+03 -0.27004926024E+03  0.17646742900E+04  0.17909699655E+04  0.46999998093E+01 0. -1.
</event>
<event>
 5   0  0.3731281E-03  0.1190985E+04  0.7818609E-02  0.9120784E-01
       -1   -1    0    0    0  501  0.00000000000E+00  0.00000000000E+00  0.43367926352E+03  0.43367926355E+03  0.50400001928E-02 0. -1.
        1   -1    0    0  501    0  0.00000000000E+00  0.00000000000E+00 -0.81768168575E+03  0.81768168576E+03  0.50400001928E-02 0.  1.
    10030    2    1    2    0    0  0.00000000000E+00  0.00000000000E+00 -0.38400242223E+03  0.12513609493E+04  0.11909854597E+04 0.  0.
        5    1    3    3  502    0 -0.57793107389E+03 -0.37993352929E+02 -0.46634097427E+02  0.58107198356E+03  0.46999998093E+01 0. -1.
       -5    1    3    3    0  502  0.57793107389E+03  0.37993352929E+02 -0.33736832480E+03  0.67028896575E+03  0.46999998093E+01 0.  1.
</event>
<event>
 5   0  0.6585930E-03  0.1193875E+04  0.7818609E-02  0.9118235E-01
       -2   -1    0    0    0  501  0.00000000000E+00  0.00000000000E+00  0.16777532579E+03  0.16777532581E+03  0.25500000920E-02 0.  1.
        2   -1    0    0  501    0  0.00000000000E+00  0.00000000000E+00 -0.21238767511E+04  0.21238767511E+04  0.25500000920E-02 0. -1.
    10030    2    1    2    0    0  0.00000000000E+00  0.00000000000E+00 -0.19561014253E+04  0.22916520770E+04  0.11938745560E+04 0.  0.
        2    1    3    3  502    0  0.44492073479E+03  0.39793678553E+03 -0.96826905937E+03  0.11374766445E+04  0.25500000920E-02 0. -1.
       -2    1    3    3    0  502 -0.44492073479E+03 -0.39793678553E+03 -0.98783236597E+03  0.11541754324E+04  0.25500000920E-02 0.  1.
</event>
<event>
 5   0  0.3772254E-03  0.1175961E+04  0.7818609E-02  0.9134162E-01
        1   -1    0    0  501    0  0.00000000000E+00  0.00000000000E+00  0.55721936866E+03  0.55721936868E+03  0.50400001928E-02 0.  1.
       -1   -1    0    0    0  501  0.00000000000E+00  0.00000000000E+00 -0.62043975180E+03  0.62043975182E+03  0.50400001928E-02 0. -1.
    10030    2    1    2    0    0  0.00000000000E+00  0.00000000000E+00 -0.63220383144E+02  0.11776591205E+04  0.11759609633E+04 0.  0.
        3    1    3    3  502    0 -0.47506523495E+02  0.16505688032E+03 -0.59475700584E+03  0.61906102260E+03  0.10100000352E+00 0. -1.
       -3    1    3    3    0  502  0.47506523495E+02 -0.16505688032E+03  0.53153662269E+03  0.55859809790E+03  0.10100000352E+00 0.  1.
</event>
<event>
 5   0  0.3731281E-03  0.1210462E+04  0.7818609E-02  0.9103748E-01
       -1   -1    0    0    0  501  0.00000000000E+00  0.00000000000E+00  0.24138551418E+03  0.24138551423E+03  0.50400001928E-02 0.  1.
        1   -1    0    0  501    0  0.00000000000E+00  0.00000000000E+00 -0.15175077155E+04  0.15175077156E+04  0.50400001928E-02 0. -1.
    10030    2    1    2    0    0  0.00000000000E+00  0.00000000000E+00 -0.12761222014E+04  0.17588932298E+04  0.12104616974E+04 0.  0.
        5    1    3    3  502    0  0.11477788001E+03  0.46497344382E+03 -0.11757150973E+04  0.12695283948E+04  0.46999998093E+01 0. -1.
       -5    1    3    3    0  502 -0.11477788001E+03 -0.46497344382E+03 -0.10040710412E+03  0.48936483502E+03  0.46999998093E+01 0.  1.
</event>
<event>
 5   0  0.6640844E-03  0.1190078E+04  0.7818609E-02  0.9121586E-01
       -2   -1    0    0    0  501  0.00000000000E+00  0.00000000000E+00  0.24698763803E+03  0.24698763804E+03  0.25500000920E-02 0.  1.
        2   -1    0    0  501    0  0.00000000000E+00  0.00000000000E+00 -0.14335582651E+04  0.14335582651E+04  0.25500000920E-02 0. -1.
    10030    2    1    2    0    0  0.00000000000E+00  0.00000000000E+00 -0.11865706270E+04  0.16805459031E+04  0.11900775939E+04 0.  0.
        5    1    3    3  502    0 -0.23013804996E+03  0.19007808265E+03 -0.13201639120E+04  0.13534947522E+04  0.46999998093E+01 0. -1.
       -5    1    3    3    0  502  0.23013804996E+03 -0.19007808265E+03  0.13359328499E+03  0.32705115095E+03  0.46999998093E+01 0.  1.
</event>
<event>
 5   0  0.6493047E-03  0.1201741E+04  0.7818609E-02  0.9111334E-01
        2   -1    0    0  501    0  0.00000000000E+00  0.00000000000E+00  0.22595735949E+03  0.22595735950E+03  0.25500000920E-02 0.  1.
       -2   -1    0    0    0  501  0.00000000000E+00  0.00000000000E+00 -0.15978483225E+04  0.15978483225E+04  0.25500000920E-02 0. -1.
    10030    2    1    2    0    0  0.00000000000E+00  0.00000000000E+00 -0.13718909630E+04  0.18238056820E+04  0.12017413829E+04 0.  0.
        3    1    3    3  502    0  0.83189832169E+02 -0.30029248630E+03 -0.14656461923E+04  0.14984041166E+04  0.10100000352E+00 0. -1.
       -3    1    3    3    0  502 -0.83189832169E+02  0.30029248630E+03  0.93755229326E+02  0.32540156535E+03  0.10100000352E+00 0.  1.
</event>
<event>
 5   0  0.3731281E-03  0.1093332E+04  0.7818609E-02  0.9211715E-01
        1   -1    0    0  501    0  0.00000000000E+00  0.00000000000E+00  0.79664582236E+03  0.79664582238E+03  0.50400001928E-02 0.  1.
       -1   -1    0    0    0  501  0.00000000000E+00  0.00000000000E+00 -0.37512759833E+03  0.37512759836E+03  0.50400001928E-02 0. -1.
    10030    2    1    2    0    0  0.00000000000E+00  0.00000000000E+00  0.42151822403E+03  0.11717734207E+04  0.10933322168E+04 0.  0.
        5    1    3    3  502    0  0.50784869514E+03 -0.20225724100E+03  0.20876687746E+03  0.58517005034E+03  0.46999998093E+01 0.  1.
       -5    1    3    3    0  502 -0.50784869514E+03  0.20225724100E+03  0.21275134657E+03  0.58660337039E+03  0.46999998093E+01 0. -1.
</event>
<event>
 5   0  0.6585930E-03  0.1182649E+04  0.7818609E-02  0.9128181E-01
        2   -1    0    0  501    0  0.00000000000E+00  0.00000000000E+00  0.45864466264E+03  0.45864466265E+03  0.25500000920E-02 0.  1.
       -2   -1    0    0    0  501  0.00000000000E+00  0.00000000000E+00 -0.76238703253E+03  0.76238703254E+03  0.25500000920E-02 0. -1.
    10030    2    1    2    0    0  0.00000000000E+00  0.00000000000E+00 -0.30374236989E+03  0.12210316952E+04  0.11826491337E+04 0.  0.
        2    1    3    3  502    0  0.14651586088E+03  0.56508726244E+03 -0.54610706715E+02  0.58632144849E+03  0.25500000920E-02 0.  1.
       -2    1    3    3    0  502 -0.14651586088E+03 -0.56508726244E+03 -0.24913166317E+03  0.63471024670E+03  0.25500000920E-02 0. -1.
</event>
<event>
 5   0  0.3701879E-03  0.1189300E+04  0.7818609E-02  0.9122274E-01
        1   -1    0    0  501    0  0.00000000000E+00  0.00000000000E+00  0.28342065228E+03  0.28342065232E+03  0.50400001928E-02 0. -1.
       -1   -1    0    0    0  501  0.00000000000E+00  0.00000000000E+00 -0.12476452069E+04  0.12476452069E+04  0.50400001928E-02 0.  1.
    10030    2    1    2    0    0  0.00000000000E+00  0.00000000000E+00 -0.96422455458E+03  0.15310658592E+04  0.11892996567E+04 0.  0.
        1    1    3    3  502    0  0.35425093728E+03 -0.18105460443E+03  0.86860403056E+02  0.40720906914E+03  0.50400001928E-02 0. -1.
       -1    1    3    3    0  502 -0.35425093728E+03  0.18105460443E+03 -0.10510849576E+04  0.11238567900E+04  0.50400001928E-02 0.  1.
</event>
<event>
 5   0  0.2537625E-03  0.1170649E+04  0.7818609E-02  0.9138943E-01
       -3   -1    0    0    0  501  0.00000000000E+00  0.00000000000E+00  0.14625658992E+03  0.14625662479E+03  0.10100000352E+00 0. -1.
        3   -1    0    0  501    0  0.00000000000E+00  0.00000000000E+00 -0.23424891025E+04  0.23424891047E+04  0.10100000352E+00 0.  1.
    10030    2    1    2    0    0  0.00000000000E+00  0.00000000000E+00 -0.21962325126E+04  0.24887457295E+04  0.11706485624E+04 0.  0.
        4    1    3    3  502    0  0.13828415740E+03 -0.47732413591E+03 -0.44064244605E+03  0.66417483923E+03  0.12699999809E+01 0. -1.
       -4    1    3    3    0  502 -0.13828415740E+03  0.47732413591E+03 -0.17555900666E+04  0.18245708903E+04  0.12699999809E+01 0.  1.
</event>
<event>
 5   0  0.6349142E-03  0.1221859E+04  0.7818609E-02  0.9093936E-01
       -2   -1    0    0    0  501  0.00000000000E+00  0.00000000000E+00  0.47152495909E+03  0.47152495910E+03  0.25500000920E-02 0.  1.
        2   -1    0    0  501    0  0.00000000000E+00  0.00000000000E+00 -0.79154816598E+03  0.79154816598E+03  0.25500000920E-02 0. -1.
    10030    2    1    2    0    0  0.00000000000E+00  0.00000000000E+00 -0.32002320689E+03  0.12630731251E+04  0.12218587751E+04 0.  0.
        1    1    3    3  502    0 -0.19798403895E+02 -0.51954354155E+02  0.46890424240E+03  0.47218896670E+03  0.50400001928E-02 0.  1.
       -1    1    3    3    0  502  0.19798403895E+02  0.51954354155E+02 -0.78892744929E+03  0.79088415838E+03  0.50400001928E-02 0. -1.
</event>
<event>
 5   0  0.3648616E-03  0.1202972E+04  0.7818609E-02  0.9110259E-01
        1   -1    0    0  501    0  0.00000000000E+00  0.00000000000E+00  0.10954769231E+04  0.10954769231E+04  0.50400001928E-02 0. -1.
       -1   -1    0    0    0  501  0.00000000000E+00  0.00000000000E+00 -0.33025398827E+03  0.33025398830E+03  0.50400001928E-02 0.  1.
    10030    2    1    2    0    0  0.00000000000E+00  0.00000000000E+00  0.76522293485E+03  0.14257309114E+04  0.12029723570E+04 0.  0.
        2    1    3    3  502    0  0.57588676027E+03  0.57555146376E+01  0.17696786652E+03  0.60249175296E+03  0.25500000920E-02 0.  1.
       -2    1    3    3    0  502 -0.57588676027E+03 -0.57555146376E+01  0.58825506833E+03  0.82323915846E+03  0.25500000920E-02 0. -1.
</event>
<event>
 5   0  0.3772254E-03  0.1189269E+04  0.7818609E-02  0.9122301E-01
        1   -1    0    0  501    0  0.00000000000E+00  0.00000000000E+00  0.15651282844E+04  0.15651282844E+04  0.50400001928E-02 0.  1.
       -1   -1    0    0    0  501  0.00000000000E+00  0.00000000000E+00 -0.22591782727E+03  0.22591782733E+03  0.50400001928E-02 0. -1.
    10030    2    1    2    0    0  0.00000000000E+00  0.00000000000E+00  0.13392104571E+04  0.17910461117E+04  0.11892693244E+04 0.  0.
        3    1    3    3  502    0 -0.18262905037E+03 -0.50281010314E+03  0.27856835853E+03  0.60313490235E+03  0.10100000352E+00 0.  1.
       -3    1    3    3    0  502  0.18262905037E+03  0.50281010314E+03  0.10606420986E+04  0.11879112094E+04  0.10100000352E+00 0. -1.
</event>
<event>
 5   0  0.3731281E-03  0.1206250E+04  0.7818609E-02  0.9107403E-01
        1   -1    0    0  501    0  0.00000000000E+00  0.00000000000E+00  0.69564324535E+03  0.69564324536E+03  0.50400001928E-02 0.  1.
       -1   -1    0    0    0  501  0.00000000000E+00  0.00000000000E+00 -0.52291143658E+03  0.52291143661E+03  0.50400001928E-02 0. -1.
    10030    2    1    2    0    0  0.00000000000E+00  0.00000000000E+00  0.17273180876E+03  0.12185546820E+04  0.12062500716E+04 0.  0.
        5    1    3    3  502    0 -0.30817766370E+03 -0.11107366959E+03 -0.42518569876E+03  0.53676419488E+03  0.46999998093E+01 0. -1.
       -5    1    3    3    0  502  0.30817766370E+03  0.11107366959E+03  0.59791750753E+03  0.68179048709E+03  0.46999998093E+01 0.  1.
</event>
<event>
 5   0  0.3648616E-03  0.1210891E+04  0.7818609E-02  0.9103377E-01
        1   -1    0    0  501    0  0.00000000000E+00  0.00000000000E+00  0.37344677138E+03  0.37344677142E+03  0.50400001928E-02 0.  1.
       -1   -1    0    0    0  501  0.00000000000E+00  0.00000000000E+00 -0.98157036552E+03  0.98157036553E+03  0.50400001928E-02 0. -1.
    10030    2    1    2    0    0  0.00000000000E+00  0.00000000000E+00 -0.60812359413E+03  0.13550171369E+04  0.12108910503E+04 0.  0.
        2    1    3    3  502    0 -0.53213121091E+03 -0.18574200698E+03 -0.56606555440E+02  0.56645213470E+03  0.25500000920E-02 0.  1.
       -2    1    3    3    0  502  0.53213121091E+03  0.18574200698E+03 -0.55151703869E+03  0.78856500224E+03  0.25500000920E-02 0. -1.
</event>
<event>
 5   0  0.6658994E-03  0.1128610E+04  0.7818609E-02  0.9177747E-01
       -2   -1    0    0    0  501  0.00000000000E+00  0.00000000000E+00  0.33168071011E+03  0.33168071012E+03  0.25500000920E-02 0. -1.
        2   -1    0    0  501    0  0.00000000000E+00  0.00000000000E+00 -0.96007961637E+03  0.96007961638E+03  0.25500000920E-02 0.  1.
    10030    2    1    2    0    0  0.00000000000E+00  0.00000000000E+00 -0.62839890626E+03  0.12917603265E+04  0.11286095674E+04 0.  0.
        4    1    3    3  502    0 -0.18266451527E+03  0.19750337718E+03 -0.88195655854E+03  0.92207531861E+03  0.12699999809E+01 0.  1.
       -4    1    3    3    0  502  0.18266451527E+03 -0.19750337718E+03  0.25355765228E+03  0.36968500790E+03  0.12699999809E+01 0. -1.
</event>
<event>
 5   0  0.3944074E-03  0.1206236E+04  0.7818609E-02  0.9107416E-01
       -1   -1    0    0    0  501  0.00000000000E+00  0.00000000000E+00  0.41823869354E+03  0.41823869357E+03  0.50400001928E-02 0.  1.
        1   -1    0    0  501    0  0.00000000000E+00  0.00000000000E+00 -0.86972174871E+03  0.86972174873E+03  0.50400001928E-02 0. -1.
    10030    2    1    2    0    0  0.00000000000E+00  0.00000000000E+00 -0.45148305517E+03  0.12879604423E+04  0.12062359437E+04 0.  0.
        4    1    3    3  502    0 -0.21391264404E+03  0.17750452476E+03  0.34576321428E+03  0.44364432695E+03  0.12699999809E+01 0.  1.
       -4    1    3    3    0  502  0.21391264404E+03 -0.17750452476E+03 -0.79724626945E+03  0.84431611535E+03  0.12699999809E+01 0. -1.
</event>
<event>
 5   0  0.3772254E-03  0.1168952E+04  0.7818609E-02  0.9140476E-01
       -1   -1    0    0    0  501  0.00000000000E+00  0.00000000000E+00  0.81036080557E+03  0.81036080558E+03  0.50400001928E-02 0. -1.
        1   -1    0    0  501    0  0.00000000000E+00  0.00000000000E+00 -0.42155546634E+03  0.42155546637E+03  0.50400001928E-02 0.  1.
    10030    2    1    2    0    0  0.00000000000E+00  0.00000000000E+00  0.38880533923E+03  0.12319162720E+04  0.11689517138E+04 0.  0.
        3    1    3    3  502    0  0.56740599276E+03 -0.33221350404E+02  0.33797129641E+03  0.66126985879E+03  0.10100000352E+00 0. -1.
       -3    1    3    3    0  502 -0.56740599276E+03  0.33221350404E+02  0.50834042820E+02  0.57064641316E+03  0.10100000352E+00 0.  1.
</event>
<event>
 5   0  0.2537625E-03  0.1199206E+04  0.7818609E-02  0.9113552E-01
        4   -1    0    0  501    0  0.00000000000E+00  0.00000000000E+00  0.52299478115E+03  0.52299632314E+03  0.12699999809E+01 0. -1.
       -4   -1    0    0    0  501  0.00000000000E+00  0.00000000000E+00 -0.68742995048E+03  0.68743112362E+03  0.12699999809E+01 0.  1.
    10030    2    1    2    0    0  0.00000000000E+00  0.00000000000E+00 -0.16443516933E+03  0.12104274468E+04  0.11992062704E+04 0.  0.
        4    1    3    3  502    0  0.40005889399E+03  0.24374848752E+03  0.29553271850E+03  0.55389678139E+03  0.12699999809E+01 0. -1.
       -4    1    3    3    0  502 -0.40005889399E+03 -0.24374848752E+03 -0.45996788783E+03  0.65653066536E+03  0.12699999809E+01 0.  1.
</event>
<event>
 5   0  0.6349142E-03  0.1229315E+04  0.7818609E-02  0.9087577E-01
       -2   -1    0    0    0  501  0.00000000000E+00  0.00000000000E+00  0.36381746034E+03  0.36381746035E+03  0.25500000920E-02 0. -1.
        2   -1    0    0  501    0  0.00000000000E+00  0.00000000000E+00 -0.10384438941E+04  0.10384438941E+04  0.25500000920E-02 0.  1.
    10030    2    1    2    0    0  0.00000000000E+00  0.00000000000E+00 -0.67462643373E+03  0.14022613544E+04  0.12293152895E+04 0.  0.
        1    1    3    3  502    0  0.13355425694E+02 -0.49653139705E+03  0.75674926669E+02  0.50244252428E+03  0.50400001928E-02 0. -1.
       -1    1    3    3    0  502 -0.13355425694E+02  0.49653139705E+03 -0.75030136040E+03  0.89981883015E+03  0.50400001928E-02 0.  1.
</event>
<event>
 5   0  0.6493047E-03  0.1227588E+04  0.7818609E-02  0.9089046E-01
       -2   -1    0    0    0  501  0.00000000000E+00  0.00000000000E+00  0.34429762789E+03  0.34429762790E+03  0.25500000920E-02 0. -1.
        2   -1    0    0  501    0  0.00000000000E+00  0.00000000000E+00 -0.10942357505E+04  0.10942357505E+04  0.25500000920E-02 0.  1.
    10030    2    1    2    0    0  0.00000000000E+00  0.00000000000E+00 -0.74993812263E+03  0.14385333784E+04  0.12275875093E+04 0.  0.
        3    1    3    3  502    0  0.49475896227E+03  0.28495857085E+03 -0.11096739735E+03  0.58163699273E+03  0.10100000352E+00 0. -1.
       -3    1    3    3    0  502 -0.49475896227E+03 -0.28495857085E+03 -0.63897072528E+03  0.85689638569E+03  0.10100000352E+00 0.  1.
</event>
<event>
 5   0  0.6493047E-03  0.1187760E+04  0.7818609E-02  0.9123638E-01
       -2   -1    0    0    0  501  0.00000000000E+00  0.00000000000E+00  0.13573635745E+03  0.13573635747E+03  0.25500000920E-02 0.  1.
        2   -1    0    0  501    0  0.00000000000E+00  0.00000000000E+00 -0.25983734726E+04  0.25983734726E+04  0.25500000920E-02 0. -1.
    10030    2    1    2    0    0  0.00000000000E+00  0.00000000000E+00 -0.24626371152E+04  0.27341098301E+04  0.11877604986E+04 0.  0.
        3    1    3    3  502    0  0.56386515158E+02 -0.52902804549E+03 -0.62384444824E+03  0.81989756543E+03  0.10100000352E+00 0.  1.
       -3    1    3    3    0  502 -0.56386515158E+02  0.52902804549E+03 -0.18387926669E+04  0.19142122646E+04  0.10100000352E+00 0. -1.
</event>
<event>
 5   0  0.3944074E-03  0.1211714E+04  0.7818609E-02  0.9102664E-01
        1   -1    0    0  501    0  0.00000000000E+00  0.00000000000E+00  0.20067052030E+04  0.20067052030E+04  0.50400001928E-02 0.  1.
       -1   -1    0    0    0  501  0.00000000000E+00  0.00000000000E+00 -0.18291823140E+03  0.18291823147E+03  0.50400001928E-02 0. -1.
    10030    2    1    2    0    0  0.00000000000E+00  0.00000000000E+00  0.18237869716E+04  0.21896234344E+04  0.12117144329E+04 0.  0.
        4    1    3    3  502    0 -0.93866944725E+02  0.27745997941E+03  0.18702520091E+04  0.18930502460E+04  0.12699999809E+01 0.  1.
       -4    1    3    3    0  502  0.93866944725E+02 -0.27745997941E+03 -0.46465037525E+02  0.29657318844E+03  0.12699999809E+01 0. -1.
</event>
<event>
 5   0  0.6349142E-03  0.1174700E+04  0.7818609E-02  0.9135294E-01
       -2   -1    0    0    0  501  0.00000000000E+00  0.00000000000E+00  0.19751174644E+03  0.19751174645E+03  0.25500000920E-02 0. -1.
        2   -1    0    0  501    0  0.00000000000E+00  0.00000000000E+00 -0.17466312829E+04  0.17466312829E+04  0.25500000920E-02 0.  1.
    10030    2    1    2    0    0  0.00000000000E+00  0.00000000000E+00 -0.15491195364E+04  0.19441430293E+04  0.11747002938E+04 0.  0.
        1    1    3    3  502    0 -0.95830350279E+02 -0.54062680658E+03 -0.11198168218E+04  0.12471770180E+04  0.50400001928E-02 0.  1.
       -1    1    3    3    0  502  0.95830350279E+02  0.54062680658E+03 -0.42930271467E+03  0.69696601127E+03  0.50400001928E-02 0. -1.
</event>
<event>
 5   0  0.3648616E-03  0.1208559E+04  0.7818609E-02  0.9105398E-01
       -1   -1    0    0    0  501  0.00000000000E+00  0.00000000000E+00  0.62240859638E+03  0.62240859640E+03  0.50400001928E-02 0.  1.
        1   -1    0    0  501    0  0.00000000000E+00  0.00000000000E+00 -0.58667851278E+03  0.58667851280E+03  0.50400001928E-02 0. -1.
    10030    2    1    2    0    0  0.00000000000E+00  0.00000000000E+00  0.35730083608E+02  0.12090871092E+04  0.12085590589E+04 0.  0.
        2    1    3    3  502    0 -0.50060104019E+03  0.12252899685E+02 -0.32051670570E+03  0.59454393750E+03  0.25500000920E-02 0. -1.
       -2    1    3    3    0  502  0.50060104019E+03 -0.12252899685E+02  0.35624678930E+03  0.61454317170E+03  0.25500000920E-02 0.  1.
</event>
<event>
 5   0  0.3701879E-03  0.1255776E+04  0.7818609E-02  0.9065390E-01
       -1   -1    0    0    0  501  0.00000000000E+00  0.00000000000E+00  0.31530687650E+03  0.31530687654E+03  0.50400001928E-02 0.  1.
        1   -1    0    0  501    0  0.00000000000E+00  0.00000000000E+00 -0.12503475857E+04  0.12503475857E+04  0.50400001928E-02 0. -1.
    10030    2    1    2    0    0  0.00000000000E+00  0.00000000000E+00 -0.93504070923E+03  0.15656544623E+04  0.12557757632E+04 0.  0.
        1    1    3    3  502    0 -0.20630091626E+03  0.57429689871E+03 -0.65188194275E+03  0.89293172372E+03  0.50400001928E-02 0. -1.
       -1    1    3    3    0  502  0.20630091626E+03 -0.57429689871E+03 -0.28315876647E+03  0.67272273856E+03  0.50400001928E-02 0.  1.
</event>
<event>
 5   0  0.3731281E-03  0.1244472E+04  0.7818609E-02  0.9074796E-01
        1   -1    0    0  501    0  0.00000000000E+00  0.00000000000E+00  0.77137225282E+03  0.77137225283E+03  0.50400001928E-02 0.  1.
       -1   -1    0    0    0  501  0.00000000000E+00  0.00000000000E+00 -0.50193393391E+03  0.50193393393E+03  0.50400001928E-02 0. -1.
    10030    2    1    2    0    0  0.00000000000E+00  0.00000000000E+00  0.26943831891E+03  0.12733061868E+04  0.12444724334E+04 0.  0.
        5    1    3    3  502    0 -0.54956010920E+03  0.27378342269E+03  0.23796371744E+03  0.65850018753E+03  0.46999998093E+01 0.  1.
       -5    1    3    3    0  502  0.54956010920E+03 -0.27378342269E+03  0.31474601471E+02  0.61480599924E+03  0.46999998093E+01 0. -1.
</event>
<event>
 5   0  0.6585930E-03  0.1235746E+04  0.7818609E-02  0.9082131E-01
       -2   -1    0    0    0  501  0.00000000000E+00  0.00000000000E+00  0.34928036311E+03  0.34928036312E+03  0.25500000920E-02 0.  1.
        2   -1    0    0  501    0  0.00000000000E+00  0.00000000000E+00 -0.10930111336E+04  0.10930111336E+04  0.25500000920E-02 0. -1.
    10030    2    1    2    0    0  0.00000000000E+00  0.00000000000E+00 -0.74373077050E+03  0.14422914967E+04  0.12357464556E+04 0.  0.
        2    1    3    3  502    0  0.31855422827E+03 -0.47929204859E+03 -0.63432875029E+03  0.85648737740E+03  0.25500000920E-02 0. -1.
       -2    1    3    3    0  502 -0.31855422827E+03  0.47929204859E+03 -0.10940202021E+03  0.58580411933E+03  0.25500000920E-02 0.  1.
</event>
<event>
 5   0  0.6349142E-03  0.1207436E+04  0.7818609E-02  0.9106372E-01
        2   -1    0    0  501    0  0.00000000000E+00  0.00000000000E+00  0.11752617609E+04  0.11752617609E+04  0.25500000920E-02 0. -1.
       -2   -1    0    0    0  501  0.00000000000E+00  0.00000000000E+00 -0.31012293313E+03  0.31012293314E+03  0.25500000920E-02 0.  1.
    10030    2    1    2    0    0  0.00000000000E+00  0.00000000000E+00  0.86513882778E+03  0.14853846941E+04  0.12074363329E+04 0.  0.
        1    1    3    3  502    0  0.20152140572E+03 -0.39337346500E+03 -0.73342422373E+02  0.44803199760E+03  0.50400001928E-02 0.  1.
       -1    1    3    3    0  502 -0.20152140572E+03  0.39337346500E+03  0.93848125016E+03  0.10373526965E+04  0.50400001928E-02 0. -1.
</event>
<event>
 5   0  0.6493047E-03  0.1216973E+04  0.7818609E-02  0.9098128E-01
        2   -1    0    0  501    0  0.00000000000E+00  0.00000000000E+00  0.67793638531E+03  0.67793638531E+03  0.25500000920E-02 0. -1.
       -2   -1    0    0    0  501  0.00000000000E+00  0.00000000000E+00 -0.54615157962E+03  0.54615157963E+03  0.25500000920E-02 0.  1.
    10030    2    1    2    0    0  0.00000000000E+00  0.00000000000E+00  0.13178480569E+03  0.12240879649E+04  0.12169733403E+04 0.  0.
        3    1    3    3  502    0  0.29854032437E+03 -0.40943866485E+03 -0.27295934801E+03  0.57556334266E+03  0.10100000352E+00 0.  1.
       -3    1    3    3    0  502 -0.29854032437E+03  0.40943866485E+03  0.40474415370E+03  0.64852462228E+03  0.10100000352E+00 0. -1.
</event>
<event>
 5   0  0.3731281E-03  0.1192948E+04  0.7818609E-02  0.9119051E-01
       -1   -1    0    0    0  501  0.00000000000E+00  0.00000000000E+00  0.10654360578E+04  0.10654360578E+04  0.50400001928E-02 0.  1.
        1   -1    0    0  501    0  0.00000000000E+00  0.00000000000E+00 -0.33393028950E+03  0.33393028954E+03  0.50400001928E-02 0. -1.
    10030    2    1    2    0    0  0.00000000000E+00  0.00000000000E+00  0.73150576833E+03  0.13993663474E+04  0.11929482324E+04 0.  0.
        5    1    3    3  502    0  0.37693529225E+03  0.43851548733E+03  0.19422034246E+03  0.61001612978E+03  0.46999998093E+01 0. -1.
       -5    1    3    3    0  502 -0.37693529225E+03 -0.43851548733E+03  0.53728542587E+03  0.78935021760E+03  0.46999998093E+01 0.  1.
</event>
<event>
 5   0  0.2537625E-03  0.1193228E+04  0.7818609E-02  0.9118805E-01
        4   -1    0    0  501    0  0.00000000000E+00  0.00000000000E+00  0.88095022518E+03  0.88095114061E+03  0.12699999809E+01 0.  1.
       -4   -1    0    0    0  501  0.00000000000E+00  0.00000000000E+00 -0.40404793162E+03  0.40404992754E+03  0.12699999809E+01 0. -1.
    10030    2    1    2    0    0  0.00000000000E+00  0.00000000000E+00  0.47690229357E+03  0.12850010681E+04  0.11932275339E+04 0.  0.
        2    1    3    3  502    0 -0.23779944296E+03  0.40035622396E+03  0.64011811556E+03  0.79157114842E+03  0.25500000920E-02 0.  1.
       -2    1    3    3    0  502  0.23779944296E+03 -0.40035622396E+03 -0.16321582199E+03  0.49342991973E+03  0.25500000920E-02 0. -1.
</event>
<event>
 5   0  0.6658994E-03  0.1108505E+04  0.7818609E-02  0.9196942E-01
       -2   -1    0    0    0  501  0.00000000000E+00  0.00000000000E+00  0.77194772583E+03  0.77194772583E+03  0.25500000920E-02 0. -1.
        2   -1    0    0  501    0  0.00000000000E+00  0.00000000000E+00 -0.39794907674E+03  0.39794907675E+03  0.25500000920E-02 0.  1.
    10030    2    1    2    0    0  0.00000000000E+00  0.00000000000E+00  0.37399864909E+03  0.11698968026E+04  0.11085050921E+04 0.  0.
        4    1    3    3  502    0 -0.42696515212E+03 -0.30981943507E+03  0.36643590545E+03  0.64231161376E+03  0.12699999809E+01 0. -1.
       -4    1    3    3    0  502  0.42696515212E+03  0.30981943507E+03  0.75627436423E+01  0.52758518882E+03  0.12699999809E+01 0.  1.
</event>
<event>
 5   0  0.6349142E-03  0.1190848E+04  0.7818609E-02  0.9120905E-01
       -2   -1    0    0    0  501  0.00000000000E+00  0.00000000000E+00  0.38088207841E+03  0.38088207842E+03  0.25500000920E-02 0. -1.
        2   -1    0    0  501    0  0.00000000000E+00  0.00000000000E+00 -0.93081197849E+03  0.93081197849E+03  0.25500000920E-02 0.  1.
    10030    2    1    2    0    0  0.00000000000E+00  0.00000000000E+00 -0.54992990008E+03  0.13116940569E+04  0.11908477669E+04 0.  0.
        1    1    3    3  502    0 -0.52445736000E+03 -0.15118494230E+03 -0.53705495933E+03  0.76572869778E+03  0.50400001928E-02 0. -1.
       -1    1    3    3    0  502  0.52445736000E+03  0.15118494230E+03 -0.12874940745E+02  0.54596535912E+03  0.50400001928E-02 0.  1.
</event>
<event>
 5   0  0.3944074E-03  0.1182060E+04  0.7818609E-02  0.9128706E-01
       -1   -1    0    0    0  501  0.00000000000E+00  0.00000000000E+00  0.81635279432E+03  0.81635279433E+03  0.50400001928E-02 0.  1.
        1   -1    0    0  501    0  0.00000000000E+00  0.00000000000E+00 -0.42789870312E+03  0.42789870315E+03  0.50400001928E-02 0. -1.
    10030    2    1    2    0    0  0.00000000000E+00  0.00000000000E+00  0.38845409119E+03  0.12442514975E+04  0.11820597312E+04 0.  0.
        4    1    3    3  502    0  0.33865746057E+03  0.29674672015E+03 -0.20875634030E+03  0.49631473284E+03  0.12699999809E+01 0. -1.
       -4    1    3    3    0  502 -0.33865746057E+03 -0.29674672015E+03  0.59721043149E+03  0.74793676464E+03  0.12699999809E+01 0.  1.
</event>
<event>
 5   0  0.3731281E-03  0.1165484E+04  0.7818609E-02  0.9143617E-01
       -1   -1    0    0    0  501  0.00000000000E+00  0.00000000000E+00  0.69207240916E+03  0.69207240918E+03  0.50400001928E-02 0. -1.
        1   -1    0    0  501    0  0.00000000000E+00  0.00000000000E+00 -0.49068299427E+03  0.49068299429E+03  0.50400001928E-02 0.  1.
    10030    2    1    2    0    0  0.00000000000E+00  0.00000000000E+00  0.20138941490E+03  0.11827554035E+04  0.11654838686E+04 0.  0.
        5    1    3    3  502    0 -0.40264117567E+03  0.20373099341E+02  0.52768052365E+03  0.66408117317E+03  0.46999998093E+01 0. -1.
       -5    1    3    3    0  502  0.40264117567E+03 -0.20373099341E+02 -0.32629110876E+03  0.51867423030E+03  0.46999998093E+01 0.  1.
</event>
<event>
 5   0  0.6640844E-03  0.1137682E+04  0.7818609E-02  0.9169223E-01
       -2   -1    0    0    0  501  0.00000000000E+00  0.00000000000E+00  0.13887489724E+03  0.13887489726E+03  0.25500000920E-02 0.  1.
        2   -1    0    0  501    0  0.00000000000E+00  0.00000000000E+00 -0.23300127612E+04  0.23300127612E+04  0.25500000920E-02 0. -1.
    10030    2    1    2    0    0  0.00000000000E+00  0.00000000000E+00 -0.21911378640E+04  0.24688876585E+04  0.11376823508E+04 0.  0.
        5    1    3    3  502    0 -0.21152691352E+03  0.44357896795E+03 -0.17171897827E+04  0.17861323512E+04  0.46999998093E+01 0. -1.
       -5    1    3    3    0  502  0.21152691352E+03 -0.44357896795E+03 -0.47394808123E+03  0.68275530730E+03  0.46999998093E+01 0.  1.
</event>
<event>
 5   0  0.6640844E-03  0.1208769E+04  0.7818609E-02  0.9105215E-01
        2   -1    0    0  501    0  0.00000000000E+00  0.00000000000E+00  0.43600667749E+03  0.43600667750E+03  0.25500000920E-02 0.  1.
       -2   -1    0    0    0  501  0.00000000000E+00  0.00000000000E+00 -0.83778703872E+03  0.83778703873E+03  0.25500000920E-02 0. -1.
    10030    2    1    2    0    0  0.00000000000E+00  0.00000000000E+00 -0.40178036124E+03  0.12737937162E+04  0.12087691975E+04 0.  0.
        5    1    3    3  502    0  0.13012590751E+03  0.81467523683E+02  0.41509630042E+03  0.44260223433E+03  0.46999998093E+01 0.  1.
       -5    1    3    3    0  502 -0.13012590751E+03 -0.81467523683E+02 -0.81687666165E+03  0.83119148189E+03  0.46999998093E+01 0. -1.
</event>
<event>
 5   0  0.6640844E-03  0.1213539E+04  0.7818609E-02  0.9101087E-01
       -2   -1    0    0    0  501  0.00000000000E+00  0.00000000000E+00  0.50383572445E+03  0.50383572446E+03  0.25500000920E-02 0.  1.
        2   -1    0    0  501    0  0.00000000000E+00  0.00000000000E+00 -0.73073319517E+03  0.73073319517E+03  0.25500000920E-02 0. -1.
    10030    2    1    2    0    0  0.00000000000E+00  0.00000000000E+00 -0.22689747072E+03  0.12345689196E+04  0.12135394329E+04 0.  0.
        5    1    3    3  502    0 -0.38321512772E+03 -0.37015047997E+03  0.18189607512E+03  0.56300398229E+03  0.46999998093E+01 0.  1.
       -5    1    3    3    0  502  0.38321512772E+03  0.37015047997E+03 -0.40879354584E+03  0.67156493733E+03  0.46999998093E+01 0. -1.
</event>
<event>
 5   0  0.6658994E-03  0.5938852E+03  0.7818609E-02  0.9918174E-01
        2   -1    0    0  501    0  0.00000000000E+00  0.00000000000E+00  0.93386382549E+03  0.93386382550E+03  0.25500000920E-02 0.  1.
       -2   -1    0    0    0  501  0.00000000000E+00  0.00000000000E+00 -0.94419436288E+02  0.94419436323E+02  0.25500000920E-02 0. -1.
    10030    2    1    2    0    0  0.00000000000E+00  0.00000000000E+00  0.83944438921E+03  0.10282832618E+04  0.59388516059E+03 0.  0.
        4    1    3    3  502    0  0.50709072186E+02 -0.17483808216E+03  0.13537147947E+02  0.18255035538E+03  0.12699999809E+01 0. -1.
       -4    1    3    3    0  502 -0.50709072186E+02  0.17483808216E+03  0.82590724126E+03  0.84573290644E+03  0.12699999809E+01 0.  1.
</event>
<event>
 5   0  0.6658994E-03  0.1129372E+04  0.7818609E-02  0.9177028E-01
        2   -1    0    0  501    0  0.00000000000E+00  0.00000000000E+00  0.13372109540E+04  0.13372109540E+04  0.25500000920E-02 0. -1.
       -2   -1    0    0    0  501  0.00000000000E+00  0.00000000000E+00 -0.23845919775E+03  0.23845919777E+03  0.25500000920E-02 0.  1.
    10030    2    1    2    0    0  0.00000000000E+00  0.00000000000E+00  0.10987517562E+04  0.15756701517E+04  0.11293719517E+04 0.  0.
        4    1    3    3  502    0  0.47977314817E+03  0.23350279600E+03  0.80724841736E+03  0.96765564623E+03  0.12699999809E+01 0. -1.
       -4    1    3    3    0  502 -0.47977314817E+03 -0.23350279600E+03  0.29150333885E+03  0.60801450551E+03  0.12699999809E+01 0.  1.
</event>
<event>
 5   0  0.3731281E-03  0.1310265E+04  0.7818609E-02  0.9021464E-01
        1   -1    0    0  501    0  0.00000000000E+00  0.00000000000E+00  0.10285647747E+04  0.10285647747E+04  0.50400001928E-02 0. -1.
       -1   -1    0    0    0  501  0.00000000000E+00  0.00000000000E+00 -0.41727938381E+03  0.41727938384E+03  0.50400001928E-02 0.  1.
    10030    2    1    2    0    0  0.00000000000E+00  0.00000000000E+00  0.61128539090E+03  0.14458441586E+04  0.13102654318E+04 0.  0.
        5    1    3    3  502    0  0.82539487135E+02  0.44160510782E+02 -0.40984260881E+03  0.42042356219E+03  0.46999998093E+01 0.  1.
       -5    1    3    3    0  502 -0.82539487135E+02 -0.44160510782E+02  0.10211279997E+04  0.10254205964E+04  0.46999998093E+01 0. -1.
</event>
<event>
 5   0  0.6493047E-03  0.1203034E+04  0.7818609E-02  0.9110205E-01
        2   -1    0    0  501    0  0.00000000000E+00  0.00000000000E+00  0.15518246517E+04  0.15518246517E+04  0.25500000920E-02 0. -1.
       -2   -1    0    0    0  501  0.00000000000E+00  0.00000000000E+00 -0.23315950329E+03  0.23315950331E+03  0.25500000920E-02 0.  1.
    10030    2    1    2    0    0  0.00000000000E+00  0.00000000000E+00  0.13186651484E+04  0.17849841550E+04  0.12030339397E+04 0.  0.
        3    1    3    3  502    0  0.31544952758E+03 -0.32746563622E+03  0.12436315060E+04  0.13241455661E+04  0.10100000352E+00 0. -1.
       -3    1    3    3    0  502 -0.31544952758E+03  0.32746563622E+03  0.75033642454E+02  0.46083858894E+03  0.10100000352E+00 0.  1.
</event>
<event>
 5   0  0.6585930E-03  0.1207664E+04  0.7818609E-02  0.9106174E-01
       -2   -1    0    0    0  501  0.00000000000E+00  0.00000000000E+00  0.11316921133E+04  0.11316921133E+04  0.25500000920E-02 0.  1.
        2   -1    0    0  501    0  0.00000000000E+00  0.00000000000E+00 -0.32218419110E+03  0.32218419111E+03  0.25500000920E-02 0. -1.
    10030    2    1    2    0    0  0.00000000000E+00  0.00000000000E+00  0.80950792216E+03  0.14538763044E+04  0.12076643707E+04 0.  0.
        2    1    3    3  502    0 -0.43205550413E+03  0.42019544763E+03  0.36007845317E+03  0.70206314908E+03  0.25500000920E-02 0.  1.
       -2    1    3    3    0  502  0.43205550413E+03 -0.42019544763E+03  0.44942946899E+03  0.75181315529E+03  0.25500000920E-02 0. -1.
</event>
<event>
 5   0  0.3701879E-03  0.1262684E+04  0.7818609E-02  0.9059692E-01
        1   -1    0    0  501    0  0.00000000000E+00  0.00000000000E+00  0.10447532673E+04  0.10447532673E+04  0.50400001928E-02 0.  1.
       -1   -1    0    0    0  501  0.00000000000E+00  0.00000000000E+00 -0.38151846028E+03  0.38151846031E+03  0.50400001928E-02 0. -1.
    10030    2    1    2    0    0  0.00000000000E+00  0.00000000000E+00  0.66323480705E+03  0.14262717276E+04  0.12626839002E+04 0.  0.
        1    1    3    3  502    0  0.18438783191E+03 -0.68868340925E+01  0.10136168335E+04  0.10302744227E+04  0.50400001928E-02 0.  1.
       -1    1    3    3    0  502 -0.18438783191E+03  0.68868340925E+01 -0.35038202641E+03  0.39599730491E+03  0.50400001928E-02 0. -1.
</event>
<event>
 5   0  0.6640844E-03  0.9016584E+03  0.7818609E-02  0.9423511E-01
        2   -1    0    0  501    0  0.00000000000E+00  0.00000000000E+00  0.10386049204E+04  0.10386049204E+04  0.25500000920E-02 0.  1.
       -2   -1    0    0    0  501  0.00000000000E+00  0.00000000000E+00 -0.19569227315E+03  0.19569227316E+03  0.25500000920E-02 0. -1.
    10030    2    1    2    0    0  0.00000000000E+00  0.00000000000E+00  0.84291264727E+03  0.12342971936E+04  0.90165837831E+03 0.  0.
        5    1    3    3  502    0 -0.26248403044E+03  0.11514436848E+03  0.89777081515E+03  0.94242804412E+03  0.46999998093E+01 0.  1.
       -5    1    3    3    0  502  0.26248403044E+03 -0.11514436848E+03 -0.54858167874E+02  0.29186914946E+03  0.46999998093E+01 0. -1.
</event>
<event>
 5   0  0.6585930E-03  0.1202406E+04  0.7818609E-02  0.9110754E-01
        2   -1    0    0  501    0  0.00000000000E+00  0.00000000000E+00  0.76831245142E+03  0.76831245142E+03  0.25500000920E-02 0. -1.
       -2   -1    0    0    0  501  0.00000000000E+00  0.00000000000E+00 -0.47043986177E+03  0.47043986177E+03  0.25500000920E-02 0.  1.
    10030    2    1    2    0    0  0.00000000000E+00  0.00000000000E+00  0.29787258965E+03  0.12387523132E+04  0.12024055945E+04 0.  0.
        2    1    3    3  502    0  0.55051687111E+03 -0.23130178746E+03  0.77001113717E+02  0.60207849470E+03  0.25500000920E-02 0.  1.
       -2    1    3    3    0  502 -0.55051687111E+03  0.23130178746E+03  0.22087147593E+03  0.63667381849E+03  0.25500000920E-02 0. -1.
</event>
<event>
 5   0  0.3701879E-03  0.9826636E+03  0.7818609E-02  0.9327766E-01
        1   -1    0    0  501    0  0.00000000000E+00  0.00000000000E+00  0.50480657108E+03  0.50480657110E+03  0.50400001928E-02 0. -1.
       -1   -1    0    0    0  501  0.00000000000E+00  0.00000000000E+00 -0.47821675061E+03  0.47821675064E+03  0.50400001928E-02 0.  1.
    10030    2    1    2    0    0  0.00000000000E+00  0.00000000000E+00  0.26589820466E+02  0.98302332174E+03  0.98266364160E+03 0.  0.
        1    1    3    3  502    0  0.49082144715E+02  0.18834852787E+03 -0.43800515578E+03  0.47930443499E+03  0.50400001928E-02 0.  1.
       -1    1    3    3    0  502 -0.49082144715E+02 -0.18834852787E+03  0.46459497625E+03  0.50371888675E+03  0.50400001928E-02 0. -1.
</event>
<event>
 5   0  0.6640844E-03  0.1161010E+04  0.7818609E-02  0.9147686E-01
        2   -1    0    0  501    0  0.00000000000E+00  0.00000000000E+00  0.11011560900E+04  0.11011560900E+04  0.25500000920E-02 0. -1.
       -2   -1    0    0    0  501  0.00000000000E+00  0.00000000000E+00 -0.30602938779E+03  0.30602938780E+03  0.25500000920E-02 0.  1.
    10030    2    1    2    0    0  0.00000000000E+00  0.00000000000E+00  0.79512670218E+03  0.14071854778E+04  0.11610101190E+04 0.  0.
        5    1    3    3  502    0 -0.50920404579E+03  0.21614212555E+03  0.61081911258E+03  0.82409238376E+03  0.46999998093E+01 0. -1.
       -5    1    3    3    0  502  0.50920404579E+03 -0.21614212555E+03  0.18430758960E+03  0.58309309400E+03  0.46999998093E+01 0.  1.
</event>
<event>
 5   0  0.6640844E-03  0.1216983E+04  0.7818609E-02  0.9098120E-01
       -2   -1    0    0    0  501  0.00000000000E+00  0.00000000000E+00  0.47602002961E+03  0.47602002961E+03  0.25500000920E-02 0.  1.
        2   -1    0    0  501    0  0.00000000000E+00  0.00000000000E+00 -0.77782879550E+03  0.77782879551E+03  0.25500000920E-02 0. -1.
    10030    2    1    2    0    0  0.00000000000E+00  0.00000000000E+00 -0.30180876589E+03  0.12538488251E+04  0.12169832970E+04 0.  0.
        5    1    3    3  502    0  0.52288904586E+02 -0.31875636420E+03 -0.68218005597E+03  0.75480558293E+03  0.46999998093E+01 0. -1.
       -5    1    3    3    0  502 -0.52288904586E+02  0.31875636420E+03  0.38037129008E+03  0.49904324219E+03  0.46999998093E+01 0.  1.
</event>
<event>
 5   0  0.6493047E-03  0.1219333E+04  0.7818609E-02  0.9096101E-01
       -2   -1    0    0    0  501  0.00000000000E+00  0.00000000000E+00  0.25397621815E+03  0.25397621816E+03  0.25500000920E-02 0. -1.
        2   -1    0    0  501    0  0.00000000000E+00  0.00000000000E+00 -0.14634958940E+04  0.14634958940E+04  0.25500000920E-02 0.  1.
    10030    2    1    2    0    0  0.00000000000E+00  0.00000000000E+00 -0.12095196759E+04  0.17174721122E+04  0.12193328544E+04 0.  0.
        3    1    3    3  502    0  0.11796310192E+03  0.86329256900E+02  0.22892720239E+03  0.27161684080E+03  0.10100000352E+00 0. -1.
       -3    1    3    3    0  502 -0.11796310192E+03 -0.86329256900E+02 -0.14384468783E+04  0.14458552714E+04  0.10100000352E+00 0.  1.
</event>
<event>
 5   0  0.2537625E-03  0.1396667E+04  0.7818609E-02  0.8956235E-01
       -4   -1    0    0    0  501  0.00000000000E+00  0.00000000000E+00  0.20055562134E+04  0.20055566155E+04  0.12699999809E+01 0.  1.
        4   -1    0    0  501    0  0.00000000000E+00  0.00000000000E+00 -0.24315728089E+03  0.24316059744E+03  0.12699999809E+01 0. -1.
    10030    2    1    2    0    0  0.00000000000E+00  0.00000000000E+00  0.17623989325E+04  0.22487172130E+04  0.13966671423E+04 0.  0.
        3    1    3    3  502    0 -0.17239982580E+03  0.61576903890E+03  0.42930145868E+03  0.77019021146E+03  0.10100000352E+00 0. -1.
       -3    1    3    3    0  502  0.17239982580E+03 -0.61576903890E+03  0.13330974738E+04  0.14785270015E+04  0.10100000352E+00 0.  1.
</event>
<event>
 5   0  0.3731281E-03  0.1181672E+04  0.7818609E-02  0.9129052E-01
        1   -1    0    0  501    0  0.00000000000E+00  0.00000000000E+00  0.11924225719E+04  0.11924225719E+04  0.50400001928E-02 0. -1.
       -1   -1    0    0    0  501  0.00000000000E+00  0.00000000000E+00 -0.29275460373E+03  0.29275460377E+03  0.50400001928E-02 0.  1.
    10030    2    1    2    0    0  0.00000000000E+00  0.00000000000E+00  0.89966796813E+03  0.14851771756E+04  0.11816720316E+04 0.  0.
        5    1    3    3  502    0 -0.42027590734E+03  0.41437036307E+03  0.41586497054E+03  0.72201135712E+03  0.46999998093E+01 0.  1.
       -5    1    3    3    0  502  0.42027590734E+03 -0.41437036307E+03  0.48380299759E+03  0.76316581853E+03  0.46999998093E+01 0. -1.
</event>
<event>
 5   0  0.6585930E-03  0.1169975E+04  0.7818609E-02  0.9139551E-01
        2   -1    0    0  501    0  0.00000000000E+00  0.00000000000E+00  0.81018467443E+03  0.81018467444E+03  0.25500000920E-02 0.  1.
       -2   -1    0    0    0  501  0.00000000000E+00  0.00000000000E+00 -0.42238576409E+03  0.42238576410E+03  0.25500000920E-02 0. -1.
    10030    2    1    2    0    0  0.00000000000E+00  0.00000000000E+00  0.38779891034E+03  0.12325704385E+04  0.11699751669E+04 0.  0.
        2    1    3    3  502    0  0.44828464987E+03 -0.14120686715E+03 -0.17303367400E+03  0.50083845597E+03  0.25500000920E-02 0. -1.
       -2    1    3    3    0  502 -0.44828464987E+03  0.14120686715E+03  0.56083258434E+03  0.73173198256E+03  0.25500000920E-02 0.  1.
</event>
<event>
 5   0  0.6349142E-03  0.1160729E+04  0.7818609E-02  0.9147942E-01
        2   -1    0    0  501    0  0.00000000000E+00  0.00000000000E+00  0.35805071804E+03  0.35805071805E+03  0.25500000920E-02 0.  1.
       -2   -1    0    0    0  501  0.00000000000E+00  0.00000000000E+00 -0.94071342369E+03  0.94071342370E+03  0.25500000920E-02 0. -1.
    10030    2    1    2    0    0  0.00000000000E+00  0.00000000000E+00 -0.58266270565E+03  0.12987641417E+04  0.11607292825E+04 0.  0.
        1    1    3    3  502    0  0.52335965032E+02 -0.43767185214E+03  0.13109261391E+03  0.45987060880E+03  0.50400001928E-02 0.  1.
       -1    1    3    3    0  502 -0.52335965032E+02  0.43767185214E+03 -0.71375531956E+03  0.83889353295E+03  0.50400001928E-02 0. -1.
</event>
<event>
 5   0  0.3648616E-03  0.1336627E+04  0.7818609E-02  0.9001014E-01
        1   -1    0    0  501    0  0.00000000000E+00  0.00000000000E+00  0.54343410781E+03  0.54343410784E+03  0.50400001928E-02 0.  1.
       -1   -1    0    0    0  501  0.00000000000E+00  0.00000000000E+00 -0.82188920161E+03  0.82188920163E+03  0.50400001928E-02 0. -1.
    10030    2    1    2    0    0  0.00000000000E+00  0.00000000000E+00 -0.27845509380E+03  0.13653233095E+04  0.13366265373E+04 0.  0.
        2    1    3    3  502    0  0.11196715058E+03 -0.48190469779E+03  0.31972253567E+03  0.58905965775E+03  0.25500000920E-02 0.  1.
       -2    1    3    3    0  502 -0.11196715058E+03  0.48190469779E+03 -0.59817762947E+03  0.77626365172E+03  0.25500000920E-02 0. -1.
</event>
<event>
 5   0  0.3772254E-03  0.1081794E+04  0.7818609E-02  0.9223121E-01
       -1   -1    0    0    0  501  0.00000000000E+00  0.00000000000E+00  0.87063676676E+03  0.87063676678E+03  0.50400001928E-02 0.  1.
        1   -1    0    0  501    0  0.00000000000E+00  0.00000000000E+00 -0.33604070408E+03  0.33604070412E+03  0.50400001928E-02 0. -1.
    10030    2    1    2    0    0  0.00000000000E+00  0.00000000000E+00  0.53459606268E+03  0.12066774709E+04  0.10817936811E+04 0.  0.
        3    1    3    3  502    0  0.27912770858E+03  0.27802166417E+03  0.68070574754E+03  0.78649135302E+03  0.10100000352E+00 0.  1.
       -3    1    3    3    0  502 -0.27912770858E+03 -0.27802166417E+03 -0.14610968486E+03  0.42018611787E+03  0.10100000352E+00 0. -1.
</event>
<event>
 5   0  0.6585930E-03  0.1198892E+04  0.7818609E-02  0.9113827E-01
        2   -1    0    0  501    0  0.00000000000E+00  0.00000000000E+00  0.19965786415E+04  0.19965786415E+04  0.25500000920E-02 0. -1.
       -2   -1    0    0    0  501  0.00000000000E+00  0.00000000000E+00 -0.17997557966E+03  0.17997557968E+03  0.25500000920E-02 0.  1.
    10030    2    1    2    0    0  0.00000000000E+00  0.00000000000E+00  0.18166030618E+04  0.21765542212E+04  0.11988918189E+04 0.  0.
        2    1    3    3  502    0  0.19736597833E+03  0.44184424054E+03  0.15505674438E+04  0.16243272639E+04  0.25500000920E-02 0. -1.
       -2    1    3    3    0  502 -0.19736597833E+03 -0.44184424054E+03  0.26603561799E+03  0.55222695728E+03  0.25500000920E-02 0.  1.
</event>
<event>
 5   0  0.3701879E-03  0.1135391E+04  0.7818609E-02  0.9171368E-01
       -1   -1    0    0    0  501  0.00000000000E+00  0.00000000000E+00  0.42313921841E+03  0.42313921844E+03  0.50400001928E-02 0. -1.
        1   -1    0    0  501    0  0.00000000000E+00  0.00000000000E+00 -0.76163569933E+03  0.76163569935E+03  0.50400001928E-02 0.  1.
    10030    2    1    2    0    0  0.00000000000E+00  0.00000000000E+00 -0.33849648092E+03  0.11847749178E+04  0.11353905664E+04 0.  0.
        1    1    3    3  502    0  0.36644227646E+03 -0.40939362261E+03 -0.31827040722E+03  0.63496388271E+03  0.50400001928E-02 0.  1.
       -1    1    3    3    0  502 -0.36644227646E+03  0.40939362261E+03 -0.20226073699E+02  0.54981103508E+03  0.50400001928E-02 0. -1.
</event>
<event>
 5   0  0.3701879E-03  0.1188874E+04  0.7818609E-02  0.9122651E-01
        1   -1    0    0  501    0  0.00000000000E+00  0.00000000000E+00  0.54617426792E+03  0.54617426794E+03  0.50400001928E-02 0. -1.
       -1   -1    0    0    0  501  0.00000000000E+00  0.00000000000E+00 -0.64696445430E+03  0.64696445432E+03  0.50400001928E-02 0.  1.
    10030    2    1    2    0    0  0.00000000000E+00  0.00000000000E+00 -0.10079018638E+03  0.11931387223E+04  0.11888739836E+04 0.  0.
        1    1    3    3  502    0 -0.20446555053E+03 -0.43714381783E+02  0.50805247532E+03  0.54939459975E+03  0.50400001928E-02 0. -1.
       -1    1    3    3    0  502  0.20446555053E+03  0.43714381783E+02 -0.60884266171E+03  0.64374412251E+03  0.50400001928E-02 0.  1.
</event>
<event>
 5   0  0.3648616E-03  0.1227744E+04  0.7818609E-02  0.9088913E-01
        1   -1    0    0  501    0  0.00000000000E+00  0.00000000000E+00  0.90322162903E+03  0.90322162904E+03  0.50400001928E-02 0.  1.
       -1   -1    0    0    0  501  0.00000000000E+00  0.00000000000E+00 -0.41721636677E+03  0.41721636680E+03  0.50400001928E-02 0. -1.
    10030    2    1    2    0    0  0.00000000000E+00  0.00000000000E+00  0.48600526225E+03  0.13204379958E+04  0.12277440230E+04 0.  0.
        2    1    3    3  502    0  0.52709085624E+02 -0.60906452802E+03  0.18311170469E+03  0.63817532340E+03  0.25500000920E-02 0.  1.
       -2    1    3    3    0  502 -0.52709085624E+02  0.60906452802E+03  0.30289355756E+03  0.68226267245E+03  0.25500000920E-02 0. -1.
</event>
<event>
 5   0  0.6658994E-03  0.1184190E+04  0.7818609E-02  0.9126808E-01
        2   -1    0    0  501    0  0.00000000000E+00  0.00000000000E+00  0.62740682786E+03  0.62740682786E+03  0.25500000920E-02 0. -1.
       -2   -1    0    0    0  501  0.00000000000E+00  0.00000000000E+00 -0.55877087011E+03  0.55877087011E+03  0.25500000920E-02 0.  1.
    10030    2    1    2    0    0  0.00000000000E+00  0.00000000000E+00  0.68635957749E+02  0.11861776980E+04  0.11841902873E+04 0.  0.
        4    1    3    3  502    0  0.83375441882E+02  0.39792714688E+03 -0.39684322911E+03  0.56814051072E+03  0.12699999809E+01 0.  1.
       -4    1    3    3    0  502 -0.83375441882E+02 -0.39792714688E+03  0.46547918686E+03  0.61803718725E+03  0.12699999809E+01 0. -1.
</event>
<event>
 5   0  0.6640844E-03  0.1204371E+04  0.7818609E-02  0.9109039E-01
        2   -1    0    0  501    0  0.00000000000E+00  0.00000000000E+00  0.56433780828E+03  0.56433780829E+03  0.25500000920E-02 0. -1.
       -2   -1    0    0    0  501  0.00000000000E+00  0.00000000000E+00 -0.64257169669E+03  0.64257169670E+03  0.25500000920E-02 0.  1.
    10030    2    1    2    0    0  0.00000000000E+00  0.00000000000E+00 -0.78233888410E+02  0.12069095050E+04  0.12043712102E+04 0.  0.
        5    1    3    3  502    0 -0.18487207940E+03 -0.41288986305E+03 -0.43738339947E+03  0.62927104882E+03  0.46999998093E+01 0.  1.
       -5    1    3    3    0  502  0.18487207940E+03  0.41288986305E+03  0.35914951106E+03  0.57763845617E+03  0.46999998093E+01 0. -1.
</event>
<event>
 5   0  0.6658994E-03  0.9935834E+03  0.7818609E-02  0.9315611E-01
       -2   -1    0    0    0  501  0.00000000000E+00  0.00000000000E+00  0.51580927298E+03  0.51580927298E+03  0.25500000920E-02 0. -1.
        2   -1    0    0  501    0  0.00000000000E+00  0.00000000000E+00 -0.47847532113E+03  0.47847532113E+03  0.25500000920E-02 0.  1.
    10030    2    1    2    0    0  0.00000000000E+00  0.00000000000E+00  0.37333951851E+02  0.99428459411E+03  0.99358342887E+03 0.  0.
        4    1    3    3  502    0 -0.97295213660E+02  0.16650314634E+03 -0.43948876670E+03  0.47993921000E+03  0.12699999809E+01 0.  1.
       -4    1    3    3    0  502  0.97295213660E+02 -0.16650314634E+03  0.47682271855E+03  0.51434538412E+03  0.12699999809E+01 0. -1.
</event>
<event>
 5   0  0.6349142E-03  0.9951777E+03  0.7818609E-02  0.9313850E-01
       -2   -1    0    0    0  501  0.00000000000E+00  0.00000000000E+00  0.36356873823E+03  0.36356873824E+03  0.25500000920E-02 0.  1.
        2   -1    0    0  501    0  0.00000000000E+00  0.00000000000E+00 -0.68101190536E+03  0.68101190536E+03  0.25500000920E-02 0. -1.
    10030    2    1    2    0    0  0.00000000000E+00  0.00000000000E+00 -0.31744316713E+03  0.10445806436E+04  0.99517765079E+03 0.  0.
        1    1    3    3  502    0  0.30506661792E+03  0.31134485626E+03  0.93178108434E+02  0.44573918473E+03  0.50400001928E-02 0.  1.
       -1    1    3    3    0  502 -0.30506661792E+03 -0.31134485626E+03 -0.41062127556E+03  0.59884145887E+03  0.50400001928E-02 0. -1.
</event>
<event>
 5   0  0.6640844E-03  0.1182671E+04  0.7818609E-02  0.9128162E-01
       -2   -1    0    0    0  501  0.00000000000E+00  0.00000000000E+00  0.65868612765E+03  0.65868612765E+03  0.25500000920E-02 0.  1.
        2   -1    0    0  501    0  0.00000000000E+00  0.00000000000E+00 -0.53087103173E+03  0.53087103174E+03  0.25500000920E-02 0. -1.
    10030    2    1    2    0    0  0.00000000000E+00  0.00000000000E+00  0.12781509592E+03  0.11895571594E+04  0.11826705106E+04 0.  0.
        5    1    3    3  502    0 -0.10593939309E+03  0.53062719960E+03 -0.17594888926E+03  0.56900657430E+03  0.46999998093E+01 0. -1.
       -5    1    3    3    0  502  0.10593939309E+03 -0.53062719960E+03  0.30376398518E+03  0.62055058509E+03  0.46999998093E+01 0.  1.
</event>
<event>
 5   0  0.6493047E-03  0.1208781E+04  0.7818609E-02  0.9105205E-01
       -2   -1    0    0    0  501  0.00000000000E+00  0.00000000000E+00  0.21863298024E+03  0.21863298025E+03  0.25500000920E-02 0. -1.
        2   -1    0    0  501    0  0.00000000000E+00  0.00000000000E+00 -0.16707823330E+04  0.16707823330E+04  0.25500000920E-02 0.  1.
    10030    2    1    2    0    0  0.00000000000E+00  0.00000000000E+00 -0.14521493528E+04  0.18894153133E+04  0.12087814042E+04 0.  0.
        3    1    3    3  502    0 -0.16590961496E+02 -0.58377394820E+03 -0.48281274330E+03  0.75774364920E+03  0.10100000352E+00 0. -1.
       -3    1    3    3    0  502  0.16590961496E+02  0.58377394820E+03 -0.96933660947E+03  0.11316716641E+04  0.10100000352E+00 0.  1.
</event>
<event>
 5   0  0.6658994E-03  0.1198407E+04  0.7818609E-02  0.9114252E-01
        2   -1    0    0  501    0  0.00000000000E+00  0.00000000000E+00  0.79900277150E+03  0.79900277151E+03  0.25500000920E-02 0.  1.
       -2   -1    0    0    0  501  0.00000000000E+00  0.00000000000E+00 -0.44936644354E+03  0.44936644355E+03  0.25500000920E-02 0. -1.
    10030    2    1    2    0    0  0.00000000000E+00  0.00000000000E+00  0.34963632796E+03  0.12483692151E+04  0.11984073328E+04 0.  0.
        4    1    3    3  502    0 -0.18540589066E+03 -0.57755557395E+02 -0.41567630325E+03  0.45880219124E+03  0.12699999809E+01 0. -1.
       -4    1    3    3    0  502  0.18540589066E+03  0.57755557395E+02  0.76531263121E+03  0.78956702381E+03  0.12699999809E+01 0.  1.
</event>
<event>
 5   0  0.3772254E-03  0.1195510E+04  0.7818609E-02  0.9116796E-01
       -1   -1    0    0    0  501  0.00000000000E+00  0.00000000000E+00  0.61791623538E+03  0.61791623540E+03  0.50400001928E-02 0.  1.
        1   -1    0    0  501    0  0.00000000000E+00  0.00000000000E+00 -0.57825171409E+03  0.57825171411E+03  0.50400001928E-02 0. -1.
    10030    2    1    2    0    0  0.00000000000E+00  0.00000000000E+00  0.39664521287E+02  0.11961679495E+04  0.11955101376E+04 0.  0.
        3    1    3    3  502    0 -0.21253457212E+02 -0.39179205958E+03  0.47103314295E+03  0.61304564214E+03  0.10100000352E+00 0.  1.
       -3    1    3    3    0  502  0.21253457212E+02  0.39179205958E+03 -0.43136862166E+03  0.58312230737E+03  0.10100000352E+00 0. -1.
</event>
<event>
 5   0  0.3648616E-03  0.1233100E+04  0.7818609E-02  0.9084368E-01
       -1   -1    0    0    0  501  0.00000000000E+00  0.00000000000E+00  0.32092815472E+03  0.32092815476E+03  0.50400001928E-02 0. -1.
        1   -1    0    0  501    0  0.00000000000E+00  0.00000000000E+00 -0.11844822518E+04  0.11844822518E+04  0.50400001928E-02 0.  1.
    10030    2    1    2    0    0  0.00000000000E+00  0.00000000000E+00 -0.86355409709E+03  0.15054104066E+04  0.12330996771E+04 0.  0.
        2    1    3    3  502    0 -0.49341526311E+03 -0.14450812771E+03 -0.84720614637E+03  0.99100932150E+03  0.25500000920E-02 0.  1.
       -2    1    3    3    0  502  0.49341526311E+03  0.14450812771E+03 -0.16347950723E+02  0.51440108509E+03  0.25500000920E-02 0. -1.
</event>
<event>
 5   0  0.3772254E-03  0.1191206E+04  0.7818609E-02  0.9120589E-01
       -1   -1    0    0    0  501  0.00000000000E+00  0.00000000000E+00  0.63847722624E+03  0.63847722626E+03  0.50400001928E-02 0.  1.
        1   -1    0    0  501    0  0.00000000000E+00  0.00000000000E+00 -0.55560769671E+03  0.55560769674E+03  0.50400001928E-02 0. -1.
    10030    2    1    2    0    0  0.00000000000E+00  0.00000000000E+00  0.82869529532E+02  0.11940849230E+04  0.11912058783E+04 0.  0.
        3    1    3    3  502    0  0.53118980352E+03  0.20882930921E+03  0.21205355396E+03  0.60888341060E+03  0.10100000352E+00 0.  1.
       -3    1    3    3    0  502 -0.53118980352E+03 -0.20882930921E+03 -0.12918402443E+03  0.58520151240E+03  0.10100000352E+00 0. -1.
</event>
<event>
 5   0  0.6658994E-03  0.1173482E+04  0.7818609E-02  0.9136390E-01
        2   -1    0    0  501    0  0.00000000000E+00  0.00000000000E+00  0.41541758295E+03  0.41541758296E+03  0.25500000920E-02 0.  1.
       -2   -1    0    0    0  501  0.00000000000E+00  0.00000000000E+00 -0.82872026655E+03  0.82872026655E+03  0.25500000920E-02 0. -1.
    10030    2    1    2    0    0  0.00000000000E+00  0.00000000000E+00 -0.41330268360E+03  0.12441378495E+04  0.11734819472E+04 0.  0.
        4    1    3    3  502    0  0.44353221557E+02 -0.17731056083E+02 -0.82665401261E+03  0.82803385685E+03  0.12699999809E+01 0. -1.
       -4    1    3    3    0  502 -0.44353221557E+02  0.17731056083E+02  0.41335132902E+03  0.41610399267E+03  0.12699999809E+01 0.  1.
</event>
<event>
 5   0  0.3701879E-03  0.1195446E+04  0.7818609E-02  0.9116852E-01
        1   -1    0    0  501    0  0.00000000000E+00  0.00000000000E+00  0.81395081374E+03  0.81395081376E+03  0.50400001928E-02 0. -1.
       -1   -1    0    0    0  501  0.00000000000E+00  0.00000000000E+00 -0.43893680874E+03  0.43893680877E+03  0.50400001928E-02 0.  1.
    10030    2    1    2    0    0  0.00000000000E+00  0.00000000000E+00  0.37501400500E+03  0.12528876225E+04  0.11954463144E+04 0.  0.
        1    1    3    3  502    0 -0.52378128218E+03  0.25862125554E+03  0.32024653872E+03  0.66617537553E+03  0.50400001928E-02 0. -1.
       -1    1    3    3    0  502  0.52378128218E+03 -0.25862125554E+03  0.54767466288E+02  0.58671224699E+03  0.50400001928E-02 0.  1.
</event>
<event>
 5   0  0.3731281E-03  0.1194243E+04  0.7818609E-02  0.9117911E-01
        1   -1    0    0  501    0  0.00000000000E+00  0.00000000000E+00  0.14862831009E+04  0.14862831010E+04  0.50400001928E-02 0.  1.
       -1   -1    0    0    0  501  0.00000000000E+00  0.00000000000E+00 -0.23989652127E+03  0.23989652132E+03  0.50400001928E-02 0. -1.
    10030    2    1    2    0    0  0.00000000000E+00  0.00000000000E+00  0.12463865797E+04  0.17261796223E+04  0.11942431002E+04 0.  0.
        5    1    3    3  502    0  0.96078339323E+02 -0.35926928788E+02 -0.22703927633E+03  0.24918008447E+03  0.46999998093E+01 0. -1.
       -5    1    3    3    0  502 -0.96078339323E+02  0.35926928788E+02  0.14734258560E+04  0.14769995378E+04  0.46999998093E+01 0.  1.
</event>
<event>
 5   0  0.3701879E-03  0.1204212E+04  0.7818609E-02  0.9109178E-01
       -1   -1    0    0    0  501  0.00000000000E+00  0.00000000000E+00  0.52959884898E+03  0.52959884900E+03  0.50400001928E-02 0. -1.
        1   -1    0    0  501    0  0.00000000000E+00  0.00000000000E+00 -0.68453980204E+03  0.68453980206E+03  0.50400001928E-02 0.  1.
    10030    2    1    2    0    0  0.00000000000E+00  0.00000000000E+00 -0.15494095306E+03  0.12141386511E+04  0.12042117609E+04 0.  0.
        1    1    3    3  502    0 -0.22644844767E+03  0.30643764748E+03 -0.54752020258E+03  0.66705419833E+03  0.50400001928E-02 0. -1.
       -1    1    3    3    0  502  0.22644844767E+03 -0.30643764748E+03  0.39257924952E+03  0.54708445273E+03  0.50400001928E-02 0.  1.
</event>
<event>
 5   0  0.3648616E-03  0.1161916E+04  0.7818609E-02  0.9146860E-01
        1   -1    0    0  501    0  0.00000000000E+00  0.00000000000E+00  0.85514806461E+03  0.85514806462E+03  0.50400001928E-02 0. -1.
       -1   -1    0    0    0  501  0.00000000000E+00  0.00000000000E+00 -0.39468290649E+03  0.39468290652E+03  0.50400001928E-02 0.  1.
    10030    2    1    2    0    0  0.00000000000E+00  0.00000000000E+00  0.46046515812E+03  0.12498309711E+04  0.11619162167E+04 0.  0.
        2    1    3    3  502    0 -0.34526825738E+03  0.42359535494E+03  0.44230240294E+03  0.70304666270E+03  0.25500000920E-02 0. -1.
       -2    1    3    3    0  502  0.34526825738E+03 -0.42359535494E+03  0.18162755185E+02  0.54678430845E+03  0.25500000920E-02 0.  1.
</event>
<event>
 5   0  0.6640844E-03  0.1159067E+04  0.7818609E-02  0.9149460E-01
        2   -1    0    0  501    0  0.00000000000E+00  0.00000000000E+00  0.83813768809E+03  0.83813768810E+03  0.25500000920E-02 0. -1.
       -2   -1    0    0    0  501  0.00000000000E+00  0.00000000000E+00 -0.40072053570E+03  0.40072053570E+03  0.25500000920E-02 0.  1.
    10030    2    1    2    0    0  0.00000000000E+00  0.00000000000E+00  0.43741715240E+03  0.12388582238E+04  0.11590668374E+04 0.  0.
        5    1    3    3  502    0  0.35092393492E+02 -0.42089986496E+03  0.64282266182E+03  0.76917568666E+03  0.46999998093E+01 0. -1.
       -5    1    3    3    0  502 -0.35092393492E+02  0.42089986496E+03 -0.20540550942E+03  0.46968253714E+03  0.46999998093E+01 0.  1.
</event>
<event>
 5   0  0.6658994E-03  0.1204009E+04  0.7818609E-02  0.9109354E-01
       -2   -1    0    0    0  501  0.00000000000E+00  0.00000000000E+00  0.44591523170E+03  0.44591523171E+03  0.25500000920E-02 0. -1.
        2   -1    0    0  501    0  0.00000000000E+00  0.00000000000E+00 -0.81273205382E+03  0.81273205383E+03  0.25500000920E-02 0.  1.
    10030    2    1    2    0    0  0.00000000000E+00  0.00000000000E+00 -0.36681682212E+03  0.12586472855E+04  0.12040093058E+04 0.  0.
        4    1    3    3  502    0  0.45715707348E+03  0.38591984073E+03 -0.11342823328E+03  0.60892880561E+03  0.12699999809E+01 0. -1.
       -4    1    3    3    0  502 -0.45715707348E+03 -0.38591984073E+03 -0.25338858884E+03  0.64971847992E+03  0.12699999809E+01 0.  1.
</event>
<event>
 5   0  0.3772254E-03  0.1155676E+04  0.7818609E-02  0.9152563E-01
       -1   -1    0    0    0  501  0.00000000000E+00  0.00000000000E+00  0.71296267559E+03  0.71296267561E+03  0.50400001928E-02 0.  1.
        1   -1    0    0  501    0  0.00000000000E+00  0.00000000000E+00 -0.46832262217E+03  0.46832262220E+03  0.50400001928E-02 0. -1.
    10030    2    1    2    0    0  0.00000000000E+00  0.00000000000E+00  0.24464005343E+03  0.11812852978E+04  0.11556756461E+04 0.  0.
        3    1    3    3  502    0  0.25095557601E+02  0.11683376230E+03 -0.45555445608E+03  0.47096686473E+03  0.10100000352E+00 0. -1.
       -3    1    3    3    0  502 -0.25095557601E+02 -0.11683376230E+03  0.70019450950E+03  0.71031843307E+03  0.10100000352E+00 0.  1.
</event>
<event>
 5   0  0.3648616E-03  0.1213758E+04  0.7818609E-02  0.9100899E-01
       -1   -1    0    0    0  501  0.00000000000E+00  0.00000000000E+00  0.28728928209E+03  0.28728928214E+03  0.50400001928E-02 0. -1.
        1   -1    0    0  501    0  0.00000000000E+00  0.00000000000E+00 -0.12819908507E+04  0.12819908507E+04  0.50400001928E-02 0.  1.
    10030    2    1    2    0    0  0.00000000000E+00  0.00000000000E+00 -0.99470156862E+03  0.15692801329E+04  0.12137581822E+04 0.  0.
        2    1    3    3  502    0 -0.26418729939E+03  0.34598010658E+03 -0.10440622952E+04  0.11311778107E+04  0.25500000920E-02 0.  1.
       -2    1    3    3    0  502  0.26418729939E+03 -0.34598010658E+03  0.49360726554E+02  0.43810232212E+03  0.25500000920E-02 0. -1.
</event>
<event>
 5   0  0.6658994E-03  0.1124128E+04  0.7818609E-02  0.9181989E-01
        2   -1    0    0  501    0  0.00000000000E+00  0.00000000000E+00  0.60960603056E+03  0.60960603057E+03  0.25500000920E-02 0.  1.
       -2   -1    0    0    0  501  0.00000000000E+00  0.00000000000E+00 -0.51822933143E+03  0.51822933144E+03  0.25500000920E-02 0. -1.
    10030    2    1    2    0    0  0.00000000000E+00  0.00000000000E+00  0.91376699135E+02  0.11278353620E+04  0.11241276185E+04 0.  0.
        4    1    3    3  502    0 -0.30344582393E+03  0.40157596020E+03 -0.20527964925E+03  0.54358436987E+03  0.12699999809E+01 0. -1.
       -4    1    3    3    0  502  0.30344582393E+03 -0.40157596020E+03  0.29665634839E+03  0.58425099213E+03  0.12699999809E+01 0.  1.
</event>
<event>
 5   0  0.3701879E-03  0.1071272E+04  0.7818609E-02  0.9233654E-01
        1   -1    0    0  501    0  0.00000000000E+00  0.00000000000E+00  0.30703677492E+03  0.30703677496E+03  0.50400001928E-02 0.  1.
       -1   -1    0    0    0  501  0.00000000000E+00  0.00000000000E+00 -0.93443431351E+03  0.93443431353E+03  0.50400001928E-02 0. -1.
    10030    2    1    2    0    0  0.00000000000E+00  0.00000000000E+00 -0.62739753860E+03  0.12414710885E+04  0.10712715772E+04 0.  0.
        1    1    3    3  502    0 -0.52238162158E+03  0.10142096699E+03 -0.24285619592E+03  0.58493410144E+03  0.50400001928E-02 0. -1.
       -1    1    3    3    0  502  0.52238162158E+03 -0.10142096699E+03 -0.38454134268E+03  0.65653698705E+03  0.50400001928E-02 0.  1.
</event>
<event>
 5   0  0.6349142E-03  0.8779617E+03  0.7818609E-02  0.9453557E-01
       -2   -1    0    0    0  501  0.00000000000E+00  0.00000000000E+00  0.80346161555E+03  0.80346161555E+03  0.25500000920E-02 0.  1.
        2   -1    0    0  501    0  0.00000000000E+00  0.00000000000E+00 -0.23984245137E+03  0.23984245138E+03  0.25500000920E-02 0. -1.
    10030    2    1    2    0    0  0.00000000000E+00  0.00000000000E+00  0.56361916418E+03  0.10433040669E+04  0.87796173826E+03 0.  0.
        1    1    3    3  502    0 -0.36454616897E+03  0.83706294007E+02  0.87440570588E+01  0.37413515142E+03  0.50400001928E-02 0. -1.
       -1    1    3    3    0  502  0.36454616897E+03 -0.83706294007E+02  0.55487510712E+03  0.66916891552E+03  0.50400001928E-02 0.  1.
</event>
<event>
 5   0  0.3944074E-03  0.1177043E+04  0.7818609E-02  0.9133192E-01
       -1   -1    0    0    0  501  0.00000000000E+00  0.00000000000E+00  0.18512929246E+03  0.18512929253E+03  0.50400001928E-02 0.  1.
        1   -1    0    0  501    0  0.00000000000E+00  0.00000000000E+00 -0.18708949872E+04  0.18708949872E+04  0.50400001928E-02 0. -1.
    10030    2    1    2    0    0  0.00000000000E+00  0.00000000000E+00 -0.16857656947E+04  0.20560242797E+04  0.11770428460E+04 0.  0.
        4    1    3    3  502    0 -0.26659068504E+03  0.38993280361E+03 -0.22967500241E+03  0.52523366640E+03  0.12699999809E+01 0.  1.
       -4    1    3    3    0  502  0.26659068504E+03 -0.38993280361E+03 -0.14560906923E+04  0.15307906133E+04  0.12699999809E+01 0. -1.
</event>
<event>
 5   0  0.3701879E-03  0.7963879E+03  0.7818609E-02  0.9565260E-01
        1   -1    0    0  501    0  0.00000000000E+00  0.00000000000E+00  0.68103054069E+03  0.68103054071E+03  0.50400001928E-02 0.  1.
       -1   -1    0    0    0  501  0.00000000000E+00  0.00000000000E+00 -0.23282128220E+03  0.23282128225E+03  0.50400001928E-02 0. -1.
    10030    2    1    2    0    0  0.00000000000E+00  0.00000000000E+00  0.44820925849E+03  0.91385182296E+03  0.79638785458E+03 0.  0.
        1    1    3    3  502    0 -0.10934979406E+03 -0.35501002068E+03  0.38867695580E+03  0.53764232370E+03  0.50400001928E-02 0.  1.
       -1    1    3    3    0  502  0.10934979406E+03  0.35501002068E+03  0.59532302692E+02  0.37620949925E+03  0.50400001928E-02 0. -1.
</event>
<event>
 5   0  0.6493047E-03  0.1225973E+04  0.7818609E-02  0.9090421E-01
       -2   -1    0    0    0  501  0.00000000000E+00  0.00000000000E+00  0.43909485034E+03  0.43909485034E+03  0.25500000920E-02 0.  1.
        2   -1    0    0  501    0  0.00000000000E+00  0.00000000000E+00 -0.85574368042E+03  0.85574368042E+03  0.25500000920E-02 0. -1.
    10030    2    1    2    0    0  0.00000000000E+00  0.00000000000E+00 -0.41664883008E+03  0.12948385308E+04  0.12259733167E+04 0.  0.
        3    1    3    3  502    0 -0.47572567723E+03 -0.79980441501E+01  0.19987439121E+03  0.51607041298E+03  0.10100000352E+00 0.  1.
       -3    1    3    3    0  502  0.47572567723E+03  0.79980441501E+01 -0.61652322129E+03  0.77876811779E+03  0.10100000352E+00 0. -1.
</event>
<event>
 5   0  0.3731281E-03  0.1174345E+04  0.7818609E-02  0.9135613E-01
       -1   -1    0    0    0  501  0.00000000000E+00  0.00000000000E+00  0.73200940823E+03  0.73200940825E+03  0.50400001928E-02 0. -1.
        1   -1    0    0  501    0  0.00000000000E+00  0.00000000000E+00 -0.47099338122E+03  0.47099338124E+03  0.50400001928E-02 0.  1.
    10030    2    1    2    0    0  0.00000000000E+00  0.00000000000E+00  0.26101602701E+03  0.12030027895E+04  0.11743450707E+04 0.  0.
        5    1    3    3  502    0 -0.49598827021E+03 -0.17287746579E+03  0.39932067948E+03  0.65982579324E+03  0.46999998093E+01 0. -1.
       -5    1    3    3    0  502  0.49598827021E+03  0.17287746579E+03 -0.13830465247E+03  0.54317699625E+03  0.46999998093E+01 0.  1.
</event>
<event>
 5   0  0.6493047E-03  0.1053459E+04  0.7818609E-02  0.9251780E-01
        2   -1    0    0  501    0  0.00000000000E+00  0.00000000000E+00  0.82682379674E+03  0.82682379674E+03  0.25500000920E-02 0. -1.
       -2   -1    0    0    0  501  0.00000000000E+00  0.00000000000E+00 -0.33555386238E+03  0.33555386239E+03  0.25500000920E-02 0.  1.
    10030    2    1    2    0    0  0.00000000000E+00  0.00000000000E+00  0.49126993436E+03  0.11623776591E+04  0.10534589095E+04 0.  0.
        3    1    3    3  502    0 -0.27864286169E+03 -0.14931138516E+03  0.71051279402E+03  0.77766585033E+03  0.10100000352E+00 0. -1.
       -3    1    3    3    0  502  0.27864286169E+03  0.14931138516E+03 -0.21924285966E+03  0.38471180879E+03  0.10100000352E+00 0.  1.
</event>
<event>
 5   0  0.6658994E-03  0.1226415E+04  0.7818609E-02  0.9090045E-01
        2   -1    0    0  501    0  0.00000000000E+00  0.00000000000E+00  0.24116121214E+04  0.24116121214E+04  0.25500000920E-02 0.  1.
       -2   -1    0    0    0  501  0.00000000000E+00  0.00000000000E+00 -0.15592194084E+03  0.15592194086E+03  0.25500000920E-02 0. -1.
    10030    2    1    2    0    0  0.00000000000E+00  0.00000000000E+00  0.22556901805E+04  0.25675340622E+04  0.12264146812E+04 0.  0.
        4    1    3    3  502    0 -0.33368900014E+03  0.27964160957E+03  0.22380468126E+03  0.48952826974E+03  0.12699999809E+01 0. -1.
       -4    1    3    3    0  502  0.33368900014E+03 -0.27964160957E+03  0.20318854993E+04  0.20780057925E+04  0.12699999809E+01 0.  1.
</event>
<event>
 5   0  0.6493047E-03  0.1198186E+04  0.7818609E-02  0.9114446E-01
       -2   -1    0    0    0  501  0.00000000000E+00  0.00000000000E+00  0.21151979446E+04  0.21151979446E+04  0.25500000920E-02 0.  1.
        2   -1    0    0  501    0  0.00000000000E+00  0.00000000000E+00 -0.16968266380E+03  0.16968266382E+03  0.25500000920E-02 0. -1.
    10030    2    1    2    0    0  0.00000000000E+00  0.00000000000E+00  0.19455152808E+04  0.22848806084E+04  0.11981859985E+04 0.  0.
        3    1    3    3  502    0 -0.33920114991E+02 -0.21593173912E+03  0.20364448326E+04  0.20481417570E+04  0.10100000352E+00 0.  1.
       -3    1    3    3    0  502  0.33920114991E+02  0.21593173912E+03 -0.90929551866E+02  0.23673885140E+03  0.10100000352E+00 0. -1.
</event>
<event>
 5   0  0.6349142E-03  0.1212081E+04  0.7818609E-02  0.9102347E-01
        2   -1    0    0  501    0  0.00000000000E+00  0.00000000000E+00  0.12209901734E+04  0.12209901734E+04  0.25500000920E-02 0.  1.
       -2   -1    0    0    0  501  0.00000000000E+00  0.00000000000E+00 -0.30080919297E+03  0.30080919298E+03  0.25500000920E-02 0. -1.
    10030    2    1    2    0    0  0.00000000000E+00  0.00000000000E+00  0.92018098040E+03  0.15217993664E+04  0.12120809687E+04 0.  0.
        1    1    3    3  502    0  0.89729666986E+01  0.51088039936E+03  0.86925676193E+03  0.10083087894E+04  0.50400001928E-02 0.  1.
       -1    1    3    3    0  502 -0.89729666986E+01 -0.51088039936E+03  0.50924218473E+02  0.51349057696E+03  0.50400001928E-02 0. -1.
</event>
<event>
 5   0  0.3648616E-03  0.1205461E+04  0.7818609E-02  0.9108090E-01
        1   -1    0    0  501    0  0.00000000000E+00  0.00000000000E+00  0.45591086330E+03  0.45591086333E+03  0.50400001928E-02 0. -1.
       -1   -1    0    0    0  501  0.00000000000E+00  0.00000000000E+00 -0.79683175537E+03  0.79683175538E+03  0.50400001928E-02 0.  1.
    10030    2    1    2    0    0  0.00000000000E+00  0.00000000000E+00 -0.34092089207E+03  0.12527426187E+04  0.12054613283E+04 0.  0.
        2    1    3    3  502    0 -0.27008487647E+03 -0.50812355533E+03  0.15873248926E+02  0.57566252963E+03  0.25500000920E-02 0.  1.
       -2    1    3    3    0  502  0.27008487647E+03  0.50812355533E+03 -0.35679414099E+03  0.67708008908E+03  0.25500000920E-02 0. -1.
</event>
<event>
 5   0  0.3944074E-03  0.1176339E+04  0.7818609E-02  0.9133823E-01
        1   -1    0    0  501    0  0.00000000000E+00  0.00000000000E+00  0.86535223532E+03  0.86535223533E+03  0.50400001928E-02 0.  1.
       -1   -1    0    0    0  501  0.00000000000E+00  0.00000000000E+00 -0.39977174287E+03  0.39977174290E+03  0.50400001928E-02 0. -1.
    10030    2    1    2    0    0  0.00000000000E+00  0.00000000000E+00  0.46558049245E+03  0.12651239782E+04  0.11763390180E+04 0.  0.
        4    1    3    3  502    0  0.43016469149E+03 -0.40106706966E+03  0.24002894542E+03  0.63522591549E+03  0.12699999809E+01 0.  1.
       -4    1    3    3    0  502 -0.43016469149E+03  0.40106706966E+03  0.22555154703E+03  0.62989806274E+03  0.12699999809E+01 0. -1.
</event>
<event>
 5   0  0.6640844E-03  0.1208438E+04  0.7818609E-02  0.9105502E-01
       -2   -1    0    0    0  501  0.00000000000E+00  0.00000000000E+00  0.23939066121E+03  0.23939066122E+03  0.25500000920E-02 0. -1.
        2   -1    0    0  501    0  0.00000000000E+00  0.00000000000E+00 -0.15250416361E+04  0.15250416361E+04  0.25500000920E-02 0.  1.
    10030    2    1    2    0    0  0.00000000000E+00  0.00000000000E+00 -0.12856509749E+04  0.17644322974E+04  0.12084382080E+04 0.  0.
        5    1    3    3  502    0 -0.23309144155E+03  0.21932888392E+02  0.17044239364E+03  0.28962971406E+03  0.46999998093E+01 0.  1.
       -5    1    3    3    0  502  0.23309144155E+03 -0.21932888392E+02 -0.14560933686E+04  0.14748025833E+04  0.46999998093E+01 0. -1.
</event>
<event>
 5   0  0.3701879E-03  0.1367402E+04  0.7818609E-02  0.8977758E-01
       -1   -1    0    0    0  501  0.00000000000E+00  0.00000000000E+00  0.12201413830E+04  0.12201413830E+04  0.50400001928E-02 0.  1.
        1   -1    0    0  501    0  0.00000000000E+00  0.00000000000E+00 -0.38310914630E+03  0.38310914633E+03  0.50400001928E-02 0. -1.
    10030    2    1    2    0    0  0.00000000000E+00  0.00000000000E+00  0.83703223668E+03  0.16032505293E+04  0.13674023894E+04 0.  0.
        1    1    3    3  502    0  0.39613406458E+03 -0.10057000552E+03 -0.22411659376E+03  0.46611669221E+03  0.50400001928E-02 0. -1.
       -1    1    3    3    0  502 -0.39613406458E+03  0.10057000552E+03  0.10611488304E+04  0.11371338371E+04  0.50400001928E-02 0.  1.
</event>
<event>
 5   0  0.3944074E-03  0.1199714E+04  0.7818609E-02  0.9113107E-01
       -1   -1    0    0    0  501  0.00000000000E+00  0.00000000000E+00  0.20670388635E+03  0.20670388641E+03  0.50400001928E-02 0. -1.
        1   -1    0    0  501    0  0.00000000000E+00  0.00000000000E+00 -0.17407906926E+04  0.17407906926E+04  0.50400001928E-02 0.  1.
    10030    2    1    2    0    0  0.00000000000E+00  0.00000000000E+00 -0.15340868063E+04  0.19474945791E+04  0.11997136351E+04 0.  0.
        4    1    3    3  502    0 -0.24746369320E+03  0.21416391380E+03 -0.15831000320E+04  0.16165740892E+04  0.12699999809E+01 0.  1.
       -4    1    3    3    0  502  0.24746369320E+03 -0.21416391380E+03  0.49013225766E+02  0.33092048988E+03  0.12699999809E+01 0. -1.
</event>
<event>
 5   0  0.3731281E-03  0.9256677E+03  0.7818609E-02  0.9394052E-01
       -1   -1    0    0    0  501  0.00000000000E+00  0.00000000000E+00  0.22324583024E+03  0.22324583029E+03  0.50400001928E-02 0. -1.
        1   -1    0    0  501    0  0.00000000000E+00  0.00000000000E+00 -0.95954836728E+03  0.95954836730E+03  0.50400001928E-02 0.  1.
    10030    2    1    2    0    0  0.00000000000E+00  0.00000000000E+00 -0.73630253705E+03  0.11827941976E+04  0.92566769837E+03 0.  0.
        5    1    3    3  502    0 -0.55960992327E+02 -0.27835649123E+03 -0.83515822957E+03  0.88211412374E+03  0.46999998093E+01 0.  1.
       -5    1    3    3    0  502  0.55960992327E+02  0.27835649123E+03  0.98855692525E+02  0.30068007386E+03  0.46999998093E+01 0. -1.
</event>
<event>
 5   0  0.6658994E-03  0.1195772E+04  0.7818609E-02  0.9116566E-01
       -2   -1    0    0    0  501  0.00000000000E+00  0.00000000000E+00  0.13668824090E+03  0.13668824092E+03  0.25500000920E-02 0. -1.
        2   -1    0    0  501    0  0.00000000000E+00  0.00000000000E+00 -0.26152033177E+04  0.26152033177E+04  0.25500000920E-02 0.  1.
    10030    2    1    2    0    0  0.00000000000E+00  0.00000000000E+00 -0.24785150768E+04  0.27518915586E+04  0.11957717861E+04 0.  0.
        4    1    3    3  502    0  0.15642734026E+03  0.45029942343E+03 -0.40876970794E+03  0.62795968864E+03  0.12699999809E+01 0. -1.
       -4    1    3    3    0  502 -0.15642734026E+03 -0.45029942343E+03 -0.20697453688E+04  0.21239318700E+04  0.12699999809E+01 0.  1.
</event>
<event>
 5   0  0.3701879E-03  0.1242538E+04  0.7818609E-02  0.9076417E-01
        1   -1    0    0  501    0  0.00000000000E+00  0.00000000000E+00  0.12315414772E+04  0.12315414773E+04  0.50400001928E-02 0. -1.
       -1   -1    0    0    0  501  0.00000000000E+00  0.00000000000E+00 -0.31340805977E+03  0.31340805981E+03  0.50400001928E-02 0.  1.
    10030    2    1    2    0    0  0.00000000000E+00  0.00000000000E+00  0.91813341748E+03  0.15449495371E+04  0.12425377659E+04 0.  0.
        1    1    3    3  502    0 -0.24512602468E+03  0.55122537423E+03  0.64365285547E+03  0.88217072019E+03  0.50400001928E-02 0.  1.
       -1    1    3    3    0  502  0.24512602468E+03 -0.55122537423E+03  0.27448056201E+03  0.66277881689E+03  0.50400001928E-02 0. -1.
</event>
<event>
 5   0  0.6585930E-03  0.1135779E+04  0.7818609E-02  0.9171004E-01
       -2   -1    0    0    0  501  0.00000000000E+00  0.00000000000E+00  0.20583040898E+03  0.20583040899E+03  0.25500000920E-02 0.  1.
        2   -1    0    0  501    0  0.00000000000E+00  0.00000000000E+00 -0.15668170235E+04  0.15668170235E+04  0.25500000920E-02 0. -1.
    10030    2    1    2    0    0  0.00000000000E+00  0.00000000000E+00 -0.13609866145E+04  0.17726474325E+04  0.11357791841E+04 0.  0.
        2    1    3    3  502    0 -0.12125296323E+03 -0.46112664974E+03 -0.19904207596E+03  0.51667960691E+03  0.25500000920E-02 0.  1.
       -2    1    3    3    0  502  0.12125296323E+03  0.46112664974E+03 -0.11619445386E+04  0.12559678256E+04  0.25500000920E-02 0. -1.
</event>
<event>
 5   0  0.6640844E-03  0.1209968E+04  0.7818609E-02  0.9104176E-01
        2   -1    0    0  501    0  0.00000000000E+00  0.00000000000E+00  0.77633661150E+03  0.77633661150E+03  0.25500000920E-02 0. -1.
       -2   -1    0    0    0  501  0.00000000000E+00  0.00000000000E+00 -0.47145218508E+03  0.47145218509E+03  0.25500000920E-02 0.  1.
    10030    2    1    2    0    0  0.00000000000E+00  0.00000000000E+00  0.30488442642E+03  0.12477887966E+04  0.12099679200E+04 0.  0.
        5    1    3    3  502    0 -0.16099417957E+03 -0.48302774283E+03  0.48937887632E+03  0.70622142475E+03  0.46999998093E+01 0. -1.
       -5    1    3    3    0  502  0.16099417957E+03  0.48302774283E+03 -0.18449444990E+03  0.54156737184E+03  0.46999998093E+01 0.  1.
</event>
<event>
 5   0  0.3772254E-03  0.1199817E+04  0.7818609E-02  0.9113017E-01
        1   -1    0    0  501    0  0.00000000000E+00  0.00000000000E+00  0.15026487661E+04  0.15026487661E+04  0.50400001928E-02 0.  1.
       -1   -1    0    0    0  501  0.00000000000E+00  0.00000000000E+00 -0.23950370994E+03  0.23950370999E+03  0.50400001928E-02 0. -1.
    10030    2    1    2    0    0  0.00000000000E+00  0.00000000000E+00  0.12631450562E+04  0.17421524761E+04  0.11998165764E+04 0.  0.
        3    1    3    3  502    0  0.56903182125E+03  0.17122058409E+03  0.75109945682E+03  0.95773905958E+03  0.10100000352E+00 0.  1.
       -3    1    3    3    0  502 -0.56903182125E+03 -0.17122058409E+03  0.51204559937E+03  0.78441341654E+03  0.10100000352E+00 0. -1.
</event>
<event>
 5   0  0.2537625E-03  0.1186755E+04  0.7818609E-02  0.9124530E-01
       -3   -1    0    0    0  501  0.00000000000E+00  0.00000000000E+00  0.19293505111E+03  0.19293507755E+03  0.10100000352E+00 0. -1.
        3   -1    0    0  501    0  0.00000000000E+00  0.00000000000E+00 -0.18249486707E+04  0.18249486735E+04  0.10100000352E+00 0.  1.
    10030    2    1    2    0    0  0.00000000000E+00  0.00000000000E+00 -0.16320136196E+04  0.20178837510E+04  0.11867545568E+04 0.  0.
        1    1    3    3  502    0  0.43551834576E+03  0.36398467192E+03 -0.11101973237E+04  0.12468757630E+04  0.50400001928E-02 0. -1.
       -1    1    3    3    0  502 -0.43551834576E+03 -0.36398467192E+03 -0.52181629589E+03  0.77100798801E+03  0.50400001928E-02 0.  1.
</event>
<event>
 5   0  0.3731281E-03  0.1201062E+04  0.7818609E-02  0.9111927E-01
       -1   -1    0    0    0  501  0.00000000000E+00  0.00000000000E+00  0.28803175910E+03  0.28803175915E+03  0.50400001928E-02 0.  1.
        1   -1    0    0  501    0  0.00000000000E+00  0.00000000000E+00 -0.12520759936E+04  0.12520759936E+04  0.50400001928E-02 0. -1.
    10030    2    1    2    0    0  0.00000000000E+00  0.00000000000E+00 -0.96404423454E+03  0.15401077528E+04  0.12010622815E+04 0.  0.
        5    1    3    3  502    0  0.47310692712E+03 -0.14656879182E+03 -0.91743959268E+03  0.10426073429E+04  0.46999998093E+01 0. -1.
       -5    1    3    3    0  502 -0.47310692712E+03  0.14656879182E+03 -0.46604641858E+02  0.49750040991E+03  0.46999998093E+01 0.  1.
</event>
<event>
 5   0  0.6585930E-03  0.1159491E+04  0.7818609E-02  0.9149072E-01
       -2   -1    0    0    0  501  0.00000000000E+00  0.00000000000E+00  0.19916846811E+03  0.19916846812E+03  0.25500000920E-02 0.  1.
        2   -1    0    0  501    0  0.00000000000E+00  0.00000000000E+00 -0.16875417234E+04  0.16875417234E+04  0.25500000920E-02 0. -1.
    10030    2    1    2    0    0  0.00000000000E+00  0.00000000000E+00 -0.14883732553E+04  0.18867101915E+04  0.11594914401E+04 0.  0.
        2    1    3    3  502    0 -0.46716539692E+03  0.33441934503E+03 -0.61787982174E+03  0.84371516552E+03  0.25500000920E-02 0.  1.
       -2    1    3    3    0  502  0.46716539692E+03 -0.33441934503E+03 -0.87049343358E+03  0.10429950260E+04  0.25500000920E-02 0. -1.
</event>
<event>
 5   0  0.3944074E-03  0.1309782E+04  0.7818609E-02  0.9021844E-01
       -1   -1    0    0    0  501  0.00000000000E+00  0.00000000000E+00  0.65335539744E+03  0.65335539746E+03  0.50400001928E-02 0.  1.
        1   -1    0    0  501    0  0.00000000000E+00  0.00000000000E+00 -0.65642974138E+03  0.65642974139E+03  0.50400001928E-02 0. -1.
    10030    2    1    2    0    0  0.00000000000E+00  0.00000000000E+00 -0.30743439344E+01  0.13097851389E+04  0.13097815308E+04 0.  0.
        4    1    3    3  502    0 -0.28240645326E+03  0.57540433505E+03  0.13276415874E+03  0.65457733568E+03  0.12699999809E+01 0.  1.
       -4    1    3    3    0  502  0.28240645326E+03 -0.57540433505E+03 -0.13583850267E+03  0.65520780318E+03  0.12699999809E+01 0. -1.
</event>
<event>
 5   0  0.6493047E-03  0.1192761E+04  0.7818609E-02  0.9119216E-01
        2   -1    0    0  501    0  0.00000000000E+00  0.00000000000E+00  0.94416808151E+03  0.94416808151E+03  0.25500000920E-02 0.  1.
       -2   -1    0    0    0  501  0.00000000000E+00  0.00000000000E+00 -0.37670194081E+03  0.37670194082E+03  0.25500000920E-02 0. -1.
    10030    2    1    2    0    0  0.00000000000E+00  0.00000000000E+00  0.56746614070E+03  0.13208700223E+04  0.11927614158E+04 0.  0.
        3    1    3    3  502    0  0.42141947797E+00 -0.59610627109E+03  0.26370542598E+03  0.65183082615E+03  0.10100000352E+00 0.  1.
       -3    1    3    3    0  502 -0.42141947797E+00  0.59610627109E+03  0.30376071472E+03  0.66903919619E+03  0.10100000352E+00 0. -1.
</event>
<event>
 5   0  0.6640844E-03  0.1198811E+04  0.7818609E-02  0.9113898E-01
        2   -1    0    0  501    0  0.00000000000E+00  0.00000000000E+00  0.10094795814E+04  0.10094795814E+04  0.25500000920E-02 0.  1.
       -2   -1    0    0    0  501  0.00000000000E+00  0.00000000000E+00 -0.35591327416E+03  0.35591327416E+03  0.25500000920E-02 0. -1.
    10030    2    1    2    0    0  0.00000000000E+00  0.00000000000E+00  0.65356630722E+03  0.13653928555E+04  0.11988113830E+04 0.  0.
        5    1    3    3  502    0 -0.81032230797E+02  0.40964812417E+03  0.81651719234E+03  0.91711516368E+03  0.46999998093E+01 0.  1.
       -5    1    3    3    0  502  0.81032230797E+02 -0.40964812417E+03 -0.16295088512E+03  0.44827769187E+03  0.46999998093E+01 0. -1.
</event>
<event>
 5   0  0.6349142E-03  0.8103233E+03  0.7818609E-02  0.9545194E-01
        2   -1    0    0  501    0  0.00000000000E+00  0.00000000000E+00  0.36788600633E+03  0.36788600634E+03  0.25500000920E-02 0.  1.
       -2   -1    0    0    0  501  0.00000000000E+00  0.00000000000E+00 -0.44621420965E+03  0.44621420966E+03  0.25500000920E-02 0. -1.
    10030    2    1    2    0    0  0.00000000000E+00  0.00000000000E+00 -0.78328203321E+02  0.81410021600E+03  0.81032330230E+03 0.  0.
        1    1    3    3  502    0 -0.33054746064E+03 -0.17151851158E+03 -0.19951926402E+03  0.42247859151E+03  0.50400001928E-02 0.  1.
       -1    1    3    3    0  502  0.33054746064E+03  0.17151851158E+03  0.12119106070E+03  0.39162162449E+03  0.50400001928E-02 0. -1.
</event>
<event>
 5   0  0.3944074E-03  0.1195818E+04  0.7818609E-02  0.9116525E-01
        1   -1    0    0  501    0  0.00000000000E+00  0.00000000000E+00  0.16646800085E+04  0.16646800085E+04  0.50400001928E-02 0.  1.
       -1   -1    0    0    0  501  0.00000000000E+00  0.00000000000E+00 -0.21475294798E+03  0.21475294803E+03  0.50400001928E-02 0. -1.
    10030    2    1    2    0    0  0.00000000000E+00  0.00000000000E+00  0.14499270605E+04  0.18794329566E+04  0.11958176104E+04 0.  0.
        4    1    3    3  502    0  0.23457021168E+03 -0.90169654176E+01  0.15892242407E+04  0.16064681105E+04  0.12699999809E+01 0.  1.
       -4    1    3    3    0  502 -0.23457021168E+03  0.90169654176E+01 -0.13929718019E+03  0.27296484605E+03  0.12699999809E+01 0. -1.
</event>
<event>
 5   0  0.6349142E-03  0.9163219E+03  0.7818609E-02  0.9405405E-01
        2   -1    0    0  501    0  0.00000000000E+00  0.00000000000E+00  0.10127071061E+04  0.10127071061E+04  0.25500000920E-02 0. -1.
       -2   -1    0    0    0  501  0.00000000000E+00  0.00000000000E+00 -0.20727754466E+03  0.20727754467E+03  0.25500000920E-02 0.  1.
    10030    2    1    2    0    0  0.00000000000E+00  0.00000000000E+00  0.80542956141E+03  0.12199846507E+04  0.91632187011E+03 0.  0.
        1    1    3    3  502    0  0.24886179260E+03 -0.13741717473E+03 -0.75653441274E+02  0.29417531326E+03  0.50400001928E-02 0.  1.
       -1    1    3    3    0  502 -0.24886179260E+03  0.13741717473E+03  0.88108300268E+03  0.92580933748E+03  0.50400001928E-02 0. -1.
</event>
<event>
 5   0  0.3944074E-03  0.9738271E+03  0.7818609E-02  0.9337726E-01
        1   -1    0    0  501    0  0.00000000000E+00  0.00000000000E+00  0.22182381593E+04  0.22182381593E+04  0.50400001928E-02 0.  1.
       -1   -1    0    0    0  501  0.00000000000E+00  0.00000000000E+00 -0.10687978042E+03  0.10687978054E+03  0.50400001928E-02 0. -1.
    10030    2    1    2    0    0  0.00000000000E+00  0.00000000000E+00  0.21113583789E+04  0.23251179398E+04  0.97382710485E+03 0.  0.
        4    1    3    3  502    0 -0.28102081198E+03  0.37415760526E+03  0.73431218217E+03  0.87073681679E+03  0.12699999809E+01 0. -1.
       -4    1    3    3    0  502  0.28102081198E+03 -0.37415760526E+03  0.13770461967E+04  0.14543811230E+04  0.12699999809E+01 0.  1.
</event>
<event>
 5   0  0.6658994E-03  0.9065553E+03  0.7818609E-02  0.9417424E-01
       -2   -1    0    0    0  501  0.00000000000E+00  0.00000000000E+00  0.15209394345E+03  0.15209394347E+03  0.25500000920E-02 0. -1.
        2   -1    0    0  501    0  0.00000000000E+00  0.00000000000E+00 -0.13508797455E+04  0.13508797455E+04  0.25500000920E-02 0.  1.
    10030    2    1    2    0    0  0.00000000000E+00  0.00000000000E+00 -0.11987858020E+04  0.15029736890E+04  0.90655529921E+03 0.  0.
        4    1    3    3  502    0  0.73007708169E+02  0.10650619757E+03  0.12095316089E+03  0.17693212145E+03  0.12699999809E+01 0. -1.
       -4    1    3    3    0  502 -0.73007708169E+02 -0.10650619757E+03 -0.13197389629E+04  0.13260415675E+04  0.12699999809E+01 0.  1.
</event>
<event>
 5   0  0.3701879E-03  0.1205487E+04  0.7818609E-02  0.9108067E-01
       -1   -1    0    0    0  501  0.00000000000E+00  0.00000000000E+00  0.21384225209E+03  0.21384225215E+03  0.50400001928E-02 0. -1.
        1   -1    0    0  501    0  0.00000000000E+00  0.00000000000E+00 -0.16989141809E+04  0.16989141809E+04  0.50400001928E-02 0.  1.
    10030    2    1    2    0    0  0.00000000000E+00  0.00000000000E+00 -0.14850719288E+04  0.19127564331E+04  0.12054868471E+04 0.  0.
        1    1    3    3  502    0 -0.75182865070E+02 -0.52085979152E+01 -0.16914090319E+04  0.16930871525E+04  0.50400001928E-02 0.  1.
       -1    1    3    3    0  502  0.75182865070E+02  0.52085979152E+01  0.20633710308E+03  0.21966928057E+03  0.50400001928E-02 0. -1.
</event>
<event>
 5   0  0.6640844E-03  0.1152451E+04  0.7818609E-02  0.9155526E-01
       -2   -1    0    0    0  501  0.00000000000E+00  0.00000000000E+00  0.27660348266E+03  0.27660348268E+03  0.25500000920E-02 0. -1.
        2   -1    0    0  501    0  0.00000000000E+00  0.00000000000E+00 -0.12004032206E+04  0.12004032207E+04  0.25500000920E-02 0.  1.
    10030    2    1    2    0    0  0.00000000000E+00  0.00000000000E+00 -0.92379973798E+03  0.14770067033E+04  0.11524507997E+04 0.  0.
        5    1    3    3  502    0 -0.37930138148E+03  0.43290003934E+03 -0.49680236359E+03  0.76033325622E+03  0.46999998093E+01 0.  1.
       -5    1    3    3    0  502  0.37930138148E+03 -0.43290003934E+03 -0.42699737440E+03  0.71667344711E+03  0.46999998093E+01 0. -1.
</event>
<event>
 5   0  0.6640844E-03  0.1251351E+04  0.7818609E-02  0.9069059E-01
       -2   -1    0    0    0  501  0.00000000000E+00  0.00000000000E+00  0.38755560585E+03  0.38755560586E+03  0.25500000920E-02 0. -1.
        2   -1    0    0  501    0  0.00000000000E+00  0.00000000000E+00 -0.10100999508E+04  0.10100999508E+04  0.25500000920E-02 0.  1.
    10030    2    1    2    0    0  0.00000000000E+00  0.00000000000E+00 -0.62254434492E+03  0.13976555566E+04  0.12513511072E+04 0.  0.
        5    1    3    3  502    0 -0.17253798370E+03  0.50509992160E+03 -0.67586056646E+03  0.86122289908E+03  0.46999998093E+01 0. -1.
       -5    1    3    3    0  502  0.17253798370E+03 -0.50509992160E+03  0.53316221535E+02  0.53643265756E+03  0.46999998093E+01 0.  1.
</event>
<event>
 5   0  0.6585930E-03  0.1183140E+04  0.7818609E-02  0.9127743E-01
        2   -1    0    0  501    0  0.00000000000E+00  0.00000000000E+00  0.21053750126E+03  0.21053750127E+03  0.25500000920E-02 0. -1.
       -2   -1    0    0    0  501  0.00000000000E+00  0.00000000000E+00 -0.16621986788E+04  0.16621986788E+04  0.25500000920E-02 0.  1.
    10030    2    1    2    0    0  0.00000000000E+00  0.00000000000E+00 -0.14516611775E+04  0.18727361800E+04  0.11831401547E+04 0.  0.
        2    1    3    3  502    0  0.29867486258E+03 -0.43408721791E+03 -0.30017345406E+03  0.60641775107E+03  0.25500000920E-02 0. -1.
       -2    1    3    3    0  502 -0.29867486258E+03  0.43408721791E+03 -0.11514877235E+04  0.12663184290E+04  0.25500000920E-02 0.  1.
</event>
<event>
 5   0  0.6585930E-03  0.1175065E+04  0.7818609E-02  0.9134966E-01
       -2   -1    0    0    0  501  0.00000000000E+00  0.00000000000E+00  0.23421296519E+03  0.23421296521E+03  0.25500000920E-02 0.  1.
        2   -1    0    0  501    0  0.00000000000E+00  0.00000000000E+00 -0.14738493804E+04  0.14738493804E+04  0.25500000920E-02 0. -1.
    10030    2    1    2    0    0  0.00000000000E+00  0.00000000000E+00 -0.12396364152E+04  0.17080623456E+04  0.11750653321E+04 0.  0.
        2    1    3    3  502    0  0.55358189523E+03 -0.10049850093E+03 -0.37381451082E+03  0.67549252544E+03  0.25500000920E-02 0.  1.
       -2    1    3    3    0  502 -0.55358189523E+03  0.10049850093E+03 -0.86582190443E+03  0.10325698202E+04  0.25500000920E-02 0. -1.
</event>
<event>
 5   0  0.6349142E-03  0.1239898E+04  0.7818609E-02  0.9078633E-01
        2   -1    0    0  501    0  0.00000000000E+00  0.00000000000E+00  0.91127529592E+03  0.91127529592E+03  0.25500000920E-02 0.  1.
       -2   -1    0    0    0  501  0.00000000000E+00  0.00000000000E+00 -0.42175730979E+03  0.42175730980E+03  0.25500000920E-02 0. -1.
    10030    2    1    2    0    0  0.00000000000E+00  0.00000000000E+00  0.48951798613E+03  0.13330326057E+04  0.12398984108E+04 0.  0.
        1    1    3    3  502    0  0.61663993546E+03  0.25962418850E+02  0.30761559042E+03  0.68959858518E+03  0.50400001928E-02 0.  1.
       -1    1    3    3    0  502 -0.61663993546E+03 -0.25962418850E+02  0.18190239571E+03  0.64343402054E+03  0.50400001928E-02 0. -1.
</event>
<event>
 5   0  0.3772254E-03  0.1183757E+04  0.7818609E-02  0.9127194E-01
        1   -1    0    0  501    0  0.00000000000E+00  0.00000000000E+00  0.26815578443E+03  0.26815578448E+03  0.50400001928E-02 0.  1.
       -1   -1    0    0    0  501  0.00000000000E+00  0.00000000000E+00 -0.13064050902E+04  0.13064050902E+04  0.50400001928E-02 0. -1.
    10030    2    1    2    0    0  0.00000000000E+00  0.00000000000E+00 -0.10382493057E+04  0.15745608747E+04  0.11837568699E+04 0.  0.
        3    1    3    3  502    0 -0.41587400240E+03  0.24924462674E+03 -0.97067884330E+03  0.10850306433E+04  0.10100000352E+00 0. -1.
       -3    1    3    3    0  502  0.41587400240E+03 -0.24924462674E+03 -0.67570462436E+02  0.48953023138E+03  0.10100000352E+00 0.  1.
</event>
<event>
 5   0  0.3772254E-03  0.1129231E+04  0.7818609E-02  0.9177160E-01
        1   -1    0    0  501    0  0.00000000000E+00  0.00000000000E+00  0.63839818254E+03  0.63839818256E+03  0.50400001928E-02 0. -1.
       -1   -1    0    0    0  501  0.00000000000E+00  0.00000000000E+00 -0.49936033215E+03  0.49936033218E+03  0.50400001928E-02 0.  1.
    10030    2    1    2    0    0  0.00000000000E+00  0.00000000000E+00  0.13903785039E+03  0.11377585147E+04  0.11292311163E+04 0.  0.
        3    1    3    3  502    0 -0.49671522761E+03 -0.10897522482E+03 -0.17766839379E+03  0.53867215012E+03  0.10100000352E+00 0.  1.
       -3    1    3    3    0  502  0.49671522761E+03  0.10897522482E+03  0.31670624418E+03  0.59908636461E+03  0.10100000352E+00 0. -1.
</event>
<event>
 5   0  0.2537625E-03  0.1209818E+04  0.7818609E-02  0.9104306E-01
        3   -1    0    0  501    0  0.00000000000E+00  0.00000000000E+00  0.47579770627E+03  0.47579771699E+03  0.10100000352E+00 0. -1.
       -3   -1    0    0    0  501  0.00000000000E+00  0.00000000000E+00 -0.76905545258E+03  0.76905545922E+03  0.10100000352E+00 0.  1.
    10030    2    1    2    0    0  0.00000000000E+00  0.00000000000E+00 -0.29325774631E+03  0.12448531762E+04  0.12098178890E+04 0.  0.
        4    1    3    3  502    0 -0.29155466028E+03  0.52226087411E+03 -0.23953583666E+03  0.64431325494E+03  0.12699999809E+01 0.  1.
       -4    1    3    3    0  502  0.29155466028E+03 -0.52226087411E+03 -0.53721909655E+02  0.60053992126E+03  0.12699999809E+01 0. -1.
</event>
<event>
 5   0  0.6493047E-03  0.1193660E+04  0.7818609E-02  0.9118424E-01
        2   -1    0    0  501    0  0.00000000000E+00  0.00000000000E+00  0.12106122651E+04  0.12106122651E+04  0.25500000920E-02 0.  1.
       -2   -1    0    0    0  501  0.00000000000E+00  0.00000000000E+00 -0.29423643283E+03  0.29423643284E+03  0.25500000920E-02 0. -1.
    10030    2    1    2    0    0  0.00000000000E+00  0.00000000000E+00  0.91637583227E+03  0.15048486980E+04  0.11936603109E+04 0.  0.
        3    1    3    3  502    0 -0.28565571834E+03 -0.18527721517E+03 -0.15978628089E+03  0.37610969363E+03  0.10100000352E+00 0. -1.
       -3    1    3    3    0  502  0.28565571834E+03  0.18527721517E+03  0.10761621132E+04  0.11287390043E+04  0.10100000352E+00 0.  1.
</event>
<event>
 5   0  0.3701879E-03  0.1248317E+04  0.7818609E-02  0.9071585E-01
       -1   -1    0    0    0  501  0.00000000000E+00  0.00000000000E+00  0.27210742607E+03  0.27210742611E+03  0.50400001928E-02 0. -1.
        1   -1    0    0  501    0  0.00000000000E+00  0.00000000000E+00 -0.14316910370E+04  0.14316910370E+04  0.50400001928E-02 0.  1.
    10030    2    1    2    0    0  0.00000000000E+00  0.00000000000E+00 -0.11595836110E+04  0.17037984631E+04  0.12483168877E+04 0.  0.
        1    1    3    3  502    0  0.32549828839E+03  0.50259315425E+03 -0.82019902843E+03  0.10155173365E+04  0.50400001928E-02 0. -1.
       -1    1    3    3    0  502 -0.32549828839E+03 -0.50259315425E+03 -0.33938458253E+03  0.68828112667E+03  0.50400001928E-02 0.  1.
</event>
<event>
 5   0  0.6585930E-03  0.1301187E+04  0.7818609E-02  0.9028624E-01
       -2   -1    0    0    0  501  0.00000000000E+00  0.00000000000E+00  0.31942130626E+03  0.31942130627E+03  0.25500000920E-02 0. -1.
        2   -1    0    0  501    0  0.00000000000E+00  0.00000000000E+00 -0.13251214396E+04  0.13251214396E+04  0.25500000920E-02 0.  1.
    10030    2    1    2    0    0  0.00000000000E+00  0.00000000000E+00 -0.10057001334E+04  0.16445427459E+04  0.13011871828E+04 0.  0.
        2    1    3    3  502    0  0.59220761218E+02 -0.12806727282E+03 -0.13055510477E+04  0.13131534042E+04  0.25500000920E-02 0.  1.
       -2    1    3    3    0  502 -0.59220761218E+02  0.12806727282E+03  0.29985091433E+03  0.33138934165E+03  0.25500000920E-02 0. -1.
</event>
<event>
 5   0  0.3944074E-03  0.1248050E+04  0.7818609E-02  0.9071808E-01
        1   -1    0    0  501    0  0.00000000000E+00  0.00000000000E+00  0.42490884298E+03  0.42490884301E+03  0.50400001928E-02 0. -1.
       -1   -1    0    0    0  501  0.00000000000E+00  0.00000000000E+00 -0.91644856217E+03  0.91644856219E+03  0.50400001928E-02 0.  1.
    10030    2    1    2    0    0  0.00000000000E+00  0.00000000000E+00 -0.49153971920E+03  0.13413574052E+04  0.12480498359E+04 0.  0.
        4    1    3    3  502    0  0.25185703325E+03  0.53145973838E+01  0.36782954381E+03  0.44582552231E+03  0.12699999809E+01 0. -1.
       -4    1    3    3    0  502 -0.25185703325E+03 -0.53145973838E+01 -0.85936926301E+03  0.89553188288E+03  0.12699999809E+01 0.  1.
</event>
<event>
 5   0  0.3701879E-03  0.1185731E+04  0.7818609E-02  0.9125438E-01
        1   -1    0    0  501    0  0.00000000000E+00  0.00000000000E+00  0.66205621747E+03  0.66205621749E+03  0.50400001928E-02 0. -1.
       -1   -1    0    0    0  501  0.00000000000E+00  0.00000000000E+00 -0.53090598802E+03  0.53090598805E+03  0.50400001928E-02 0.  1.
    10030    2    1    2    0    0  0.00000000000E+00  0.00000000000E+00  0.13115022944E+03  0.11929622055E+04  0.11857311842E+04 0.  0.
        1    1    3    3  502    0 -0.11792386525E+03 -0.53064272355E+03  0.30366542242E+03  0.62265594581E+03  0.50400001928E-02 0.  1.
       -1    1    3    3    0  502  0.11792386525E+03  0.53064272355E+03 -0.17251519297E+03  0.57030625973E+03  0.50400001928E-02 0. -1.
</event>
<event>
 5   0  0.3648616E-03  0.1214757E+04  0.7818609E-02  0.9100037E-01
        1   -1    0    0  501    0  0.00000000000E+00  0.00000000000E+00  0.75634559258E+03  0.75634559260E+03  0.50400001928E-02 0. -1.
       -1   -1    0    0    0  501  0.00000000000E+00  0.00000000000E+00 -0.48775158527E+03  0.48775158530E+03  0.50400001928E-02 0.  1.
    10030    2    1    2    0    0  0.00000000000E+00  0.00000000000E+00  0.26859400731E+03  0.12440971779E+04  0.12147571968E+04 0.  0.
        2    1    3    3  502    0 -0.35650518943E+03 -0.42772665003E+02  0.63600999239E+03  0.73036577233E+03  0.25500000920E-02 0. -1.
       -2    1    3    3    0  502  0.35650518943E+03  0.42772665003E+02 -0.36741598508E+03  0.51373140556E+03  0.25500000920E-02 0.  1.
</event>
<event>
 5   0  0.3772254E-03  0.8712845E+03  0.7818609E-02  0.9462207E-01
       -1   -1    0    0    0  501  0.00000000000E+00  0.00000000000E+00  0.27144432927E+03  0.27144432932E+03  0.50400001928E-02 0. -1.
        1   -1    0    0  501    0  0.00000000000E+00  0.00000000000E+00 -0.69916418814E+03  0.69916418816E+03  0.50400001928E-02 0.  1.
    10030    2    1    2    0    0  0.00000000000E+00  0.00000000000E+00 -0.42771985887E+03  0.97060851747E+03  0.87128446360E+03 0.  0.
        3    1    3    3  502    0 -0.55046713550E+02  0.23190566717E+03 -0.62008536271E+03  0.66431637522E+03  0.10100000352E+00 0.  1.
       -3    1    3    3    0  502  0.55046713550E+02 -0.23190566717E+03  0.19236550384E+03  0.30629214225E+03  0.10100000352E+00 0. -1.
</event>
<event>
 5   0  0.6658994E-03  0.1189345E+04  0.7818609E-02  0.9122234E-01
        2   -1    0    0  501    0  0.00000000000E+00  0.00000000000E+00  0.67279125157E+03  0.67279125157E+03  0.25500000920E-02 0.  1.
       -2   -1    0    0    0  501  0.00000000000E+00  0.00000000000E+00 -0.52562446249E+03  0.52562446250E+03  0.25500000920E-02 0. -1.
    10030    2    1    2    0    0  0.00000000000E+00  0.00000000000E+00  0.14716678908E+03  0.11984157141E+04  0.11893452652E+04 0.  0.
        4    1    3    3  502    0 -0.28769571652E+02  0.49201901915E+03 -0.26170575258E+03  0.55803397504E+03  0.12699999809E+01 0. -1.
       -4    1    3    3    0  502  0.28769571652E+02 -0.49201901915E+03  0.40887254166E+03  0.64038173903E+03  0.12699999809E+01 0.  1.
</event>
<event>
 5   0  0.6658994E-03  0.1298092E+04  0.7818609E-02  0.9031079E-01
       -2   -1    0    0    0  501  0.00000000000E+00  0.00000000000E+00  0.43609572611E+03  0.43609572611E+03  0.25500000920E-02 0. -1.
        2   -1    0    0  501    0  0.00000000000E+00  0.00000000000E+00 -0.96598262485E+03  0.96598262485E+03  0.25500000920E-02 0.  1.
    10030    2    1    2    0    0  0.00000000000E+00  0.00000000000E+00 -0.52988689874E+03  0.14020783510E+04  0.12980922836E+04 0.  0.
        4    1    3    3  502    0  0.22886544366E+03 -0.12766210221E+03 -0.90629618975E+03  0.94342535480E+03  0.12699999809E+01 0.  1.
       -4    1    3    3    0  502 -0.22886544366E+03  0.12766210221E+03  0.37640929100E+03  0.45865299617E+03  0.12699999809E+01 0. -1.
</event>
<event>
 5   0  0.3648616E-03  0.1205666E+04  0.7818609E-02  0.9107912E-01
       -1   -1    0    0    0  501  0.00000000000E+00  0.00000000000E+00  0.62977013733E+03  0.62977013735E+03  0.50400001928E-02 0. -1.
        1   -1    0    0  501    0  0.00000000000E+00  0.00000000000E+00 -0.57704764365E+03  0.57704764367E+03  0.50400001928E-02 0.  1.
    10030    2    1    2    0    0  0.00000000000E+00  0.00000000000E+00  0.52722493678E+02  0.12068177810E+04  0.12056655818E+04 0.  0.
        2    1    3    3  502    0  0.12387631297E+03  0.56681702222E+03 -0.13744261897E+03  0.59625275773E+03  0.25500000920E-02 0.  1.
       -2    1    3    3    0  502 -0.12387631297E+03 -0.56681702222E+03  0.19016511264E+03  0.61056502329E+03  0.25500000920E-02 0. -1.
</event>
<event>
 5   0  0.6658994E-03  0.1188324E+04  0.7818609E-02  0.9123138E-01
       -2   -1    0    0    0  501  0.00000000000E+00  0.00000000000E+00  0.53331321130E+03  0.53331321130E+03  0.25500000920E-02 0. -1.
        2   -1    0    0  501    0  0.00000000000E+00  0.00000000000E+00 -0.66195389690E+03  0.66195389690E+03  0.25500000920E-02 0.  1.
    10030    2    1    2    0    0  0.00000000000E+00  0.00000000000E+00 -0.12864068560E+03  0.11952671082E+04  0.11883244649E+04 0.  0.
        4    1    3    3  502    0 -0.25931669037E+02  0.49811504876E+03  0.26042205360E+03  0.56268313655E+03  0.12699999809E+01 0. -1.
       -4    1    3    3    0  502  0.25931669037E+02 -0.49811504876E+03 -0.38906273920E+03  0.63258397165E+03  0.12699999809E+01 0.  1.
</event>
<event>
 5   0  0.6349142E-03  0.1213846E+04  0.7818609E-02  0.9100823E-01
       -2   -1    0    0    0  501  0.00000000000E+00  0.00000000000E+00  0.33598693578E+03  0.33598693579E+03  0.25500000920E-02 0.  1.
        2   -1    0    0  501    0  0.00000000000E+00  0.00000000000E+00 -0.10963393013E+04  0.10963393013E+04  0.25500000920E-02 0. -1.
    10030    2    1    2    0    0  0.00000000000E+00  0.00000000000E+00 -0.76035236549E+03  0.14323262371E+04  0.12138462546E+04 0.  0.
        1    1    3    3  502    0 -0.58312288518E+03  0.15030907056E+03 -0.29085035637E+03  0.66874437997E+03  0.50400001928E-02 0.  1.
       -1    1    3    3    0  502  0.58312288518E+03 -0.15030907056E+03 -0.46950200911E+03  0.76358185710E+03  0.50400001928E-02 0. -1.
</event>
<event>
 5   0  0.6658994E-03  0.1144362E+04  0.7818609E-02  0.9163001E-01
        2   -1    0    0  501    0  0.00000000000E+00  0.00000000000E+00  0.68402272214E+03  0.68402272215E+03  0.25500000920E-02 0. -1.
       -2   -1    0    0    0  501  0.00000000000E+00  0.00000000000E+00 -0.47862593693E+03  0.47862593693E+03  0.25500000920E-02 0.  1.
    10030    2    1    2    0    0  0.00000000000E+00  0.00000000000E+00  0.20539678521E+03  0.11626486591E+04  0.11443618593E+04 0.  0.
        4    1    3    3  502    0  0.50524478217E+03  0.11352176821E+03 -0.14456265177E+03  0.53764249735E+03  0.12699999809E+01 0. -1.
       -4    1    3    3    0  502 -0.50524478217E+03 -0.11352176821E+03  0.34995943699E+03  0.62500616173E+03  0.12699999809E+01 0.  1.
</event>
<event>
 5   0  0.3772254E-03  0.1215330E+04  0.7818609E-02  0.9099543E-01
       -1   -1    0    0    0  501  0.00000000000E+00  0.00000000000E+00  0.64222022423E+03  0.64222022425E+03  0.50400001928E-02 0.  1.
        1   -1    0    0  501    0  0.00000000000E+00  0.00000000000E+00 -0.57496859651E+03  0.57496859653E+03  0.50400001928E-02 0. -1.
    10030    2    1    2    0    0  0.00000000000E+00  0.00000000000E+00  0.67251627724E+02  0.12171888208E+04  0.12153295207E+04 0.  0.
        3    1    3    3  502    0 -0.10635623260E+02 -0.43745268727E+03 -0.38865709352E+03  0.58526260484E+03  0.10100000352E+00 0. -1.
       -3    1    3    3    0  502  0.10635623260E+02  0.43745268727E+03  0.45590872124E+03  0.63192621594E+03  0.10100000352E+00 0.  1.
</event>
<event>
 5   0  0.6640844E-03  0.1204038E+04  0.7818609E-02  0.9109329E-01
       -2   -1    0    0    0  501  0.00000000000E+00  0.00000000000E+00  0.17386128793E+03  0.17386128795E+03  0.25500000920E-02 0.  1.
        2   -1    0    0  501    0  0.00000000000E+00  0.00000000000E+00 -0.20845755887E+04  0.20845755887E+04  0.25500000920E-02 0. -1.
    10030    2    1    2    0    0  0.00000000000E+00  0.00000000000E+00 -0.19107143007E+04  0.22584368766E+04  0.12040381998E+04 0.  0.
        5    1    3    3  502    0  0.24275795119E+03 -0.48949849398E+03 -0.14293787776E+04  0.15302568341E+04  0.46999998093E+01 0.  1.
       -5    1    3    3    0  502 -0.24275795119E+03  0.48949849398E+03 -0.48133552313E+03  0.72818004251E+03  0.46999998093E+01 0. -1.
</event>
<event>
 5   0  0.3772254E-03  0.1156271E+04  0.7818609E-02  0.9152017E-01
       -1   -1    0    0    0  501  0.00000000000E+00  0.00000000000E+00  0.35362119021E+03  0.35362119025E+03  0.50400001928E-02 0.  1.
        1   -1    0    0  501    0  0.00000000000E+00  0.00000000000E+00 -0.94519487507E+03  0.94519487509E+03  0.50400001928E-02 0. -1.
    10030    2    1    2    0    0  0.00000000000E+00  0.00000000000E+00 -0.59157368486E+03  0.12988160653E+04  0.11562714850E+04 0.  0.
        3    1    3    3  502    0 -0.87342048522E+02  0.39371465041E+03  0.16952898866E+03  0.43746993907E+03  0.10100000352E+00 0.  1.
       -3    1    3    3    0  502  0.87342048522E+02 -0.39371465041E+03 -0.76110267352E+03  0.86134612626E+03  0.10100000352E+00 0. -1.
</event>
<event>
 5   0  0.3772254E-03  0.1207888E+04  0.7818609E-02  0.9105980E-01
       -1   -1    0    0    0  501  0.00000000000E+00  0.00000000000E+00  0.32779187411E+03  0.32779187415E+03  0.50400001928E-02 0. -1.
        1   -1    0    0  501    0  0.00000000000E+00  0.00000000000E+00 -0.11127440005E+04  0.11127440005E+04  0.50400001928E-02 0.  1.
    10030    2    1    2    0    0  0.00000000000E+00  0.00000000000E+00 -0.78495212638E+03  0.14405358747E+04  0.12078881428E+04 0.  0.
        3    1    3    3  502    0 -0.15494814031E+02 -0.10994757861E+03  0.31551463971E+03  0.33448177436E+03  0.10100000352E+00 0. -1.
       -3    1    3    3    0  502  0.15494814031E+02  0.10994757861E+03 -0.11004667661E+04  0.11060541003E+04  0.10100000352E+00 0.  1.
</event>
<event>
 5   0  0.6493047E-03  0.9904274E+03  0.7818609E-02  0.9319107E-01
       -2   -1    0    0    0  501  0.00000000000E+00  0.00000000000E+00  0.82779825907E+03  0.82779825907E+03  0.25500000920E-02 0.  1.
        2   -1    0    0  501    0  0.00000000000E+00  0.00000000000E+00 -0.29625168024E+03  0.29625168025E+03  0.25500000920E-02 0. -1.
    10030    2    1    2    0    0  0.00000000000E+00  0.00000000000E+00  0.53154657883E+03  0.11240499393E+04  0.99042743329E+03 0.  0.
        3    1    3    3  502    0  0.44065168585E+03 -0.20187253456E+03  0.38101142044E+03  0.61651937614E+03  0.10100000352E+00 0. -1.
       -3    1    3    3    0  502 -0.44065168585E+03  0.20187253456E+03  0.15053515839E+03  0.50753056318E+03  0.10100000352E+00 0.  1.
</event>
<event>
 5   0  0.3701879E-03  0.1176872E+04  0.7818609E-02  0.9133345E-01
        1   -1    0    0  501    0  0.00000000000E+00  0.00000000000E+00  0.35927273285E+03  0.35927273289E+03  0.50400001928E-02 0.  1.
       -1   -1    0    0    0  501  0.00000000000E+00  0.00000000000E+00 -0.96377106554E+03  0.96377106556E+03  0.50400001928E-02 0. -1.
    10030    2    1    2    0    0  0.00000000000E+00  0.00000000000E+00 -0.60449833269E+03  0.13230437984E+04  0.11768715556E+04 0.  0.
        1    1    3    3  502    0 -0.21875072894E+03  0.52864129381E+03 -0.45697806471E+03  0.73221748858E+03  0.50400001928E-02 0. -1.
       -1    1    3    3    0  502  0.21875072894E+03 -0.52864129381E+03 -0.14752026798E+03  0.59082630986E+03  0.50400001928E-02 0.  1.
</event>
<event>
 5   0  0.3944074E-03  0.1195733E+04  0.7818609E-02  0.9116600E-01
       -1   -1    0    0    0  501  0.00000000000E+00  0.00000000000E+00  0.46055533931E+03  0.46055533934E+03  0.50400001928E-02 0. -1.
        1   -1    0    0  501    0  0.00000000000E+00  0.00000000000E+00 -0.77611604405E+03  0.77611604407E+03  0.50400001928E-02 0.  1.
    10030    2    1    2    0    0  0.00000000000E+00  0.00000000000E+00 -0.31556070474E+03  0.12366713834E+04  0.11957330606E+04 0.  0.
        4    1    3    3  502    0  0.54890551482E+03 -0.90836215985E+02 -0.38412068860E+03  0.67609082130E+03  0.12699999809E+01 0.  1.
       -4    1    3    3    0  502 -0.54890551482E+03  0.90836215985E+02  0.68559983858E+02  0.56058056211E+03  0.12699999809E+01 0. -1.
</event>
<event>
 5   0  0.3731281E-03  0.1234376E+04  0.7818609E-02  0.9083288E-01
       -1   -1    0    0    0  501  0.00000000000E+00  0.00000000000E+00  0.40890346127E+03  0.40890346130E+03  0.50400001928E-02 0. -1.
        1   -1    0    0  501    0  0.00000000000E+00  0.00000000000E+00 -0.93156771654E+03  0.93156771655E+03  0.50400001928E-02 0.  1.
    10030    2    1    2    0    0  0.00000000000E+00  0.00000000000E+00 -0.52266425527E+03  0.13404711778E+04  0.12343763830E+04 0.  0.
        5    1    3    3  502    0 -0.40840864211E+03  0.23574222996E+03 -0.69370825805E+03  0.83882373311E+03  0.46999998093E+01 0.  1.
       -5    1    3    3    0  502  0.40840864211E+03 -0.23574222996E+03  0.17104400278E+03  0.50164744474E+03  0.46999998093E+01 0. -1.
</event>
<event>
 5   0  0.3944074E-03  0.1181531E+04  0.7818609E-02  0.9129178E-01
        1   -1    0    0  501    0  0.00000000000E+00  0.00000000000E+00  0.83210137241E+03  0.83210137242E+03  0.50400001928E-02 0. -1.
       -1   -1    0    0    0  501  0.00000000000E+00  0.00000000000E+00 -0.41942466334E+03  0.41942466337E+03  0.50400001928E-02 0.  1.
    10030    2    1    2    0    0  0.00000000000E+00  0.00000000000E+00  0.41267670906E+03  0.12515260358E+04  0.11815309357E+04 0.  0.
        4    1    3    3  502    0 -0.38419002104E+03 -0.38532939410E+03  0.45001331763E+03  0.70611211091E+03  0.12699999809E+01 0. -1.
       -4    1    3    3    0  502  0.38419002104E+03  0.38532939410E+03 -0.37336608566E+02  0.54541392489E+03  0.12699999809E+01 0.  1.
</event>
<event>
 5   0  0.3701879E-03  0.1148042E+04  0.7818609E-02  0.9159592E-01
       -1   -1    0    0    0  501  0.00000000000E+00  0.00000000000E+00  0.39246996238E+03  0.39246996241E+03  0.50400001928E-02 0. -1.
        1   -1    0    0  501    0  0.00000000000E+00  0.00000000000E+00 -0.83955446209E+03  0.83955446210E+03  0.50400001928E-02 0.  1.
    10030    2    1    2    0    0  0.00000000000E+00  0.00000000000E+00 -0.44708449971E+03  0.12320244245E+04  0.11480416511E+04 0.  0.
        1    1    3    3  502    0  0.49121021714E+03  0.10285254964E+03 -0.52255317028E+03  0.72451910961E+03  0.50400001928E-02 0.  1.
       -1    1    3    3    0  502 -0.49121021714E+03 -0.10285254964E+03  0.75468670570E+02  0.50750531490E+03  0.50400001928E-02 0. -1.
</event>
<event>
 5   0  0.6658994E-03  0.1166921E+04  0.7818609E-02  0.9142313E-01
        2   -1    0    0  501    0  0.00000000000E+00  0.00000000000E+00  0.14051672145E+04  0.14051672145E+04  0.25500000920E-02 0.  1.
       -2   -1    0    0    0  501  0.00000000000E+00  0.00000000000E+00 -0.24226742863E+03  0.24226742864E+03  0.25500000920E-02 0. -1.
    10030    2    1    2    0    0  0.00000000000E+00  0.00000000000E+00  0.11628997859E+04  0.16474346432E+04  0.11669211591E+04 0.  0.
        4    1    3    3  502    0  0.44401788450E+03  0.23175237709E+03  0.15894433768E+03  0.52547688952E+03  0.12699999809E+01 0. -1.
       -4    1    3    3    0  502 -0.44401788450E+03 -0.23175237709E+03  0.10039554482E+04  0.11219577536E+04  0.12699999809E+01 0.  1.
</event>
<event>
 5   0  0.3944074E-03  0.1187885E+04  0.7818609E-02  0.9123528E-01
       -1   -1    0    0    0  501  0.00000000000E+00  0.00000000000E+00  0.20985529510E+03  0.20985529516E+03  0.50400001928E-02 0.  1.
        1   -1    0    0  501    0  0.00000000000E+00  0.00000000000E+00 -0.16810037168E+04  0.16810037168E+04  0.50400001928E-02 0. -1.
    10030    2    1    2    0    0  0.00000000000E+00  0.00000000000E+00 -0.14711484217E+04  0.18908590119E+04  0.11878847269E+04 0.  0.
        4    1    3    3  502    0  0.35907859241E+03 -0.47309413793E+03 -0.73043608409E+03  0.94143188002E+03  0.12699999809E+01 0. -1.
       -4    1    3    3    0  502 -0.35907859241E+03  0.47309413793E+03 -0.74071233757E+03  0.94942713191E+03  0.12699999809E+01 0.  1.
</event>
<event>
 5   0  0.3944074E-03  0.1208267E+04  0.7818609E-02  0.9105651E-01
        1   -1    0    0  501    0  0.00000000000E+00  0.00000000000E+00  0.53024986830E+03  0.53024986833E+03  0.50400001928E-02 0. -1.
       -1   -1    0    0    0  501  0.00000000000E+00  0.00000000000E+00 -0.68831221051E+03  0.68831221053E+03  0.50400001928E-02 0.  1.
    10030    2    1    2    0    0  0.00000000000E+00  0.00000000000E+00 -0.15806234221E+03  0.12185620789E+04  0.12082672867E+04 0.  0.
        4    1    3    3  502    0 -0.26434629207E+03 -0.32280591104E+03  0.36160475399E+03  0.55212519354E+03  0.12699999809E+01 0. -1.
       -4    1    3    3    0  502  0.26434629207E+03  0.32280591104E+03 -0.51966709620E+03  0.66643688531E+03  0.12699999809E+01 0.  1.
</event>
<event>
 5   0  0.3772254E-03  0.1185414E+04  0.7818609E-02  0.9125721E-01
       -1   -1    0    0    0  501  0.00000000000E+00  0.00000000000E+00  0.65265966642E+03  0.65265966644E+03  0.50400001928E-02 0. -1.
        1   -1    0    0  501    0  0.00000000000E+00  0.00000000000E+00 -0.53826127078E+03  0.53826127080E+03  0.50400001928E-02 0.  1.
    10030    2    1    2    0    0  0.00000000000E+00  0.00000000000E+00  0.11439839564E+03  0.11909209372E+04  0.11854137193E+04 0.  0.
        3    1    3    3  502    0  0.17852142888E+03 -0.39268932217E+03 -0.35116999674E+03  0.55623302772E+03  0.10100000352E+00 0.  1.
       -3    1    3    3    0  502 -0.17852142888E+03  0.39268932217E+03  0.46556839238E+03  0.63468790953E+03  0.10100000352E+00 0. -1.
</event>
<event>
 5   0  0.3772254E-03  0.1208187E+04  0.7818609E-02  0.9105721E-01
        1   -1    0    0  501    0  0.00000000000E+00  0.00000000000E+00  0.64637243127E+03  0.64637243129E+03  0.50400001928E-02 0.  1.
       -1   -1    0    0    0  501  0.00000000000E+00  0.00000000000E+00 -0.56457990811E+03  0.56457990813E+03  0.50400001928E-02 0. -1.
    10030    2    1    2    0    0  0.00000000000E+00  0.00000000000E+00  0.81792523157E+02  0.12109523394E+04  0.12081868860E+04 0.  0.
        3    1    3    3  502    0  0.32439227387E+03 -0.42751155889E+03 -0.23710551166E+03  0.58669882750E+03  0.10100000352E+00 0.  1.
       -3    1    3    3    0  502 -0.32439227387E+03  0.42751155889E+03  0.31889803482E+03  0.62425351192E+03  0.10100000352E+00 0. -1.
</event>
<event>
 5   0  0.6658994E-03  0.1220945E+04  0.7818609E-02  0.9094719E-01
        2   -1    0    0  501    0  0.00000000000E+00  0.00000000000E+00  0.22705065654E+04  0.22705065654E+04  0.25500000920E-02 0. -1.
       -2   -1    0    0    0  501  0.00000000000E+00  0.00000000000E+00 -0.16413801900E+03  0.16413801902E+03  0.25500000920E-02 0.  1.
    10030    2    1    2    0    0  0.00000000000E+00  0.00000000000E+00  0.21063685464E+04  0.24346445844E+04  0.12209446340E+04 0.  0.
        4    1    3    3  502    0 -0.53846961750E+03  0.23429327875E+03  0.13858526769E+04  0.15051352512E+04  0.12699999809E+01 0. -1.
       -4    1    3    3    0  502  0.53846961750E+03 -0.23429327875E+03  0.72051586950E+03  0.92950933322E+03  0.12699999809E+01 0.  1.
</event>
<event>
 5   0  0.3648616E-03  0.9348467E+03  0.7818609E-02  0.9383040E-01
       -1   -1    0    0    0  501  0.00000000000E+00  0.00000000000E+00  0.29549662618E+03  0.29549662622E+03  0.50400001928E-02 0.  1.
        1   -1    0    0  501    0  0.00000000000E+00  0.00000000000E+00 -0.73938100624E+03  0.73938100625E+03  0.50400001928E-02 0. -1.
    10030    2    1    2    0    0  0.00000000000E+00  0.00000000000E+00 -0.44388438006E+03  0.10348776325E+04  0.93484671007E+03 0.  0.
        2    1    3    3  502    0  0.33824398418E+03 -0.46908891204E+02 -0.57527400116E+03  0.66899148973E+03  0.25500000920E-02 0.  1.
       -2    1    3    3    0  502 -0.33824398418E+03  0.46908891204E+02  0.13138962110E+03  0.36588614274E+03  0.25500000920E-02 0. -1.
</event>
<event>
 5   0  0.3944074E-03  0.1208401E+04  0.7818609E-02  0.9105534E-01
        1   -1    0    0  501    0  0.00000000000E+00  0.00000000000E+00  0.11427343450E+04  0.11427343450E+04  0.50400001928E-02 0.  1.
       -1   -1    0    0    0  501  0.00000000000E+00  0.00000000000E+00 -0.31946051535E+03  0.31946051539E+03  0.50400001928E-02 0. -1.
    10030    2    1    2    0    0  0.00000000000E+00  0.00000000000E+00  0.82327382968E+03  0.14621948604E+04  0.12084014280E+04 0.  0.
        4    1    3    3  502    0 -0.28499433173E+03 -0.29627072553E+03 -0.12414391297E+03  0.42943152650E+03  0.12699999809E+01 0. -1.
       -4    1    3    3    0  502  0.28499433173E+03  0.29627072553E+03  0.94741774266E+03  0.10327633339E+04  0.12699999809E+01 0.  1.
</event>
<event>
 5   0  0.6658994E-03  0.1196884E+04  0.7818609E-02  0.9115589E-01
        2   -1    0    0  501    0  0.00000000000E+00  0.00000000000E+00  0.15203433607E+04  0.15203433607E+04  0.25500000920E-02 0.  1.
       -2   -1    0    0    0  501  0.00000000000E+00  0.00000000000E+00 -0.23556040820E+03  0.23556040821E+03  0.25500000920E-02 0. -1.
    10030    2    1    2    0    0  0.00000000000E+00  0.00000000000E+00  0.12847829525E+04  0.17559037689E+04  0.11968837916E+04 0.  0.
        4    1    3    3  502    0 -0.29354185194E+03 -0.52131742859E+03  0.62204158684E+03  0.86306200753E+03  0.12699999809E+01 0.  1.
       -4    1    3    3    0  502  0.29354185194E+03  0.52131742859E+03  0.66274136562E+03  0.89284176134E+03  0.12699999809E+01 0. -1.
</event>
<event>
 5   0  0.6640844E-03  0.1284532E+04  0.7818609E-02  0.9041922E-01
       -2   -1    0    0    0  501  0.00000000000E+00  0.00000000000E+00  0.29462586835E+03  0.29462586836E+03  0.25500000920E-02 0.  1.
        2   -1    0    0  501    0  0.00000000000E+00  0.00000000000E+00 -0.14000990176E+04  0.14000990176E+04  0.25500000920E-02 0. -1.
    10030    2    1    2    0    0  0.00000000000E+00  0.00000000000E+00 -0.11054731493E+04  0.16947248860E+04  0.12845316483E+04 0.  0.
        5    1    3    3  502    0  0.42669513085E+03  0.33340795290E+03 -0.97129634212E+02  0.55016893187E+03  0.46999998093E+01 0.  1.
       -5    1    3    3    0  502 -0.42669513085E+03 -0.33340795290E+03 -0.10083435151E+04  0.11445559541E+04  0.46999998093E+01 0. -1.
</event>
<event>
 5   0  0.3944074E-03  0.1230666E+04  0.7818609E-02  0.9086430E-01
        1   -1    0    0  501    0  0.00000000000E+00  0.00000000000E+00  0.24266555047E+03  0.24266555052E+03  0.50400001928E-02 0. -1.
       -1   -1    0    0    0  501  0.00000000000E+00  0.00000000000E+00 -0.15603141160E+04  0.15603141161E+04  0.50400001928E-02 0.  1.
    10030    2    1    2    0    0  0.00000000000E+00  0.00000000000E+00 -0.13176485656E+04  0.18029796666E+04  0.12306656474E+04 0.  0.
        4    1    3    3  502    0  0.56499413793E+03  0.23252124150E+03 -0.76596668200E+03  0.97979134232E+03  0.12699999809E+01 0. -1.
       -4    1    3    3    0  502 -0.56499413793E+03 -0.23252124150E+03 -0.55168188357E+03  0.82318832426E+03  0.12699999809E+01 0.  1.
</event>
<event>
 5   0  0.6658994E-03  0.1197689E+04  0.7818609E-02  0.9114881E-01
        2   -1    0    0  501    0  0.00000000000E+00  0.00000000000E+00  0.18206038182E+04  0.18206038182E+04  0.25500000920E-02 0.  1.
       -2   -1    0    0    0  501  0.00000000000E+00  0.00000000000E+00 -0.19697582832E+03  0.19697582833E+03  0.25500000920E-02 0. -1.
    10030    2    1    2    0    0  0.00000000000E+00  0.00000000000E+00  0.16236279899E+04  0.20175796465E+04  0.11976893506E+04 0.  0.
        4    1    3    3  502    0  0.26007556400E+03  0.40059856048E+03  0.20328237802E+03  0.51907980481E+03  0.12699999809E+01 0. -1.
       -4    1    3    3    0  502 -0.26007556400E+03 -0.40059856048E+03  0.14203456119E+04  0.14984998417E+04  0.12699999809E+01 0.  1.
</event>
<event>
 5   0  0.6493047E-03  0.1081430E+04  0.7818609E-02  0.9223483E-01
        2   -1    0    0  501    0  0.00000000000E+00  0.00000000000E+00  0.24361802753E+04  0.24361802753E+04  0.25500000920E-02 0. -1.
       -2   -1    0    0    0  501  0.00000000000E+00  0.00000000000E+00 -0.12001268947E+03  0.12001268950E+03  0.25500000920E-02 0.  1.
    10030    2    1    2    0    0  0.00000000000E+00  0.00000000000E+00  0.23161675858E+04  0.25561929648E+04  0.10814296961E+04 0.  0.
        3    1    3    3  502    0 -0.35011902346E+03 -0.12863532575E+03  0.23277971696E+03  0.43967804635E+03  0.10100000352E+00 0.  1.
       -3    1    3    3    0  502  0.35011902346E+03  0.12863532575E+03  0.20833878689E+04  0.21165149185E+04  0.10100000352E+00 0. -1.
</event>
<event>
 5   0  0.3731281E-03  0.1193164E+04  0.7818609E-02  0.9118862E-01
        1   -1    0    0  501    0  0.00000000000E+00  0.00000000000E+00  0.95297668017E+03  0.95297668018E+03  0.50400001928E-02 0. -1.
       -1   -1    0    0    0  501  0.00000000000E+00  0.00000000000E+00 -0.37347173246E+03  0.37347173250E+03  0.50400001928E-02 0.  1.
    10030    2    1    2    0    0  0.00000000000E+00  0.00000000000E+00  0.57950494770E+03  0.13264484127E+04  0.11931636129E+04 0.  0.
        5    1    3    3  502    0  0.39158917748E+03  0.33441360612E+03 -0.45078518803E+02  0.51694168601E+03  0.46999998093E+01 0.  1.
       -5    1    3    3    0  502 -0.39158917748E+03 -0.33441360612E+03  0.62458346651E+03  0.80950672666E+03  0.46999998093E+01 0. -1.
</event>
<event>
 5   0  0.6585930E-03  0.1190787E+04  0.7818609E-02  0.9120959E-01
       -2   -1    0    0    0  501  0.00000000000E+00  0.00000000000E+00  0.47782102000E+03  0.47782102000E+03  0.25500000920E-02 0.  1.
        2   -1    0    0  501    0  0.00000000000E+00  0.00000000000E+00 -0.74189590813E+03  0.74189590813E+03  0.25500000920E-02 0. -1.
    10030    2    1    2    0    0  0.00000000000E+00  0.00000000000E+00 -0.26407488813E+03  0.12197169281E+04  0.11907870667E+04 0.  0.
        2    1    3    3  502    0 -0.56907473178E+03  0.73562537719E+02  0.30680285845E+02  0.57462925200E+03  0.25500000920E-02 0. -1.
       -2    1    3    3    0  502  0.56907473178E+03 -0.73562537719E+02 -0.29475517397E+03  0.64508767613E+03  0.25500000920E-02 0.  1.
</event>
<event>
 5   0  0.3731281E-03  0.1169947E+04  0.7818609E-02  0.9139577E-01
       -1   -1    0    0    0  501  0.00000000000E+00  0.00000000000E+00  0.33489108293E+03  0.33489108297E+03  0.50400001928E-02 0. -1.
        1   -1    0    0  501    0  0.00000000000E+00  0.00000000000E+00 -0.10218060952E+04  0.10218060952E+04  0.50400001928E-02 0.  1.
    10030    2    1    2    0    0  0.00000000000E+00  0.00000000000E+00 -0.68691501222E+03  0.13566971781E+04  0.11699465796E+04 0.  0.
        5    1    3    3  502    0 -0.18138256963E+02  0.19881127860E+03 -0.98105703386E+03  0.10011742678E+04  0.46999998093E+01 0.  1.
       -5    1    3    3    0  502  0.18138256963E+02 -0.19881127860E+03  0.29414202164E+03  0.35552291031E+03  0.46999998093E+01 0. -1.
</event>
<event>
 5   0  0.6585930E-03  0.1207408E+04  0.7818609E-02  0.9106397E-01
        2   -1    0    0  501    0  0.00000000000E+00  0.00000000000E+00  0.29267694998E+03  0.29267694999E+03  0.25500000920E-02 0. -1.
       -2   -1    0    0    0  501  0.00000000000E+00  0.00000000000E+00 -0.12452589893E+04  0.12452589893E+04  0.25500000920E-02 0.  1.
    10030    2    1    2    0    0  0.00000000000E+00  0.00000000000E+00 -0.95258203933E+03  0.15379359393E+04  0.12074081380E+04 0.  0.
        2    1    3    3  502    0  0.94443774328E+02  0.24395409133E+02 -0.12351550520E+04  0.12390007122E+04  0.25500000920E-02 0.  1.
       -2    1    3    3    0  502 -0.94443774328E+02 -0.24395409133E+02  0.28257301265E+03  0.29893522706E+03  0.25500000920E-02 0. -1.
</event>
<event>
 5   0  0.3772254E-03  0.1132221E+04  0.7818609E-02  0.9174344E-01
        1   -1    0    0  501    0  0.00000000000E+00  0.00000000000E+00  0.22584095602E+04  0.22584095602E+04  0.50400001928E-02 0. -1.
       -1   -1    0    0    0  501  0.00000000000E+00  0.00000000000E+00 -0.14190563147E+03  0.14190563155E+03  0.50400001928E-02 0.  1.
    10030    2    1    2    0    0  0.00000000000E+00  0.00000000000E+00  0.21165039288E+04  0.24003151918E+04  0.11322208881E+04 0.  0.
        3    1    3    3  502    0  0.14398757650E+03  0.16506693137E+03  0.21649307073E+04  0.21759835687E+04  0.10100000352E+00 0. -1.
       -3    1    3    3    0  502 -0.14398757650E+03 -0.16506693137E+03 -0.48426778499E+02  0.22433162304E+03  0.10100000352E+00 0.  1.
</event>
<event>
 5   0  0.6493047E-03  0.1112029E+04  0.7818609E-02  0.9193547E-01
       -2   -1    0    0    0  501  0.00000000000E+00  0.00000000000E+00  0.25441846156E+03  0.25441846157E+03  0.25500000920E-02 0.  1.
        2   -1    0    0  501    0  0.00000000000E+00  0.00000000000E+00 -0.12151318995E+04  0.12151318995E+04  0.25500000920E-02 0. -1.
    10030    2    1    2    0    0  0.00000000000E+00  0.00000000000E+00 -0.96071343789E+03  0.14695503610E+04  0.11120287559E+04 0.  0.
        3    1    3    3  502    0 -0.41778226582E+02 -0.34454283485E+03  0.93694595356E+02  0.35949113016E+03  0.10100000352E+00 0.  1.
       -3    1    3    3    0  502  0.41778226582E+02  0.34454283485E+03 -0.10544080332E+04  0.11100592309E+04  0.10100000352E+00 0. -1.
</event>
<event>
 5   0  0.3648616E-03  0.1186551E+04  0.7818609E-02  0.9124710E-01
        1   -1    0    0  501    0  0.00000000000E+00  0.00000000000E+00  0.58442651625E+03  0.58442651627E+03  0.50400001928E-02 0.  1.
       -1   -1    0    0    0  501  0.00000000000E+00  0.00000000000E+00 -0.60225889737E+03  0.60225889739E+03  0.50400001928E-02 0. -1.
    10030    2    1    2    0    0  0.00000000000E+00  0.00000000000E+00 -0.17832381120E+02  0.11866854137E+04  0.11865514220E+04 0.  0.
        2    1    3    3  502    0  0.28169754595E+03 -0.49534512458E+03  0.15619566704E+03  0.59086156268E+03  0.25500000920E-02 0.  1.
       -2    1    3    3    0  502 -0.28169754595E+03  0.49534512458E+03 -0.17402804816E+03  0.59582385098E+03  0.25500000920E-02 0. -1.
</event>
<event>
 5   0  0.3701879E-03  0.1208560E+04  0.7818609E-02  0.9105397E-01
       -1   -1    0    0    0  501  0.00000000000E+00  0.00000000000E+00  0.35747330366E+03  0.35747330369E+03  0.50400001928E-02 0.  1.
        1   -1    0    0  501    0  0.00000000000E+00  0.00000000000E+00 -0.10214869959E+04  0.10214869960E+04  0.50400001928E-02 0. -1.
    10030    2    1    2    0    0  0.00000000000E+00  0.00000000000E+00 -0.66401369228E+03  0.13789602996E+04  0.12085600210E+04 0.  0.
        1    1    3    3  502    0  0.28027932541E+03  0.31735115953E+03 -0.82394098773E+03  0.92636224556E+03  0.50400001928E-02 0. -1.
       -1    1    3    3    0  502 -0.28027932541E+03 -0.31735115953E+03  0.15992729545E+03  0.45259805409E+03  0.50400001928E-02 0.  1.
</event>
<event>
 5   0  0.6585930E-03  0.1228758E+04  0.7818609E-02  0.9088051E-01
        2   -1    0    0  501    0  0.00000000000E+00  0.00000000000E+00  0.74533987356E+03  0.74533987356E+03  0.25500000920E-02 0. -1.
       -2   -1    0    0    0  501  0.00000000000E+00  0.00000000000E+00 -0.50642855119E+03  0.50642855120E+03  0.25500000920E-02 0.  1.
    10030    2    1    2    0    0  0.00000000000E+00  0.00000000000E+00  0.23891132236E+03  0.12517684248E+04  0.12287577342E+04 0.  0.
        2    1    3    3  502    0 -0.18165639054E+03 -0.33741214311E+03 -0.36976171583E+03  0.53251265247E+03  0.25500000920E-02 0.  1.
       -2    1    3    3    0  502  0.18165639054E+03  0.33741214311E+03  0.60867303819E+03  0.71925577229E+03  0.25500000920E-02 0. -1.
</event>
<event>
 5   0  0.3772254E-03  0.1116197E+04  0.7818609E-02  0.9189547E-01
       -1   -1    0    0    0  501  0.00000000000E+00  0.00000000000E+00  0.40777684255E+03  0.40777684259E+03  0.50400001928E-02 0. -1.
        1   -1    0    0  501    0  0.00000000000E+00  0.00000000000E+00 -0.76383426085E+03  0.76383426087E+03  0.50400001928E-02 0.  1.
    10030    2    1    2    0    0  0.00000000000E+00  0.00000000000E+00 -0.35605741830E+03  0.11716111035E+04  0.11161969775E+04 0.  0.
        3    1    3    3  502    0 -0.31532674864E+03 -0.14108537865E+03 -0.63812541427E+03  0.72563082695E+03  0.10100000352E+00 0.  1.
       -3    1    3    3    0  502  0.31532674864E+03  0.14108537865E+03  0.28206799597E+03  0.44598027650E+03  0.10100000352E+00 0. -1.
</event>
<event>
 5   0  0.6658994E-03  0.1172257E+04  0.7818609E-02  0.9137493E-01
        2   -1    0    0  501    0  0.00000000000E+00  0.00000000000E+00  0.11704547743E+04  0.11704547743E+04  0.25500000920E-02 0. -1.
       -2   -1    0    0    0  501  0.00000000000E+00  0.00000000000E+00 -0.29351531405E+03  0.29351531406E+03  0.25500000920E-02 0.  1.
    10030    2    1    2    0    0  0.00000000000E+00  0.00000000000E+00  0.87693946028E+03  0.14639700884E+04  0.11722566284E+04 0.  0.
        4    1    3    3  502    0  0.54926172065E+03 -0.30440001101E+02  0.69112542165E+03  0.88332949277E+03  0.12699999809E+01 0. -1.
       -4    1    3    3    0  502 -0.54926172065E+03  0.30440001101E+02  0.18581403863E+03  0.58064059563E+03  0.12699999809E+01 0.  1.
</event>
<event>
 5   0  0.6493047E-03  0.1201676E+04  0.7818609E-02  0.9111391E-01
       -2   -1    0    0    0  501  0.00000000000E+00  0.00000000000E+00  0.32197860560E+03  0.32197860561E+03  0.25500000920E-02 0. -1.
        2   -1    0    0  501    0  0.00000000000E+00  0.00000000000E+00 -0.11212121774E+04  0.11212121774E+04  0.25500000920E-02 0.  1.
    10030    2    1    2    0    0  0.00000000000E+00  0.00000000000E+00 -0.79923357180E+03  0.14431907830E+04  0.12016760520E+04 0.  0.
        3    1    3    3  502    0 -0.18910026478E+03  0.46460422783E+03 -0.79683192813E+03  0.94157162794E+03  0.10100000352E+00 0.  1.
       -3    1    3    3    0  502  0.18910026478E+03 -0.46460422783E+03 -0.24016436754E+01  0.50161915508E+03  0.10100000352E+00 0. -1.
</event>
<event>
 5   0  0.6640844E-03  0.1264774E+04  0.7818609E-02  0.9057976E-01
       -2   -1    0    0    0  501  0.00000000000E+00  0.00000000000E+00  0.59629929779E+03  0.59629929780E+03  0.25500000920E-02 0. -1.
        2   -1    0    0  501    0  0.00000000000E+00  0.00000000000E+00 -0.67065865381E+03  0.67065865381E+03  0.25500000920E-02 0.  1.
    10030    2    1    2    0    0  0.00000000000E+00  0.00000000000E+00 -0.74359356016E+02  0.12669579516E+04  0.12647739471E+04 0.  0.
        5    1    3    3  502    0  0.36809762427E+02  0.56016605716E+03  0.25444194199E+03  0.61636333607E+03  0.46999998093E+01 0. -1.
       -5    1    3    3    0  502 -0.36809762427E+02 -0.56016605716E+03 -0.32880129801E+03  0.65059461554E+03  0.46999998093E+01 0.  1.
</event>
<event>
 5   0  0.3944074E-03  0.1172097E+04  0.7818609E-02  0.9137637E-01
        1   -1    0    0  501    0  0.00000000000E+00  0.00000000000E+00  0.39713403402E+03  0.39713403405E+03  0.50400001928E-02 0. -1.
       -1   -1    0    0    0  501  0.00000000000E+00  0.00000000000E+00 -0.86482884362E+03  0.86482884363E+03  0.50400001928E-02 0.  1.
    10030    2    1    2    0    0  0.00000000000E+00  0.00000000000E+00 -0.46769480960E+03  0.12619628777E+04  0.11720972100E+04 0.  0.
        4    1    3    3  502    0 -0.11934799671E+03  0.34689331122E+03 -0.72591358678E+03  0.81334559817E+03  0.12699999809E+01 0.  1.
       -4    1    3    3    0  502  0.11934799671E+03 -0.34689331122E+03  0.25821877718E+03  0.44861727951E+03  0.12699999809E+01 0. -1.
</event>
<event>
 5   0  0.3701879E-03  0.1107133E+04  0.7818609E-02  0.9198267E-01
       -1   -1    0    0    0  501  0.00000000000E+00  0.00000000000E+00  0.22261135413E+03  0.22261135419E+03  0.50400001928E-02 0. -1.
        1   -1    0    0  501    0  0.00000000000E+00  0.00000000000E+00 -0.13765520333E+04  0.13765520333E+04  0.50400001928E-02 0.  1.
    10030    2    1    2    0    0  0.00000000000E+00  0.00000000000E+00 -0.11539406792E+04  0.15991633875E+04  0.11071334377E+04 0.  0.
        1    1    3    3  502    0  0.41430602597E+03  0.34644324118E+03 -0.40146488493E+03  0.67293867208E+03  0.50400001928E-02 0. -1.
       -1    1    3    3    0  502 -0.41430602597E+03 -0.34644324118E+03 -0.75247579423E+03  0.92622471542E+03  0.50400001928E-02 0.  1.
</event>
<event>
 5   0  0.3731281E-03  0.1231054E+04  0.7818609E-02  0.9086101E-01
       -1   -1    0    0    0  501  0.00000000000E+00  0.00000000000E+00  0.28322810063E+03  0.28322810067E+03  0.50400001928E-02 0. -1.
        1   -1    0    0  501    0  0.00000000000E+00  0.00000000000E+00 -0.13376963692E+04  0.13376963692E+04  0.50400001928E-02 0.  1.
    10030    2    1    2    0    0  0.00000000000E+00  0.00000000000E+00 -0.10544682686E+04  0.16209244699E+04  0.12310535356E+04 0.  0.
        5    1    3    3  502    0  0.40895268592E+03  0.32261037419E+03 -0.95900507127E+03  0.10913443863E+04  0.46999998093E+01 0.  1.
       -5    1    3    3    0  502 -0.40895268592E+03 -0.32261037419E+03 -0.95463197300E+02  0.52958008355E+03  0.46999998093E+01 0. -1.
</event>
<event>
 5   0  0.6658994E-03  0.1199680E+04  0.7818609E-02  0.9113136E-01
        2   -1    0    0  501    0  0.00000000000E+00  0.00000000000E+00  0.22374279396E+04  0.22374279396E+04  0.25500000920E-02 0.  1.
       -2   -1    0    0    0  501  0.00000000000E+00  0.00000000000E+00 -0.16081333567E+03  0.16081333569E+03  0.25500000920E-02 0. -1.
    10030    2    1    2    0    0  0.00000000000E+00  0.00000000000E+00  0.20766146039E+04  0.23982412753E+04  0.11996803746E+04 0.  0.
        4    1    3    3  502    0 -0.10370797022E+03  0.58846737613E+03  0.93333360872E+03  0.11082249022E+04  0.12699999809E+01 0. -1.
       -4    1    3    3    0  502  0.10370797022E+03 -0.58846737613E+03  0.11432809952E+04  0.12900163730E+04  0.12699999809E+01 0.  1.
</event>
<event>
 5   0  0.6349142E-03  0.1242020E+04  0.7818609E-02  0.9076851E-01
        2   -1    0    0  501    0  0.00000000000E+00  0.00000000000E+00  0.13469506622E+04  0.13469506622E+04  0.25500000920E-02 0.  1.
       -2   -1    0    0    0  501  0.00000000000E+00  0.00000000000E+00 -0.28631612068E+03  0.28631612069E+03  0.25500000920E-02 0. -1.
    10030    2    1    2    0    0  0.00000000000E+00  0.00000000000E+00  0.10606345415E+04  0.16332667829E+04  0.12420204320E+04 0.  0.
        1    1    3    3  502    0 -0.11247329617E+03  0.59802508714E+03  0.69334347895E+03  0.92250172197E+03  0.50400001928E-02 0. -1.
       -1    1    3    3    0  502  0.11247329617E+03 -0.59802508714E+03  0.36729106259E+03  0.71076506096E+03  0.50400001928E-02 0.  1.
</event>
<event>
 5   0  0.6640844E-03  0.1190263E+04  0.7818609E-02  0.9121422E-01
        2   -1    0    0  501    0  0.00000000000E+00  0.00000000000E+00  0.10042898968E+04  0.10042898968E+04  0.25500000920E-02 0.  1.
       -2   -1    0    0    0  501  0.00000000000E+00  0.00000000000E+00 -0.35266861794E+03  0.35266861795E+03  0.25500000920E-02 0. -1.
    10030    2    1    2    0    0  0.00000000000E+00  0.00000000000E+00  0.65162127884E+03  0.13569585147E+04  0.11902630464E+04 0.  0.
        5    1    3    3  502    0 -0.97541429296E+02  0.57878478184E+03  0.21379950333E+03  0.62469070086E+03  0.46999998093E+01 0.  1.
       -5    1    3    3    0  502  0.97541429296E+02 -0.57878478184E+03  0.43782177551E+03  0.73226781387E+03  0.46999998093E+01 0. -1.
</event>
<event>
 5   0  0.6658994E-03  0.1239730E+04  0.7818609E-02  0.9078774E-01
        2   -1    0    0  501    0  0.00000000000E+00  0.00000000000E+00  0.18290828558E+04  0.18290828558E+04  0.25500000920E-02 0.  1.
       -2   -1    0    0    0  501  0.00000000000E+00  0.00000000000E+00 -0.21006848990E+03  0.21006848992E+03  0.25500000920E-02 0. -1.
    10030    2    1    2    0    0  0.00000000000E+00  0.00000000000E+00  0.16190143659E+04  0.20391513457E+04  0.12397300891E+04 0.  0.
        4    1    3    3  502    0  0.61466710744E+03 -0.38693361480E+02  0.92485962561E+03  0.11111614505E+04  0.12699999809E+01 0. -1.
       -4    1    3    3    0  502 -0.61466710744E+03  0.38693361480E+02  0.69415474030E+03  0.92798989519E+03  0.12699999809E+01 0.  1.
</event>
<event>
 5   0  0.6585930E-03  0.1207708E+04  0.7818609E-02  0.9106136E-01
        2   -1    0    0  501    0  0.00000000000E+00  0.00000000000E+00  0.75051746780E+03  0.75051746780E+03  0.25500000920E-02 0. -1.
       -2   -1    0    0    0  501  0.00000000000E+00  0.00000000000E+00 -0.48585113276E+03  0.48585113276E+03  0.25500000920E-02 0.  1.
    10030    2    1    2    0    0  0.00000000000E+00  0.00000000000E+00  0.26466633504E+03  0.12363686006E+04  0.12077081798E+04 0.  0.
        2    1    3    3  502    0 -0.32372351967E+03 -0.28850542271E+03 -0.29788672606E+03  0.52608820334E+03  0.25500000920E-02 0.  1.
       -2    1    3    3    0  502  0.32372351967E+03  0.28850542271E+03  0.56255306110E+03  0.71028039723E+03  0.25500000920E-02 0. -1.
</event>
<event>
 5   0  0.6640844E-03  0.1239221E+04  0.7818609E-02  0.9079203E-01
       -2   -1    0    0    0  501  0.00000000000E+00  0.00000000000E+00  0.15375533864E+03  0.15375533866E+03  0.25500000920E-02 0.  1.
        2   -1    0    0  501    0  0.00000000000E+00  0.00000000000E+00 -0.24969349632E+04  0.24969349632E+04  0.25500000920E-02 0. -1.
    10030    2    1    2    0    0  0.00000000000E+00  0.00000000000E+00 -0.23431796245E+04  0.26506903018E+04  0.12392208534E+04 0.  0.
        5    1    3    3  502    0 -0.32587784976E+03 -0.39184183632E+03 -0.19252900767E+04  0.19916074832E+04  0.46999998093E+01 0. -1.
       -5    1    3    3    0  502  0.32587784976E+03  0.39184183632E+03 -0.41788954783E+03  0.65908281865E+03  0.46999998093E+01 0.  1.
</event>
<event>
 5   0  0.6640844E-03  0.1205087E+04  0.7818609E-02  0.9108416E-01
       -2   -1    0    0    0  501  0.00000000000E+00  0.00000000000E+00  0.21514438230E+03  0.21514438232E+03  0.25500000920E-02 0. -1.
        2   -1    0    0  501    0  0.00000000000E+00  0.00000000000E+00 -0.16875115691E+04  0.16875115691E+04  0.25500000920E-02 0.  1.
    10030    2    1    2    0    0  0.00000000000E+00  0.00000000000E+00 -0.14723671868E+04  0.19026559514E+04  0.12050869416E+04 0.  0.
        5    1    3    3  502    0 -0.49767788690E+03  0.22132237957E+03 -0.11429327963E+04  0.12660901791E+04  0.46999998093E+01 0.  1.
       -5    1    3    3    0  502  0.49767788690E+03 -0.22132237957E+03 -0.32943439047E+03  0.63656577227E+03  0.46999998093E+01 0. -1.
</event>
<event>
 5   0  0.3648616E-03  0.1153122E+04  0.7818609E-02  0.9154908E-01
       -1   -1    0    0    0  501  0.00000000000E+00  0.00000000000E+00  0.21020763102E+03  0.21020763108E+03  0.50400001928E-02 0. -1.
        1   -1    0    0  501    0  0.00000000000E+00  0.00000000000E+00 -0.15814013697E+04  0.15814013697E+04  0.50400001928E-02 0.  1.
    10030    2    1    2    0    0  0.00000000000E+00  0.00000000000E+00 -0.13711937387E+04  0.17916090008E+04  0.11531220849E+04 0.  0.
        2    1    3    3  502    0 -0.44664494574E+03 -0.10919807300E+03 -0.14512552781E+03  0.48215904588E+03  0.25500000920E-02 0. -1.
       -2    1    3    3    0  502  0.44664494574E+03  0.10919807300E+03 -0.12260682109E+04  0.13094499549E+04  0.25500000920E-02 0.  1.
</event>
<event>
 5   0  0.3648616E-03  0.1194648E+04  0.7818609E-02  0.9117554E-01
        1   -1    0    0  501    0  0.00000000000E+00  0.00000000000E+00  0.42579562441E+03  0.42579562444E+03  0.50400001928E-02 0.  1.
       -1   -1    0    0    0  501  0.00000000000E+00  0.00000000000E+00 -0.83795108086E+03  0.83795108087E+03  0.50400001928E-02 0. -1.
    10030    2    1    2    0    0  0.00000000000E+00  0.00000000000E+00 -0.41215545644E+03  0.12637467053E+04  0.11946479042E+04 0.  0.
        2    1    3    3  502    0 -0.28745243224E+03 -0.50221052564E+03 -0.36280808082E+03  0.68298903094E+03  0.25500000920E-02 0. -1.
       -2    1    3    3    0  502  0.28745243224E+03  0.50221052564E+03 -0.49347375626E+02  0.58075767438E+03  0.25500000920E-02 0.  1.
</event>
<event>
 5   0  0.2537625E-03  0.6919137E+03  0.7818609E-02  0.9731162E-01
        4   -1    0    0  501    0  0.00000000000E+00  0.00000000000E+00  0.45803213165E+03  0.45803389234E+03  0.12699999809E+01 0.  1.
       -4   -1    0    0    0  501  0.00000000000E+00  0.00000000000E+00 -0.26130132346E+03  0.26130440973E+03  0.12699999809E+01 0. -1.
    10030    2    1    2    0    0  0.00000000000E+00  0.00000000000E+00  0.19673080819E+03  0.71933830206E+03  0.69191370988E+03 0.  0.
        4    1    3    3  502    0  0.97395483367E+02 -0.10137906010E+03  0.42699714076E+03  0.44954617686E+03  0.12699999809E+01 0.  1.
       -4    1    3    3    0  502 -0.97395483367E+02  0.10137906010E+03 -0.23026633257E+03  0.26979212521E+03  0.12699999809E+01 0. -1.
</event>
<event>
 5   0  0.3772254E-03  0.1234938E+04  0.7818609E-02  0.9082813E-01
        1   -1    0    0  501    0  0.00000000000E+00  0.00000000000E+00  0.86486089853E+03  0.86486089854E+03  0.50400001928E-02 0.  1.
       -1   -1    0    0    0  501  0.00000000000E+00  0.00000000000E+00 -0.44084298500E+03  0.44084298503E+03  0.50400001928E-02 0. -1.
    10030    2    1    2    0    0  0.00000000000E+00  0.00000000000E+00  0.42401791352E+03  0.13057038836E+04  0.12349378286E+04 0.  0.
        3    1    3    3  502    0  0.36347880562E+03 -0.42508994592E+03  0.48862979097E+03  0.74268256145E+03  0.10100000352E+00 0.  1.
       -3    1    3    3    0  502 -0.36347880562E+03  0.42508994592E+03 -0.64611877451E+02  0.56302132212E+03  0.10100000352E+00 0. -1.
</event>
<event>
 5   0  0.6493047E-03  0.1173690E+04  0.7818609E-02  0.9136203E-01
        2   -1    0    0  501    0  0.00000000000E+00  0.00000000000E+00  0.21364777126E+04  0.21364777126E+04  0.25500000920E-02 0.  1.
       -2   -1    0    0    0  501  0.00000000000E+00  0.00000000000E+00 -0.16119381271E+03  0.16119381273E+03  0.25500000920E-02 0. -1.
    10030    2    1    2    0    0  0.00000000000E+00  0.00000000000E+00  0.19752838999E+04  0.22976715253E+04  0.11736898880E+04 0.  0.
        3    1    3    3  502    0  0.27505153248E+03  0.23672035747E+03  0.18904914639E+04  0.19250059372E+04  0.10100000352E+00 0.  1.
       -3    1    3    3    0  502 -0.27505153248E+03 -0.23672035747E+03  0.84792436026E+02  0.37266558812E+03  0.10100000352E+00 0. -1.
</event>
<event>
 5   0  0.3701879E-03  0.1196620E+04  0.7818609E-02  0.9115820E-01
        1   -1    0    0  501    0  0.00000000000E+00  0.00000000000E+00  0.77124538717E+03  0.77124538718E+03  0.50400001928E-02 0.  1.
       -1   -1    0    0    0  501  0.00000000000E+00  0.00000000000E+00 -0.46415188706E+03  0.46415188709E+03  0.50400001928E-02 0. -1.
    10030    2    1    2    0    0  0.00000000000E+00  0.00000000000E+00  0.30709350011E+03  0.12353972743E+04  0.11966202436E+04 0.  0.
        1    1    3    3  502    0 -0.51859128983E+03  0.22567201046E+03  0.35509128159E+03  0.66779832321E+03  0.50400001928E-02 0.  1.
       -1    1    3    3    0  502  0.51859128983E+03 -0.22567201046E+03 -0.47997781481E+02  0.56759895106E+03  0.50400001928E-02 0. -1.
</event>
<event>
 5   0  0.3648616E-03  0.1306905E+04  0.7818609E-02  0.9024107E-01
       -1   -1    0    0    0  501  0.00000000000E+00  0.00000000000E+00  0.38429644177E+03  0.38429644180E+03  0.50400001928E-02 0.  1.
        1   -1    0    0  501    0  0.00000000000E+00  0.00000000000E+00 -0.11111215616E+04  0.11111215616E+04  0.50400001928E-02 0. -1.
    10030    2    1    2    0    0  0.00000000000E+00  0.00000000000E+00 -0.72682511980E+03  0.14954180034E+04  0.13069048359E+04 0.  0.
        2    1    3    3  502    0  0.47018456051E+03 -0.44592672137E+03 -0.45966450303E+03  0.79449079109E+03  0.25500000920E-02 0. -1.
       -2    1    3    3    0  502 -0.47018456051E+03  0.44592672137E+03 -0.26716061677E+03  0.70092721229E+03  0.25500000920E-02 0.  1.
</event>
<event>
 5   0  0.3731281E-03  0.1158290E+04  0.7818609E-02  0.9150170E-01
       -1   -1    0    0    0  501  0.00000000000E+00  0.00000000000E+00  0.29297794047E+03  0.29297794051E+03  0.50400001928E-02 0.  1.
        1   -1    0    0  501    0  0.00000000000E+00  0.00000000000E+00 -0.11448265105E+04  0.11448265105E+04  0.50400001928E-02 0. -1.
    10030    2    1    2    0    0  0.00000000000E+00  0.00000000000E+00 -0.85184856998E+03  0.14378044510E+04  0.11582899693E+04 0.  0.
        5    1    3    3  502    0  0.63324957007E+02  0.36322998398E+03 -0.98028121322E+03  0.10473392089E+04  0.46999998093E+01 0. -1.
       -5    1    3    3    0  502 -0.63324957007E+02 -0.36322998398E+03  0.12843264324E+03  0.39046524210E+03  0.46999998093E+01 0.  1.
</event>
<event>
 5   0  0.6585930E-03  0.1180756E+04  0.7818609E-02  0.9129870E-01
       -2   -1    0    0    0  501  0.00000000000E+00  0.00000000000E+00  0.10707201444E+04  0.10707201444E+04  0.25500000920E-02 0. -1.
        2   -1    0    0  501    0  0.00000000000E+00  0.00000000000E+00 -0.32552500546E+03  0.32552500547E+03  0.25500000920E-02 0.  1.
    10030    2    1    2    0    0  0.00000000000E+00  0.00000000000E+00  0.74519513898E+03  0.13962451499E+04  0.11807559966E+04 0.  0.
        2    1    3    3  502    0 -0.14271266458E+03  0.52748938050E+03  0.63683886808E+03  0.83915177118E+03  0.25500000920E-02 0. -1.
       -2    1    3    3    0  502  0.14271266458E+03 -0.52748938050E+03  0.10835627090E+03  0.55709337873E+03  0.25500000920E-02 0.  1.
</event>
<event>
 5   0  0.6658994E-03  0.1189698E+04  0.7818609E-02  0.9121922E-01
       -2   -1    0    0    0  501  0.00000000000E+00  0.00000000000E+00  0.14857550286E+03  0.14857550289E+03  0.25500000920E-02 0.  1.
        2   -1    0    0  501    0  0.00000000000E+00  0.00000000000E+00 -0.23815873497E+04  0.23815873497E+04  0.25500000920E-02 0. -1.
    10030    2    1    2    0    0  0.00000000000E+00  0.00000000000E+00 -0.22330118468E+04  0.25301628526E+04  0.11896983452E+04 0.  0.
        4    1    3    3  502    0  0.29428463578E+03 -0.35579148231E+03 -0.19141074240E+04  0.19690098703E+04  0.12699999809E+01 0. -1.
       -4    1    3    3    0  502 -0.29428463578E+03  0.35579148231E+03 -0.31890442281E+03  0.56115298229E+03  0.12699999809E+01 0.  1.
</event>
<event>
 5   0  0.3772254E-03  0.1155939E+04  0.7818609E-02  0.9152322E-01
        1   -1    0    0  501    0  0.00000000000E+00  0.00000000000E+00  0.16713773424E+04  0.16713773424E+04  0.50400001928E-02 0. -1.
       -1   -1    0    0    0  501  0.00000000000E+00  0.00000000000E+00 -0.19986429275E+03  0.19986429282E+03  0.50400001928E-02 0.  1.
    10030    2    1    2    0    0  0.00000000000E+00  0.00000000000E+00  0.14715130496E+04  0.18712416352E+04  0.11559388401E+04 0.  0.
        3    1    3    3  502    0  0.31355427505E+03  0.19208058838E+02  0.15211087650E+04  0.15532086524E+04  0.10100000352E+00 0. -1.
       -3    1    3    3    0  502 -0.31355427505E+03 -0.19208058838E+02 -0.49595715370E+02  0.31803298274E+03  0.10100000352E+00 0.  1.
</event>
<event>
 5   0  0.6585930E-03  0.1199453E+04  0.7818609E-02  0.9113336E-01
        2   -1    0    0  501    0  0.00000000000E+00  0.00000000000E+00  0.17127510144E+04  0.17127510144E+04  0.25500000920E-02 0.  1.
       -2   -1    0    0    0  501  0.00000000000E+00  0.00000000000E+00 -0.20999651484E+03  0.20999651485E+03  0.25500000920E-02 0. -1.
    10030    2    1    2    0    0  0.00000000000E+00  0.00000000000E+00  0.15027544995E+04  0.19227475292E+04  0.11994527816E+04 0.  0.
        2    1    3    3  502    0 -0.37048734330E+03 -0.46255628140E+03  0.60399906382E+03  0.84618795436E+03  0.25500000920E-02 0.  1.
       -2    1    3    3    0  502  0.37048734330E+03  0.46255628140E+03  0.89875543573E+03  0.10765595749E+04  0.25500000920E-02 0. -1.
</event>
<event>
 5   0  0.3731281E-03  0.9351466E+03  0.7818609E-02  0.9382682E-01
        1   -1    0    0  501    0  0.00000000000E+00  0.00000000000E+00  0.43772232660E+03  0.43772232663E+03  0.50400001928E-02 0.  1.
       -1   -1    0    0    0  501  0.00000000000E+00  0.00000000000E+00 -0.49946000181E+03  0.49946000183E+03  0.50400001928E-02 0. -1.
    10030    2    1    2    0    0  0.00000000000E+00  0.00000000000E+00 -0.61737675210E+02  0.93718232846E+03  0.93514660682E+03 0.  0.
        5    1    3    3  502    0  0.20623027493E+03  0.39402597338E+03 -0.17545802962E+03  0.47811609903E+03  0.46999998093E+01 0.  1.
       -5    1    3    3    0  502 -0.20623027493E+03 -0.39402597338E+03  0.11372035441E+03  0.45906622943E+03  0.46999998093E+01 0. -1.
</event>
<event>
 5   0  0.2537625E-03  0.1210458E+04  0.7818609E-02  0.9103752E-01
       -3   -1    0    0    0  501  0.00000000000E+00  0.00000000000E+00  0.55933512109E+03  0.55933513021E+03  0.10100000352E+00 0.  1.
        3   -1    0    0  501    0  0.00000000000E+00  0.00000000000E+00 -0.65488844758E+03  0.65488845537E+03  0.10100000352E+00 0. -1.
    10030    2    1    2    0    0  0.00000000000E+00  0.00000000000E+00 -0.95553326493E+02  0.12142235856E+04  0.12104579619E+04 0.  0.
        4    1    3    3  502    0 -0.53558152338E+03  0.27614750291E+03 -0.10448122786E+03  0.61157415857E+03  0.12699999809E+01 0. -1.
       -4    1    3    3    0  502  0.53558152338E+03 -0.27614750291E+03  0.89279013717E+01  0.60264942701E+03  0.12699999809E+01 0.  1.
</event>
<event>
 5   0  0.3944074E-03  0.1235470E+04  0.7818609E-02  0.9082364E-01
        1   -1    0    0  501    0  0.00000000000E+00  0.00000000000E+00  0.76265894242E+03  0.76265894244E+03  0.50400001928E-02 0.  1.
       -1   -1    0    0    0  501  0.00000000000E+00  0.00000000000E+00 -0.50035028638E+03  0.50035028641E+03  0.50400001928E-02 0. -1.
    10030    2    1    2    0    0  0.00000000000E+00  0.00000000000E+00  0.26230865604E+03  0.12630092288E+04  0.12354701458E+04 0.  0.
        4    1    3    3  502    0 -0.39095303656E+03  0.10318775603E+03  0.60857927186E+03  0.73065883477E+03  0.12699999809E+01 0.  1.
       -4    1    3    3    0  502  0.39095303656E+03 -0.10318775603E+03 -0.34627061582E+03  0.53235039408E+03  0.12699999809E+01 0. -1.
</event>
<event>
 5   0  0.3648616E-03  0.1247218E+04  0.7818609E-02  0.9072502E-01
       -1   -1    0    0    0  501  0.00000000000E+00  0.00000000000E+00  0.71560236213E+03  0.71560236215E+03  0.50400001928E-02 0.  1.
        1   -1    0    0  501    0  0.00000000000E+00  0.00000000000E+00 -0.54344173091E+03  0.54344173093E+03  0.50400001928E-02 0. -1.
    10030    2    1    2    0    0  0.00000000000E+00  0.00000000000E+00  0.17216063122E+03  0.12590440931E+04  0.12472180023E+04 0.  0.
        2    1    3    3  502    0 -0.36097576505E+03  0.46303722639E+03  0.29826663214E+03  0.65853622515E+03  0.25500000920E-02 0. -1.
       -2    1    3    3    0  502  0.36097576505E+03 -0.46303722639E+03 -0.12610600092E+03  0.60050786793E+03  0.25500000920E-02 0.  1.
</event>
<event>
 5   0  0.3731281E-03  0.1199096E+04  0.7818609E-02  0.9113648E-01
       -1   -1    0    0    0  501  0.00000000000E+00  0.00000000000E+00  0.36560903335E+03  0.36560903339E+03  0.50400001928E-02 0. -1.
        1   -1    0    0  501    0  0.00000000000E+00  0.00000000000E+00 -0.98317517175E+03  0.98317517177E+03  0.50400001928E-02 0.  1.
    10030    2    1    2    0    0  0.00000000000E+00  0.00000000000E+00 -0.61756613840E+03  0.13487842052E+04  0.11990958664E+04 0.  0.
        5    1    3    3  502    0  0.36761473970E+03 -0.37573480732E+03  0.15509600418E+02  0.52590862322E+03  0.46999998093E+01 0. -1.
       -5    1    3    3    0  502 -0.36761473970E+03  0.37573480732E+03 -0.63307573882E+03  0.82287558194E+03  0.46999998093E+01 0.  1.
</event>
<event>
 5   0  0.3701879E-03  0.1225620E+04  0.7818609E-02  0.9090722E-01
        1   -1    0    0  501    0  0.00000000000E+00  0.00000000000E+00  0.61357994429E+03  0.61357994431E+03  0.50400001928E-02 0. -1.
       -1   -1    0    0    0  501  0.00000000000E+00  0.00000000000E+00 -0.61204107368E+03  0.61204107370E+03  0.50400001928E-02 0.  1.
    10030    2    1    2    0    0  0.00000000000E+00  0.00000000000E+00  0.15388706152E+01  0.12256210180E+04  0.12256200519E+04 0.  0.
        1    1    3    3  502    0 -0.31748549144E+03 -0.52273297146E+03 -0.37822448723E+02  0.61276205364E+03  0.50400001928E-02 0.  1.
       -1    1    3    3    0  502  0.31748549144E+03  0.52273297146E+03  0.39361319338E+02  0.61285896437E+03  0.50400001928E-02 0. -1.
</event>
<event>
 5   0  0.6493047E-03  0.1217675E+04  0.7818609E-02  0.9097525E-01
        2   -1    0    0  501    0  0.00000000000E+00  0.00000000000E+00  0.11602220399E+04  0.11602220400E+04  0.25500000920E-02 0. -1.
       -2   -1    0    0    0  501  0.00000000000E+00  0.00000000000E+00 -0.31949317570E+03  0.31949317571E+03  0.25500000920E-02 0.  1.
    10030    2    1    2    0    0  0.00000000000E+00  0.00000000000E+00  0.84072886425E+03  0.14797152157E+04  0.12176748730E+04 0.  0.
        3    1    3    3  502    0 -0.59728373726E+03 -0.11748914008E+03  0.43429703038E+03  0.74777368343E+03  0.10100000352E+00 0.  1.
       -3    1    3    3    0  502  0.59728373726E+03  0.11748914008E+03  0.40643183387E+03  0.73194153223E+03  0.10100000352E+00 0. -1.
</event>
<event>
 5   0  0.6493047E-03  0.1214678E+04  0.7818609E-02  0.9100105E-01
        2   -1    0    0  501    0  0.00000000000E+00  0.00000000000E+00  0.61555331141E+03  0.61555331142E+03  0.25500000920E-02 0. -1.
       -2   -1    0    0    0  501  0.00000000000E+00  0.00000000000E+00 -0.59923405876E+03  0.59923405876E+03  0.25500000920E-02 0.  1.
    10030    2    1    2    0    0  0.00000000000E+00  0.00000000000E+00  0.16319252652E+02  0.12147873702E+04  0.12146777502E+04 0.  0.
        3    1    3    3  502    0  0.32692086881E+03 -0.26719074448E+03 -0.42844861065E+03  0.60152836223E+03  0.10100000352E+00 0.  1.
       -3    1    3    3    0  502 -0.32692086881E+03  0.26719074448E+03  0.44476786331E+03  0.61325900795E+03  0.10100000352E+00 0. -1.
</event>
<event>
 5   0  0.3731281E-03  0.9913226E+03  0.7818609E-02  0.9318113E-01
       -1   -1    0    0    0  501  0.00000000000E+00  0.00000000000E+00  0.16426000165E+03  0.16426000173E+03  0.50400001928E-02 0. -1.
        1   -1    0    0  501    0  0.00000000000E+00  0.00000000000E+00 -0.14956784502E+04  0.14956784502E+04  0.50400001928E-02 0.  1.
    10030    2    1    2    0    0  0.00000000000E+00  0.00000000000E+00 -0.13314184486E+04  0.16599384520E+04  0.99132264128E+03 0.  0.
        5    1    3    3  502    0 -0.94690316650E+02 -0.41061507750E+03 -0.22878186418E+03  0.47951457675E+03  0.46999998093E+01 0. -1.
       -5    1    3    3    0  502  0.94690316650E+02  0.41061507750E+03 -0.11026365844E+04  0.11804238752E+04  0.46999998093E+01 0.  1.
</event>
<event>
 5   0  0.3772254E-03  0.1163344E+04  0.7818609E-02  0.9145561E-01
       -1   -1    0    0    0  501  0.00000000000E+00  0.00000000000E+00  0.56253728554E+03  0.56253728556E+03  0.50400001928E-02 0. -1.
        1   -1    0    0  501    0  0.00000000000E+00  0.00000000000E+00 -0.60145772642E+03  0.60145772645E+03  0.50400001928E-02 0.  1.
    10030    2    1    2    0    0  0.00000000000E+00  0.00000000000E+00 -0.38920440886E+02  0.11639950120E+04  0.11633441396E+04 0.  0.
        3    1    3    3  502    0  0.14934334633E+03 -0.50434088465E+03 -0.26795219208E+03  0.59030631918E+03  0.10100000352E+00 0.  1.
       -3    1    3    3    0  502 -0.14934334633E+03  0.50434088465E+03  0.22903175120E+03  0.57368869283E+03  0.10100000352E+00 0. -1.
</event>
<event>
 5   0  0.3772254E-03  0.1204322E+04  0.7818609E-02  0.9109082E-01
        1   -1    0    0  501    0  0.00000000000E+00  0.00000000000E+00  0.79435090247E+03  0.79435090249E+03  0.50400001928E-02 0. -1.
       -1   -1    0    0    0  501  0.00000000000E+00  0.00000000000E+00 -0.45647055125E+03  0.45647055128E+03  0.50400001928E-02 0.  1.
    10030    2    1    2    0    0  0.00000000000E+00  0.00000000000E+00  0.33788035122E+03  0.12508214538E+04  0.12043218745E+04 0.  0.
        3    1    3    3  502    0  0.83349675390E+02 -0.29823527782E+03 -0.36743591734E+03  0.48052118879E+03  0.10100000352E+00 0.  1.
       -3    1    3    3    0  502 -0.83349675390E+02  0.29823527782E+03  0.70531626856E+03  0.77030026498E+03  0.10100000352E+00 0. -1.
</event>
<event>
 5   0  0.6585930E-03  0.1258636E+04  0.7818609E-02  0.9063026E-01
        2   -1    0    0  501    0  0.00000000000E+00  0.00000000000E+00  0.11576392941E+04  0.11576392941E+04  0.25500000920E-02 0. -1.
       -2   -1    0    0    0  501  0.00000000000E+00  0.00000000000E+00 -0.34211076924E+03  0.34211076925E+03  0.25500000920E-02 0.  1.
    10030    2    1    2    0    0  0.00000000000E+00  0.00000000000E+00  0.81552852488E+03  0.14997500634E+04  0.12586355619E+04 0.  0.
        2    1    3    3  502    0  0.59633470047E+03 -0.80438978147E+02  0.62733430889E+03  0.86927201687E+03  0.25500000920E-02 0. -1.
       -2    1    3    3    0  502 -0.59633470047E+03  0.80438978147E+02  0.18819421598E+03  0.63047804651E+03  0.25500000920E-02 0.  1.
</event>
<event>
 5   0  0.6585930E-03  0.1214324E+04  0.7818609E-02  0.9100411E-01
        2   -1    0    0  501    0  0.00000000000E+00  0.00000000000E+00  0.97071783099E+03  0.97071783099E+03  0.25500000920E-02 0. -1.
       -2   -1    0    0    0  501  0.00000000000E+00  0.00000000000E+00 -0.37976580533E+03  0.37976580534E+03  0.25500000920E-02 0.  1.
    10030    2    1    2    0    0  0.00000000000E+00  0.00000000000E+00  0.59095202566E+03  0.13504836363E+04  0.12143235793E+04 0.  0.
        2    1    3    3  502    0  0.19287062213E+02  0.37078979174E+02 -0.37816407514E+03  0.38046669920E+03  0.25500000920E-02 0.  1.
       -2    1    3    3    0  502 -0.19287062213E+02 -0.37078979174E+02  0.96911610081E+03  0.97001693713E+03  0.25500000920E-02 0. -1.
</event>
<event>
 5   0  0.3944074E-03  0.1196767E+04  0.7818609E-02  0.9115691E-01
       -1   -1    0    0    0  501  0.00000000000E+00  0.00000000000E+00  0.32625256402E+03  0.32625256406E+03  0.50400001928E-02 0. -1.
        1   -1    0    0  501    0  0.00000000000E+00  0.00000000000E+00 -0.10975018463E+04  0.10975018463E+04  0.50400001928E-02 0.  1.
    10030    2    1    2    0    0  0.00000000000E+00  0.00000000000E+00 -0.77124928226E+03  0.14237544103E+04  0.11967669638E+04 0.  0.
        4    1    3    3  502    0 -0.32753422359E+03 -0.47547380162E+03 -0.57262267251E+03  0.81317423817E+03  0.12699999809E+01 0.  1.
       -4    1    3    3    0  502  0.32753422359E+03  0.47547380162E+03 -0.19862660975E+03  0.61058017218E+03  0.12699999809E+01 0. -1.
</event>
<event>
 5   0  0.6349142E-03  0.1152928E+04  0.7818609E-02  0.9155087E-01
       -2   -1    0    0    0  501  0.00000000000E+00  0.00000000000E+00  0.38073926444E+03  0.38073926445E+03  0.25500000920E-02 0.  1.
        2   -1    0    0  501    0  0.00000000000E+00  0.00000000000E+00 -0.87280330113E+03  0.87280330113E+03  0.25500000920E-02 0. -1.
    10030    2    1    2    0    0  0.00000000000E+00  0.00000000000E+00 -0.49206403668E+03  0.12535425656E+04  0.11529275552E+04 0.  0.
        1    1    3    3  502    0 -0.31436857305E+03 -0.35434180010E+03 -0.60322066327E+03  0.76698166839E+03  0.50400001928E-02 0. -1.
       -1    1    3    3    0  502  0.31436857305E+03  0.35434180010E+03  0.11115662659E+03  0.48656089720E+03  0.50400001928E-02 0.  1.
</event>
<event>
 5   0  0.2537625E-03  0.1182995E+04  0.7818609E-02  0.9127873E-01
       -3   -1    0    0    0  501  0.00000000000E+00  0.00000000000E+00  0.53626583382E+03  0.53626584333E+03  0.10100000352E+00 0.  1.
        3   -1    0    0  501    0  0.00000000000E+00  0.00000000000E+00 -0.65241741374E+03  0.65241742155E+03  0.10100000352E+00 0. -1.
    10030    2    1    2    0    0  0.00000000000E+00  0.00000000000E+00 -0.11615157991E+03  0.11886832649E+04  0.11829948076E+04 0.  0.
        2    1    3    3  502    0  0.43880042889E+03 -0.12982820613E+02  0.34025799881E+03  0.55541864912E+03  0.25500000920E-02 0.  1.
       -2    1    3    3    0  502 -0.43880042889E+03  0.12982820613E+02 -0.45640957872E+03  0.63326461577E+03  0.25500000920E-02 0. -1.
</event>
<event>
 5   0  0.6640844E-03  0.1180424E+04  0.7818609E-02  0.9130166E-01
        2   -1    0    0  501    0  0.00000000000E+00  0.00000000000E+00  0.97680094057E+03  0.97680094057E+03  0.25500000920E-02 0. -1.
       -2   -1    0    0    0  501  0.00000000000E+00  0.00000000000E+00 -0.35662381129E+03  0.35662381130E+03  0.25500000920E-02 0.  1.
    10030    2    1    2    0    0  0.00000000000E+00  0.00000000000E+00  0.62017712928E+03  0.13334247519E+04  0.11804244564E+04 0.  0.
        5    1    3    3  502    0  0.40231436539E+03  0.60586913309E+02  0.79305762949E+03  0.89134175059E+03  0.46999998093E+01 0. -1.
       -5    1    3    3    0  502 -0.40231436539E+03 -0.60586913309E+02 -0.17288050021E+03  0.44208300127E+03  0.46999998093E+01 0.  1.
</event>
<event>
 5   0  0.6640844E-03  0.1238097E+04  0.7818609E-02  0.9080149E-01
        2   -1    0    0  501    0  0.00000000000E+00  0.00000000000E+00  0.85314312636E+03  0.85314312637E+03  0.25500000920E-02 0. -1.
       -2   -1    0    0    0  501  0.00000000000E+00  0.00000000000E+00 -0.44918711779E+03  0.44918711780E+03  0.25500000920E-02 0.  1.
    10030    2    1    2    0    0  0.00000000000E+00  0.00000000000E+00  0.40395600857E+03  0.13023302442E+04  0.12380967684E+04 0.  0.
        5    1    3    3  502    0  0.13113645058E+03  0.35636555978E+03 -0.31226761763E+03  0.49165672567E+03  0.46999998093E+01 0.  1.
       -5    1    3    3    0  502 -0.13113645058E+03 -0.35636555978E+03  0.71622362620E+03  0.81067351850E+03  0.46999998093E+01 0. -1.
</event>
<event>
 5   0  0.6585930E-03  0.1212933E+04  0.7818609E-02  0.9101611E-01
       -2   -1    0    0    0  501  0.00000000000E+00  0.00000000000E+00  0.26740138418E+03  0.26740138419E+03  0.25500000920E-02 0.  1.
        2   -1    0    0  501    0  0.00000000000E+00  0.00000000000E+00 -0.13754657777E+04  0.13754657777E+04  0.25500000920E-02 0. -1.
    10030    2    1    2    0    0  0.00000000000E+00  0.00000000000E+00 -0.11080643935E+04  0.16428671619E+04  0.12129327316E+04 0.  0.
        2    1    3    3  502    0 -0.24478331419E+03  0.54341594789E+03 -0.40210510827E+03  0.71896333803E+03  0.25500000920E-02 0.  1.
       -2    1    3    3    0  502  0.24478331419E+03 -0.54341594789E+03 -0.70595928525E+03  0.92390382387E+03  0.25500000920E-02 0. -1.
</event>
<event>
 5   0  0.3731281E-03  0.1174437E+04  0.7818609E-02  0.9135531E-01
       -1   -1    0    0    0  501  0.00000000000E+00  0.00000000000E+00  0.71537073516E+03  0.71537073517E+03  0.50400001928E-02 0. -1.
        1   -1    0    0  501    0  0.00000000000E+00  0.00000000000E+00 -0.48202347678E+03  0.48202347680E+03  0.50400001928E-02 0.  1.
    10030    2    1    2    0    0  0.00000000000E+00  0.00000000000E+00  0.23334725838E+03  0.11973942120E+04  0.11744368676E+04 0.  0.
        5    1    3    3  502    0  0.91245014648E+02 -0.29273571966E+02 -0.47397869246E+03  0.48359123815E+03  0.46999998093E+01 0.  1.
       -5    1    3    3    0  502 -0.91245014648E+02  0.29273571966E+02  0.70732595084E+03  0.71380297382E+03  0.46999998093E+01 0. -1.
</event>
<event>
 5   0  0.6493047E-03  0.1197570E+04  0.7818609E-02  0.9114986E-01
       -2   -1    0    0    0  501  0.00000000000E+00  0.00000000000E+00  0.25504411443E+03  0.25504411444E+03  0.25500000920E-02 0.  1.
        2   -1    0    0  501    0  0.00000000000E+00  0.00000000000E+00 -0.14058103424E+04  0.14058103424E+04  0.25500000920E-02 0. -1.
    10030    2    1    2    0    0  0.00000000000E+00  0.00000000000E+00 -0.11507662279E+04  0.16608544568E+04  0.11975702966E+04 0.  0.
        3    1    3    3  502    0 -0.61385786185E+02  0.50933861697E+03 -0.14714037974E+03  0.53370810658E+03  0.10100000352E+00 0.  1.
       -3    1    3    3    0  502  0.61385786185E+02 -0.50933861697E+03 -0.10036258482E+04  0.11271463502E+04  0.10100000352E+00 0. -1.
</event>
<event>
 5   0  0.3772254E-03  0.1206020E+04  0.7818609E-02  0.9107603E-01
        1   -1    0    0  501    0  0.00000000000E+00  0.00000000000E+00  0.76491107505E+03  0.76491107506E+03  0.50400001928E-02 0.  1.
       -1   -1    0    0    0  501  0.00000000000E+00  0.00000000000E+00 -0.47537709751E+03  0.47537709754E+03  0.50400001928E-02 0. -1.
    10030    2    1    2    0    0  0.00000000000E+00  0.00000000000E+00  0.28953397754E+03  0.12402881726E+04  0.12060202432E+04 0.  0.
        3    1    3    3  502    0  0.10584366207E+03  0.52659092359E+03 -0.13710161533E+03  0.55434442789E+03  0.10100000352E+00 0. -1.
       -3    1    3    3    0  502 -0.10584366207E+03 -0.52659092359E+03  0.42663559287E+03  0.68594374471E+03  0.10100000352E+00 0.  1.
</event>
<event>
 5   0  0.6658994E-03  0.1173553E+04  0.7818609E-02  0.9136326E-01
       -2   -1    0    0    0  501  0.00000000000E+00  0.00000000000E+00  0.11676530924E+04  0.11676530924E+04  0.25500000920E-02 0.  1.
        2   -1    0    0  501    0  0.00000000000E+00  0.00000000000E+00 -0.29487049928E+03  0.29487049929E+03  0.25500000920E-02 0. -1.
    10030    2    1    2    0    0  0.00000000000E+00  0.00000000000E+00  0.87278259311E+03  0.14625235917E+04  0.11735526411E+04 0.  0.
        4    1    3    3  502    0  0.21488145852E+03  0.23123412585E+02 -0.24345999327E+03  0.32555047942E+03  0.12699999809E+01 0. -1.
       -4    1    3    3    0  502 -0.21488145852E+03 -0.23123412585E+02  0.11162425864E+04  0.11369731123E+04  0.12699999809E+01 0.  1.
</event>
<event>
 5   0  0.3648616E-03  0.1195826E+04  0.7818609E-02  0.9116518E-01
       -1   -1    0    0    0  501  0.00000000000E+00  0.00000000000E+00  0.11567231791E+04  0.11567231791E+04  0.50400001928E-02 0. -1.
        1   -1    0    0  501    0  0.00000000000E+00  0.00000000000E+00 -0.30906270965E+03  0.30906270970E+03  0.50400001928E-02 0.  1.
    10030    2    1    2    0    0  0.00000000000E+00  0.00000000000E+00  0.84766046948E+03  0.14657858888E+04  0.11958260745E+04 0.  0.
        2    1    3    3  502    0  0.32729761232E+03 -0.37292637516E+03  0.14895146886E+02  0.49640676237E+03  0.25500000920E-02 0.  1.
       -2    1    3    3    0  502 -0.32729761232E+03  0.37292637516E+03  0.83276532259E+03  0.96937912647E+03  0.25500000920E-02 0. -1.
</event>
<event>
 5   0  0.3701879E-03  0.1204843E+04  0.7818609E-02  0.9108628E-01
       -1   -1    0    0    0  501  0.00000000000E+00  0.00000000000E+00  0.32303077962E+03  0.32303077966E+03  0.50400001928E-02 0. -1.
        1   -1    0    0  501    0  0.00000000000E+00  0.00000000000E+00 -0.11234580823E+04  0.11234580823E+04  0.50400001928E-02 0.  1.
    10030    2    1    2    0    0  0.00000000000E+00  0.00000000000E+00 -0.80042730267E+03  0.14464888620E+04  0.12048427951E+04 0.  0.
        1    1    3    3  502    0  0.14747006196E+03  0.13336515910E+03 -0.10829292838E+04  0.11010311161E+04  0.50400001928E-02 0.  1.
       -1    1    3    3    0  502 -0.14747006196E+03 -0.13336515910E+03  0.28250198112E+03  0.34545774589E+03  0.50400001928E-02 0. -1.
</event>
<event>
 5   0  0.6640844E-03  0.1189534E+04  0.7818609E-02  0.9122067E-01
        2   -1    0    0  501    0  0.00000000000E+00  0.00000000000E+00  0.10907745859E+04  0.10907745859E+04  0.25500000920E-02 0. -1.
       -2   -1    0    0    0  501  0.00000000000E+00  0.00000000000E+00 -0.32430882520E+03  0.32430882521E+03  0.25500000920E-02 0.  1.
    10030    2    1    2    0    0  0.00000000000E+00  0.00000000000E+00  0.76646576070E+03  0.14150834111E+04  0.11895340676E+04 0.  0.
        5    1    3    3  502    0 -0.59089532742E+03 -0.33357571951E+01  0.46354107867E+03  0.75103983706E+03  0.46999998093E+01 0.  1.
       -5    1    3    3    0  502  0.59089532742E+03  0.33357571951E+01  0.30292468202E+03  0.66404357404E+03  0.46999998093E+01 0. -1.
</event>
<event>
 5   0  0.3731281E-03  0.1170864E+04  0.7818609E-02  0.9138749E-01
        1   -1    0    0  501    0  0.00000000000E+00  0.00000000000E+00  0.98024189183E+03  0.98024189184E+03  0.50400001928E-02 0. -1.
       -1   -1    0    0    0  501  0.00000000000E+00  0.00000000000E+00 -0.34963879458E+03  0.34963879462E+03  0.50400001928E-02 0.  1.
    10030    2    1    2    0    0  0.00000000000E+00  0.00000000000E+00  0.63060309725E+03  0.13298806865E+04  0.11708639434E+04 0.  0.
        5    1    3    3  502    0 -0.31643094527E+03 -0.43634853713E+03  0.55849007640E+02  0.54191308402E+03  0.46999998093E+01 0. -1.
       -5    1    3    3    0  502  0.31643094527E+03  0.43634853713E+03  0.57475408961E+03  0.78796760244E+03  0.46999998093E+01 0.  1.
</event>
<event>
 5   0  0.6493047E-03  0.1073036E+04  0.7818609E-02  0.9231878E-01
        2   -1    0    0  501    0  0.00000000000E+00  0.00000000000E+00  0.14736537442E+04  0.14736537442E+04  0.25500000920E-02 0.  1.
       -2   -1    0    0    0  501  0.00000000000E+00  0.00000000000E+00 -0.19533197910E+03  0.19533197912E+03  0.25500000920E-02 0. -1.
    10030    2    1    2    0    0  0.00000000000E+00  0.00000000000E+00  0.12783217651E+04  0.16689857233E+04  0.10730362573E+04 0.  0.
        3    1    3    3  502    0  0.13086348316E+03  0.21818435712E+03 -0.95538117104E+02  0.27176682457E+03  0.10100000352E+00 0. -1.
       -3    1    3    3    0  502 -0.13086348316E+03 -0.21818435712E+03  0.13738598822E+04  0.13972188988E+04  0.10100000352E+00 0.  1.
</event>
<event>
 5   0  0.6349142E-03  0.1212337E+04  0.7818609E-02  0.9102126E-01
       -2   -1    0    0    0  501  0.00000000000E+00  0.00000000000E+00  0.25245261798E+03  0.25245261799E+03  0.25500000920E-02 0.  1.
        2   -1    0    0  501    0  0.00000000000E+00  0.00000000000E+00 -0.14554812943E+04  0.14554812943E+04  0.25500000920E-02 0. -1.
    10030    2    1    2    0    0  0.00000000000E+00  0.00000000000E+00 -0.12030286763E+04  0.17079339123E+04  0.12123366911E+04 0.  0.
        1    1    3    3  502    0 -0.39575225221E+03  0.30881475075E+03 -0.10802013894E+04  0.11911429121E+04  0.50400001928E-02 0. -1.
       -1    1    3    3    0  502  0.39575225221E+03 -0.30881475075E+03 -0.12282728692E+03  0.51679100017E+03  0.50400001928E-02 0.  1.
</event>
<event>
 5   0  0.3648616E-03  0.1223065E+04  0.7818609E-02  0.9092904E-01
        1   -1    0    0  501    0  0.00000000000E+00  0.00000000000E+00  0.17081918102E+04  0.17081918102E+04  0.50400001928E-02 0. -1.
       -1   -1    0    0    0  501  0.00000000000E+00  0.00000000000E+00 -0.21892872982E+03  0.21892872988E+03  0.50400001928E-02 0.  1.
    10030    2    1    2    0    0  0.00000000000E+00  0.00000000000E+00  0.14892630804E+04  0.19271205401E+04  0.12230654330E+04 0.  0.
        2    1    3    3  502    0  0.47168052706E+03 -0.36492257903E+02  0.13406428269E+03  0.49171885910E+03  0.25500000920E-02 0.  1.
       -2    1    3    3    0  502 -0.47168052706E+03  0.36492257903E+02  0.13551987977E+04  0.14354016810E+04  0.25500000920E-02 0. -1.
</event>
<event>
 5   0  0.3648616E-03  0.1183476E+04  0.7818609E-02  0.9127444E-01
        1   -1    0    0  501    0  0.00000000000E+00  0.00000000000E+00  0.54293695007E+03  0.54293695009E+03  0.50400001928E-02 0.  1.
       -1   -1    0    0    0  501  0.00000000000E+00  0.00000000000E+00 -0.64492582554E+03  0.64492582556E+03  0.50400001928E-02 0. -1.
    10030    2    1    2    0    0  0.00000000000E+00  0.00000000000E+00 -0.10198887547E+03  0.11878627756E+04  0.11834763382E+04 0.  0.
        2    1    3    3  502    0  0.28327776529E+03 -0.21402188500E+02 -0.57200383641E+03  0.63866480634E+03  0.25500000920E-02 0. -1.
       -2    1    3    3    0  502 -0.28327776529E+03  0.21402188500E+02  0.47001496094E+03  0.54919796931E+03  0.25500000920E-02 0.  1.
</event>
<event>
 5   0  0.6493047E-03  0.1205261E+04  0.7818609E-02  0.9108264E-01
       -2   -1    0    0    0  501  0.00000000000E+00  0.00000000000E+00  0.13029305397E+04  0.13029305397E+04  0.25500000920E-02 0.  1.
        2   -1    0    0  501    0  0.00000000000E+00  0.00000000000E+00 -0.27872833751E+03  0.27872833752E+03  0.25500000920E-02 0. -1.
    10030    2    1    2    0    0  0.00000000000E+00  0.00000000000E+00  0.10242022022E+04  0.15816588772E+04  0.12052612385E+04 0.  0.
        3    1    3    3  502    0 -0.20892905873E+03  0.13927413369E+03 -0.20681050853E+03  0.32529868204E+03  0.10100000352E+00 0. -1.
       -3    1    3    3    0  502  0.20892905873E+03 -0.13927413369E+03  0.12310127107E+04  0.12563601952E+04  0.10100000352E+00 0.  1.
</event>
<event>
 5   0  0.6493047E-03  0.1218662E+04  0.7818609E-02  0.9096676E-01
        2   -1    0    0  501    0  0.00000000000E+00  0.00000000000E+00  0.10541979962E+04  0.10541979962E+04  0.25500000920E-02 0. -1.
       -2   -1    0    0    0  501  0.00000000000E+00  0.00000000000E+00 -0.35219623589E+03  0.35219623590E+03  0.25500000920E-02 0.  1.
    10030    2    1    2    0    0  0.00000000000E+00  0.00000000000E+00  0.70200176035E+03  0.14063942321E+04  0.12186624900E+04 0.  0.
        3    1    3    3  502    0  0.38814679632E+03  0.45347354241E+03  0.49228741995E+03  0.77372030037E+03  0.10100000352E+00 0. -1.
       -3    1    3    3    0  502 -0.38814679632E+03 -0.45347354241E+03  0.20971434040E+03  0.63267393176E+03  0.10100000352E+00 0.  1.
</event>
<event>
 5   0  0.3944074E-03  0.1189043E+04  0.7818609E-02  0.9122502E-01
       -1   -1    0    0    0  501  0.00000000000E+00  0.00000000000E+00  0.38619692698E+03  0.38619692701E+03  0.50400001928E-02 0. -1.
        1   -1    0    0  501    0  0.00000000000E+00  0.00000000000E+00 -0.91522122415E+03  0.91522122416E+03  0.50400001928E-02 0.  1.
    10030    2    1    2    0    0  0.00000000000E+00  0.00000000000E+00 -0.52902429717E+03  0.13014181512E+04  0.11890426810E+04 0.  0.
        4    1    3    3  502    0  0.19200783045E+03  0.84382688612E+01  0.35125584701E+03  0.40040041745E+03  0.12699999809E+01 0. -1.
       -4    1    3    3    0  502 -0.19200783045E+03 -0.84382688612E+01 -0.88028014418E+03  0.90101773372E+03  0.12699999809E+01 0.  1.
</event>
<event>
 5   0  0.3944074E-03  0.1218367E+04  0.7818609E-02  0.9096930E-01
        1   -1    0    0  501    0  0.00000000000E+00  0.00000000000E+00  0.98543490823E+03  0.98543490824E+03  0.50400001928E-02 0. -1.
       -1   -1    0    0    0  501  0.00000000000E+00  0.00000000000E+00 -0.37658958570E+03  0.37658958573E+03  0.50400001928E-02 0.  1.
    10030    2    1    2    0    0  0.00000000000E+00  0.00000000000E+00  0.60884532253E+03  0.13620244940E+04  0.12183669790E+04 0.  0.
        4    1    3    3  502    0  0.19162670286E+03 -0.64194764915E+02 -0.33802173033E+03  0.39382999399E+03  0.12699999809E+01 0.  1.
       -4    1    3    3    0  502 -0.19162670286E+03  0.64194764915E+02  0.94686705286E+03  0.96819449998E+03  0.12699999809E+01 0. -1.
</event>
<event>
 5   0  0.3701879E-03  0.1279319E+04  0.7818609E-02  0.9046128E-01
       -1   -1    0    0    0  501  0.00000000000E+00  0.00000000000E+00  0.21827696921E+03  0.21827696927E+03  0.50400001928E-02 0.  1.
        1   -1    0    0  501    0  0.00000000000E+00  0.00000000000E+00 -0.18745178501E+04  0.18745178501E+04  0.50400001928E-02 0. -1.
    10030    2    1    2    0    0  0.00000000000E+00  0.00000000000E+00 -0.16562408809E+04  0.20927948193E+04  0.12793186860E+04 0.  0.
        1    1    3    3  502    0  0.22683138326E+03  0.95597272817E+02  0.13769608238E+03  0.28204880097E+03  0.50400001928E-02 0.  1.
       -1    1    3    3    0  502 -0.22683138326E+03 -0.95597272817E+02 -0.17939369632E+04  0.18107460184E+04  0.50400001928E-02 0. -1.
</event>
<event>
 5   0  0.3701879E-03  0.1219285E+04  0.7818609E-02  0.9096142E-01
        1   -1    0    0  501    0  0.00000000000E+00  0.00000000000E+00  0.14457582957E+04  0.14457582957E+04  0.50400001928E-02 0. -1.
       -1   -1    0    0    0  501  0.00000000000E+00  0.00000000000E+00 -0.25707196160E+03  0.25707196165E+03  0.50400001928E-02 0.  1.
    10030    2    1    2    0    0  0.00000000000E+00  0.00000000000E+00  0.11886863341E+04  0.17028302574E+04  0.12192849070E+04 0.  0.
        1    1    3    3  502    0 -0.40225824080E+03  0.39278239898E+03  0.26511056652E+03  0.62158934816E+03  0.50400001928E-02 0.  1.
       -1    1    3    3    0  502  0.40225824080E+03 -0.39278239898E+03  0.92357576758E+03  0.10812409092E+04  0.50400001928E-02 0. -1.
</event>
<event>
 5   0  0.3648616E-03  0.1204652E+04  0.7818609E-02  0.9108795E-01
        1   -1    0    0  501    0  0.00000000000E+00  0.00000000000E+00  0.11846264289E+04  0.11846264289E+04  0.50400001928E-02 0.  1.
       -1   -1    0    0    0  501  0.00000000000E+00  0.00000000000E+00 -0.30625380536E+03  0.30625380540E+03  0.50400001928E-02 0. -1.
    10030    2    1    2    0    0  0.00000000000E+00  0.00000000000E+00  0.87837262355E+03  0.14908802343E+04  0.12046515709E+04 0.  0.
        2    1    3    3  502    0  0.39786717835E+03 -0.20388859223E+03 -0.60363161569E+02  0.45112366478E+03  0.25500000920E-02 0. -1.
       -2    1    3    3    0  502 -0.39786717835E+03  0.20388859223E+03  0.93873578512E+03  0.10397565695E+04  0.25500000920E-02 0.  1.
</event>
<event>
 5   0  0.3731281E-03  0.1224590E+04  0.7818609E-02  0.9091601E-01
       -1   -1    0    0    0  501  0.00000000000E+00  0.00000000000E+00  0.81912244020E+03  0.81912244022E+03  0.50400001928E-02 0. -1.
        1   -1    0    0  501    0  0.00000000000E+00  0.00000000000E+00 -0.45769148662E+03  0.45769148664E+03  0.50400001928E-02 0.  1.
    10030    2    1    2    0    0  0.00000000000E+00  0.00000000000E+00  0.36143095358E+03  0.12768139269E+04  0.12245903273E+04 0.  0.
        5    1    3    3  502    0 -0.53505286803E+03 -0.97698710285E+02  0.47387637187E+03  0.72139276084E+03  0.46999998093E+01 0. -1.
       -5    1    3    3    0  502  0.53505286803E+03  0.97698710285E+02 -0.11244541828E+03  0.55542116602E+03  0.46999998093E+01 0.  1.
</event>
<event>
 5   0  0.3648616E-03  0.1184125E+04  0.7818609E-02  0.9126866E-01
       -1   -1    0    0    0  501  0.00000000000E+00  0.00000000000E+00  0.49248820886E+03  0.49248820888E+03  0.50400001928E-02 0.  1.
        1   -1    0    0  501    0  0.00000000000E+00  0.00000000000E+00 -0.71176983311E+03  0.71176983313E+03  0.50400001928E-02 0. -1.
    10030    2    1    2    0    0  0.00000000000E+00  0.00000000000E+00 -0.21928162425E+03  0.12042580420E+04  0.11841254161E+04 0.  0.
        2    1    3    3  502    0 -0.18629254039E+03  0.30479912451E+03  0.37054234425E+03  0.51469315693E+03  0.25500000920E-02 0.  1.
       -2    1    3    3    0  502  0.18629254039E+03 -0.30479912451E+03 -0.58982396850E+03  0.68956488507E+03  0.25500000920E-02 0. -1.
</event>
<event>
 5   0  0.6349142E-03  0.1168840E+04  0.7818609E-02  0.9140577E-01
        2   -1    0    0  501    0  0.00000000000E+00  0.00000000000E+00  0.65763864090E+03  0.65763864090E+03  0.25500000920E-02 0.  1.
       -2   -1    0    0    0  501  0.00000000000E+00  0.00000000000E+00 -0.51935315556E+03  0.51935315557E+03  0.25500000920E-02 0. -1.
    10030    2    1    2    0    0  0.00000000000E+00  0.00000000000E+00  0.13828548534E+03  0.11769917965E+04  0.11688399435E+04 0.  0.
        1    1    3    3  502    0  0.38727991871E+03 -0.48435241363E+02 -0.36887950250E+03  0.53703239701E+03  0.50400001928E-02 0. -1.
       -1    1    3    3    0  502 -0.38727991871E+03  0.48435241363E+02  0.50716498784E+03  0.63995939946E+03  0.50400001928E-02 0.  1.
</event>
<event>
 5   0  0.6349142E-03  0.1216161E+04  0.7818609E-02  0.9098827E-01
       -2   -1    0    0    0  501  0.00000000000E+00  0.00000000000E+00  0.92438697536E+03  0.92438697536E+03  0.25500000920E-02 0.  1.
        2   -1    0    0  501    0  0.00000000000E+00  0.00000000000E+00 -0.40000788139E+03  0.40000788140E+03  0.25500000920E-02 0. -1.
    10030    2    1    2    0    0  0.00000000000E+00  0.00000000000E+00  0.52437909397E+03  0.13243948568E+04  0.12161612979E+04 0.  0.
        1    1    3    3  502    0 -0.34031489062E+03  0.35115723134E+03 -0.13141353590E+03  0.50635476036E+03  0.50400001928E-02 0. -1.
       -1    1    3    3    0  502  0.34031489062E+03 -0.35115723134E+03  0.65579262987E+03  0.81804009640E+03  0.50400001928E-02 0.  1.
</event>
<event>
 5   0  0.6585930E-03  0.1213580E+04  0.7818609E-02  0.9101052E-01
       -2   -1    0    0    0  501  0.00000000000E+00  0.00000000000E+00  0.54601436974E+03  0.54601436974E+03  0.25500000920E-02 0.  1.
        2   -1    0    0  501    0  0.00000000000E+00  0.00000000000E+00 -0.67433050300E+03  0.67433050300E+03  0.25500000920E-02 0. -1.
    10030    2    1    2    0    0  0.00000000000E+00  0.00000000000E+00 -0.12831613326E+03  0.12203448727E+04  0.12135800667E+04 0.  0.
        2    1    3    3  502    0 -0.13351312467E+03 -0.25704478930E+03 -0.60032472136E+03  0.66654898488E+03  0.25500000920E-02 0. -1.
       -2    1    3    3    0  502  0.13351312467E+03  0.25704478930E+03  0.47200858810E+03  0.55379588786E+03  0.25500000920E-02 0.  1.
</event>
<event>
 5   0  0.3944074E-03  0.1207568E+04  0.7818609E-02  0.9106258E-01
       -1   -1    0    0    0  501  0.00000000000E+00  0.00000000000E+00  0.17086802948E+03  0.17086802955E+03  0.50400001928E-02 0. -1.
        1   -1    0    0  501    0  0.00000000000E+00  0.00000000000E+00 -0.21335488208E+04  0.21335488208E+04  0.50400001928E-02 0.  1.
    10030    2    1    2    0    0  0.00000000000E+00  0.00000000000E+00 -0.19626807913E+04  0.23044168503E+04  0.12075682720E+04 0.  0.
        4    1    3    3  502    0 -0.36105806630E+03 -0.38469718215E+03 -0.15416138044E+04  0.16293954658E+04  0.12699999809E+01 0.  1.
       -4    1    3    3    0  502  0.36105806630E+03  0.38469718215E+03 -0.42106698688E+03  0.67502138451E+03  0.12699999809E+01 0. -1.
</event>
<event>
 5   0  0.3944074E-03  0.1217217E+04  0.7818609E-02  0.9097919E-01
       -1   -1    0    0    0  501  0.00000000000E+00  0.00000000000E+00  0.62128772944E+03  0.62128772946E+03  0.50400001928E-02 0.  1.
        1   -1    0    0  501    0  0.00000000000E+00  0.00000000000E+00 -0.59618797185E+03  0.59618797187E+03  0.50400001928E-02 0. -1.
    10030    2    1    2    0    0  0.00000000000E+00  0.00000000000E+00  0.25099757594E+02  0.12174757013E+04  0.12172169427E+04 0.  0.
        4    1    3    3  502    0 -0.31997640479E+03 -0.35818313611E+03  0.38642420428E+03  0.61644572930E+03  0.12699999809E+01 0.  1.
       -4    1    3    3    0  502  0.31997640479E+03  0.35818313611E+03 -0.36132444669E+03  0.60102997204E+03  0.12699999809E+01 0. -1.
</event>
<event>
 5   0  0.3701879E-03  0.1175812E+04  0.7818609E-02  0.9134295E-01
       -1   -1    0    0    0  501  0.00000000000E+00  0.00000000000E+00  0.54003252005E+03  0.54003252007E+03  0.50400001928E-02 0. -1.
        1   -1    0    0  501    0  0.00000000000E+00  0.00000000000E+00 -0.64002371396E+03  0.64002371398E+03  0.50400001928E-02 0.  1.
    10030    2    1    2    0    0  0.00000000000E+00  0.00000000000E+00 -0.99991193913E+02  0.11800562341E+04  0.11758122625E+04 0.  0.
        1    1    3    3  502    0 -0.20163321989E+03 -0.46422957065E+03  0.25019699123E+03  0.56459151966E+03  0.50400001928E-02 0. -1.
       -1    1    3    3    0  502  0.20163321989E+03  0.46422957065E+03 -0.35018818514E+03  0.61546471439E+03  0.50400001928E-02 0.  1.
</event>
<event>
 5   0  0.3648616E-03  0.1188274E+04  0.7818609E-02  0.9123183E-01
       -1   -1    0    0    0  501  0.00000000000E+00  0.00000000000E+00  0.41126475604E+03  0.41126475607E+03  0.50400001928E-02 0.  1.
        1   -1    0    0  501    0  0.00000000000E+00  0.00000000000E+00 -0.85832490511E+03  0.85832490513E+03  0.50400001928E-02 0. -1.
    10030    2    1    2    0    0  0.00000000000E+00  0.00000000000E+00 -0.44706014907E+03  0.12695896612E+04  0.11882740134E+04 0.  0.
        2    1    3    3  502    0  0.40288104306E+03  0.17808130443E+03 -0.64952855354E+03  0.78480152122E+03  0.25500000920E-02 0. -1.
       -2    1    3    3    0  502 -0.40288104306E+03 -0.17808130443E+03  0.20246840447E+03  0.48478813997E+03  0.25500000920E-02 0.  1.
</event>
<event>
 5   0  0.2537625E-03  0.1186888E+04  0.7818609E-02  0.9124412E-01
       -4   -1    0    0    0  501  0.00000000000E+00  0.00000000000E+00  0.24511262790E+03  0.24511591800E+03  0.12699999809E+01 0.  1.
        4   -1    0    0  501    0  0.00000000000E+00  0.00000000000E+00 -0.14367781208E+04  0.14367786821E+04  0.12699999809E+01 0. -1.
    10030    2    1    2    0    0  0.00000000000E+00  0.00000000000E+00 -0.11916654929E+04  0.16818946001E+04  0.11868878628E+04 0.  0.
        5    1    3    3  502    0 -0.25403634232E+03 -0.46607741945E+03 -0.21986757870E+03  0.57456632890E+03  0.46999998093E+01 0.  1.
       -5    1    3    3    0  502  0.25403634232E+03  0.46607741945E+03 -0.97179791421E+03  0.11073282712E+04  0.46999998093E+01 0. -1.
</event>
<event>
 5   0  0.6493047E-03  0.1193886E+04  0.7818609E-02  0.9118225E-01
        2   -1    0    0  501    0  0.00000000000E+00  0.00000000000E+00  0.19281733981E+04  0.19281733981E+04  0.25500000920E-02 0.  1.
       -2   -1    0    0    0  501  0.00000000000E+00  0.00000000000E+00 -0.18480765414E+03  0.18480765415E+03  0.25500000920E-02 0. -1.
    10030    2    1    2    0    0  0.00000000000E+00  0.00000000000E+00  0.17433657440E+04  0.21129810523E+04  0.11938864309E+04 0.  0.
        3    1    3    3  502    0 -0.41116111106E+03  0.30995169681E+03  0.14062128841E+04  0.14975173452E+04  0.10100000352E+00 0.  1.
       -3    1    3    3    0  502  0.41116111106E+03 -0.30995169681E+03  0.33715285993E+03  0.61546370711E+03  0.10100000352E+00 0. -1.
</event>
<event>
 5   0  0.6349142E-03  0.1166339E+04  0.7818609E-02  0.9142841E-01
       -2   -1    0    0    0  501  0.00000000000E+00  0.00000000000E+00  0.36270342457E+03  0.36270342458E+03  0.25500000920E-02 0. -1.
        2   -1    0    0  501    0  0.00000000000E+00  0.00000000000E+00 -0.93764386531E+03  0.93764386532E+03  0.25500000920E-02 0.  1.
    10030    2    1    2    0    0  0.00000000000E+00  0.00000000000E+00 -0.57494044074E+03  0.13003472899E+04  0.11663389576E+04 0.  0.
        1    1    3    3  502    0 -0.39261700618E+03  0.27929913635E+03  0.78804300833E+02  0.48822765076E+03  0.50400001928E-02 0. -1.
       -1    1    3    3    0  502  0.39261700618E+03 -0.27929913635E+03 -0.65374474158E+03  0.81211963914E+03  0.50400001928E-02 0.  1.
</event>
<event>
 5   0  0.6493047E-03  0.1187108E+04  0.7818609E-02  0.9124216E-01
       -2   -1    0    0    0  501  0.00000000000E+00  0.00000000000E+00  0.57968712125E+03  0.57968712126E+03  0.25500000920E-02 0.  1.
        2   -1    0    0  501    0  0.00000000000E+00  0.00000000000E+00 -0.60775265156E+03  0.60775265157E+03  0.25500000920E-02 0. -1.
    10030    2    1    2    0    0  0.00000000000E+00  0.00000000000E+00 -0.28065530310E+02  0.11874397728E+04  0.11871080575E+04 0.  0.
        3    1    3    3  502    0  0.37754106900E+03 -0.44558981863E+03 -0.11998133870E+03  0.59622401586E+03  0.10100000352E+00 0. -1.
       -3    1    3    3    0  502 -0.37754106900E+03  0.44558981863E+03  0.91915808391E+02  0.59121575696E+03  0.10100000352E+00 0.  1.
</event>
<event>
 5   0  0.3944074E-03  0.1187594E+04  0.7818609E-02  0.9123785E-01
       -1   -1    0    0    0  501  0.00000000000E+00  0.00000000000E+00  0.58087966700E+03  0.58087966702E+03  0.50400001928E-02 0.  1.
        1   -1    0    0  501    0  0.00000000000E+00  0.00000000000E+00 -0.60700184300E+03  0.60700184303E+03  0.50400001928E-02 0. -1.
    10030    2    1    2    0    0  0.00000000000E+00  0.00000000000E+00 -0.26122176004E+02  0.11878815100E+04  0.11875942547E+04 0.  0.
        4    1    3    3  502    0 -0.49416559632E+03 -0.32091984615E+03  0.60470170531E+02  0.59232376169E+03  0.12699999809E+01 0.  1.
       -4    1    3    3    0  502  0.49416559632E+03  0.32091984615E+03 -0.86592346535E+02  0.59555774835E+03  0.12699999809E+01 0. -1.
</event>
<event>
 5   0  0.6585930E-03  0.1207239E+04  0.7818609E-02  0.9106544E-01
        2   -1    0    0  501    0  0.00000000000E+00  0.00000000000E+00  0.19661176056E+04  0.19661176056E+04  0.25500000920E-02 0. -1.
       -2   -1    0    0    0  501  0.00000000000E+00  0.00000000000E+00 -0.18531765255E+03  0.18531765256E+03  0.25500000920E-02 0.  1.
    10030    2    1    2    0    0  0.00000000000E+00  0.00000000000E+00  0.17807999531E+04  0.21514352582E+04  0.12072386663E+04 0.  0.
        2    1    3    3  502    0 -0.17871196199E+03  0.55270616918E+03  0.11828740560E+04  0.13178061720E+04  0.25500000920E-02 0. -1.
       -2    1    3    3    0  502  0.17871196199E+03 -0.55270616918E+03  0.59792589710E+03  0.83362908613E+03  0.25500000920E-02 0.  1.
</event>
<event>
 5   0  0.6585930E-03  0.1181297E+04  0.7818609E-02  0.9129387E-01
        2   -1    0    0  501    0  0.00000000000E+00  0.00000000000E+00  0.43589162044E+03  0.43589162045E+03  0.25500000920E-02 0.  1.
       -2   -1    0    0    0  501  0.00000000000E+00  0.00000000000E+00 -0.80034954658E+03  0.80034954658E+03  0.25500000920E-02 0. -1.
    10030    2    1    2    0    0  0.00000000000E+00  0.00000000000E+00 -0.36445792614E+03  0.12362411670E+04  0.11812970173E+04 0.  0.
        2    1    3    3  502    0 -0.34808639014E+02  0.49069672950E+03  0.15988712749E+03  0.51726087734E+03  0.25500000920E-02 0.  1.
       -2    1    3    3    0  502  0.34808639014E+02 -0.49069672950E+03 -0.52434505363E+03  0.71898028969E+03  0.25500000920E-02 0. -1.
</event>
<event>
 5   0  0.3944074E-03  0.1236906E+04  0.7818609E-02  0.9081152E-01
       -1   -1    0    0    0  501  0.00000000000E+00  0.00000000000E+00  0.65196944454E+03  0.65196944456E+03  0.50400001928E-02 0.  1.
        1   -1    0    0  501    0  0.00000000000E+00  0.00000000000E+00 -0.58665990253E+03  0.58665990255E+03  0.50400001928E-02 0. -1.
    10030    2    1    2    0    0  0.00000000000E+00  0.00000000000E+00  0.65309542009E+02  0.12386293471E+04  0.12369063519E+04 0.  0.
        4    1    3    3  502    0 -0.19209691338E+03  0.34796340048E+03  0.50713223206E+03  0.64433257399E+03  0.12699999809E+01 0. -1.
       -4    1    3    3    0  502  0.19209691338E+03 -0.34796340048E+03 -0.44182269005E+03  0.59429677313E+03  0.12699999809E+01 0.  1.
</event>
<event>
 5   0  0.3648616E-03  0.1030044E+04  0.7818609E-02  0.9276193E-01
       -1   -1    0    0    0  501  0.00000000000E+00  0.00000000000E+00  0.31060674069E+03  0.31060674073E+03  0.50400001928E-02 0.  1.
        1   -1    0    0  501    0  0.00000000000E+00  0.00000000000E+00 -0.85396702014E+03  0.85396702015E+03  0.50400001928E-02 0. -1.
    10030    2    1    2    0    0  0.00000000000E+00  0.00000000000E+00 -0.54336027944E+03  0.11645737609E+04  0.10300444899E+04 0.  0.
        2    1    3    3  502    0 -0.24472311353E+03 -0.44889826474E+03 -0.20153832692E+03  0.54956050768E+03  0.25500000920E-02 0. -1.
       -2    1    3    3    0  502  0.24472311353E+03  0.44889826474E+03 -0.34182195253E+03  0.61501325320E+03  0.25500000920E-02 0.  1.
</event>
<event>
 5   0  0.3731281E-03  0.1198229E+04  0.7818609E-02  0.9114408E-01
       -1   -1    0    0    0  501  0.00000000000E+00  0.00000000000E+00  0.64145728532E+03  0.64145728534E+03  0.50400001928E-02 0.  1.
        1   -1    0    0  501    0  0.00000000000E+00  0.00000000000E+00 -0.55956676654E+03  0.55956676656E+03  0.50400001928E-02 0. -1.
    10030    2    1    2    0    0  0.00000000000E+00  0.00000000000E+00  0.81890518782E+02  0.12010240519E+04  0.11982289915E+04 0.  0.
        5    1    3    3  502    0  0.50120243777E+03  0.94618273516E+02 -0.27404818517E+03  0.57903454051E+03  0.46999998093E+01 0. -1.
       -5    1    3    3    0  502 -0.50120243777E+03 -0.94618273516E+02  0.35593870396E+03  0.62198951139E+03  0.46999998093E+01 0.  1.
</event>
<event>
 5   0  0.6658994E-03  0.1185786E+04  0.7818609E-02  0.9125390E-01
        2   -1    0    0  501    0  0.00000000000E+00  0.00000000000E+00  0.11698240485E+04  0.11698240485E+04  0.25500000920E-02 0.  1.
       -2   -1    0    0    0  501  0.00000000000E+00  0.00000000000E+00 -0.30049120798E+03  0.30049120799E+03  0.25500000920E-02 0. -1.
    10030    2    1    2    0    0  0.00000000000E+00  0.00000000000E+00  0.86933284047E+03  0.14703152564E+04  0.11857855480E+04 0.  0.
        4    1    3    3  502    0 -0.54664823265E+03  0.14283126265E+03  0.21183671313E+03  0.60340820825E+03  0.12699999809E+01 0.  1.
       -4    1    3    3    0  502  0.54664823265E+03 -0.14283126265E+03  0.65749612734E+03  0.86690704820E+03  0.12699999809E+01 0. -1.
</event>
<event>
 5   0  0.3731281E-03  0.1215665E+04  0.7818609E-02  0.9099254E-01
       -1   -1    0    0    0  501  0.00000000000E+00  0.00000000000E+00  0.31446513224E+03  0.31446513228E+03  0.50400001928E-02 0. -1.
        1   -1    0    0  501    0  0.00000000000E+00  0.00000000000E+00 -0.11748855629E+04  0.11748855629E+04  0.50400001928E-02 0.  1.
    10030    2    1    2    0    0  0.00000000000E+00  0.00000000000E+00 -0.86042043069E+03  0.14893506952E+04  0.12156653223E+04 0.  0.
        5    1    3    3  502    0  0.20243021413E+03  0.36614089148E+03  0.10996236805E+03  0.43260947331E+03  0.46999998093E+01 0. -1.
       -5    1    3    3    0  502 -0.20243021413E+03 -0.36614089148E+03 -0.97038279874E+03  0.10567412219E+04  0.46999998093E+01 0.  1.
</event>
<event>
 5   0  0.6349142E-03  0.1548883E+04  0.7818609E-02  0.8852582E-01
        2   -1    0    0  501    0  0.00000000000E+00  0.00000000000E+00  0.61492308567E+03  0.61492308567E+03  0.25500000920E-02 0. -1.
       -2   -1    0    0    0  501  0.00000000000E+00  0.00000000000E+00 -0.97534070067E+03  0.97534070067E+03  0.25500000920E-02 0.  1.
    10030    2    1    2    0    0  0.00000000000E+00  0.00000000000E+00 -0.36041761500E+03  0.15902637863E+04  0.15488828403E+04 0.  0.
        1    1    3    3  502    0 -0.22329935037E+03  0.13273085208E+03  0.56885781214E+03  0.62536332594E+03  0.50400001928E-02 0. -1.
       -1    1    3    3    0  502  0.22329935037E+03 -0.13273085208E+03 -0.92927542714E+03  0.96490046040E+03  0.50400001928E-02 0.  1.
</event>
<event>
 5   0  0.3731281E-03  0.1166388E+04  0.7818609E-02  0.9142797E-01
       -1   -1    0    0    0  501  0.00000000000E+00  0.00000000000E+00  0.22607151384E+03  0.22607151390E+03  0.50400001928E-02 0. -1.
        1   -1    0    0  501    0  0.00000000000E+00  0.00000000000E+00 -0.15044577975E+04  0.15044577975E+04  0.50400001928E-02 0.  1.
    10030    2    1    2    0    0  0.00000000000E+00  0.00000000000E+00 -0.12783862837E+04  0.17305293114E+04  0.11663876746E+04 0.  0.
        5    1    3    3  502    0  0.71629281256E+02 -0.51503390811E+03 -0.10308985200E+04  0.11546274417E+04  0.46999998093E+01 0.  1.
       -5    1    3    3    0  502 -0.71629281256E+02  0.51503390811E+03 -0.24748776364E+03  0.57590186976E+03  0.46999998093E+01 0. -1.
</event>
<event>
 5   0  0.3701879E-03  0.1168170E+04  0.7818609E-02  0.9141183E-01
       -1   -1    0    0    0  501  0.00000000000E+00  0.00000000000E+00  0.55616523418E+03  0.55616523420E+03  0.50400001928E-02 0.  1.
        1   -1    0    0  501    0  0.00000000000E+00  0.00000000000E+00 -0.61340654374E+03  0.61340654376E+03  0.50400001928E-02 0. -1.
    10030    2    1    2    0    0  0.00000000000E+00  0.00000000000E+00 -0.57241309563E+02  0.11695717780E+04  0.11681701829E+04 0.  0.
        1    1    3    3  502    0 -0.42571683667E+02 -0.32205764611E+03  0.45737077085E+03  0.56100044361E+03  0.50400001928E-02 0.  1.
       -1    1    3    3    0  502  0.42571683667E+02  0.32205764611E+03 -0.51461208042E+03  0.60857133436E+03  0.50400001928E-02 0. -1.
</event>
<event>
 5   0  0.3772254E-03  0.1202235E+04  0.7818609E-02  0.9110903E-01
       -1   -1    0    0    0  501  0.00000000000E+00  0.00000000000E+00  0.45766795110E+03  0.45766795112E+03  0.50400001928E-02 0.  1.
        1   -1    0    0  501    0  0.00000000000E+00  0.00000000000E+00 -0.78952886432E+03  0.78952886434E+03  0.50400001928E-02 0. -1.
    10030    2    1    2    0    0  0.00000000000E+00  0.00000000000E+00 -0.33186091322E+03  0.12471968155E+04  0.12022346821E+04 0.  0.
        3    1    3    3  502    0 -0.53358055632E+03  0.15587629994E+03 -0.40325777525E+03  0.68674775170E+03  0.10100000352E+00 0.  1.
       -3    1    3    3    0  502  0.53358055632E+03 -0.15587629994E+03  0.71396862029E+02  0.56044906376E+03  0.10100000352E+00 0. -1.
</event>
<event>
 5   0  0.3731281E-03  0.1187204E+04  0.7818609E-02  0.9124131E-01
        1   -1    0    0  501    0  0.00000000000E+00  0.00000000000E+00  0.81663540000E+03  0.81663540001E+03  0.50400001928E-02 0. -1.
       -1   -1    0    0    0  501  0.00000000000E+00  0.00000000000E+00 -0.43148204988E+03  0.43148204991E+03  0.50400001928E-02 0.  1.
    10030    2    1    2    0    0  0.00000000000E+00  0.00000000000E+00  0.38515335012E+03  0.12481174499E+04  0.11872043066E+04 0.  0.
        5    1    3    3  502    0 -0.56702203466E+03 -0.37764795944E+02  0.37284231487E+03  0.67968643459E+03  0.46999998093E+01 0. -1.
       -5    1    3    3    0  502  0.56702203466E+03  0.37764795944E+02  0.12311035254E+02  0.56843101533E+03  0.46999998093E+01 0.  1.
</event>
<event>
 5   0  0.6658994E-03  0.1335707E+04  0.7818609E-02  0.9001719E-01
        2   -1    0    0  501    0  0.00000000000E+00  0.00000000000E+00  0.87300648476E+03  0.87300648477E+03  0.25500000920E-02 0.  1.
       -2   -1    0    0    0  501  0.00000000000E+00  0.00000000000E+00 -0.51091064241E+03  0.51091064242E+03  0.25500000920E-02 0. -1.
    10030    2    1    2    0    0  0.00000000000E+00  0.00000000000E+00  0.36209584235E+03  0.13839171272E+04  0.13357070097E+04 0.  0.
        4    1    3    3  502    0 -0.62851352895E+03  0.63411666634E+00  0.41502393263E+03  0.75317736008E+03  0.12699999809E+01 0.  1.
       -4    1    3    3    0  502  0.62851352895E+03 -0.63411666634E+00 -0.52928090281E+02  0.63073976711E+03  0.12699999809E+01 0. -1.
</event>
<event>
 5   0  0.6493047E-03  0.1201279E+04  0.7818609E-02  0.9111738E-01
        2   -1    0    0  501    0  0.00000000000E+00  0.00000000000E+00  0.85667226899E+03  0.85667226899E+03  0.25500000920E-02 0. -1.
       -2   -1    0    0    0  501  0.00000000000E+00  0.00000000000E+00 -0.42112674739E+03  0.42112674740E+03  0.25500000920E-02 0.  1.
    10030    2    1    2    0    0  0.00000000000E+00  0.00000000000E+00  0.43554552159E+03  0.12777990164E+04  0.12012786625E+04 0.  0.
        3    1    3    3  502    0  0.21607871560E+01 -0.53166066301E+03  0.51503786597E+03  0.74022411686E+03  0.10100000352E+00 0.  1.
       -3    1    3    3    0  502 -0.21607871560E+01  0.53166066301E+03 -0.79492344380E+02  0.53757489953E+03  0.10100000352E+00 0. -1.
</event>
<event>
 5   0  0.6585930E-03  0.1220323E+04  0.7818609E-02  0.9095251E-01
       -2   -1    0    0    0  501  0.00000000000E+00  0.00000000000E+00  0.19272197881E+03  0.19272197882E+03  0.25500000920E-02 0.  1.
        2   -1    0    0  501    0  0.00000000000E+00  0.00000000000E+00 -0.19317832080E+04  0.19317832080E+04  0.25500000920E-02 0. -1.
    10030    2    1    2    0    0  0.00000000000E+00  0.00000000000E+00 -0.17390612292E+04  0.21245051868E+04  0.12203230433E+04 0.  0.
        2    1    3    3  502    0 -0.57960931294E+03  0.16777011696E+03 -0.71185023028E+03  0.93317978876E+03  0.25500000920E-02 0. -1.
       -2    1    3    3    0  502  0.57960931294E+03 -0.16777011696E+03 -0.10272109989E+04  0.11913253981E+04  0.25500000920E-02 0.  1.
</event>
<event>
 5   0  0.6349142E-03  0.1137676E+04  0.7818609E-02  0.9169229E-01
       -2   -1    0    0    0  501  0.00000000000E+00  0.00000000000E+00  0.85124573981E+03  0.85124573981E+03  0.25500000920E-02 0. -1.
        2   -1    0    0  501    0  0.00000000000E+00  0.00000000000E+00 -0.38012140061E+03  0.38012140062E+03  0.25500000920E-02 0.  1.
    10030    2    1    2    0    0  0.00000000000E+00  0.00000000000E+00  0.47112433920E+03  0.12313671404E+04  0.11376760925E+04 0.  0.
        1    1    3    3  502    0  0.46240048124E+03  0.10960383202E+02 -0.12282971819E+03  0.47856188184E+03  0.50400001928E-02 0.  1.
       -1    1    3    3    0  502 -0.46240048124E+03 -0.10960383202E+02  0.59395405739E+03  0.75280525859E+03  0.50400001928E-02 0. -1.
</event>
<event>
 5   0  0.6640844E-03  0.1171491E+04  0.7818609E-02  0.9138183E-01
        2   -1    0    0  501    0  0.00000000000E+00  0.00000000000E+00  0.13045026536E+04  0.13045026536E+04  0.25500000920E-02 0.  1.
       -2   -1    0    0    0  501  0.00000000000E+00  0.00000000000E+00 -0.26301040178E+03  0.26301040179E+03  0.25500000920E-02 0. -1.
    10030    2    1    2    0    0  0.00000000000E+00  0.00000000000E+00  0.10414922518E+04  0.15675130554E+04  0.11714909595E+04 0.  0.
        5    1    3    3  502    0 -0.34419817994E+03 -0.29071232819E+03  0.19933553657E+02  0.45100496826E+03  0.46999998093E+01 0. -1.
       -5    1    3    3    0  502  0.34419817994E+03  0.29071232819E+03  0.10215586981E+04  0.11165080871E+04  0.46999998093E+01 0.  1.
</event>
<event>
 5   0  0.6493047E-03  0.1233457E+04  0.7818609E-02  0.9084066E-01
       -2   -1    0    0    0  501  0.00000000000E+00  0.00000000000E+00  0.21981354715E+03  0.21981354717E+03  0.25500000920E-02 0. -1.
        2   -1    0    0  501    0  0.00000000000E+00  0.00000000000E+00 -0.17303481503E+04  0.17303481503E+04  0.25500000920E-02 0.  1.
    10030    2    1    2    0    0  0.00000000000E+00  0.00000000000E+00 -0.15105346031E+04  0.19501616974E+04  0.12334568736E+04 0.  0.
        3    1    3    3  502    0  0.86473573388E+02 -0.38676421706E+03 -0.15023712189E+04  0.15537643090E+04  0.10100000352E+00 0.  1.
       -3    1    3    3    0  502 -0.86473573388E+02  0.38676421706E+03 -0.81633842352E+01  0.39639738841E+03  0.10100000352E+00 0. -1.
</event>
<event>
 5   0  0.3701879E-03  0.1275071E+04  0.7818609E-02  0.9049571E-01
       -1   -1    0    0    0  501  0.00000000000E+00  0.00000000000E+00  0.70303876020E+03  0.70303876022E+03  0.50400001928E-02 0.  1.
        1   -1    0    0  501    0  0.00000000000E+00  0.00000000000E+00 -0.57813573620E+03  0.57813573622E+03  0.50400001928E-02 0. -1.
    10030    2    1    2    0    0  0.00000000000E+00  0.00000000000E+00  0.12490302400E+03  0.12811744964E+04  0.12750714980E+04 0.  0.
        1    1    3    3  502    0  0.35464709192E+03  0.52643074832E+03  0.26018370568E+01  0.63475244164E+03  0.50400001928E-02 0. -1.
       -1    1    3    3    0  502 -0.35464709192E+03 -0.52643074832E+03  0.12230118695E+03  0.64642205481E+03  0.50400001928E-02 0.  1.
</event>
<event>
 5   0  0.3772254E-03  0.1187542E+04  0.7818609E-02  0.9123831E-01
       -1   -1    0    0    0  501  0.00000000000E+00  0.00000000000E+00  0.65742210412E+03  0.65742210414E+03  0.50400001928E-02 0. -1.
        1   -1    0    0  501    0  0.00000000000E+00  0.00000000000E+00 -0.53628261794E+03  0.53628261796E+03  0.50400001928E-02 0.  1.
    10030    2    1    2    0    0  0.00000000000E+00  0.00000000000E+00  0.12113948618E+03  0.11937047221E+04  0.11875420786E+04 0.  0.
        3    1    3    3  502    0 -0.45970268315E+03  0.13901149315E+03 -0.29040302524E+03  0.56123495917E+03  0.10100000352E+00 0.  1.
       -3    1    3    3    0  502  0.45970268315E+03 -0.13901149315E+03  0.41154251142E+03  0.63246976293E+03  0.10100000352E+00 0. -1.
</event>
<event>
 5   0  0.3731281E-03  0.6358382E+03  0.7818609E-02  0.9833722E-01
       -1   -1    0    0    0  501  0.00000000000E+00  0.00000000000E+00  0.16883615366E+03  0.16883615373E+03  0.50400001928E-02 0. -1.
        1   -1    0    0  501    0  0.00000000000E+00  0.00000000000E+00 -0.59864291932E+03  0.59864291934E+03  0.50400001928E-02 0.  1.
    10030    2    1    2    0    0  0.00000000000E+00  0.00000000000E+00 -0.42980676566E+03  0.76747907307E+03  0.63583824342E+03 0.  0.
        5    1    3    3  502    0  0.13792203991E+03 -0.19702191092E+03  0.36004217143E+02  0.24322523744E+03  0.46999998093E+01 0. -1.
       -5    1    3    3    0  502 -0.13792203991E+03  0.19702191092E+03 -0.46581098280E+03  0.52425383563E+03  0.46999998093E+01 0.  1.
</event>
<event>
 5   0  0.3772254E-03  0.1113991E+04  0.7818609E-02  0.9191662E-01
        1   -1    0    0  501    0  0.00000000000E+00  0.00000000000E+00  0.14329418907E+04  0.14329418907E+04  0.50400001928E-02 0.  1.
       -1   -1    0    0    0  501  0.00000000000E+00  0.00000000000E+00 -0.21650841301E+03  0.21650841306E+03  0.50400001928E-02 0. -1.
    10030    2    1    2    0    0  0.00000000000E+00  0.00000000000E+00  0.12164334777E+04  0.16494503038E+04  0.11139909780E+04 0.  0.
        3    1    3    3  502    0 -0.82448214073E+02  0.33074705677E+03  0.12604716240E+04  0.13057488460E+04  0.10100000352E+00 0.  1.
       -3    1    3    3    0  502  0.82448214073E+02 -0.33074705677E+03 -0.44038146331E+02  0.34370145781E+03  0.10100000352E+00 0. -1.
</event>
<event>
 5   0  0.6585930E-03  0.1238838E+04  0.7818609E-02  0.9079525E-01
       -2   -1    0    0    0  501  0.00000000000E+00  0.00000000000E+00  0.32976907474E+03  0.32976907475E+03  0.25500000920E-02 0.  1.
        2   -1    0    0  501    0  0.00000000000E+00  0.00000000000E+00 -0.11634806298E+04  0.11634806298E+04  0.25500000920E-02 0. -1.
    10030    2    1    2    0    0  0.00000000000E+00  0.00000000000E+00 -0.83371155503E+03  0.14932497045E+04  0.12388380536E+04 0.  0.
        2    1    3    3  502    0 -0.52507252589E+03 -0.10268533528E+03 -0.40607716840E+02  0.53655793928E+03  0.25500000920E-02 0. -1.
       -2    1    3    3    0  502  0.52507252589E+03  0.10268533528E+03 -0.79310383819E+03  0.95669176524E+03  0.25500000920E-02 0.  1.
</event>
<event>
 5   0  0.6493047E-03  0.1253497E+04  0.7818609E-02  0.9067278E-01
        2   -1    0    0  501    0  0.00000000000E+00  0.00000000000E+00  0.40371886906E+03  0.40371886907E+03  0.25500000920E-02 0. -1.
       -2   -1    0    0    0  501  0.00000000000E+00  0.00000000000E+00 -0.97298854854E+03  0.97298854854E+03  0.25500000920E-02 0.  1.
    10030    2    1    2    0    0  0.00000000000E+00  0.00000000000E+00 -0.56926967947E+03  0.13767074176E+04  0.12534972460E+04 0.  0.
        3    1    3    3  502    0 -0.69125475850E+02  0.14895027459E+03 -0.94894269623E+03  0.96304556831E+03  0.10100000352E+00 0.  1.
       -3    1    3    3    0  502  0.69125475850E+02 -0.14895027459E+03  0.37967301676E+03  0.41366184930E+03  0.10100000352E+00 0. -1.
</event>
<event>
 5   0  0.3772254E-03  0.1174538E+04  0.7818609E-02  0.9135440E-01
        1   -1    0    0  501    0  0.00000000000E+00  0.00000000000E+00  0.12489489829E+04  0.12489489830E+04  0.50400001928E-02 0.  1.
       -1   -1    0    0    0  501  0.00000000000E+00  0.00000000000E+00 -0.27613985797E+03  0.27613985802E+03  0.50400001928E-02 0. -1.
    10030    2    1    2    0    0  0.00000000000E+00  0.00000000000E+00  0.97280912498E+03  0.15250888410E+04  0.11745375172E+04 0.  0.
        3    1    3    3  502    0 -0.41057661711E+03 -0.18746626135E+03 -0.14564519671E+01  0.45135228936E+03  0.10100000352E+00 0. -1.
       -3    1    3    3    0  502  0.41057661711E+03  0.18746626135E+03  0.97426557694E+03  0.10737365516E+04  0.10100000352E+00 0.  1.
</event>
<event>
 5   0  0.3648616E-03  0.1222248E+04  0.7818609E-02  0.9093603E-01
       -1   -1    0    0    0  501  0.00000000000E+00  0.00000000000E+00  0.19091200239E+03  0.19091200246E+03  0.50400001928E-02 0. -1.
        1   -1    0    0  501    0  0.00000000000E+00  0.00000000000E+00 -0.19562541514E+04  0.19562541514E+04  0.50400001928E-02 0.  1.
    10030    2    1    2    0    0  0.00000000000E+00  0.00000000000E+00 -0.17653421490E+04  0.21471661538E+04  0.12222477610E+04 0.  0.
        2    1    3    3  502    0 -0.31417792161E+02 -0.54070406007E+03 -0.13799372319E+04  0.14824219110E+04  0.25500000920E-02 0.  1.
       -2    1    3    3    0  502  0.31417792161E+02  0.54070406007E+03 -0.38540491706E+03  0.66474424281E+03  0.25500000920E-02 0. -1.
</event>
<event>
 5   0  0.6585930E-03  0.1186711E+04  0.7818609E-02  0.9124568E-01
        2   -1    0    0  501    0  0.00000000000E+00  0.00000000000E+00  0.22899673088E+04  0.22899673088E+04  0.25500000920E-02 0. -1.
       -2   -1    0    0    0  501  0.00000000000E+00  0.00000000000E+00 -0.15374490666E+03  0.15374490668E+03  0.25500000920E-02 0.  1.
    10030    2    1    2    0    0  0.00000000000E+00  0.00000000000E+00  0.21362224022E+04  0.24437122155E+04  0.11867111024E+04 0.  0.
        2    1    3    3  502    0 -0.42116148938E+03  0.62961291863E+02  0.21724832628E+03  0.47805643986E+03  0.25500000920E-02 0.  1.
       -2    1    3    3    0  502  0.42116148938E+03 -0.62961291863E+02  0.19189740759E+04  0.19656557756E+04  0.25500000920E-02 0. -1.
</event>
<event>
 5   0  0.3648616E-03  0.1167123E+04  0.7818609E-02  0.9142130E-01
       -1   -1    0    0    0  501  0.00000000000E+00  0.00000000000E+00  0.24563859169E+03  0.24563859174E+03  0.50400001928E-02 0. -1.
        1   -1    0    0  501    0  0.00000000000E+00  0.00000000000E+00 -0.13863627752E+04  0.13863627752E+04  0.50400001928E-02 0.  1.
    10030    2    1    2    0    0  0.00000000000E+00  0.00000000000E+00 -0.11407241835E+04  0.16320013669E+04  0.11671233006E+04 0.  0.
        2    1    3    3  502    0  0.42940204575E+03 -0.37948905188E+03 -0.72446930303E+03  0.92371739641E+03  0.25500000920E-02 0. -1.
       -2    1    3    3    0  502 -0.42940204575E+03  0.37948905188E+03 -0.41625488049E+03  0.70828397054E+03  0.25500000920E-02 0.  1.
</event>
<event>
 5   0  0.2537625E-03  0.1185780E+04  0.7818609E-02  0.9125395E-01
       -3   -1    0    0    0  501  0.00000000000E+00  0.00000000000E+00  0.51492051987E+03  0.51492052977E+03  0.10100000352E+00 0.  1.
        3   -1    0    0  501    0  0.00000000000E+00  0.00000000000E+00 -0.68266521685E+03  0.68266522432E+03  0.10100000352E+00 0. -1.
    10030    2    1    2    0    0  0.00000000000E+00  0.00000000000E+00 -0.16774469698E+03  0.11975857541E+04  0.11857796402E+04 0.  0.
        4    1    3    3  502    0  0.27863423008E+03 -0.51535940376E+03 -0.17579711804E+03  0.61166869205E+03  0.12699999809E+01 0. -1.
       -4    1    3    3    0  502 -0.27863423008E+03  0.51535940376E+03  0.80524210563E+01  0.58591706205E+03  0.12699999809E+01 0.  1.
</event>
<event>
 5   0  0.6349142E-03  0.1225584E+04  0.7818609E-02  0.9090753E-01
       -2   -1    0    0    0  501  0.00000000000E+00  0.00000000000E+00  0.37775850350E+03  0.37775850350E+03  0.25500000920E-02 0.  1.
        2   -1    0    0  501    0  0.00000000000E+00  0.00000000000E+00 -0.99405770220E+03  0.99405770220E+03  0.25500000920E-02 0. -1.
    10030    2    1    2    0    0  0.00000000000E+00  0.00000000000E+00 -0.61629919870E+03  0.13718162057E+04  0.12255835345E+04 0.  0.
        1    1    3    3  502    0  0.10901323850E+03 -0.44133360558E+03  0.15179904891E+03  0.47927256218E+03  0.50400001928E-02 0.  1.
       -1    1    3    3    0  502 -0.10901323850E+03  0.44133360558E+03 -0.76809824762E+03  0.89254364353E+03  0.50400001928E-02 0. -1.
</event>
<event>
 5   0  0.3944074E-03  0.1213609E+04  0.7818609E-02  0.9101028E-01
        1   -1    0    0  501    0  0.00000000000E+00  0.00000000000E+00  0.55802812968E+03  0.55802812970E+03  0.50400001928E-02 0.  1.
       -1   -1    0    0    0  501  0.00000000000E+00  0.00000000000E+00 -0.65984394579E+03  0.65984394581E+03  0.50400001928E-02 0. -1.
    10030    2    1    2    0    0  0.00000000000E+00  0.00000000000E+00 -0.10181581611E+03  0.12178720755E+04  0.12136086403E+04 0.  0.
        4    1    3    3  502    0 -0.21735456434E+02  0.18449418838E+03 -0.63060441459E+03  0.65739947993E+03  0.12699999809E+01 0. -1.
       -4    1    3    3    0  502  0.21735456434E+02 -0.18449418838E+03  0.52878859848E+03  0.56047259558E+03  0.12699999809E+01 0.  1.
</event>
<event>
 5   0  0.3701879E-03  0.1222854E+04  0.7818609E-02  0.9093084E-01
       -1   -1    0    0    0  501  0.00000000000E+00  0.00000000000E+00  0.23218367499E+03  0.23218367504E+03  0.50400001928E-02 0. -1.
        1   -1    0    0  501    0  0.00000000000E+00  0.00000000000E+00 -0.16101170316E+04  0.16101170316E+04  0.50400001928E-02 0.  1.
    10030    2    1    2    0    0  0.00000000000E+00  0.00000000000E+00 -0.13779333566E+04  0.18423007067E+04  0.12228538582E+04 0.  0.
        1    1    3    3  502    0 -0.35945356053E+03 -0.49451632219E+03 -0.67470326086E+03  0.91048214992E+03  0.50400001928E-02 0. -1.
       -1    1    3    3    0  502  0.35945356053E+03  0.49451632219E+03 -0.70323009579E+03  0.93181855677E+03  0.50400001928E-02 0.  1.
</event>
<event>
 5   0  0.3648616E-03  0.1146927E+04  0.7818609E-02  0.9160623E-01
        1   -1    0    0  501    0  0.00000000000E+00  0.00000000000E+00  0.14256176787E+04  0.14256176788E+04  0.50400001928E-02 0.  1.
       -1   -1    0    0    0  501  0.00000000000E+00  0.00000000000E+00 -0.23067931469E+03  0.23067931475E+03  0.50400001928E-02 0. -1.
    10030    2    1    2    0    0  0.00000000000E+00  0.00000000000E+00  0.11949383641E+04  0.16562969935E+04  0.11469272151E+04 0.  0.
        2    1    3    3  502    0  0.49367424433E+03  0.28843149655E+03  0.66129721345E+03  0.87419734171E+03  0.25500000920E-02 0. -1.
       -2    1    3    3    0  502 -0.49367424433E+03 -0.28843149655E+03  0.53364115060E+03  0.78209965180E+03  0.25500000920E-02 0.  1.
</event>
<event>
 5   0  0.6349142E-03  0.1060738E+04  0.7818609E-02  0.9244327E-01
        2   -1    0    0  501    0  0.00000000000E+00  0.00000000000E+00  0.14825260415E+04  0.14825260415E+04  0.25500000920E-02 0. -1.
       -2   -1    0    0    0  501  0.00000000000E+00  0.00000000000E+00 -0.18973785651E+03  0.18973785652E+03  0.25500000920E-02 0.  1.
    10030    2    1    2    0    0  0.00000000000E+00  0.00000000000E+00  0.12927881850E+04  0.16722638980E+04  0.10607380701E+04 0.  0.
        1    1    3    3  502    0  0.13023270110E+03 -0.38022259264E+03  0.10081799075E+03  0.41435979977E+03  0.50400001928E-02 0.  1.
       -1    1    3    3    0  502 -0.13023270110E+03  0.38022259264E+03  0.11919701942E+04  0.12579040982E+04  0.50400001928E-02 0. -1.
</event>
<event>
 5   0  0.6640844E-03  0.1207302E+04  0.7818609E-02  0.9106489E-01
        2   -1    0    0  501    0  0.00000000000E+00  0.00000000000E+00  0.14441508984E+04  0.14441508984E+04  0.25500000920E-02 0.  1.
       -2   -1    0    0    0  501  0.00000000000E+00  0.00000000000E+00 -0.25232445873E+03  0.25232445874E+03  0.25500000920E-02 0. -1.
    10030    2    1    2    0    0  0.00000000000E+00  0.00000000000E+00  0.11918264397E+04  0.16964753572E+04  0.12073021060E+04 0.  0.
        5    1    3    3  502    0 -0.38416296407E+03 -0.44992218325E+03  0.42751820592E+03  0.72993496993E+03  0.46999998093E+01 0. -1.
       -5    1    3    3    0  502  0.38416296407E+03  0.44992218325E+03  0.76430823377E+03  0.96654038723E+03  0.46999998093E+01 0.  1.
</event>
<event>
 5   0  0.3772254E-03  0.1198945E+04  0.7818609E-02  0.9113781E-01
       -1   -1    0    0    0  501  0.00000000000E+00  0.00000000000E+00  0.40983082672E+03  0.40983082675E+03  0.50400001928E-02 0. -1.
        1   -1    0    0  501    0  0.00000000000E+00  0.00000000000E+00 -0.87686674488E+03  0.87686674489E+03  0.50400001928E-02 0.  1.
    10030    2    1    2    0    0  0.00000000000E+00  0.00000000000E+00 -0.46703591816E+03  0.12866975716E+04  0.11989445742E+04 0.  0.
        3    1    3    3  502    0 -0.28443528833E+03  0.51956248922E+03 -0.13446752735E+03  0.60739619654E+03  0.10100000352E+00 0. -1.
       -3    1    3    3    0  502  0.28443528833E+03 -0.51956248922E+03 -0.33256839081E+03  0.67930137511E+03  0.10100000352E+00 0.  1.
</event>
<event>
 5   0  0.6658994E-03  0.1190892E+04  0.7818609E-02  0.9120866E-01
        2   -1    0    0  501    0  0.00000000000E+00  0.00000000000E+00  0.86599033300E+03  0.86599033301E+03  0.25500000920E-02 0. -1.
       -2   -1    0    0    0  501  0.00000000000E+00  0.00000000000E+00 -0.40942239555E+03  0.40942239556E+03  0.25500000920E-02 0.  1.
    10030    2    1    2    0    0  0.00000000000E+00  0.00000000000E+00  0.45656793745E+03  0.12754127286E+04  0.11908918283E+04 0.  0.
        4    1    3    3  502    0  0.53819590973E+03  0.14629211832E+03  0.45164792295E+03  0.71766543760E+03  0.12699999809E+01 0. -1.
       -4    1    3    3    0  502 -0.53819590973E+03 -0.14629211832E+03  0.49200145041E+01  0.55774729096E+03  0.12699999809E+01 0.  1.
</event>
<event>
 5   0  0.3944074E-03  0.1190311E+04  0.7818609E-02  0.9121380E-01
        1   -1    0    0  501    0  0.00000000000E+00  0.00000000000E+00  0.12268798362E+04  0.12268798362E+04  0.50400001928E-02 0. -1.
       -1   -1    0    0    0  501  0.00000000000E+00  0.00000000000E+00 -0.28870810892E+03  0.28870810896E+03  0.50400001928E-02 0.  1.
    10030    2    1    2    0    0  0.00000000000E+00  0.00000000000E+00  0.93817172732E+03  0.15155879452E+04  0.11903111483E+04 0.  0.
        4    1    3    3  502    0  0.19015633957E+03  0.17855577539E+02 -0.24862571112E+03  0.31351971590E+03  0.12699999809E+01 0.  1.
       -4    1    3    3    0  502 -0.19015633957E+03 -0.17855577539E+02  0.11867974384E+04  0.12020682293E+04  0.12699999809E+01 0. -1.
</event>
<event>
 5   0  0.3731281E-03  0.1245539E+04  0.7818609E-02  0.9073904E-01
        1   -1    0    0  501    0  0.00000000000E+00  0.00000000000E+00  0.35452631475E+03  0.35452631478E+03  0.50400001928E-02 0. -1.
       -1   -1    0    0    0  501  0.00000000000E+00  0.00000000000E+00 -0.10939726706E+04  0.10939726706E+04  0.50400001928E-02 0.  1.
    10030    2    1    2    0    0  0.00000000000E+00  0.00000000000E+00 -0.73944635588E+03  0.14484989854E+04  0.12455394002E+04 0.  0.
        5    1    3    3  502    0 -0.47925655119E+03 -0.14696977151E+03 -0.79943730071E+03  0.94361488085E+03  0.46999998093E+01 0.  1.
       -5    1    3    3    0  502  0.47925655119E+03  0.14696977151E+03  0.59990944829E+02  0.50488410457E+03  0.46999998093E+01 0. -1.
</event>
<event>
 5   0  0.3648616E-03  0.7382446E+03  0.7818609E-02  0.9653975E-01
        1   -1    0    0  501    0  0.00000000000E+00  0.00000000000E+00  0.75715543567E+03  0.75715543569E+03  0.50400001928E-02 0.  1.
       -1   -1    0    0    0  501  0.00000000000E+00  0.00000000000E+00 -0.17995150584E+03  0.17995150591E+03  0.50400001928E-02 0. -1.
    10030    2    1    2    0    0  0.00000000000E+00  0.00000000000E+00  0.57720392983E+03  0.93710694160E+03  0.73824456881E+03 0.  0.
        2    1    3    3  502    0 -0.10282575941E+02 -0.78642479298E+02 -0.16900774661E+03  0.18669223160E+03  0.25500000920E-02 0. -1.
       -2    1    3    3    0  502  0.10282575941E+02  0.78642479298E+02  0.74621167644E+03  0.75041471000E+03  0.25500000920E-02 0.  1.
</event>
<event>
 5   0  0.3648616E-03  0.1207750E+04  0.7818609E-02  0.9106100E-01
       -1   -1    0    0    0  501  0.00000000000E+00  0.00000000000E+00  0.77538667797E+03  0.77538667799E+03  0.50400001928E-02 0. -1.
        1   -1    0    0  501    0  0.00000000000E+00  0.00000000000E+00 -0.47030076739E+03  0.47030076741E+03  0.50400001928E-02 0.  1.
    10030    2    1    2    0    0  0.00000000000E+00  0.00000000000E+00  0.30508591059E+03  0.12456874454E+04  0.12077498908E+04 0.  0.
        2    1    3    3  502    0  0.36320769169E+03 -0.42823271110E+03 -0.76611271173E+02  0.56672071520E+03  0.25500000920E-02 0.  1.
       -2    1    3    3    0  502 -0.36320769169E+03  0.42823271110E+03  0.38169718176E+03  0.67896673020E+03  0.25500000920E-02 0. -1.
</event>
<event>
 5   0  0.3731281E-03  0.1193855E+04  0.7818609E-02  0.9118252E-01
        1   -1    0    0  501    0  0.00000000000E+00  0.00000000000E+00  0.42395351234E+03  0.42395351237E+03  0.50400001928E-02 0.  1.
       -1   -1    0    0    0  501  0.00000000000E+00  0.00000000000E+00 -0.84047512569E+03  0.84047512570E+03  0.50400001928E-02 0. -1.
    10030    2    1    2    0    0  0.00000000000E+00  0.00000000000E+00 -0.41652161335E+03  0.12644286381E+04  0.11938549017E+04 0.  0.
        5    1    3    3  502    0  0.46948924500E+03 -0.36700012953E+03 -0.17170916182E+03  0.62017366318E+03  0.46999998093E+01 0.  1.
       -5    1    3    3    0  502 -0.46948924500E+03  0.36700012953E+03 -0.24481245152E+03  0.64425497489E+03  0.46999998093E+01 0. -1.
</event>
<event>
 5   0  0.3731281E-03  0.1193707E+04  0.7818609E-02  0.9118383E-01
       -1   -1    0    0    0  501  0.00000000000E+00  0.00000000000E+00  0.51524769151E+03  0.51524769154E+03  0.50400001928E-02 0.  1.
        1   -1    0    0  501    0  0.00000000000E+00  0.00000000000E+00 -0.69138364255E+03  0.69138364256E+03  0.50400001928E-02 0. -1.
    10030    2    1    2    0    0  0.00000000000E+00  0.00000000000E+00 -0.17613595103E+03  0.12066313341E+04  0.11937065398E+04 0.  0.
        5    1    3    3  502    0 -0.40093380289E+03 -0.14846412536E+03 -0.50901689853E+03  0.66476296814E+03  0.46999998093E+01 0. -1.
       -5    1    3    3    0  502  0.40093380289E+03  0.14846412536E+03  0.33288094750E+03  0.54186836596E+03  0.46999998093E+01 0.  1.
</event>
<event>
 5   0  0.3648616E-03  0.1200291E+04  0.7818609E-02  0.9112602E-01
       -1   -1    0    0    0  501  0.00000000000E+00  0.00000000000E+00  0.83477107420E+03  0.83477107421E+03  0.50400001928E-02 0.  1.
        1   -1    0    0  501    0  0.00000000000E+00  0.00000000000E+00 -0.43146515273E+03  0.43146515276E+03  0.50400001928E-02 0. -1.
    10030    2    1    2    0    0  0.00000000000E+00  0.00000000000E+00  0.40330592146E+03  0.12662362270E+04  0.12002910131E+04 0.  0.
        2    1    3    3  502    0 -0.33229379746E+02 -0.32067078460E+03 -0.33236052375E+03  0.46303073497E+03  0.25500000920E-02 0. -1.
       -2    1    3    3    0  502  0.33229379746E+02  0.32067078460E+03  0.73566644521E+03  0.80320549201E+03  0.25500000920E-02 0.  1.
</event>
<event>
 5   0  0.3648616E-03  0.1171712E+04  0.7818609E-02  0.9137984E-01
        1   -1    0    0  501    0  0.00000000000E+00  0.00000000000E+00  0.78206035038E+03  0.78206035039E+03  0.50400001928E-02 0. -1.
       -1   -1    0    0    0  501  0.00000000000E+00  0.00000000000E+00 -0.43887583370E+03  0.43887583373E+03  0.50400001928E-02 0.  1.
    10030    2    1    2    0    0  0.00000000000E+00  0.00000000000E+00  0.34318451668E+03  0.12209361841E+04  0.11717122314E+04 0.  0.
        2    1    3    3  502    0 -0.51450753789E+03 -0.13058975934E+03  0.42990930925E+03  0.68307664722E+03  0.25500000920E-02 0. -1.
       -2    1    3    3    0  502  0.51450753789E+03  0.13058975934E+03 -0.86724792569E+02  0.53785953690E+03  0.25500000920E-02 0.  1.
</event>
<event>
 5   0  0.2537625E-03  0.1223197E+04  0.7818609E-02  0.9092791E-01
       -4   -1    0    0    0  501  0.00000000000E+00  0.00000000000E+00  0.15647059423E+04  0.15647064577E+04  0.12699999809E+01 0. -1.
        4   -1    0    0  501    0  0.00000000000E+00  0.00000000000E+00 -0.23905388269E+03  0.23905725617E+03  0.12699999809E+01 0.  1.
    10030    2    1    2    0    0  0.00000000000E+00  0.00000000000E+00  0.13256520596E+04  0.18037637139E+04  0.12231966941E+04 0.  0.
        2    1    3    3  502    0  0.50329377750E+03 -0.11890738801E+03  0.18134390376E+03  0.54802299663E+03  0.25500000920E-02 0. -1.
       -2    1    3    3    0  502 -0.50329377750E+03  0.11890738801E+03  0.11443081559E+04  0.12557407172E+04  0.25500000920E-02 0.  1.
</event>
<event>
 5   0  0.6349142E-03  0.1212652E+04  0.7818609E-02  0.9101854E-01
        2   -1    0    0  501    0  0.00000000000E+00  0.00000000000E+00  0.66478050816E+03  0.66478050817E+03  0.25500000920E-02 0. -1.
       -2   -1    0    0    0  501  0.00000000000E+00  0.00000000000E+00 -0.55301173013E+03  0.55301173014E+03  0.25500000920E-02 0.  1.
    10030    2    1    2    0    0  0.00000000000E+00  0.00000000000E+00  0.11176877803E+03  0.12177922383E+04  0.12126523310E+04 0.  0.
        1    1    3    3  502    0  0.18239296329E+02 -0.71654763479E+02  0.66023607759E+03  0.66436342105E+03  0.50400001928E-02 0. -1.
       -1    1    3    3    0  502 -0.18239296329E+02  0.71654763479E+02 -0.54846729956E+03  0.55342881726E+03  0.50400001928E-02 0.  1.
</event>
<event>
 5   0  0.3731281E-03  0.1288318E+04  0.7818609E-02  0.9038881E-01
       -1   -1    0    0    0  501  0.00000000000E+00  0.00000000000E+00  0.45112802430E+03  0.45112802433E+03  0.50400001928E-02 0. -1.
        1   -1    0    0  501    0  0.00000000000E+00  0.00000000000E+00 -0.91978485364E+03  0.91978485365E+03  0.50400001928E-02 0.  1.
    10030    2    1    2    0    0  0.00000000000E+00  0.00000000000E+00 -0.46865682934E+03  0.13709128780E+04  0.12883178549E+04 0.  0.
        5    1    3    3  502    0 -0.27028436017E+03  0.32640699336E+03 -0.75053014396E+03  0.86192386419E+03  0.46999998093E+01 0.  1.
       -5    1    3    3    0  502  0.27028436017E+03 -0.32640699336E+03  0.28187331462E+03  0.50898901379E+03  0.46999998093E+01 0. -1.
</event>
<event>
 5   0  0.3648616E-03  0.1180369E+04  0.7818609E-02  0.9130215E-01
       -1   -1    0    0    0  501  0.00000000000E+00  0.00000000000E+00  0.32797681744E+03  0.32797681748E+03  0.50400001928E-02 0.  1.
        1   -1    0    0  501    0  0.00000000000E+00  0.00000000000E+00 -0.10620187168E+04  0.10620187168E+04  0.50400001928E-02 0. -1.
    10030    2    1    2    0    0  0.00000000000E+00  0.00000000000E+00 -0.73404189937E+03  0.13899955343E+04  0.11803686184E+04 0.  0.
        2    1    3    3  502    0  0.36197930544E+03  0.26953561552E+03  0.80835193174E+02  0.45848968807E+03  0.25500000920E-02 0. -1.
       -2    1    3    3    0  502 -0.36197930544E+03 -0.26953561552E+03 -0.81487709255E+03  0.93150584623E+03  0.25500000920E-02 0.  1.
</event>
<event>
 5   0  0.3701879E-03  0.1194710E+04  0.7818609E-02  0.9117500E-01
        1   -1    0    0  501    0  0.00000000000E+00  0.00000000000E+00  0.83781873096E+03  0.83781873098E+03  0.50400001928E-02 0.  1.
       -1   -1    0    0    0  501  0.00000000000E+00  0.00000000000E+00 -0.42590692909E+03  0.42590692912E+03  0.50400001928E-02 0. -1.
    10030    2    1    2    0    0  0.00000000000E+00  0.00000000000E+00  0.41191180187E+03  0.12637256601E+04  0.11947096766E+04 0.  0.
        1    1    3    3  502    0 -0.31498835828E+03 -0.27708992510E+03  0.65577018385E+03  0.77847994611E+03  0.50400001928E-02 0.  1.
       -1    1    3    3    0  502  0.31498835828E+03  0.27708992510E+03 -0.24385838198E+03  0.48524571398E+03  0.50400001928E-02 0. -1.
</event>
<event>
 5   0  0.6640844E-03  0.1139185E+04  0.7818609E-02  0.9167819E-01
       -2   -1    0    0    0  501  0.00000000000E+00  0.00000000000E+00  0.15507490755E+03  0.15507490757E+03  0.25500000920E-02 0. -1.
        2   -1    0    0  501    0  0.00000000000E+00  0.00000000000E+00 -0.20921214263E+04  0.20921214263E+04  0.25500000920E-02 0.  1.
    10030    2    1    2    0    0  0.00000000000E+00  0.00000000000E+00 -0.19370465187E+04  0.22471963338E+04  0.11391848608E+04 0.  0.
        5    1    3    3  502    0  0.37746977208E+03 -0.20834415174E+02 -0.18089120987E+04  0.18479996138E+04  0.46999998093E+01 0.  1.
       -5    1    3    3    0  502 -0.37746977208E+03  0.20834415174E+02 -0.12813441998E+03  0.39919672002E+03  0.46999998093E+01 0. -1.
</event>
<event>
 5   0  0.6640844E-03  0.1197922E+04  0.7818609E-02  0.9114677E-01
       -2   -1    0    0    0  501  0.00000000000E+00  0.00000000000E+00  0.72494796645E+03  0.72494796646E+03  0.25500000920E-02 0.  1.
        2   -1    0    0  501    0  0.00000000000E+00  0.00000000000E+00 -0.49486910969E+03  0.49486910970E+03  0.25500000920E-02 0. -1.
    10030    2    1    2    0    0  0.00000000000E+00  0.00000000000E+00  0.23007885676E+03  0.12198170762E+04  0.11979221256E+04 0.  0.
        5    1    3    3  502    0  0.52270598931E+03 -0.17351261093E+03  0.35472231414E+03  0.65511692663E+03  0.46999998093E+01 0.  1.
       -5    1    3    3    0  502 -0.52270598931E+03  0.17351261093E+03 -0.12464345738E+03  0.56470014953E+03  0.46999998093E+01 0. -1.
</event>
<event>
 5   0  0.6658994E-03  0.1147674E+04  0.7818609E-02  0.9159932E-01
       -2   -1    0    0    0  501  0.00000000000E+00  0.00000000000E+00  0.52739544758E+03  0.52739544759E+03  0.25500000920E-02 0.  1.
        2   -1    0    0  501    0  0.00000000000E+00  0.00000000000E+00 -0.62436791857E+03  0.62436791857E+03  0.25500000920E-02 0. -1.
    10030    2    1    2    0    0  0.00000000000E+00  0.00000000000E+00 -0.96972470985E+02  0.11517633662E+04  0.11476738176E+04 0.  0.
        4    1    3    3  502    0 -0.10813170380E+03 -0.96006749672E+02 -0.60578242657E+03  0.62280311704E+03  0.12699999809E+01 0. -1.
       -4    1    3    3    0  502  0.10813170380E+03  0.96006749672E+02  0.50880995558E+03  0.52896024912E+03  0.12699999809E+01 0.  1.
</event>
<event>
 5   0  0.3731281E-03  0.6136993E+03  0.7818609E-02  0.9877385E-01
        1   -1    0    0  501    0  0.00000000000E+00  0.00000000000E+00  0.18532582721E+03  0.18532582728E+03  0.50400001928E-02 0.  1.
       -1   -1    0    0    0  501  0.00000000000E+00  0.00000000000E+00 -0.50806031564E+03  0.50806031566E+03  0.50400001928E-02 0. -1.
    10030    2    1    2    0    0  0.00000000000E+00  0.00000000000E+00 -0.32273448843E+03  0.69338614295E+03  0.61369926936E+03 0.  0.
        5    1    3    3  502    0 -0.13236717788E+03  0.13774724284E+03  0.10988832175E+03  0.22043798662E+03  0.46999998093E+01 0.  1.
       -5    1    3    3    0  502  0.13236717788E+03 -0.13774724284E+03 -0.43262281018E+03  0.47294815633E+03  0.46999998093E+01 0. -1.
</event>
<event>
 5   0  0.6585930E-03  0.1260222E+04  0.7818609E-02  0.9061718E-01
       -2   -1    0    0    0  501  0.00000000000E+00  0.00000000000E+00  0.35797865197E+03  0.35797865198E+03  0.25500000920E-02 0.  1.
        2   -1    0    0  501    0  0.00000000000E+00  0.00000000000E+00 -0.11091160527E+04  0.11091160527E+04  0.25500000920E-02 0. -1.
    10030    2    1    2    0    0  0.00000000000E+00  0.00000000000E+00 -0.75113740075E+03  0.14670947047E+04  0.12602219954E+04 0.  0.
        2    1    3    3  502    0 -0.28561037649E+03  0.12793529915E+03  0.26110759041E+03  0.40757563924E+03  0.25500000920E-02 0.  1.
       -2    1    3    3    0  502  0.28561037649E+03 -0.12793529915E+03 -0.10122449912E+04  0.10595190655E+04  0.25500000920E-02 0. -1.
</event>
<event>
 5   0  0.3648616E-03  0.9203770E+03  0.7818609E-02  0.9400462E-01
        1   -1    0    0  501    0  0.00000000000E+00  0.00000000000E+00  0.11109485649E+04  0.11109485649E+04  0.50400001928E-02 0. -1.
       -1   -1    0    0    0  501  0.00000000000E+00  0.00000000000E+00 -0.19062398594E+03  0.19062398600E+03  0.50400001928E-02 0.  1.
    10030    2    1    2    0    0  0.00000000000E+00  0.00000000000E+00  0.92032457894E+03  0.13015725509E+04  0.92037697420E+03 0.  0.
        2    1    3    3  502    0  0.17627475694E+02  0.19899199389E+02 -0.18953721390E+03  0.19139242800E+03  0.25500000920E-02 0.  1.
       -2    1    3    3    0  502 -0.17627475694E+02 -0.19899199389E+02  0.11098617928E+04  0.11101801229E+04  0.25500000920E-02 0. -1.
</event>
<event>
 5   0  0.6585930E-03  0.1186781E+04  0.7818609E-02  0.9124507E-01
       -2   -1    0    0    0  501  0.00000000000E+00  0.00000000000E+00  0.56277688497E+03  0.56277688498E+03  0.25500000920E-02 0. -1.
        2   -1    0    0  501    0  0.00000000000E+00  0.00000000000E+00 -0.62566925947E+03  0.62566925947E+03  0.25500000920E-02 0.  1.
    10030    2    1    2    0    0  0.00000000000E+00  0.00000000000E+00 -0.62892374496E+02  0.11884461445E+04  0.11867808507E+04 0.  0.
        2    1    3    3  502    0  0.58723405350E+03 -0.26437244035E+02  0.49719598875E+02  0.58992779217E+03  0.25500000920E-02 0.  1.
       -2    1    3    3    0  502 -0.58723405350E+03  0.26437244035E+02 -0.11261197337E+03  0.59851835228E+03  0.25500000920E-02 0. -1.
</event>
<event>
 5   0  0.3731281E-03  0.1134436E+04  0.7818609E-02  0.9172263E-01
        1   -1    0    0  501    0  0.00000000000E+00  0.00000000000E+00  0.12580407664E+04  0.12580407664E+04  0.50400001928E-02 0. -1.
       -1   -1    0    0    0  501  0.00000000000E+00  0.00000000000E+00 -0.25574406700E+03  0.25574406705E+03  0.50400001928E-02 0.  1.
    10030    2    1    2    0    0  0.00000000000E+00  0.00000000000E+00  0.10022966994E+04  0.15137848335E+04  0.11344363572E+04 0.  0.
        5    1    3    3  502    0  0.35760807511E+03  0.44023855741E+03  0.49505537066E+03  0.75285817578E+03  0.46999998093E+01 0.  1.
       -5    1    3    3    0  502 -0.35760807511E+03 -0.44023855741E+03  0.50724132877E+03  0.76092665772E+03  0.46999998093E+01 0. -1.
</event>
<event>
 5   0  0.6658994E-03  0.1196264E+04  0.7818609E-02  0.9116133E-01
       -2   -1    0    0    0  501  0.00000000000E+00  0.00000000000E+00  0.15976338339E+03  0.15976338341E+03  0.25500000920E-02 0. -1.
        2   -1    0    0  501    0  0.00000000000E+00  0.00000000000E+00 -0.22393218903E+04  0.22393218903E+04  0.25500000920E-02 0.  1.
    10030    2    1    2    0    0  0.00000000000E+00  0.00000000000E+00 -0.20795585069E+04  0.23990852737E+04  0.11962635859E+04 0.  0.
        4    1    3    3  502    0  0.48752717087E+03 -0.30348302269E+03 -0.13752128043E+04  0.14903008278E+04  0.12699999809E+01 0.  1.
       -4    1    3    3    0  502 -0.48752717087E+03  0.30348302269E+03 -0.70434570257E+03  0.90878444586E+03  0.12699999809E+01 0. -1.
</event>
<event>
 5   0  0.3701879E-03  0.1164264E+04  0.7818609E-02  0.9144724E-01
       -1   -1    0    0    0  501  0.00000000000E+00  0.00000000000E+00  0.50409359627E+03  0.50409359630E+03  0.50400001928E-02 0. -1.
        1   -1    0    0  501    0  0.00000000000E+00  0.00000000000E+00 -0.67225150837E+03  0.67225150839E+03  0.50400001928E-02 0.  1.
    10030    2    1    2    0    0  0.00000000000E+00  0.00000000000E+00 -0.16815791210E+03  0.11763451047E+04  0.11642640259E+04 0.  0.
        1    1    3    3  502    0 -0.27228625957E+03  0.38865106550E+03  0.25659662815E+03  0.53947315732E+03  0.50400001928E-02 0. -1.
       -1    1    3    3    0  502  0.27228625957E+03 -0.38865106550E+03 -0.42475454025E+03  0.63687194737E+03  0.50400001928E-02 0.  1.
</event>
<event>
 5   0  0.3731281E-03  0.1200617E+04  0.7818609E-02  0.9112317E-01
        1   -1    0    0  501    0  0.00000000000E+00  0.00000000000E+00  0.13492458648E+04  0.13492458648E+04  0.50400001928E-02 0.  1.
       -1   -1    0    0    0  501  0.00000000000E+00  0.00000000000E+00 -0.26709019271E+03  0.26709019276E+03  0.50400001928E-02 0. -1.
    10030    2    1    2    0    0  0.00000000000E+00  0.00000000000E+00  0.10821556721E+04  0.16163360576E+04  0.12006170715E+04 0.  0.
        5    1    3    3  502    0  0.75325166668E+02  0.20384173510E+03  0.12944066385E+04  0.13125303690E+04  0.46999998093E+01 0.  1.
       -5    1    3    3    0  502 -0.75325166668E+02 -0.20384173510E+03 -0.21225096639E+03  0.30380568861E+03  0.46999998093E+01 0. -1.
</event>
<event>
 5   0  0.3944074E-03  0.1151716E+04  0.7818609E-02  0.9156202E-01
        1   -1    0    0  501    0  0.00000000000E+00  0.00000000000E+00  0.10789590464E+04  0.10789590465E+04  0.50400001928E-02 0.  1.
       -1   -1    0    0    0  501  0.00000000000E+00  0.00000000000E+00 -0.30734462306E+03  0.30734462310E+03  0.50400001928E-02 0. -1.
    10030    2    1    2    0    0  0.00000000000E+00  0.00000000000E+00  0.77161442339E+03  0.13863036696E+04  0.11517156966E+04 0.  0.
        4    1    3    3  502    0  0.24222622552E+03  0.63640024911E+02 -0.23835580413E+03  0.34574369027E+03  0.12699999809E+01 0. -1.
       -4    1    3    3    0  502 -0.24222622552E+03 -0.63640024911E+02  0.10099702275E+04  0.10405599793E+04  0.12699999809E+01 0.  1.
</event>
<event>
 5   0  0.6585930E-03  0.1204577E+04  0.7818609E-02  0.9108860E-01
       -2   -1    0    0    0  501  0.00000000000E+00  0.00000000000E+00  0.23018580824E+03  0.23018580826E+03  0.25500000920E-02 0. -1.
        2   -1    0    0  501    0  0.00000000000E+00  0.00000000000E+00 -0.15759064858E+04  0.15759064858E+04  0.25500000920E-02 0.  1.
    10030    2    1    2    0    0  0.00000000000E+00  0.00000000000E+00 -0.13457206776E+04  0.18060922941E+04  0.12045767857E+04 0.  0.
        2    1    3    3  502    0 -0.33577409044E+03 -0.67552816789E+02  0.69955887358E+02  0.34957323846E+03  0.25500000920E-02 0. -1.
       -2    1    3    3    0  502  0.33577409044E+03  0.67552816789E+02 -0.14156765650E+04  0.14565190556E+04  0.25500000920E-02 0.  1.
</event>
<event>
 5   0  0.6493047E-03  0.1210910E+04  0.7818609E-02  0.9103360E-01
        2   -1    0    0  501    0  0.00000000000E+00  0.00000000000E+00  0.11080608622E+04  0.11080608622E+04  0.25500000920E-02 0. -1.
       -2   -1    0    0    0  501  0.00000000000E+00  0.00000000000E+00 -0.33082645931E+03  0.33082645932E+03  0.25500000920E-02 0.  1.
    10030    2    1    2    0    0  0.00000000000E+00  0.00000000000E+00  0.77723440289E+03  0.14388873215E+04  0.12109101565E+04 0.  0.
        3    1    3    3  502    0 -0.19472698852E+03  0.56362735042E+03  0.26409558918E+03  0.65218163162E+03  0.10100000352E+00 0. -1.
       -3    1    3    3    0  502  0.19472698852E+03 -0.56362735042E+03  0.51313881371E+03  0.78670568991E+03  0.10100000352E+00 0.  1.
</event>
<event>
 5   0  0.3731281E-03  0.1195295E+04  0.7818609E-02  0.9116984E-01
        1   -1    0    0  501    0  0.00000000000E+00  0.00000000000E+00  0.22452789679E+04  0.22452789679E+04  0.50400001928E-02 0.  1.
       -1   -1    0    0    0  501  0.00000000000E+00  0.00000000000E+00 -0.15908170101E+03  0.15908170109E+03  0.50400001928E-02 0. -1.
    10030    2    1    2    0    0  0.00000000000E+00  0.00000000000E+00  0.20861972669E+04  0.24043606690E+04  0.11952954406E+04 0.  0.
        5    1    3    3  502    0 -0.11532630665E+02  0.24852529538E+03 -0.49923057457E+02  0.25379563763E+03  0.46999998093E+01 0. -1.
       -5    1    3    3    0  502  0.11532630665E+02 -0.24852529538E+03  0.21361203244E+04  0.21505650314E+04  0.46999998093E+01 0.  1.
</event>
<event>
 5   0  0.6640844E-03  0.1169231E+04  0.7818609E-02  0.9140223E-01
        2   -1    0    0  501    0  0.00000000000E+00  0.00000000000E+00  0.21104069588E+04  0.21104069588E+04  0.25500000920E-02 0.  1.
       -2   -1    0    0    0  501  0.00000000000E+00  0.00000000000E+00 -0.16194759150E+03  0.16194759152E+03  0.25500000920E-02 0. -1.
    10030    2    1    2    0    0  0.00000000000E+00  0.00000000000E+00  0.19484593673E+04  0.22723545504E+04  0.11692310706E+04 0.  0.
        5    1    3    3  502    0  0.47277870007E+03 -0.29365470341E+03  0.62657043305E+03  0.83807242028E+03  0.46999998093E+01 0.  1.
       -5    1    3    3    0  502 -0.47277870007E+03  0.29365470341E+03  0.13218889343E+04  0.14342821301E+04  0.46999998093E+01 0. -1.
</event>
<event>
 5   0  0.6640844E-03  0.1201818E+04  0.7818609E-02  0.9111267E-01
       -2   -1    0    0    0  501  0.00000000000E+00  0.00000000000E+00  0.50476116714E+03  0.50476116715E+03  0.25500000920E-02 0.  1.
        2   -1    0    0  501    0  0.00000000000E+00  0.00000000000E+00 -0.71537079064E+03  0.71537079064E+03  0.25500000920E-02 0. -1.
    10030    2    1    2    0    0  0.00000000000E+00  0.00000000000E+00 -0.21060962350E+03  0.12201319578E+04  0.12018176155E+04 0.  0.
        5    1    3    3  502    0  0.17323726495E+03 -0.20592007227E+03 -0.65075844487E+03  0.70421791351E+03  0.46999998093E+01 0. -1.
       -5    1    3    3    0  502 -0.17323726495E+03  0.20592007227E+03  0.44014882137E+03  0.51591404428E+03  0.46999998093E+01 0.  1.
</event>
<event>
 5   0  0.6640844E-03  0.1371594E+04  0.7818609E-02  0.8974641E-01
       -2   -1    0    0    0  501  0.00000000000E+00  0.00000000000E+00  0.44373408599E+03  0.44373408600E+03  0.25500000920E-02 0.  1.
        2   -1    0    0  501    0  0.00000000000E+00  0.00000000000E+00 -0.10599083689E+04  0.10599083689E+04  0.25500000920E-02 0. -1.
    10030    2    1    2    0    0  0.00000000000E+00  0.00000000000E+00 -0.61617428287E+03  0.15036424549E+04  0.13715939214E+04 0.  0.
        5    1    3    3  502    0 -0.36873139322E+03 -0.27809297668E+03  0.24766726782E+03  0.52407986946E+03  0.46999998093E+01 0.  1.
       -5    1    3    3    0  502  0.36873139322E+03  0.27809297668E+03 -0.86384155069E+03  0.97956258541E+03  0.46999998093E+01 0. -1.
</event>
<event>
 5   0  0.3944074E-03  0.1210785E+04  0.7818609E-02  0.9103468E-01
        1   -1    0    0  501    0  0.00000000000E+00  0.00000000000E+00  0.61171998802E+03  0.61171998804E+03  0.50400001928E-02 0.  1.
       -1   -1    0    0    0  501  0.00000000000E+00  0.00000000000E+00 -0.59913060657E+03  0.59913060659E+03  0.50400001928E-02 0. -1.
    10030    2    1    2    0    0  0.00000000000E+00  0.00000000000E+00  0.12589381445E+02  0.12108505946E+04  0.12107851461E+04 0.  0.
        4    1    3    3  502    0  0.50242795870E+03 -0.29408472214E+03 -0.15978317877E+03  0.60369856269E+03  0.12699999809E+01 0. -1.
       -4    1    3    3    0  502 -0.50242795870E+03  0.29408472214E+03  0.17237256021E+03  0.60715203194E+03  0.12699999809E+01 0.  1.
</event>
<event>
 5   0  0.6658994E-03  0.1188163E+04  0.7818609E-02  0.9123281E-01
       -2   -1    0    0    0  501  0.00000000000E+00  0.00000000000E+00  0.47042459222E+03  0.47042459223E+03  0.25500000920E-02 0.  1.
        2   -1    0    0  501    0  0.00000000000E+00  0.00000000000E+00 -0.75024290208E+03  0.75024290209E+03  0.25500000920E-02 0. -1.
    10030    2    1    2    0    0  0.00000000000E+00  0.00000000000E+00 -0.27981830986E+03  0.12206674943E+04  0.11881628025E+04 0.  0.
        4    1    3    3  502    0  0.43225977718E+03 -0.14909968717E+03  0.24974488089E+03  0.52101185218E+03  0.12699999809E+01 0.  1.
       -4    1    3    3    0  502 -0.43225977718E+03  0.14909968717E+03 -0.52956319075E+03  0.69965564214E+03  0.12699999809E+01 0. -1.
</event>
<event>
 5   0  0.3701879E-03  0.1204172E+04  0.7818609E-02  0.9109213E-01
       -1   -1    0    0    0  501  0.00000000000E+00  0.00000000000E+00  0.86919475872E+03  0.86919475874E+03  0.50400001928E-02 0.  1.
        1   -1    0    0  501    0  0.00000000000E+00  0.00000000000E+00 -0.41706112540E+03  0.41706112543E+03  0.50400001928E-02 0. -1.
    10030    2    1    2    0    0  0.00000000000E+00  0.00000000000E+00  0.45213363332E+03  0.12862558842E+04  0.12041716560E+04 0.  0.
        1    1    3    3  502    0 -0.98088426035E+02  0.27930042937E+03  0.78609307751E+03  0.83998356870E+03  0.50400001928E-02 0.  1.
       -1    1    3    3    0  502  0.98088426035E+02 -0.27930042937E+03 -0.33395944418E+03  0.44627231546E+03  0.50400001928E-02 0. -1.
</event>
<event>
 5   0  0.2537625E-03  0.1188394E+04  0.7818609E-02  0.9123076E-01
       -3   -1    0    0    0  501  0.00000000000E+00  0.00000000000E+00  0.16808383165E+03  0.16808386199E+03  0.10100000352E+00 0.  1.
        3   -1    0    0  501    0  0.00000000000E+00  0.00000000000E+00 -0.21005589703E+04  0.21005589727E+04  0.10100000352E+00 0. -1.
    10030    2    1    2    0    0  0.00000000000E+00  0.00000000000E+00 -0.19324751386E+04  0.22686428347E+04  0.11883939372E+04 0.  0.
        3    1    3    3  502    0  0.59345099058E+03  0.16372839409E+02 -0.10136898937E+04  0.11747422521E+04  0.10100000352E+00 0. -1.
       -3    1    3    3    0  502 -0.59345099058E+03 -0.16372839409E+02 -0.91878524493E+03  0.10939005826E+04  0.10100000352E+00 0.  1.
</event>
<event>
 5   0  0.3701879E-03  0.1184422E+04  0.7818609E-02  0.9126602E-01
       -1   -1    0    0    0  501  0.00000000000E+00  0.00000000000E+00  0.25541789507E+03  0.25541789512E+03  0.50400001928E-02 0.  1.
        1   -1    0    0  501    0  0.00000000000E+00  0.00000000000E+00 -0.13730976388E+04  0.13730976388E+04  0.50400001928E-02 0. -1.
    10030    2    1    2    0    0  0.00000000000E+00  0.00000000000E+00 -0.11176797437E+04  0.16285155339E+04  0.11844217301E+04 0.  0.
        1    1    3    3  502    0  0.40383605080E+03  0.43219430491E+03 -0.51903203572E+03  0.78693692712E+03  0.50400001928E-02 0.  1.
       -1    1    3    3    0  502 -0.40383605080E+03 -0.43219430491E+03 -0.59864770802E+03  0.84157860682E+03  0.50400001928E-02 0. -1.
</event>
<event>
 5   0  0.3648616E-03  0.1225205E+04  0.7818609E-02  0.9091077E-01
        1   -1    0    0  501    0  0.00000000000E+00  0.00000000000E+00  0.96101725313E+03  0.96101725314E+03  0.50400001928E-02 0.  1.
       -1   -1    0    0    0  501  0.00000000000E+00  0.00000000000E+00 -0.39050447586E+03  0.39050447590E+03  0.50400001928E-02 0. -1.
    10030    2    1    2    0    0  0.00000000000E+00  0.00000000000E+00  0.57051277726E+03  0.13515217290E+04  0.12252045360E+04 0.  0.
        2    1    3    3  502    0  0.19467047438E+03  0.38919765706E+03  0.76088279956E+03  0.87653525002E+03  0.25500000920E-02 0.  1.
       -2    1    3    3    0  502 -0.19467047438E+03 -0.38919765706E+03 -0.19037002230E+03  0.47498647902E+03  0.25500000920E-02 0. -1.
</event>
<event>
 5   0  0.6658994E-03  0.1272969E+04  0.7818609E-02  0.9051280E-01
       -2   -1    0    0    0  501  0.00000000000E+00  0.00000000000E+00  0.15761651922E+03  0.15761651924E+03  0.25500000920E-02 0.  1.
        2   -1    0    0  501    0  0.00000000000E+00  0.00000000000E+00 -0.25702409416E+04  0.25702409416E+04  0.25500000920E-02 0. -1.
    10030    2    1    2    0    0  0.00000000000E+00  0.00000000000E+00 -0.24126244224E+04  0.27278574609E+04  0.12729688618E+04 0.  0.
        4    1    3    3  502    0  0.15157761599E+02  0.60505975740E+03 -0.78429633149E+03  0.99068128893E+03  0.12699999809E+01 0.  1.
       -4    1    3    3    0  502 -0.15157761599E+02 -0.60505975740E+03 -0.16283280909E+04  0.17371761719E+04  0.12699999809E+01 0. -1.
</event>
<event>
 5   0  0.3944074E-03  0.1210988E+04  0.7818609E-02  0.9103292E-01
        1   -1    0    0  501    0  0.00000000000E+00  0.00000000000E+00  0.15137118512E+04  0.15137118512E+04  0.50400001928E-02 0. -1.
       -1   -1    0    0    0  501  0.00000000000E+00  0.00000000000E+00 -0.24220149962E+03  0.24220149967E+03  0.50400001928E-02 0.  1.
    10030    2    1    2    0    0  0.00000000000E+00  0.00000000000E+00  0.12715103516E+04  0.17559133509E+04  0.12109884895E+04 0.  0.
        4    1    3    3  502    0 -0.47473639839E+03  0.18086120504E+03  0.15806043483E+03  0.53204336045E+03  0.12699999809E+01 0.  1.
       -4    1    3    3    0  502  0.47473639839E+03 -0.18086120504E+03  0.11134499168E+04  0.12238699904E+04  0.12699999809E+01 0. -1.
</event>
<event>
 5   0  0.3701879E-03  0.1109106E+04  0.7818609E-02  0.9196362E-01
        1   -1    0    0  501    0  0.00000000000E+00  0.00000000000E+00  0.48066641614E+03  0.48066641617E+03  0.50400001928E-02 0.  1.
       -1   -1    0    0    0  501  0.00000000000E+00  0.00000000000E+00 -0.63979689294E+03  0.63979689296E+03  0.50400001928E-02 0. -1.
    10030    2    1    2    0    0  0.00000000000E+00  0.00000000000E+00 -0.15913047680E+03  0.11204633091E+04  0.11091057292E+04 0.  0.
        1    1    3    3  502    0 -0.12178609639E+03  0.53311226109E+03 -0.17264090628E+03  0.57345045012E+03  0.50400001928E-02 0. -1.
       -1    1    3    3    0  502  0.12178609639E+03 -0.53311226109E+03  0.13510429483E+02  0.54701285901E+03  0.50400001928E-02 0.  1.
</event>
<event>
 5   0  0.6349142E-03  0.1206995E+04  0.7818609E-02  0.9106756E-01
       -2   -1    0    0    0  501  0.00000000000E+00  0.00000000000E+00  0.34159476830E+03  0.34159476830E+03  0.25500000920E-02 0.  1.
        2   -1    0    0  501    0  0.00000000000E+00  0.00000000000E+00 -0.10662030158E+04  0.10662030158E+04  0.25500000920E-02 0. -1.
    10030    2    1    2    0    0  0.00000000000E+00  0.00000000000E+00 -0.72460824753E+03  0.14077977841E+04  0.12069952314E+04 0.  0.
        1    1    3    3  502    0  0.31568871035E+03  0.10865736006E+03  0.22406999950E+03  0.40208599632E+03  0.50400001928E-02 0.  1.
       -1    1    3    3    0  502 -0.31568871035E+03 -0.10865736006E+03 -0.94867824703E+03  0.10057117878E+04  0.50400001928E-02 0. -1.
</event>
<event>
 5   0  0.6640844E-03  0.7275482E+03  0.7818609E-02  0.9671247E-01
       -2   -1    0    0    0  501  0.00000000000E+00  0.00000000000E+00  0.21022796395E+03  0.21022796397E+03  0.25500000920E-02 0. -1.
        2   -1    0    0  501    0  0.00000000000E+00  0.00000000000E+00 -0.62946719571E+03  0.62946719571E+03  0.25500000920E-02 0.  1.
    10030    2    1    2    0    0  0.00000000000E+00  0.00000000000E+00 -0.41923923176E+03  0.83969515968E+03  0.72754823053E+03 0.  0.
        5    1    3    3  502    0 -0.27786268991E+03  0.17958512940E+03 -0.35152857365E+02  0.33274059945E+03  0.46999998093E+01 0. -1.
       -5    1    3    3    0  502  0.27786268991E+03 -0.17958512940E+03 -0.38408637439E+03  0.50695456023E+03  0.46999998093E+01 0.  1.
</event>
<event>
 5   0  0.3944074E-03  0.1171181E+04  0.7818609E-02  0.9138462E-01
       -1   -1    0    0    0  501  0.00000000000E+00  0.00000000000E+00  0.26212013465E+03  0.26212013470E+03  0.50400001928E-02 0.  1.
        1   -1    0    0  501    0  0.00000000000E+00  0.00000000000E+00 -0.13082417830E+04  0.13082417830E+04  0.50400001928E-02 0. -1.
    10030    2    1    2    0    0  0.00000000000E+00  0.00000000000E+00 -0.10461216483E+04  0.15703619177E+04  0.11711814759E+04 0.  0.
        4    1    3    3  502    0  0.22274934178E+03  0.37229237767E+03  0.43088156699E+01  0.43386525850E+03  0.12699999809E+01 0.  1.
       -4    1    3    3    0  502 -0.22274934178E+03 -0.37229237767E+03 -0.10504304640E+04  0.11364966592E+04  0.12699999809E+01 0. -1.
</event>
<event>
 5   0  0.6658994E-03  0.1147048E+04  0.7818609E-02  0.9160511E-01
       -2   -1    0    0    0  501  0.00000000000E+00  0.00000000000E+00  0.10762433995E+04  0.10762433995E+04  0.25500000920E-02 0.  1.
        2   -1    0    0  501    0  0.00000000000E+00  0.00000000000E+00 -0.30562789123E+03  0.30562789124E+03  0.25500000920E-02 0. -1.
    10030    2    1    2    0    0  0.00000000000E+00  0.00000000000E+00  0.77061550827E+03  0.13818712907E+04  0.11470483872E+04 0.  0.
        4    1    3    3  502    0  0.14830150688E+03 -0.48843129092E+03  0.70302058133E+02  0.51526930354E+03  0.12699999809E+01 0. -1.
       -4    1    3    3    0  502 -0.14830150688E+03  0.48843129092E+03  0.70031345014E+03  0.86660198721E+03  0.12699999809E+01 0.  1.
</event>
<event>
 5   0  0.6585930E-03  0.1182524E+04  0.7818609E-02  0.9128292E-01
       -2   -1    0    0    0  501  0.00000000000E+00  0.00000000000E+00  0.26164613942E+03  0.26164613943E+03  0.25500000920E-02 0. -1.
        2   -1    0    0  501    0  0.00000000000E+00  0.00000000000E+00 -0.13361215406E+04  0.13361215406E+04  0.25500000920E-02 0.  1.
    10030    2    1    2    0    0  0.00000000000E+00  0.00000000000E+00 -0.10744754012E+04  0.15977676800E+04  0.11825244909E+04 0.  0.
        2    1    3    3  502    0 -0.23585892819E+03  0.18970622756E+03  0.14902555525E+03  0.33738183547E+03  0.25500000920E-02 0. -1.
       -2    1    3    3    0  502  0.23585892819E+03 -0.18970622756E+03 -0.12235009564E+04  0.12603858446E+04  0.25500000920E-02 0.  1.
</event>
<event>
 5   0  0.3701879E-03  0.1154319E+04  0.7818609E-02  0.9153809E-01
        1   -1    0    0  501    0  0.00000000000E+00  0.00000000000E+00  0.11049883168E+04  0.11049883168E+04  0.50400001928E-02 0.  1.
       -1   -1    0    0    0  501  0.00000000000E+00  0.00000000000E+00 -0.30146280036E+03  0.30146280040E+03  0.50400001928E-02 0. -1.
    10030    2    1    2    0    0  0.00000000000E+00  0.00000000000E+00  0.80352551645E+03  0.14064511172E+04  0.11543186257E+04 0.  0.
        1    1    3    3  502    0  0.16656597164E+03 -0.47326834563E+03  0.74935738199E+03  0.90181130834E+03  0.50400001928E-02 0.  1.
       -1    1    3    3    0  502 -0.16656597164E+03  0.47326834563E+03  0.54168134460E+02  0.50463980888E+03  0.50400001928E-02 0. -1.
</event>
<event>
 5   0  0.6585930E-03  0.1197537E+04  0.7818609E-02  0.9115015E-01
        2   -1    0    0  501    0  0.00000000000E+00  0.00000000000E+00  0.90103677726E+03  0.90103677726E+03  0.25500000920E-02 0. -1.
       -2   -1    0    0    0  501  0.00000000000E+00  0.00000000000E+00 -0.39790106619E+03  0.39790106620E+03  0.25500000920E-02 0.  1.
    10030    2    1    2    0    0  0.00000000000E+00  0.00000000000E+00  0.50313571107E+03  0.12989378435E+04  0.11975366288E+04 0.  0.
        2    1    3    3  502    0  0.15791852592E+03 -0.40144496863E+03 -0.19883632703E+03  0.47500758796E+03  0.25500000920E-02 0.  1.
       -2    1    3    3    0  502 -0.15791852592E+03  0.40144496863E+03  0.70197203809E+03  0.82393025551E+03  0.25500000920E-02 0. -1.
</event>
<event>
 5   0  0.3648616E-03  0.1191223E+04  0.7818609E-02  0.9120574E-01
       -1   -1    0    0    0  501  0.00000000000E+00  0.00000000000E+00  0.85221928661E+03  0.85221928662E+03  0.50400001928E-02 0. -1.
        1   -1    0    0  501    0  0.00000000000E+00  0.00000000000E+00 -0.41626951563E+03  0.41626951566E+03  0.50400001928E-02 0.  1.
    10030    2    1    2    0    0  0.00000000000E+00  0.00000000000E+00  0.43594977098E+03  0.12684888023E+04  0.11912227494E+04 0.  0.
        2    1    3    3  502    0  0.88456082105E+02 -0.16556735453E+03  0.81989642462E+03  0.84111067908E+03  0.25500000920E-02 0. -1.
       -2    1    3    3    0  502 -0.88456082105E+02  0.16556735453E+03 -0.38394665364E+03  0.42737812320E+03  0.25500000920E-02 0.  1.
</event>
<event>
 5   0  0.3944074E-03  0.1213780E+04  0.7818609E-02  0.9100880E-01
       -1   -1    0    0    0  501  0.00000000000E+00  0.00000000000E+00  0.25080821014E+03  0.25080821019E+03  0.50400001928E-02 0.  1.
        1   -1    0    0  501    0  0.00000000000E+00  0.00000000000E+00 -0.14685136507E+04  0.14685136507E+04  0.50400001928E-02 0. -1.
    10030    2    1    2    0    0  0.00000000000E+00  0.00000000000E+00 -0.12177054406E+04  0.17193218609E+04  0.12137796841E+04 0.  0.
        4    1    3    3  502    0 -0.43383492948E+03 -0.31475712285E+03 -0.10120682271E+04  0.11452373124E+04  0.12699999809E+01 0. -1.
       -4    1    3    3    0  502  0.43383492948E+03  0.31475712285E+03 -0.20563721347E+03  0.57408454855E+03  0.12699999809E+01 0.  1.
</event>
<event>
 5   0  0.6349142E-03  0.6136666E+03  0.7818609E-02  0.9877451E-01
       -2   -1    0    0    0  501  0.00000000000E+00  0.00000000000E+00  0.43422111301E+02  0.43422111376E+02  0.25500000920E-02 0. -1.
        2   -1    0    0  501    0  0.00000000000E+00  0.00000000000E+00 -0.21681735876E+04  0.21681735876E+04  0.25500000920E-02 0.  1.
    10030    2    1    2    0    0  0.00000000000E+00  0.00000000000E+00 -0.21247514763E+04  0.22115956990E+04  0.61366660305E+03 0.  0.
        1    1    3    3  502    0 -0.17729150623E+03 -0.18956235159E+02 -0.19623064873E+04  0.19703904098E+04  0.50400001928E-02 0.  1.
       -1    1    3    3    0  502  0.17729150623E+03  0.18956235159E+02 -0.16244498899E+03  0.24120528914E+03  0.50400001928E-02 0. -1.
</event>
<event>
 5   0  0.6585930E-03  0.1173066E+04  0.7818609E-02  0.9136764E-01
       -2   -1    0    0    0  501  0.00000000000E+00  0.00000000000E+00  0.80379626375E+03  0.80379626376E+03  0.25500000920E-02 0.  1.
        2   -1    0    0  501    0  0.00000000000E+00  0.00000000000E+00 -0.42799490944E+03  0.42799490944E+03  0.25500000920E-02 0. -1.
    10030    2    1    2    0    0  0.00000000000E+00  0.00000000000E+00  0.37580135432E+03  0.12317911732E+04  0.11730655721E+04 0.  0.
        2    1    3    3  502    0  0.37341558842E+03 -0.33078762136E+02  0.66157894121E+03  0.76040785216E+03  0.25500000920E-02 0.  1.
       -2    1    3    3    0  502 -0.37341558842E+03  0.33078762136E+02 -0.28577758689E+03  0.47138332104E+03  0.25500000920E-02 0. -1.
</event>
<event>
 5   0  0.3701879E-03  0.1083567E+04  0.7818609E-02  0.9221358E-01
       -1   -1    0    0    0  501  0.00000000000E+00  0.00000000000E+00  0.19064346510E+03  0.19064346517E+03  0.50400001928E-02 0. -1.
        1   -1    0    0  501    0  0.00000000000E+00  0.00000000000E+00 -0.15396768350E+04  0.15396768350E+04  0.50400001928E-02 0.  1.
    10030    2    1    2    0    0  0.00000000000E+00  0.00000000000E+00 -0.13490333699E+04  0.17303203001E+04  0.10835669375E+04 0.  0.
        1    1    3    3  502    0  0.31576857806E+02  0.50756341140E+03 -0.97288706798E+03  0.10977827479E+04  0.50400001928E-02 0. -1.
       -1    1    3    3    0  502 -0.31576857806E+02 -0.50756341140E+03 -0.37614630189E+03  0.63253755224E+03  0.50400001928E-02 0.  1.
</event>
<event>
 5   0  0.3648616E-03  0.1108353E+04  0.7818609E-02  0.9197088E-01
        1   -1    0    0  501    0  0.00000000000E+00  0.00000000000E+00  0.56699708678E+03  0.56699708680E+03  0.50400001928E-02 0.  1.
       -1   -1    0    0    0  501  0.00000000000E+00  0.00000000000E+00 -0.54164628664E+03  0.54164628666E+03  0.50400001928E-02 0. -1.
    10030    2    1    2    0    0  0.00000000000E+00  0.00000000000E+00  0.25350800142E+02  0.11086433735E+04  0.11083534935E+04 0.  0.
        2    1    3    3  502    0 -0.12852155003E+03 -0.44365417926E+03 -0.29361547516E+03  0.54731788465E+03  0.25500000920E-02 0. -1.
       -2    1    3    3    0  502  0.12852155003E+03  0.44365417926E+03  0.31896627530E+03  0.56132548881E+03  0.25500000920E-02 0.  1.
</event>
<event>
 5   0  0.6349142E-03  0.1189723E+04  0.7818609E-02  0.9121899E-01
       -2   -1    0    0    0  501  0.00000000000E+00  0.00000000000E+00  0.54409953671E+03  0.54409953672E+03  0.25500000920E-02 0.  1.
        2   -1    0    0  501    0  0.00000000000E+00  0.00000000000E+00 -0.65035974314E+03  0.65035974314E+03  0.25500000920E-02 0. -1.
    10030    2    1    2    0    0  0.00000000000E+00  0.00000000000E+00 -0.10626020643E+03  0.11944592799E+04  0.11897233879E+04 0.  0.
        1    1    3    3  502    0  0.29736086308E+03 -0.23181852336E+03 -0.51506718768E+03  0.63832399181E+03  0.50400001928E-02 0. -1.
       -1    1    3    3    0  502 -0.29736086308E+03  0.23181852336E+03  0.40880698126E+03  0.55613528805E+03  0.50400001928E-02 0.  1.
</event>
<event>
 5   0  0.3648616E-03  0.1204962E+04  0.7818609E-02  0.9108524E-01
        1   -1    0    0  501    0  0.00000000000E+00  0.00000000000E+00  0.23155856296E+04  0.23155856296E+04  0.50400001928E-02 0.  1.
       -1   -1    0    0    0  501  0.00000000000E+00  0.00000000000E+00 -0.15675659956E+03  0.15675659964E+03  0.50400001928E-02 0. -1.
    10030    2    1    2    0    0  0.00000000000E+00  0.00000000000E+00  0.21588290300E+04  0.24723422292E+04  0.12049619569E+04 0.  0.
        2    1    3    3  502    0 -0.54271821393E+03  0.30412917465E+02  0.16125485761E+04  0.17016994199E+04  0.25500000920E-02 0.  1.
       -2    1    3    3    0  502  0.54271821393E+03 -0.30412917465E+02  0.54628045392E+03  0.77064280936E+03  0.25500000920E-02 0. -1.
</event>
<event>
 5   0  0.3772254E-03  0.1226938E+04  0.7818609E-02  0.9089599E-01
        1   -1    0    0  501    0  0.00000000000E+00  0.00000000000E+00  0.84610973261E+03  0.84610973262E+03  0.50400001928E-02 0.  1.
       -1   -1    0    0    0  501  0.00000000000E+00  0.00000000000E+00 -0.44479383461E+03  0.44479383464E+03  0.50400001928E-02 0. -1.
    10030    2    1    2    0    0  0.00000000000E+00  0.00000000000E+00  0.40131589800E+03  0.12909035673E+04  0.12269382910E+04 0.  0.
        3    1    3    3  502    0 -0.53516060413E+03  0.29536170756E+03  0.25541919509E+03  0.66247595120E+03  0.10100000352E+00 0. -1.
       -3    1    3    3    0  502  0.53516060413E+03 -0.29536170756E+03  0.14589670291E+03  0.62842761606E+03  0.10100000352E+00 0.  1.
</event>
<event>
 5   0  0.6658994E-03  0.1210949E+04  0.7818609E-02  0.9103327E-01
        2   -1    0    0  501    0  0.00000000000E+00  0.00000000000E+00  0.96009146008E+03  0.96009146009E+03  0.25500000920E-02 0.  1.
       -2   -1    0    0    0  501  0.00000000000E+00  0.00000000000E+00 -0.38183795830E+03  0.38183795831E+03  0.25500000920E-02 0. -1.
    10030    2    1    2    0    0  0.00000000000E+00  0.00000000000E+00  0.57825350178E+03  0.13419294184E+04  0.12109489880E+04 0.  0.
        4    1    3    3  502    0 -0.40820554801E+03  0.43415700338E+03  0.40782795786E+03  0.72211448478E+03  0.12699999809E+01 0.  1.
       -4    1    3    3    0  502  0.40820554801E+03 -0.43415700338E+03  0.17042554392E+03  0.61981493362E+03  0.12699999809E+01 0. -1.
</event>
<event>
 5   0  0.6658994E-03  0.1195685E+04  0.7818609E-02  0.9116642E-01
       -2   -1    0    0    0  501  0.00000000000E+00  0.00000000000E+00  0.21391673819E+03  0.21391673820E+03  0.25500000920E-02 0. -1.
        2   -1    0    0  501    0  0.00000000000E+00  0.00000000000E+00 -0.16708172791E+04  0.16708172791E+04  0.25500000920E-02 0.  1.
    10030    2    1    2    0    0  0.00000000000E+00  0.00000000000E+00 -0.14569005410E+04  0.18847340174E+04  0.11956852136E+04 0.  0.
        4    1    3    3  502    0 -0.27504859910E+03  0.49070096425E+03 -0.40937532838E+03  0.69572188450E+03  0.12699999809E+01 0. -1.
       -4    1    3    3    0  502  0.27504859910E+03 -0.49070096425E+03 -0.10475252126E+04  0.11890121329E+04  0.12699999809E+01 0.  1.
</event>
<event>
 5   0  0.6658994E-03  0.1331943E+04  0.7818609E-02  0.9004611E-01
       -2   -1    0    0    0  501  0.00000000000E+00  0.00000000000E+00  0.27424943631E+03  0.27424943632E+03  0.25500000920E-02 0.  1.
        2   -1    0    0  501    0  0.00000000000E+00  0.00000000000E+00 -0.16172059623E+04  0.16172059623E+04  0.25500000920E-02 0. -1.
    10030    2    1    2    0    0  0.00000000000E+00  0.00000000000E+00 -0.13429565260E+04  0.18914553986E+04  0.13319426768E+04 0.  0.
        4    1    3    3  502    0 -0.22004785830E+03  0.18819107162E+03  0.18018570842E+03  0.34103583653E+03  0.12699999809E+01 0.  1.
       -4    1    3    3    0  502  0.22004785830E+03 -0.18819107162E+03 -0.15231422344E+04  0.15504195621E+04  0.12699999809E+01 0. -1.
</event>
<event>
 5   0  0.6493047E-03  0.1225410E+04  0.7818609E-02  0.9090901E-01
        2   -1    0    0  501    0  0.00000000000E+00  0.00000000000E+00  0.67816624702E+03  0.67816624702E+03  0.25500000920E-02 0. -1.
       -2   -1    0    0    0  501  0.00000000000E+00  0.00000000000E+00 -0.55356263840E+03  0.55356263841E+03  0.25500000920E-02 0.  1.
    10030    2    1    2    0    0  0.00000000000E+00  0.00000000000E+00  0.12460360862E+03  0.12317288854E+04  0.12254101305E+04 0.  0.
        3    1    3    3  502    0 -0.14048018312E+03 -0.19756399730E+02  0.66143110796E+03  0.67647329434E+03  0.10100000352E+00 0. -1.
       -3    1    3    3    0  502  0.14048018312E+03  0.19756399730E+02 -0.53682749934E+03  0.55525559109E+03  0.10100000352E+00 0.  1.
</event>
<event>
 5   0  0.3701879E-03  0.1168967E+04  0.7818609E-02  0.9140462E-01
        1   -1    0    0  501    0  0.00000000000E+00  0.00000000000E+00  0.30967870791E+04  0.30967870791E+04  0.50400001928E-02 0. -1.
       -1   -1    0    0    0  501  0.00000000000E+00  0.00000000000E+00 -0.11031463600E+03  0.11031463611E+03  0.50400001928E-02 0.  1.
    10030    2    1    2    0    0  0.00000000000E+00  0.00000000000E+00  0.29864724431E+04  0.32071017152E+04  0.11689669620E+04 0.  0.
        1    1    3    3  502    0 -0.27344232299E+03  0.50940776225E+03  0.12579636255E+04  0.13844635984E+04  0.50400001928E-02 0.  1.
       -1    1    3    3    0  502  0.27344232299E+03 -0.50940776225E+03  0.17285088176E+04  0.18226381168E+04  0.50400001928E-02 0. -1.
</event>
<event>
 5   0  0.6585930E-03  0.1196278E+04  0.7818609E-02  0.9116121E-01
       -2   -1    0    0    0  501  0.00000000000E+00  0.00000000000E+00  0.24414942835E+03  0.24414942836E+03  0.25500000920E-02 0.  1.
        2   -1    0    0  501    0  0.00000000000E+00  0.00000000000E+00 -0.14653742568E+04  0.14653742568E+04  0.25500000920E-02 0. -1.
    10030    2    1    2    0    0  0.00000000000E+00  0.00000000000E+00 -0.12212248285E+04  0.17095236852E+04  0.11962780398E+04 0.  0.
        2    1    3    3  502    0 -0.37666467979E+02  0.14193980139E+02 -0.14634365835E+04  0.14639900497E+04  0.25500000920E-02 0. -1.
       -2    1    3    3    0  502  0.37666467979E+02 -0.14193980139E+02  0.24221175499E+03  0.24553363546E+03  0.25500000920E-02 0.  1.
</event>
<event>
 5   0  0.6349142E-03  0.1175572E+04  0.7818609E-02  0.9134511E-01
       -2   -1    0    0    0  501  0.00000000000E+00  0.00000000000E+00  0.34145179016E+03  0.34145179017E+03  0.25500000920E-02 0. -1.
        2   -1    0    0  501    0  0.00000000000E+00  0.00000000000E+00 -0.10118343610E+04  0.10118343611E+04  0.25500000920E-02 0.  1.
    10030    2    1    2    0    0  0.00000000000E+00  0.00000000000E+00 -0.67038257089E+03  0.13532861512E+04  0.11755724630E+04 0.  0.
        1    1    3    3  502    0  0.10970891595E+03  0.13476888764E+03  0.31120381352E+03  0.35643584681E+03  0.50400001928E-02 0. -1.
       -1    1    3    3    0  502 -0.10970891595E+03 -0.13476888764E+03 -0.98158638441E+03  0.99685030441E+03  0.50400001928E-02 0.  1.
</event>
<event>
 5   0  0.3648616E-03  0.6274868E+03  0.7818609E-02  0.9849965E-01
        1   -1    0    0  501    0  0.00000000000E+00  0.00000000000E+00  0.23778782442E+03  0.23778782447E+03  0.50400001928E-02 0. -1.
       -1   -1    0    0    0  501  0.00000000000E+00  0.00000000000E+00 -0.41396119611E+03  0.41396119615E+03  0.50400001928E-02 0.  1.
    10030    2    1    2    0    0  0.00000000000E+00  0.00000000000E+00 -0.17617337170E+03  0.65174902062E+03  0.62748683570E+03 0.  0.
        2    1    3    3  502    0  0.47331070413E+02 -0.16896690632E+03 -0.35822939734E+03  0.39889641110E+03  0.25500000920E-02 0.  1.
       -2    1    3    3    0  502 -0.47331070413E+02  0.16896690632E+03  0.18205602565E+03  0.25285260952E+03  0.25500000920E-02 0. -1.
</event>
<event>
 5   0  0.3648616E-03  0.1178851E+04  0.7818609E-02  0.9131572E-01
        1   -1    0    0  501    0  0.00000000000E+00  0.00000000000E+00  0.24934867444E+03  0.24934867449E+03  0.50400001928E-02 0. -1.
       -1   -1    0    0    0  501  0.00000000000E+00  0.00000000000E+00 -0.13933198181E+04  0.13933198181E+04  0.50400001928E-02 0.  1.
    10030    2    1    2    0    0  0.00000000000E+00  0.00000000000E+00 -0.11439711436E+04  0.16426684926E+04  0.11788510504E+04 0.  0.
        2    1    3    3  502    0  0.15351061792E+03 -0.20566948901E+03 -0.13113765683E+04  0.13362537006E+04  0.25500000920E-02 0.  1.
       -2    1    3    3    0  502 -0.15351061792E+03  0.20566948901E+03  0.16740542465E+03  0.30641479196E+03  0.25500000920E-02 0. -1.
</event>
<event>
 5   0  0.6349142E-03  0.1195808E+04  0.7818609E-02  0.9116533E-01
       -2   -1    0    0    0  501  0.00000000000E+00  0.00000000000E+00  0.38309148610E+03  0.38309148610E+03  0.25500000920E-02 0. -1.
        2   -1    0    0  501    0  0.00000000000E+00  0.00000000000E+00 -0.93316978430E+03  0.93316978430E+03  0.25500000920E-02 0.  1.
    10030    2    1    2    0    0  0.00000000000E+00  0.00000000000E+00 -0.55007829820E+03  0.13162612704E+04  0.11958083449E+04 0.  0.
        1    1    3    3  502    0 -0.34843041827E+03 -0.26218430384E+03  0.17524528845E+03  0.46995241961E+03  0.50400001928E-02 0. -1.
       -1    1    3    3    0  502  0.34843041827E+03  0.26218430384E+03 -0.72532358665E+03  0.84630885079E+03  0.50400001928E-02 0.  1.
</event>
<event>
 5   0  0.6658994E-03  0.1196870E+04  0.7818609E-02  0.9115601E-01
       -2   -1    0    0    0  501  0.00000000000E+00  0.00000000000E+00  0.28465367279E+03  0.28465367280E+03  0.25500000920E-02 0. -1.
        2   -1    0    0  501    0  0.00000000000E+00  0.00000000000E+00 -0.12581049765E+04  0.12581049765E+04  0.25500000920E-02 0.  1.
    10030    2    1    2    0    0  0.00000000000E+00  0.00000000000E+00 -0.97345130372E+03  0.15427586493E+04  0.11968695874E+04 0.  0.
        4    1    3    3  502    0 -0.44097638424E+03 -0.12929623970E+03  0.73897799726E+01  0.45960190470E+03  0.12699999809E+01 0. -1.
       -4    1    3    3    0  502  0.44097638424E+03  0.12929623970E+03 -0.98084108369E+03  0.10831567446E+04  0.12699999809E+01 0.  1.
</event>
<event>
 5   0  0.6658994E-03  0.1254827E+04  0.7818609E-02  0.9066175E-01
       -2   -1    0    0    0  501  0.00000000000E+00  0.00000000000E+00  0.41744826798E+03  0.41744826799E+03  0.25500000920E-02 0. -1.
        2   -1    0    0  501    0  0.00000000000E+00  0.00000000000E+00 -0.94298548512E+03  0.94298548513E+03  0.25500000920E-02 0.  1.
    10030    2    1    2    0    0  0.00000000000E+00  0.00000000000E+00 -0.52553721714E+03  0.13604337531E+04  0.12548269323E+04 0.  0.
        4    1    3    3  502    0 -0.29460492070E+03 -0.10474689300E+03  0.32696094712E+03  0.45240363033E+03  0.12699999809E+01 0. -1.
       -4    1    3    3    0  502  0.29460492070E+03  0.10474689300E+03 -0.85249816427E+03  0.90803012278E+03  0.12699999809E+01 0.  1.
</event>
<event>
 5   0  0.3772254E-03  0.1235417E+04  0.7818609E-02  0.9082408E-01
        1   -1    0    0  501    0  0.00000000000E+00  0.00000000000E+00  0.32658562259E+03  0.32658562263E+03  0.50400001928E-02 0.  1.
       -1   -1    0    0    0  501  0.00000000000E+00  0.00000000000E+00 -0.11683431055E+04  0.11683431055E+04  0.50400001928E-02 0. -1.
    10030    2    1    2    0    0  0.00000000000E+00  0.00000000000E+00 -0.84175748292E+03  0.14949287282E+04  0.12354174364E+04 0.  0.
        3    1    3    3  502    0 -0.99288388369E+02 -0.47062996108E+03  0.48108430232E+02  0.48338925887E+03  0.10100000352E+00 0.  1.
       -3    1    3    3    0  502  0.99288388369E+02  0.47062996108E+03 -0.88986591315E+03  0.10115394693E+04  0.10100000352E+00 0. -1.
</event>
<event>
 5   0  0.2537625E-03  0.1206166E+04  0.7818609E-02  0.9107477E-01
       -3   -1    0    0    0  501  0.00000000000E+00  0.00000000000E+00  0.51108546997E+03  0.51108547995E+03  0.10100000352E+00 0. -1.
        3   -1    0    0  501    0  0.00000000000E+00  0.00000000000E+00 -0.71164010276E+03  0.71164010992E+03  0.10100000352E+00 0.  1.
    10030    2    1    2    0    0  0.00000000000E+00  0.00000000000E+00 -0.20055463279E+03  0.12227255899E+04  0.12061657048E+04 0.  0.
        1    1    3    3  502    0 -0.59947425334E+03  0.32523797266E+02 -0.42204256791E+02  0.60183750060E+03  0.50400001928E-02 0. -1.
       -1    1    3    3    0  502  0.59947425334E+03 -0.32523797266E+02 -0.15835037599E+03  0.62088808928E+03  0.50400001928E-02 0.  1.
</event>
<event>
 5   0  0.3772254E-03  0.1147289E+04  0.7818609E-02  0.9160288E-01
       -1   -1    0    0    0  501  0.00000000000E+00  0.00000000000E+00  0.67558642403E+03  0.67558642404E+03  0.50400001928E-02 0.  1.
        1   -1    0    0  501    0  0.00000000000E+00  0.00000000000E+00 -0.48708542165E+03  0.48708542168E+03  0.50400001928E-02 0. -1.
    10030    2    1    2    0    0  0.00000000000E+00  0.00000000000E+00  0.18850100237E+03  0.11626718457E+04  0.11472894983E+04 0.  0.
        3    1    3    3  502    0 -0.25044597259E+03  0.29596793833E+03  0.52270512439E+03  0.65080017130E+03  0.10100000352E+00 0.  1.
       -3    1    3    3    0  502  0.25044597259E+03 -0.29596793833E+03 -0.33420412202E+03  0.51187167442E+03  0.10100000352E+00 0. -1.
</event>
<event>
 5   0  0.6585930E-03  0.1253157E+04  0.7818609E-02  0.9067559E-01
        2   -1    0    0  501    0  0.00000000000E+00  0.00000000000E+00  0.96849856403E+03  0.96849856403E+03  0.25500000920E-02 0. -1.
       -2   -1    0    0    0  501  0.00000000000E+00  0.00000000000E+00 -0.40537060657E+03  0.40537060658E+03  0.25500000920E-02 0.  1.
    10030    2    1    2    0    0  0.00000000000E+00  0.00000000000E+00  0.56312795745E+03  0.13738691706E+04  0.12531573730E+04 0.  0.
        2    1    3    3  502    0  0.99848356329E+02 -0.61387444198E+03  0.36498082220E+03  0.72112587345E+03  0.25500000920E-02 0.  1.
       -2    1    3    3    0  502 -0.99848356329E+02  0.61387444198E+03  0.19814713525E+03  0.65274329716E+03  0.25500000920E-02 0. -1.
</event>
<event>
 5   0  0.3648616E-03  0.1109194E+04  0.7818609E-02  0.9196277E-01
        1   -1    0    0  501    0  0.00000000000E+00  0.00000000000E+00  0.60335666839E+03  0.60335666841E+03  0.50400001928E-02 0.  1.
       -1   -1    0    0    0  501  0.00000000000E+00  0.00000000000E+00 -0.50977752068E+03  0.50977752070E+03  0.50400001928E-02 0. -1.
    10030    2    1    2    0    0  0.00000000000E+00  0.00000000000E+00  0.93579147710E+02  0.11131341891E+04  0.11091937009E+04 0.  0.
        2    1    3    3  502    0  0.80439870946E+02 -0.11317057142E+03 -0.49205322548E+03  0.51126756966E+03  0.25500000920E-02 0. -1.
       -2    1    3    3    0  502 -0.80439870946E+02  0.11317057142E+03  0.58563237319E+03  0.60186661945E+03  0.25500000920E-02 0.  1.
</event>
<event>
 5   0  0.3648616E-03  0.1204382E+04  0.7818609E-02  0.9109030E-01
        1   -1    0    0  501    0  0.00000000000E+00  0.00000000000E+00  0.72671972387E+03  0.72671972389E+03  0.50400001928E-02 0.  1.
       -1   -1    0    0    0  501  0.00000000000E+00  0.00000000000E+00 -0.49900102721E+03  0.49900102723E+03  0.50400001928E-02 0. -1.
    10030    2    1    2    0    0  0.00000000000E+00  0.00000000000E+00  0.22771869666E+03  0.12257207511E+04  0.12043818144E+04 0.  0.
        2    1    3    3  502    0 -0.26384154895E+03  0.53412881411E+03  0.20332557059E+03  0.62948172386E+03  0.25500000920E-02 0. -1.
       -2    1    3    3    0  502  0.26384154895E+03 -0.53412881411E+03  0.24393126073E+02  0.59623902725E+03  0.25500000920E-02 0.  1.
</event>
<event>
 5   0  0.3701879E-03  0.1233805E+04  0.7818609E-02  0.9083771E-01
       -1   -1    0    0    0  501  0.00000000000E+00  0.00000000000E+00  0.60147311735E+03  0.60147311737E+03  0.50400001928E-02 0. -1.
        1   -1    0    0  501    0  0.00000000000E+00  0.00000000000E+00 -0.63272787440E+03  0.63272787442E+03  0.50400001928E-02 0.  1.
    10030    2    1    2    0    0  0.00000000000E+00  0.00000000000E+00 -0.31254757058E+02  0.12342009918E+04  0.12338051825E+04 0.  0.
        1    1    3    3  502    0 -0.53832991085E+03 -0.10786398478E+03 -0.29702719502E+03  0.62422663091E+03  0.50400001928E-02 0.  1.
       -1    1    3    3    0  502  0.53832991085E+03  0.10786398478E+03  0.26577243796E+03  0.60997436088E+03  0.50400001928E-02 0. -1.
</event>
<event>
 5   0  0.6585930E-03  0.1216037E+04  0.7818609E-02  0.9098934E-01
       -2   -1    0    0    0  501  0.00000000000E+00  0.00000000000E+00  0.86165883297E+03  0.86165883297E+03  0.25500000920E-02 0. -1.
        2   -1    0    0  501    0  0.00000000000E+00  0.00000000000E+00 -0.42904045596E+03  0.42904045597E+03  0.25500000920E-02 0.  1.
    10030    2    1    2    0    0  0.00000000000E+00  0.00000000000E+00  0.43261837700E+03  0.12906992889E+04  0.12160370037E+04 0.  0.
        2    1    3    3  502    0  0.57981173073E+01  0.10627426783E+03  0.85169459014E+03  0.85831900425E+03  0.25500000920E-02 0. -1.
       -2    1    3    3    0  502 -0.57981173073E+01 -0.10627426783E+03 -0.41907621314E+03  0.43238028469E+03  0.25500000920E-02 0.  1.
</event>
<event>
 5   0  0.6658994E-03  0.1188864E+04  0.7818609E-02  0.9122660E-01
        2   -1    0    0  501    0  0.00000000000E+00  0.00000000000E+00  0.78902393407E+03  0.78902393408E+03  0.25500000920E-02 0.  1.
       -2   -1    0    0    0  501  0.00000000000E+00  0.00000000000E+00 -0.44783131669E+03  0.44783131670E+03  0.25500000920E-02 0. -1.
    10030    2    1    2    0    0  0.00000000000E+00  0.00000000000E+00  0.34119261738E+03  0.12368552508E+04  0.11888643780E+04 0.  0.
        4    1    3    3  502    0 -0.33465561911E+03  0.19120333857E+03  0.64140681579E+03  0.74830302440E+03  0.12699999809E+01 0.  1.
       -4    1    3    3    0  502  0.33465561911E+03 -0.19120333857E+03 -0.30021419841E+03  0.48855222638E+03  0.12699999809E+01 0. -1.
</event>
<event>
 5   0  0.3701879E-03  0.1433089E+04  0.7818609E-02  0.8930209E-01
        1   -1    0    0  501    0  0.00000000000E+00  0.00000000000E+00  0.24187182650E+04  0.24187182650E+04  0.50400001928E-02 0. -1.
       -1   -1    0    0    0  501  0.00000000000E+00  0.00000000000E+00 -0.21227606238E+03  0.21227606244E+03  0.50400001928E-02 0.  1.
    10030    2    1    2    0    0  0.00000000000E+00  0.00000000000E+00  0.22064422026E+04  0.26309943274E+04  0.14330889566E+04 0.  0.
        1    1    3    3  502    0 -0.54475885140E+03  0.12229964524E+03  0.27867002962E+03  0.62400031638E+03  0.50400001928E-02 0.  1.
       -1    1    3    3    0  502  0.54475885140E+03 -0.12229964524E+03  0.19277721730E+04  0.20069940111E+04  0.50400001928E-02 0. -1.
</event>
<event>
 5   0  0.6349142E-03  0.1199012E+04  0.7818609E-02  0.9113722E-01
        2   -1    0    0  501    0  0.00000000000E+00  0.00000000000E+00  0.41266374837E+03  0.41266374838E+03  0.25500000920E-02 0. -1.
       -2   -1    0    0    0  501  0.00000000000E+00  0.00000000000E+00 -0.87094496671E+03  0.87094496671E+03  0.25500000920E-02 0.  1.
    10030    2    1    2    0    0  0.00000000000E+00  0.00000000000E+00 -0.45828121833E+03  0.12836087151E+04  0.11990119509E+04 0.  0.
        1    1    3    3  502    0 -0.50958504191E+03  0.16720111126E+03  0.57668930077E+02  0.53940599929E+03  0.50400001928E-02 0. -1.
       -1    1    3    3    0  502  0.50958504191E+03 -0.16720111126E+03 -0.51595014841E+03  0.74420271581E+03  0.50400001928E-02 0.  1.
</event>
<event>
 5   0  0.3648616E-03  0.1202359E+04  0.7818609E-02  0.9110794E-01
        1   -1    0    0  501    0  0.00000000000E+00  0.00000000000E+00  0.94892458429E+03  0.94892458430E+03  0.50400001928E-02 0. -1.
       -1   -1    0    0    0  501  0.00000000000E+00  0.00000000000E+00 -0.38087012921E+03  0.38087012924E+03  0.50400001928E-02 0.  1.
    10030    2    1    2    0    0  0.00000000000E+00  0.00000000000E+00  0.56805445508E+03  0.13297947135E+04  0.12023593956E+04 0.  0.
        2    1    3    3  502    0 -0.23928445723E+03  0.51834595919E+03  0.49234506733E+03  0.75388543573E+03  0.25500000920E-02 0. -1.
       -2    1    3    3    0  502  0.23928445723E+03 -0.51834595919E+03  0.75709387752E+02  0.57590927782E+03  0.25500000920E-02 0.  1.
</event>
<event>
 5   0  0.3944074E-03  0.1190505E+04  0.7818609E-02  0.9121208E-01
        1   -1    0    0  501    0  0.00000000000E+00  0.00000000000E+00  0.11478501412E+04  0.11478501413E+04  0.50400001928E-02 0.  1.
       -1   -1    0    0    0  501  0.00000000000E+00  0.00000000000E+00 -0.30868648841E+03  0.30868648845E+03  0.50400001928E-02 0. -1.
    10030    2    1    2    0    0  0.00000000000E+00  0.00000000000E+00  0.83916365283E+03  0.14565366297E+04  0.11905054882E+04 0.  0.
        4    1    3    3  502    0 -0.35840601344E+03 -0.38220598831E+03  0.76516978674E+03  0.92737409032E+03  0.12699999809E+01 0.  1.
       -4    1    3    3    0  502  0.35840601344E+03  0.38220598831E+03  0.73993866090E+02  0.52916253938E+03  0.12699999809E+01 0. -1.
</event>
<event>
 5   0  0.3701879E-03  0.1225501E+04  0.7818609E-02  0.9090824E-01
        1   -1    0    0  501    0  0.00000000000E+00  0.00000000000E+00  0.69193131436E+03  0.69193131437E+03  0.50400001928E-02 0.  1.
       -1   -1    0    0    0  501  0.00000000000E+00  0.00000000000E+00 -0.54263092791E+03  0.54263092794E+03  0.50400001928E-02 0. -1.
    10030    2    1    2    0    0  0.00000000000E+00  0.00000000000E+00  0.14930038644E+03  0.12345622423E+04  0.12255012545E+04 0.  0.
        1    1    3    3  502    0  0.52545444391E+03 -0.21780622725E+03  0.30419763235E+03  0.64504118071E+03  0.50400001928E-02 0.  1.
       -1    1    3    3    0  502 -0.52545444391E+03  0.21780622725E+03 -0.15489724591E+03  0.58952106160E+03  0.50400001928E-02 0. -1.
</event>
<event>
 5   0  0.3701879E-03  0.1203131E+04  0.7818609E-02  0.9110121E-01
       -1   -1    0    0    0  501  0.00000000000E+00  0.00000000000E+00  0.35578771536E+03  0.35578771540E+03  0.50400001928E-02 0. -1.
        1   -1    0    0  501    0  0.00000000000E+00  0.00000000000E+00 -0.10171258747E+04  0.10171258747E+04  0.50400001928E-02 0.  1.
    10030    2    1    2    0    0  0.00000000000E+00  0.00000000000E+00 -0.66133815932E+03  0.13729135901E+04  0.12031307347E+04 0.  0.
        1    1    3    3  502    0 -0.36072037482E+03 -0.22455234130E+03 -0.81660022055E+03  0.92053183705E+03  0.50400001928E-02 0.  1.
       -1    1    3    3    0  502  0.36072037482E+03  0.22455234130E+03  0.15526206123E+03  0.45238175304E+03  0.50400001928E-02 0. -1.
</event>
<event>
 5   0  0.3701879E-03  0.7799676E+03  0.7818609E-02  0.9589475E-01
       -1   -1    0    0    0  501  0.00000000000E+00  0.00000000000E+00  0.26510966170E+03  0.26510966175E+03  0.50400001928E-02 0.  1.
        1   -1    0    0  501    0  0.00000000000E+00  0.00000000000E+00 -0.57367713121E+03  0.57367713123E+03  0.50400001928E-02 0. -1.
    10030    2    1    2    0    0  0.00000000000E+00  0.00000000000E+00 -0.30856746951E+03  0.83878679298E+03  0.77996756397E+03 0.  0.
        1    1    3    3  502    0  0.29515569060E+02 -0.14352338791E+03 -0.54294857689E+03  0.56237290908E+03  0.50400001928E-02 0. -1.
       -1    1    3    3    0  502 -0.29515569060E+02  0.14352338791E+03  0.23438110738E+03  0.27641388391E+03  0.50400001928E-02 0.  1.
</event>
<event>
 5   0  0.3648616E-03  0.1110618E+04  0.7818609E-02  0.9194904E-01
       -1   -1    0    0    0  501  0.00000000000E+00  0.00000000000E+00  0.61385773564E+03  0.61385773566E+03  0.50400001928E-02 0.  1.
        1   -1    0    0  501    0  0.00000000000E+00  0.00000000000E+00 -0.50234480009E+03  0.50234480011E+03  0.50400001928E-02 0. -1.
    10030    2    1    2    0    0  0.00000000000E+00  0.00000000000E+00  0.11151293555E+03  0.11162025358E+04  0.11106182810E+04 0.  0.
        2    1    3    3  502    0 -0.11870317207E+03  0.19238001764E+03  0.56552243979E+03  0.60902885330E+03  0.25500000920E-02 0.  1.
       -2    1    3    3    0  502  0.11870317207E+03 -0.19238001764E+03 -0.45400950424E+03  0.50717368247E+03  0.25500000920E-02 0. -1.
</event>
<event>
 5   0  0.3944074E-03  0.1208069E+04  0.7818609E-02  0.9105823E-01
        1   -1    0    0  501    0  0.00000000000E+00  0.00000000000E+00  0.64279393388E+03  0.64279393390E+03  0.50400001928E-02 0.  1.
       -1   -1    0    0    0  501  0.00000000000E+00  0.00000000000E+00 -0.56761203701E+03  0.56761203703E+03  0.50400001928E-02 0. -1.
    10030    2    1    2    0    0  0.00000000000E+00  0.00000000000E+00  0.75181896870E+02  0.12104059709E+04  0.12080688295E+04 0.  0.
        4    1    3    3  502    0  0.43342905959E+03 -0.13013241000E+03 -0.36325899444E+03  0.58030500926E+03  0.12699999809E+01 0. -1.
       -4    1    3    3    0  502 -0.43342905959E+03  0.13013241000E+03  0.43844089131E+03  0.63010096167E+03  0.12699999809E+01 0.  1.
</event>
<event>
 5   0  0.6585930E-03  0.1175507E+04  0.7818609E-02  0.9134570E-01
       -2   -1    0    0    0  501  0.00000000000E+00  0.00000000000E+00  0.78098036112E+03  0.78098036112E+03  0.25500000920E-02 0.  1.
        2   -1    0    0  501    0  0.00000000000E+00  0.00000000000E+00 -0.44233389734E+03  0.44233389735E+03  0.25500000920E-02 0. -1.
    10030    2    1    2    0    0  0.00000000000E+00  0.00000000000E+00  0.33864646378E+03  0.12233142585E+04  0.11755068471E+04 0.  0.
        2    1    3    3  502    0  0.63883314420E+02 -0.32994837405E+03 -0.33247712412E+03  0.47274522258E+03  0.25500000920E-02 0. -1.
       -2    1    3    3    0  502 -0.63883314420E+02  0.32994837405E+03  0.67112358789E+03  0.75056903589E+03  0.25500000920E-02 0.  1.
</event>
<event>
 5   0  0.3648616E-03  0.1219935E+04  0.7818609E-02  0.9095585E-01
       -1   -1    0    0    0  501  0.00000000000E+00  0.00000000000E+00  0.65474901057E+03  0.65474901059E+03  0.50400001928E-02 0. -1.
        1   -1    0    0  501    0  0.00000000000E+00  0.00000000000E+00 -0.56824847636E+03  0.56824847639E+03  0.50400001928E-02 0.  1.
    10030    2    1    2    0    0  0.00000000000E+00  0.00000000000E+00  0.86500534203E+02  0.12229974870E+04  0.12199346338E+04 0.  0.
        2    1    3    3  502    0  0.40665305123E+03 -0.31101218407E+03  0.37569230562E+03  0.63501180400E+03  0.25500000920E-02 0. -1.
       -2    1    3    3    0  502 -0.40665305123E+03  0.31101218407E+03 -0.28919177141E+03  0.58798568297E+03  0.25500000920E-02 0.  1.
</event>
<event>
 5   0  0.3731281E-03  0.1181330E+04  0.7818609E-02  0.9129357E-01
       -1   -1    0    0    0  501  0.00000000000E+00  0.00000000000E+00  0.25252796533E+03  0.25252796538E+03  0.50400001928E-02 0. -1.
        1   -1    0    0  501    0  0.00000000000E+00  0.00000000000E+00 -0.13815701660E+04  0.13815701660E+04  0.50400001928E-02 0.  1.
    10030    2    1    2    0    0  0.00000000000E+00  0.00000000000E+00 -0.11290422007E+04  0.16340981314E+04  0.11813299336E+04 0.  0.
        5    1    3    3  502    0  0.22953313353E+03 -0.20377119523E+03 -0.12625652696E+04  0.12993464932E+04  0.46999998093E+01 0.  1.
       -5    1    3    3    0  502 -0.22953313353E+03  0.20377119523E+03  0.13352306886E+03  0.33475163825E+03  0.46999998093E+01 0. -1.
</event>
<event>
 5   0  0.6349142E-03  0.1190202E+04  0.7818609E-02  0.9121476E-01
       -2   -1    0    0    0  501  0.00000000000E+00  0.00000000000E+00  0.30269661762E+03  0.30269661763E+03  0.25500000920E-02 0.  1.
        2   -1    0    0  501    0  0.00000000000E+00  0.00000000000E+00 -0.11699669186E+04  0.11699669186E+04  0.25500000920E-02 0. -1.
    10030    2    1    2    0    0  0.00000000000E+00  0.00000000000E+00 -0.86727030098E+03  0.14726635362E+04  0.11902017123E+04 0.  0.
        1    1    3    3  502    0  0.34894012079E+03  0.45247725281E+03 -0.63938132160E+03  0.85749830708E+03  0.50400001928E-02 0.  1.
       -1    1    3    3    0  502 -0.34894012079E+03 -0.45247725281E+03 -0.22788897938E+03  0.61516522915E+03  0.50400001928E-02 0. -1.
</event>
<event>
 5   0  0.6349142E-03  0.1171113E+04  0.7818609E-02  0.9138524E-01
        2   -1    0    0  501    0  0.00000000000E+00  0.00000000000E+00  0.17656418246E+04  0.17656418246E+04  0.25500000920E-02 0. -1.
       -2   -1    0    0    0  501  0.00000000000E+00  0.00000000000E+00 -0.19419358592E+03  0.19419358593E+03  0.25500000920E-02 0.  1.
    10030    2    1    2    0    0  0.00000000000E+00  0.00000000000E+00  0.15714482387E+04  0.19598354106E+04  0.11711128338E+04 0.  0.
        1    1    3    3  502    0 -0.90912411578E+02  0.53723702659E+03  0.42685064020E+03  0.69216338994E+03  0.50400001928E-02 0.  1.
       -1    1    3    3    0  502  0.90912411578E+02 -0.53723702659E+03  0.11445975985E+04  0.12676720206E+04  0.50400001928E-02 0. -1.
</event>
<event>
 5   0  0.6585930E-03  0.1209648E+04  0.7818609E-02  0.9104453E-01
       -2   -1    0    0    0  501  0.00000000000E+00  0.00000000000E+00  0.10411773276E+04  0.10411773276E+04  0.25500000920E-02 0. -1.
        2   -1    0    0  501    0  0.00000000000E+00  0.00000000000E+00 -0.35134470891E+03  0.35134470891E+03  0.25500000920E-02 0.  1.
    10030    2    1    2    0    0  0.00000000000E+00  0.00000000000E+00  0.68983261871E+03  0.13925220365E+04  0.12096481226E+04 0.  0.
        2    1    3    3  502    0  0.86225038460E+02  0.50753671232E+03  0.71037521025E+03  0.87730337453E+03  0.25500000920E-02 0. -1.
       -2    1    3    3    0  502 -0.86225038460E+02 -0.50753671232E+03 -0.20542591537E+02  0.51521866201E+03  0.25500000920E-02 0.  1.
</event>
<event>
 5   0  0.6640844E-03  0.1194936E+04  0.7818609E-02  0.9117301E-01
        2   -1    0    0  501    0  0.00000000000E+00  0.00000000000E+00  0.12027858809E+04  0.12027858809E+04  0.25500000920E-02 0. -1.
       -2   -1    0    0    0  501  0.00000000000E+00  0.00000000000E+00 -0.29678423280E+03  0.29678423281E+03  0.25500000920E-02 0.  1.
    10030    2    1    2    0    0  0.00000000000E+00  0.00000000000E+00  0.90600164815E+03  0.14995701138E+04  0.11949357889E+04 0.  0.
        5    1    3    3  502    0  0.43622105487E+03 -0.22057763827E+03  0.21910974948E+02  0.48933167079E+03  0.46999998093E+01 0.  1.
       -5    1    3    3    0  502 -0.43622105487E+03  0.22057763827E+03  0.88409067320E+03  0.10102384430E+04  0.46999998093E+01 0. -1.
</event>
<event>
 5   0  0.3648616E-03  0.1190647E+04  0.7818609E-02  0.9121083E-01
       -1   -1    0    0    0  501  0.00000000000E+00  0.00000000000E+00  0.13327737685E+04  0.13327737685E+04  0.50400001928E-02 0. -1.
        1   -1    0    0  501    0  0.00000000000E+00  0.00000000000E+00 -0.26591892930E+03  0.26591892935E+03  0.50400001928E-02 0.  1.
    10030    2    1    2    0    0  0.00000000000E+00  0.00000000000E+00  0.10668548392E+04  0.15986926979E+04  0.11906465027E+04 0.  0.
        2    1    3    3  502    0  0.34049159191E+03 -0.22461829918E+01  0.11891184041E+04  0.12369083024E+04  0.25500000920E-02 0. -1.
       -2    1    3    3    0  502 -0.34049159191E+03  0.22461829918E+01 -0.12226356490E+03  0.36178439548E+03  0.25500000920E-02 0.  1.
</event>
<event>
 5   0  0.6349142E-03  0.1164399E+04  0.7818609E-02  0.9144602E-01
       -2   -1    0    0    0  501  0.00000000000E+00  0.00000000000E+00  0.38922957270E+03  0.38922957271E+03  0.25500000920E-02 0.  1.
        2   -1    0    0  501    0  0.00000000000E+00  0.00000000000E+00 -0.87083891977E+03  0.87083891978E+03  0.25500000920E-02 0. -1.
    10030    2    1    2    0    0  0.00000000000E+00  0.00000000000E+00 -0.48160934707E+03  0.12600684925E+04  0.11643990049E+04 0.  0.
        1    1    3    3  502    0 -0.20373467332E+03 -0.47298319806E+03  0.53048350222E+02  0.51772101585E+03  0.50400001928E-02 0.  1.
       -1    1    3    3    0  502  0.20373467332E+03  0.47298319806E+03 -0.53465769730E+03  0.74234747663E+03  0.50400001928E-02 0. -1.
</event>
<event>
 5   0  0.3701879E-03  0.1203148E+04  0.7818609E-02  0.9110106E-01
       -1   -1    0    0    0  501  0.00000000000E+00  0.00000000000E+00  0.20303718941E+03  0.20303718947E+03  0.50400001928E-02 0.  1.
        1   -1    0    0  501    0  0.00000000000E+00  0.00000000000E+00 -0.17823879418E+04  0.17823879418E+04  0.50400001928E-02 0. -1.
    10030    2    1    2    0    0  0.00000000000E+00  0.00000000000E+00 -0.15793507524E+04  0.19854251313E+04  0.12031476023E+04 0.  0.
        1    1    3    3  502    0  0.42388054388E+03 -0.27662859930E+03 -0.13261603911E+04  0.14194715497E+04  0.50400001928E-02 0. -1.
       -1    1    3    3    0  502 -0.42388054388E+03  0.27662859930E+03 -0.25319036129E+03  0.56595358158E+03  0.50400001928E-02 0.  1.
</event>
<event>
 5   0  0.2537625E-03  0.1213995E+04  0.7818609E-02  0.9100694E-01
       -4   -1    0    0    0  501  0.00000000000E+00  0.00000000000E+00  0.13095132954E+04  0.13095139112E+04  0.12699999809E+01 0.  1.
        4   -1    0    0  501    0  0.00000000000E+00  0.00000000000E+00 -0.28135887395E+03  0.28136174020E+03  0.12699999809E+01 0. -1.
    10030    2    1    2    0    0  0.00000000000E+00  0.00000000000E+00  0.10281544215E+04  0.15908756514E+04  0.12139949852E+04 0.  0.
        3    1    3    3  502    0 -0.12281242569E+03 -0.14889596501E+03 -0.24007662904E+03  0.30804171521E+03  0.10100000352E+00 0. -1.
       -3    1    3    3    0  502  0.12281242569E+03  0.14889596501E+03  0.12682310505E+04  0.12828339362E+04  0.10100000352E+00 0.  1.
</event>
<event>
 5   0  0.3701879E-03  0.1271734E+04  0.7818609E-02  0.9052286E-01
       -1   -1    0    0    0  501  0.00000000000E+00  0.00000000000E+00  0.31114824295E+03  0.31114824299E+03  0.50400001928E-02 0. -1.
        1   -1    0    0  501    0  0.00000000000E+00  0.00000000000E+00 -0.12994661488E+04  0.12994661488E+04  0.50400001928E-02 0.  1.
    10030    2    1    2    0    0  0.00000000000E+00  0.00000000000E+00 -0.98831790587E+03  0.16106143918E+04  0.12717336341E+04 0.  0.
        1    1    3    3  502    0  0.42813792429E+03  0.47007225934E+03 -0.48463109911E+03  0.79946063910E+03  0.50400001928E-02 0.  1.
       -1    1    3    3    0  502 -0.42813792429E+03 -0.47007225934E+03 -0.50368680676E+03  0.81115375272E+03  0.50400001928E-02 0. -1.
</event>
<event>
 5   0  0.3731281E-03  0.1215938E+04  0.7818609E-02  0.9099019E-01
       -1   -1    0    0    0  501  0.00000000000E+00  0.00000000000E+00  0.21700570588E+03  0.21700570594E+03  0.50400001928E-02 0.  1.
        1   -1    0    0  501    0  0.00000000000E+00  0.00000000000E+00 -0.17033025796E+04  0.17033025796E+04  0.50400001928E-02 0. -1.
    10030    2    1    2    0    0  0.00000000000E+00  0.00000000000E+00 -0.14862968737E+04  0.19203082855E+04  0.12159381212E+04 0.  0.
        5    1    3    3  502    0 -0.25960693588E+03  0.40411725763E+03 -0.13317306280E+04  0.14157100955E+04  0.46999998093E+01 0. -1.
       -5    1    3    3    0  502  0.25960693588E+03 -0.40411725763E+03 -0.15456624576E+03  0.50459819004E+03  0.46999998093E+01 0.  1.
</event>
<event>
 5   0  0.2537625E-03  0.1210090E+04  0.7818609E-02  0.9104070E-01
        4   -1    0    0  501    0  0.00000000000E+00  0.00000000000E+00  0.63837296200E+03  0.63837422529E+03  0.12699999809E+01 0.  1.
       -4   -1    0    0    0  501  0.00000000000E+00  0.00000000000E+00 -0.57345444444E+03  0.57345585074E+03  0.12699999809E+01 0. -1.
    10030    2    1    2    0    0  0.00000000000E+00  0.00000000000E+00  0.64918517552E+02  0.12118300760E+04  0.12100899633E+04 0.  0.
        5    1    3    3  502    0  0.56687933265E+03 -0.11807584900E+03  0.20810604871E+03  0.61532454966E+03  0.46999998093E+01 0.  1.
       -5    1    3    3    0  502 -0.56687933265E+03  0.11807584900E+03 -0.14318753116E+03  0.59650552637E+03  0.46999998093E+01 0. -1.
</event>
<event>
 5   0  0.6349142E-03  0.1222279E+04  0.7818609E-02  0.9093576E-01
       -2   -1    0    0    0  501  0.00000000000E+00  0.00000000000E+00  0.28255220114E+03  0.28255220115E+03  0.25500000920E-02 0. -1.
        2   -1    0    0  501    0  0.00000000000E+00  0.00000000000E+00 -0.13218502577E+04  0.13218502577E+04  0.25500000920E-02 0.  1.
    10030    2    1    2    0    0  0.00000000000E+00  0.00000000000E+00 -0.10392980566E+04  0.16044024589E+04  0.12222793460E+04 0.  0.
        1    1    3    3  502    0  0.47793678874E+03  0.22857122197E+03 -0.91956744107E+03  0.10612599381E+04  0.50400001928E-02 0.  1.
       -1    1    3    3    0  502 -0.47793678874E+03 -0.22857122197E+03 -0.11973061551E+03  0.54314252077E+03  0.50400001928E-02 0. -1.
</event>
<event>
 5   0  0.6493047E-03  0.1301351E+04  0.7818609E-02  0.9028495E-01
       -2   -1    0    0    0  501  0.00000000000E+00  0.00000000000E+00  0.37439932359E+03  0.37439932360E+03  0.25500000920E-02 0. -1.
        2   -1    0    0  501    0  0.00000000000E+00  0.00000000000E+00 -0.11308205298E+04  0.11308205298E+04  0.25500000920E-02 0.  1.
    10030    2    1    2    0    0  0.00000000000E+00  0.00000000000E+00 -0.75642120622E+03  0.15052198534E+04  0.13013507467E+04 0.  0.
        3    1    3    3  502    0 -0.29074233639E+03 -0.29985776985E+02 -0.10506151277E+04  0.10905147454E+04  0.10100000352E+00 0.  1.
       -3    1    3    3    0  502  0.29074233639E+03  0.29985776985E+02  0.29419392152E+03  0.41470510806E+03  0.10100000352E+00 0. -1.
</event>
<event>
 5   0  0.3701879E-03  0.1209951E+04  0.7818609E-02  0.9104191E-01
       -1   -1    0    0    0  501  0.00000000000E+00  0.00000000000E+00  0.24385920359E+03  0.24385920364E+03  0.50400001928E-02 0. -1.
        1   -1    0    0  501    0  0.00000000000E+00  0.00000000000E+00 -0.15008461128E+04  0.15008461128E+04  0.50400001928E-02 0.  1.
    10030    2    1    2    0    0  0.00000000000E+00  0.00000000000E+00 -0.12569869092E+04  0.17447053165E+04  0.12099506400E+04 0.  0.
        1    1    3    3  502    0 -0.24512230855E+03  0.54954496399E+03 -0.53832140934E+03  0.80738748651E+03  0.50400001928E-02 0. -1.
       -1    1    3    3    0  502  0.24512230855E+03 -0.54954496399E+03 -0.71866549991E+03  0.93731782997E+03  0.50400001928E-02 0.  1.
</event>
<event>
 5   0  0.3648616E-03  0.1211087E+04  0.7818609E-02  0.9103208E-01
       -1   -1    0    0    0  501  0.00000000000E+00  0.00000000000E+00  0.24426219907E+03  0.24426219912E+03  0.50400001928E-02 0. -1.
        1   -1    0    0  501    0  0.00000000000E+00  0.00000000000E+00 -0.15011845324E+04  0.15011845324E+04  0.50400001928E-02 0.  1.
    10030    2    1    2    0    0  0.00000000000E+00  0.00000000000E+00 -0.12569223334E+04  0.17454467316E+04  0.12110865124E+04 0.  0.
        2    1    3    3  502    0  0.21432136168E+03  0.56610508973E+03 -0.65231838204E+03  0.88990330388E+03  0.25500000920E-02 0. -1.
       -2    1    3    3    0  502 -0.21432136168E+03 -0.56610508973E+03 -0.60460395132E+03  0.85554342768E+03  0.25500000920E-02 0.  1.
</event>
<event>
 5   0  0.2537625E-03  0.1183585E+04  0.7818609E-02  0.9127347E-01
       -3   -1    0    0    0  501  0.00000000000E+00  0.00000000000E+00  0.98119923905E+03  0.98119924425E+03  0.10100000352E+00 0. -1.
        3   -1    0    0  501    0  0.00000000000E+00  0.00000000000E+00 -0.35692872329E+03  0.35692873758E+03  0.10100000352E+00 0.  1.
    10030    2    1    2    0    0  0.00000000000E+00  0.00000000000E+00  0.62427051576E+03  0.13381279818E+04  0.11835847325E+04 0.  0.
        4    1    3    3  502    0  0.16209782645E+03  0.25229580883E+03  0.88893509676E+03  0.93815569051E+03  0.12699999809E+01 0. -1.
       -4    1    3    3    0  502 -0.16209782645E+03 -0.25229580883E+03 -0.26466458100E+03  0.39997229132E+03  0.12699999809E+01 0.  1.
</event>
<event>
 5   0  0.3944074E-03  0.1126531E+04  0.7818609E-02  0.9179712E-01
       -1   -1    0    0    0  501  0.00000000000E+00  0.00000000000E+00  0.30272614497E+03  0.30272614501E+03  0.50400001928E-02 0.  1.
        1   -1    0    0  501    0  0.00000000000E+00  0.00000000000E+00 -0.10480364064E+04  0.10480364064E+04  0.50400001928E-02 0. -1.
    10030    2    1    2    0    0  0.00000000000E+00  0.00000000000E+00 -0.74531026139E+03  0.13507625514E+04  0.11265309958E+04 0.  0.
        4    1    3    3  502    0 -0.45928732247E+03  0.51661155810E+02 -0.75868965963E+03  0.88838355012E+03  0.12699999809E+01 0. -1.
       -4    1    3    3    0  502  0.45928732247E+03 -0.51661155810E+02  0.13379398238E+02  0.46237900125E+03  0.12699999809E+01 0.  1.
</event>
<event>
 5   0  0.3648616E-03  0.1178448E+04  0.7818609E-02  0.9131933E-01
        1   -1    0    0  501    0  0.00000000000E+00  0.00000000000E+00  0.56842032373E+03  0.56842032376E+03  0.50400001928E-02 0. -1.
       -1   -1    0    0    0  501  0.00000000000E+00  0.00000000000E+00 -0.61078949231E+03  0.61078949233E+03  0.50400001928E-02 0.  1.
    10030    2    1    2    0    0  0.00000000000E+00  0.00000000000E+00 -0.42369168572E+02  0.11792098161E+04  0.11784484053E+04 0.  0.
        2    1    3    3  502    0 -0.10419088832E+03 -0.55845926700E+03  0.13528993583E+03  0.58398275732E+03  0.25500000920E-02 0. -1.
       -2    1    3    3    0  502  0.10419088832E+03  0.55845926700E+03 -0.17765910440E+03  0.59522705877E+03  0.25500000920E-02 0.  1.
</event>
<event>
 5   0  0.3772254E-03  0.1195500E+04  0.7818609E-02  0.9116805E-01
       -1   -1    0    0    0  501  0.00000000000E+00  0.00000000000E+00  0.43612181203E+03  0.43612181206E+03  0.50400001928E-02 0.  1.
        1   -1    0    0  501    0  0.00000000000E+00  0.00000000000E+00 -0.81927806834E+03  0.81927806836E+03  0.50400001928E-02 0. -1.
    10030    2    1    2    0    0  0.00000000000E+00  0.00000000000E+00 -0.38315625631E+03  0.12553998804E+04  0.11954999552E+04 0.  0.
        3    1    3    3  502    0 -0.24071146952E+03  0.10629682156E+03 -0.75518595040E+03  0.79971673467E+03  0.10100000352E+00 0. -1.
       -3    1    3    3    0  502  0.24071146952E+03 -0.10629682156E+03  0.37202969409E+03  0.45568314574E+03  0.10100000352E+00 0.  1.
</event>
<event>
 5   0  0.6349142E-03  0.1220305E+04  0.7818609E-02  0.9095267E-01
       -2   -1    0    0    0  501  0.00000000000E+00  0.00000000000E+00  0.32524765247E+03  0.32524765248E+03  0.25500000920E-02 0. -1.
        2   -1    0    0  501    0  0.00000000000E+00  0.00000000000E+00 -0.11446241352E+04  0.11446241352E+04  0.25500000920E-02 0.  1.
    10030    2    1    2    0    0  0.00000000000E+00  0.00000000000E+00 -0.81937648271E+03  0.14698717877E+04  0.12203053928E+04 0.  0.
        1    1    3    3  502    0  0.45684348270E+03 -0.31461790788E+03 -0.10355290739E+03  0.56428149031E+03  0.50400001928E-02 0. -1.
       -1    1    3    3    0  502 -0.45684348270E+03  0.31461790788E+03 -0.71582357531E+03  0.90559029735E+03  0.50400001928E-02 0.  1.
</event>
<event>
 5   0  0.3731281E-03  0.1196478E+04  0.7818609E-02  0.9115945E-01
       -1   -1    0    0    0  501  0.00000000000E+00  0.00000000000E+00  0.62615042045E+03  0.62615042047E+03  0.50400001928E-02 0.  1.
        1   -1    0    0  501    0  0.00000000000E+00  0.00000000000E+00 -0.57157142936E+03  0.57157142938E+03  0.50400001928E-02 0. -1.
    10030    2    1    2    0    0  0.00000000000E+00  0.00000000000E+00  0.54578991089E+02  0.11977218498E+04  0.11964776485E+04 0.  0.
        5    1    3    3  502    0  0.40281607763E+03  0.14604268752E+03  0.44519018928E+03  0.61790424307E+03  0.46999998093E+01 0.  1.
       -5    1    3    3    0  502 -0.40281607763E+03 -0.14604268752E+03 -0.39061119819E+03  0.57981760677E+03  0.46999998093E+01 0. -1.
</event>
<event>
 5   0  0.6585930E-03  0.1207907E+04  0.7818609E-02  0.9105963E-01
        2   -1    0    0  501    0  0.00000000000E+00  0.00000000000E+00  0.53998631796E+03  0.53998631796E+03  0.25500000920E-02 0.  1.
       -2   -1    0    0    0  501  0.00000000000E+00  0.00000000000E+00 -0.67549860390E+03  0.67549860390E+03  0.25500000920E-02 0. -1.
    10030    2    1    2    0    0  0.00000000000E+00  0.00000000000E+00 -0.13551228594E+03  0.12154849219E+04  0.12079072877E+04 0.  0.
        2    1    3    3  502    0 -0.50188996712E+03  0.25209328641E+03 -0.29122007145E+03  0.63265606309E+03  0.25500000920E-02 0.  1.
       -2    1    3    3    0  502  0.50188996712E+03 -0.25209328641E+03  0.15570778551E+03  0.58282885877E+03  0.25500000920E-02 0. -1.
</event>
<event>
 5   0  0.3648616E-03  0.1101442E+04  0.7818609E-02  0.9203788E-01
        1   -1    0    0  501    0  0.00000000000E+00  0.00000000000E+00  0.10152023351E+04  0.10152023351E+04  0.50400001928E-02 0.  1.
       -1   -1    0    0    0  501  0.00000000000E+00  0.00000000000E+00 -0.29875162308E+03  0.29875162312E+03  0.50400001928E-02 0. -1.
    10030    2    1    2    0    0  0.00000000000E+00  0.00000000000E+00  0.71645071205E+03  0.13139539583E+04  0.11014415017E+04 0.  0.
        2    1    3    3  502    0  0.29749552127E+02 -0.27621529888E+03  0.92548498795E+03  0.96628276923E+03  0.25500000920E-02 0.  1.
       -2    1    3    3    0  502 -0.29749552127E+02  0.27621529888E+03 -0.20903427590E+03  0.34767118904E+03  0.25500000920E-02 0. -1.
</event>
<event>
 5   0  0.6493047E-03  0.1175487E+04  0.7818609E-02  0.9134587E-01
        2   -1    0    0  501    0  0.00000000000E+00  0.00000000000E+00  0.53506991341E+03  0.53506991341E+03  0.25500000920E-02 0. -1.
       -2   -1    0    0    0  501  0.00000000000E+00  0.00000000000E+00 -0.64560287374E+03  0.64560287375E+03  0.25500000920E-02 0.  1.
    10030    2    1    2    0    0  0.00000000000E+00  0.00000000000E+00 -0.11053296034E+03  0.11806727872E+04  0.11754874287E+04 0.  0.
        3    1    3    3  502    0 -0.77642839693E+02 -0.57651726074E+03 -0.13955388680E+03  0.59822726451E+03  0.10100000352E+00 0.  1.
       -3    1    3    3    0  502  0.77642839693E+02  0.57651726074E+03  0.29020926457E+02  0.58244552265E+03  0.10100000352E+00 0. -1.
</event>
<event>
 5   0  0.3701879E-03  0.1211133E+04  0.7818609E-02  0.9103168E-01
        1   -1    0    0  501    0  0.00000000000E+00  0.00000000000E+00  0.25729544722E+04  0.25729544722E+04  0.50400001928E-02 0.  1.
       -1   -1    0    0    0  501  0.00000000000E+00  0.00000000000E+00 -0.14252507459E+03  0.14252507468E+03  0.50400001928E-02 0. -1.
    10030    2    1    2    0    0  0.00000000000E+00  0.00000000000E+00  0.24304293976E+04  0.27154795469E+04  0.12111325744E+04 0.  0.
        1    1    3    3  502    0 -0.12699297993E+03  0.25073811862E+03  0.12576130578E+02  0.28134494871E+03  0.50400001928E-02 0. -1.
       -1    1    3    3    0  502  0.12699297993E+03 -0.25073811862E+03  0.24178532670E+04  0.24341345982E+04  0.50400001928E-02 0.  1.
</event>
<event>
 5   0  0.6493047E-03  0.1171228E+04  0.7818609E-02  0.9138420E-01
        2   -1    0    0  501    0  0.00000000000E+00  0.00000000000E+00  0.20145949629E+04  0.20145949629E+04  0.25500000920E-02 0.  1.
       -2   -1    0    0    0  501  0.00000000000E+00  0.00000000000E+00 -0.17022962347E+03  0.17022962349E+03  0.25500000920E-02 0. -1.
    10030    2    1    2    0    0  0.00000000000E+00  0.00000000000E+00  0.18443653395E+04  0.21848245864E+04  0.11712279744E+04 0.  0.
        3    1    3    3  502    0  0.23241915428E+03  0.20283572129E+02  0.19241609708E+04  0.19382532184E+04  0.10100000352E+00 0.  1.
       -3    1    3    3    0  502 -0.23241915428E+03 -0.20283572129E+02 -0.79795631356E+02  0.24657136808E+03  0.10100000352E+00 0. -1.
</event>
<event>
 5   0  0.3772254E-03  0.9515489E+03  0.7818609E-02  0.9363342E-01
        1   -1    0    0  501    0  0.00000000000E+00  0.00000000000E+00  0.20532566257E+04  0.20532566257E+04  0.50400001928E-02 0.  1.
       -1   -1    0    0    0  501  0.00000000000E+00  0.00000000000E+00 -0.11024503522E+03  0.11024503533E+03  0.50400001928E-02 0. -1.
    10030    2    1    2    0    0  0.00000000000E+00  0.00000000000E+00  0.19430115905E+04  0.21635016611E+04  0.95154894597E+03 0.  0.
        3    1    3    3  502    0  0.32074669530E+03 -0.32579951644E+03  0.12708840366E+04  0.13506183813E+04  0.10100000352E+00 0.  1.
       -3    1    3    3    0  502 -0.32074669530E+03  0.32579951644E+03  0.67212755394E+03  0.81288327971E+03  0.10100000352E+00 0. -1.
</event>
<event>
 5   0  0.3731281E-03  0.1285918E+04  0.7818609E-02  0.9040808E-01
        1   -1    0    0  501    0  0.00000000000E+00  0.00000000000E+00  0.92764561275E+03  0.92764561276E+03  0.50400001928E-02 0.  1.
       -1   -1    0    0    0  501  0.00000000000E+00  0.00000000000E+00 -0.44564025421E+03  0.44564025424E+03  0.50400001928E-02 0. -1.
    10030    2    1    2    0    0  0.00000000000E+00  0.00000000000E+00  0.48200535854E+03  0.13732858670E+04  0.12859179238E+04 0.  0.
        5    1    3    3  502    0 -0.24954961842E+03  0.23331616181E+03 -0.34067067318E+03  0.48248320279E+03  0.46999998093E+01 0. -1.
       -5    1    3    3    0  502  0.24954961842E+03 -0.23331616181E+03  0.82267603171E+03  0.89080266421E+03  0.46999998093E+01 0.  1.
</event>
<event>
 5   0  0.3772254E-03  0.1319582E+04  0.7818609E-02  0.9014179E-01
       -1   -1    0    0    0  501  0.00000000000E+00  0.00000000000E+00  0.10895969284E+04  0.10895969284E+04  0.50400001928E-02 0. -1.
        1   -1    0    0  501    0  0.00000000000E+00  0.00000000000E+00 -0.39952798299E+03  0.39952798302E+03  0.50400001928E-02 0.  1.
    10030    2    1    2    0    0  0.00000000000E+00  0.00000000000E+00  0.69006894543E+03  0.14891249115E+04  0.13195824538E+04 0.  0.
        3    1    3    3  502    0 -0.13053637427E+03  0.12287971781E+03 -0.37151623995E+03  0.41250878391E+03  0.10100000352E+00 0.  1.
       -3    1    3    3    0  502  0.13053637427E+03 -0.12287971781E+03  0.10615851854E+04  0.10766161275E+04  0.10100000352E+00 0. -1.
</event>
<event>
 5   0  0.6640844E-03  0.1189906E+04  0.7818609E-02  0.9121738E-01
       -2   -1    0    0    0  501  0.00000000000E+00  0.00000000000E+00  0.12817198737E+04  0.12817198737E+04  0.25500000920E-02 0. -1.
        2   -1    0    0  501    0  0.00000000000E+00  0.00000000000E+00 -0.27616717417E+03  0.27616717419E+03  0.25500000920E-02 0.  1.
    10030    2    1    2    0    0  0.00000000000E+00  0.00000000000E+00  0.10055526995E+04  0.15578870479E+04  0.11899058040E+04 0.  0.
        5    1    3    3  502    0 -0.11537963136E+03 -0.26838931285E+03 -0.17576710822E+03  0.34097133151E+03  0.46999998093E+01 0.  1.
       -5    1    3    3    0  502  0.11537963136E+03  0.26838931285E+03  0.11813198077E+04  0.12169157164E+04  0.46999998093E+01 0. -1.
</event>
<event>
 5   0  0.6349142E-03  0.1081350E+04  0.7818609E-02  0.9223563E-01
        2   -1    0    0  501    0  0.00000000000E+00  0.00000000000E+00  0.15176923806E+04  0.15176923806E+04  0.25500000920E-02 0.  1.
       -2   -1    0    0    0  501  0.00000000000E+00  0.00000000000E+00 -0.19261432849E+03  0.19261432851E+03  0.25500000920E-02 0. -1.
    10030    2    1    2    0    0  0.00000000000E+00  0.00000000000E+00  0.13250780521E+04  0.17103067091E+04  0.10813497099E+04 0.  0.
        1    1    3    3  502    0  0.28616072141E+03  0.99473279705E+02 -0.45757764543E+02  0.30639299093E+03  0.50400001928E-02 0. -1.
       -1    1    3    3    0  502 -0.28616072141E+03 -0.99473279705E+02  0.13708358167E+04  0.14039137182E+04  0.50400001928E-02 0.  1.
</event>
<event>
 5   0  0.6349142E-03  0.1208371E+04  0.7818609E-02  0.9105561E-01
       -2   -1    0    0    0  501  0.00000000000E+00  0.00000000000E+00  0.54813745736E+03  0.54813745737E+03  0.25500000920E-02 0. -1.
        2   -1    0    0  501    0  0.00000000000E+00  0.00000000000E+00 -0.66596430475E+03  0.66596430476E+03  0.25500000920E-02 0.  1.
    10030    2    1    2    0    0  0.00000000000E+00  0.00000000000E+00 -0.11782684739E+03  0.12141017621E+04  0.12083707721E+04 0.  0.
        1    1    3    3  502    0  0.38346466532E+02  0.49678854007E+03  0.28442449798E+03  0.57373042461E+03  0.50400001928E-02 0. -1.
       -1    1    3    3    0  502 -0.38346466532E+02 -0.49678854007E+03 -0.40225134537E+03  0.64037133752E+03  0.50400001928E-02 0.  1.
</event>
<event>
 5   0  0.3648616E-03  0.1209628E+04  0.7818609E-02  0.9104470E-01
       -1   -1    0    0    0  501  0.00000000000E+00  0.00000000000E+00  0.56245503601E+03  0.56245503603E+03  0.50400001928E-02 0.  1.
        1   -1    0    0  501    0  0.00000000000E+00  0.00000000000E+00 -0.65036351780E+03  0.65036351782E+03  0.50400001928E-02 0. -1.
    10030    2    1    2    0    0  0.00000000000E+00  0.00000000000E+00 -0.87908481799E+02  0.12128185539E+04  0.12096284320E+04 0.  0.
        2    1    3    3  502    0 -0.47854035055E+03  0.10019714631E+03  0.31301828394E+03  0.58053490965E+03  0.25500000920E-02 0.  1.
       -2    1    3    3    0  502  0.47854035055E+03 -0.10019714631E+03 -0.40092676574E+03  0.63228364420E+03  0.25500000920E-02 0. -1.
</event>
<event>
 5   0  0.2537625E-03  0.1177097E+04  0.7818609E-02  0.9133143E-01
       -4   -1    0    0    0  501  0.00000000000E+00  0.00000000000E+00  0.36810308528E+03  0.36810527610E+03  0.12699999809E+01 0. -1.
        4   -1    0    0  501    0  0.00000000000E+00  0.00000000000E+00 -0.94100601100E+03  0.94100686801E+03  0.12699999809E+01 0.  1.
    10030    2    1    2    0    0  0.00000000000E+00  0.00000000000E+00 -0.57290292572E+03  0.13091121441E+04  0.11770967860E+04 0.  0.
        2    1    3    3  502    0 -0.27517796757E+02  0.58248467982E+03 -0.19787223867E+03  0.61579140478E+03  0.25500000920E-02 0.  1.
       -2    1    3    3    0  502  0.27517796757E+02 -0.58248467982E+03 -0.37503068705E+03  0.69332073933E+03  0.25500000920E-02 0. -1.
</event>
<event>
 5   0  0.6585930E-03  0.1213592E+04  0.7818609E-02  0.9101042E-01
        2   -1    0    0  501    0  0.00000000000E+00  0.00000000000E+00  0.23055820829E+03  0.23055820831E+03  0.25500000920E-02 0. -1.
       -2   -1    0    0    0  501  0.00000000000E+00  0.00000000000E+00 -0.15970006604E+04  0.15970006604E+04  0.25500000920E-02 0.  1.
    10030    2    1    2    0    0  0.00000000000E+00  0.00000000000E+00 -0.13664424521E+04  0.18275588687E+04  0.12135923713E+04 0.  0.
        2    1    3    3  502    0 -0.13879287584E+03 -0.19964450025E+03  0.15398826907E+03  0.28780857507E+03  0.25500000920E-02 0. -1.
       -2    1    3    3    0  502  0.13879287584E+03  0.19964450025E+03 -0.15204307212E+04  0.15397502937E+04  0.25500000920E-02 0.  1.
</event>
<event>
 5   0  0.3731281E-03  0.1216452E+04  0.7818609E-02  0.9098576E-01
       -1   -1    0    0    0  501  0.00000000000E+00  0.00000000000E+00  0.40297951271E+03  0.40297951274E+03  0.50400001928E-02 0.  1.
        1   -1    0    0  501    0  0.00000000000E+00  0.00000000000E+00 -0.91800985477E+03  0.91800985478E+03  0.50400001928E-02 0. -1.
    10030    2    1    2    0    0  0.00000000000E+00  0.00000000000E+00 -0.51503034206E+03  0.13209893675E+04  0.12164524881E+04 0.  0.
        5    1    3    3  502    0  0.56055305454E+03  0.22591773628E+03 -0.18339638222E+03  0.63159708164E+03  0.46999998093E+01 0.  1.
       -5    1    3    3    0  502 -0.56055305454E+03 -0.22591773628E+03 -0.33163395984E+03  0.68939228589E+03  0.46999998093E+01 0. -1.
</event>
<event>
 5   0  0.3944074E-03  0.1192776E+04  0.7818609E-02  0.9119203E-01
        1   -1    0    0  501    0  0.00000000000E+00  0.00000000000E+00  0.10448508383E+04  0.10448508383E+04  0.50400001928E-02 0.  1.
       -1   -1    0    0    0  501  0.00000000000E+00  0.00000000000E+00 -0.34041087908E+03  0.34041087911E+03  0.50400001928E-02 0. -1.
    10030    2    1    2    0    0  0.00000000000E+00  0.00000000000E+00  0.70443995918E+03  0.13852617174E+04  0.11927759092E+04 0.  0.
        4    1    3    3  502    0  0.35154679786E+03  0.30721384119E+03  0.78320090849E+03  0.91179535602E+03  0.12699999809E+01 0.  1.
       -4    1    3    3    0  502 -0.35154679786E+03 -0.30721384119E+03 -0.78760949311E+02  0.47346636136E+03  0.12699999809E+01 0. -1.
</event>
<event>
 5   0  0.3772254E-03  0.1243846E+04  0.7818609E-02  0.9075321E-01
       -1   -1    0    0    0  501  0.00000000000E+00  0.00000000000E+00  0.50868204890E+03  0.50868204893E+03  0.50400001928E-02 0. -1.
        1   -1    0    0  501    0  0.00000000000E+00  0.00000000000E+00 -0.76037293686E+03  0.76037293687E+03  0.50400001928E-02 0.  1.
    10030    2    1    2    0    0  0.00000000000E+00  0.00000000000E+00 -0.25169088795E+03  0.12690549858E+04  0.12438457517E+04 0.  0.
        3    1    3    3  502    0  0.43689715944E+03  0.20104575940E+03 -0.52815883199E+03  0.71431805753E+03  0.10100000352E+00 0.  1.
       -3    1    3    3    0  502 -0.43689715944E+03 -0.20104575940E+03  0.27646794404E+03  0.55473692827E+03  0.10100000352E+00 0. -1.
</event>
<event>
 5   0  0.3772254E-03  0.9752884E+03  0.7818609E-02  0.9336071E-01
        1   -1    0    0  501    0  0.00000000000E+00  0.00000000000E+00  0.26641041455E+04  0.26641041455E+04  0.50400001928E-02 0. -1.
       -1   -1    0    0    0  501  0.00000000000E+00  0.00000000000E+00 -0.89259606192E+02  0.89259606334E+02  0.50400001928E-02 0.  1.
    10030    2    1    2    0    0  0.00000000000E+00  0.00000000000E+00  0.25748445393E+04  0.27533637518E+04  0.97528844366E+03 0.  0.
        3    1    3    3  502    0 -0.59865867490E+02  0.41312154430E+03  0.19990719036E+04  0.20421904462E+04  0.10100000352E+00 0. -1.
       -3    1    3    3    0  502  0.59865867490E+02 -0.41312154430E+03  0.57577263568E+03  0.71117330564E+03  0.10100000352E+00 0.  1.
</event>
<event>
 5   0  0.6585930E-03  0.1350467E+04  0.7818609E-02  0.8990475E-01
       -2   -1    0    0    0  501  0.00000000000E+00  0.00000000000E+00  0.78629716093E+03  0.78629716093E+03  0.25500000920E-02 0. -1.
        2   -1    0    0  501    0  0.00000000000E+00  0.00000000000E+00 -0.57985742875E+03  0.57985742875E+03  0.25500000920E-02 0.  1.
    10030    2    1    2    0    0  0.00000000000E+00  0.00000000000E+00  0.20643973218E+03  0.13661545897E+04  0.13504669562E+04 0.  0.
        2    1    3    3  502    0  0.19805527094E+03  0.64018721384E+03  0.19342947009E+02  0.67040264671E+03  0.25500000920E-02 0.  1.
       -2    1    3    3    0  502 -0.19805527094E+03 -0.64018721384E+03  0.18709678518E+03  0.69575194297E+03  0.25500000920E-02 0. -1.
</event>
<event>
 5   0  0.6585930E-03  0.1193728E+04  0.7818609E-02  0.9118364E-01
       -2   -1    0    0    0  501  0.00000000000E+00  0.00000000000E+00  0.21693249794E+03  0.21693249796E+03  0.25500000920E-02 0.  1.
        2   -1    0    0  501    0  0.00000000000E+00  0.00000000000E+00 -0.16422014296E+04  0.16422014296E+04  0.25500000920E-02 0. -1.
    10030    2    1    2    0    0  0.00000000000E+00  0.00000000000E+00 -0.14252689316E+04  0.18591339275E+04  0.11937283749E+04 0.  0.
        2    1    3    3  502    0  0.41846352010E+03 -0.35912112569E+03 -0.35691818189E+03  0.65686398070E+03  0.25500000920E-02 0.  1.
       -2    1    3    3    0  502 -0.41846352010E+03  0.35912112569E+03 -0.10683507497E+04  0.12022699468E+04  0.25500000920E-02 0. -1.
</event>
<event>
 5   0  0.3944074E-03  0.1251667E+04  0.7818609E-02  0.9068797E-01
       -1   -1    0    0    0  501  0.00000000000E+00  0.00000000000E+00  0.36052659662E+03  0.36052659666E+03  0.50400001928E-02 0. -1.
        1   -1    0    0  501    0  0.00000000000E+00  0.00000000000E+00 -0.10863760306E+04  0.10863760306E+04  0.50400001928E-02 0.  1.
    10030    2    1    2    0    0  0.00000000000E+00  0.00000000000E+00 -0.72584943393E+03  0.14469026272E+04  0.12516668135E+04 0.  0.
        4    1    3    3  502    0 -0.41604626083E+03 -0.33501189658E+03  0.14035556350E+02  0.53434639677E+03  0.12699999809E+01 0. -1.
       -4    1    3    3    0  502  0.41604626083E+03  0.33501189658E+03 -0.73988499028E+03  0.91255623046E+03  0.12699999809E+01 0.  1.
</event>
<event>
 5   0  0.3701879E-03  0.1172324E+04  0.7818609E-02  0.9137432E-01
        1   -1    0    0  501    0  0.00000000000E+00  0.00000000000E+00  0.73798868598E+03  0.73798868600E+03  0.50400001928E-02 0. -1.
       -1   -1    0    0    0  501  0.00000000000E+00  0.00000000000E+00 -0.46557083857E+03  0.46557083860E+03  0.50400001928E-02 0.  1.
    10030    2    1    2    0    0  0.00000000000E+00  0.00000000000E+00  0.27241784741E+03  0.12035595246E+04  0.11723242067E+04 0.  0.
        1    1    3    3  502    0 -0.29395753501E+03 -0.16828681710E+03  0.62734246486E+03  0.71294463561E+03  0.50400001928E-02 0. -1.
       -1    1    3    3    0  502  0.29395753501E+03  0.16828681710E+03 -0.35492461745E+03  0.49061488899E+03  0.50400001928E-02 0.  1.
</event>
<event>
 5   0  0.3701879E-03  0.1190766E+04  0.7818609E-02  0.9120978E-01
        1   -1    0    0  501    0  0.00000000000E+00  0.00000000000E+00  0.65723215021E+03  0.65723215022E+03  0.50400001928E-02 0. -1.
       -1   -1    0    0    0  501  0.00000000000E+00  0.00000000000E+00 -0.53935383892E+03  0.53935383894E+03  0.50400001928E-02 0.  1.
    10030    2    1    2    0    0  0.00000000000E+00  0.00000000000E+00  0.11787831129E+03  0.11965859892E+04  0.11907656080E+04 0.  0.
        1    1    3    3  502    0  0.22294514027E+03  0.34329779510E+03  0.49339809394E+03  0.64109249786E+03  0.50400001928E-02 0. -1.
       -1    1    3    3    0  502 -0.22294514027E+03 -0.34329779510E+03 -0.37551978265E+03  0.55549349130E+03  0.50400001928E-02 0.  1.
</event>
<event>
 5   0  0.2537625E-03  0.1197497E+04  0.7818609E-02  0.9115050E-01
       -3   -1    0    0    0  501  0.00000000000E+00  0.00000000000E+00  0.60585061917E+03  0.60585062759E+03  0.10100000352E+00 0. -1.
        3   -1    0    0  501    0  0.00000000000E+00  0.00000000000E+00 -0.59172976955E+03  0.59172977817E+03  0.10100000352E+00 0.  1.
    10030    2    1    2    0    0  0.00000000000E+00  0.00000000000E+00  0.14120849618E+02  0.11975804058E+04  0.11974971523E+04 0.  0.
        1    1    3    3  502    0  0.34017260788E+01  0.45228073735E+03  0.39942737605E+03  0.60341666027E+03  0.50400001928E-02 0. -1.
       -1    1    3    3    0  502 -0.34017260788E+01 -0.45228073735E+03 -0.38530652643E+03  0.59416374549E+03  0.50400001928E-02 0.  1.
</event>
<event>
 5   0  0.3731281E-03  0.1073297E+04  0.7818609E-02  0.9231616E-01
       -1   -1    0    0    0  501  0.00000000000E+00  0.00000000000E+00  0.24571164148E+03  0.24571164153E+03  0.50400001928E-02 0.  1.
        1   -1    0    0  501    0  0.00000000000E+00  0.00000000000E+00 -0.11720715045E+04  0.11720715045E+04  0.50400001928E-02 0. -1.
    10030    2    1    2    0    0  0.00000000000E+00  0.00000000000E+00 -0.92635986300E+03  0.14177831460E+04  0.10732970015E+04 0.  0.
        5    1    3    3  502    0 -0.75757878380E+02  0.42217611370E+03 -0.37187832775E+02  0.43055423819E+03  0.46999998093E+01 0.  1.
       -5    1    3    3    0  502  0.75757878380E+02 -0.42217611370E+03 -0.88917203023E+03  0.98722890783E+03  0.46999998093E+01 0. -1.
</event>
<event>
 5   0  0.6349142E-03  0.1195868E+04  0.7818609E-02  0.9116481E-01
        2   -1    0    0  501    0  0.00000000000E+00  0.00000000000E+00  0.12409557829E+04  0.12409557829E+04  0.25500000920E-02 0.  1.
       -2   -1    0    0    0  501  0.00000000000E+00  0.00000000000E+00 -0.28810447306E+03  0.28810447307E+03  0.25500000920E-02 0. -1.
    10030    2    1    2    0    0  0.00000000000E+00  0.00000000000E+00  0.95285130985E+03  0.15290602560E+04  0.11958677384E+04 0.  0.
        1    1    3    3  502    0  0.34112789711E+03 -0.21848516530E+03 -0.85906804138E+02  0.41410625287E+03  0.50400001928E-02 0. -1.
       -1    1    3    3    0  502 -0.34112789711E+03  0.21848516530E+03  0.10387581140E+04  0.11149540031E+04  0.50400001928E-02 0.  1.
</event>
<event>
 5   0  0.6493047E-03  0.1448908E+04  0.7818609E-02  0.8919158E-01
       -2   -1    0    0    0  501  0.00000000000E+00  0.00000000000E+00  0.34984058154E+03  0.34984058155E+03  0.25500000920E-02 0.  1.
        2   -1    0    0  501    0  0.00000000000E+00  0.00000000000E+00 -0.15002070586E+04  0.15002070586E+04  0.25500000920E-02 0. -1.
    10030    2    1    2    0    0  0.00000000000E+00  0.00000000000E+00 -0.11503664771E+04  0.18500476401E+04  0.14489076021E+04 0.  0.
        3    1    3    3  502    0 -0.31794940830E+03  0.44120060637E+03  0.35954530121E+02  0.54501609127E+03  0.10100000352E+00 0.  1.
       -3    1    3    3    0  502  0.31794940830E+03 -0.44120060637E+03 -0.11863210072E+04  0.13050315489E+04  0.10100000352E+00 0. -1.
</event>
<event>
 5   0  0.6349142E-03  0.1221389E+04  0.7818609E-02  0.9094338E-01
       -2   -1    0    0    0  501  0.00000000000E+00  0.00000000000E+00  0.32329466443E+03  0.32329466444E+03  0.25500000920E-02 0. -1.
        2   -1    0    0  501    0  0.00000000000E+00  0.00000000000E+00 -0.11535844686E+04  0.11535844686E+04  0.25500000920E-02 0.  1.
    10030    2    1    2    0    0  0.00000000000E+00  0.00000000000E+00 -0.83028980414E+03  0.14768791330E+04  0.12213888876E+04 0.  0.
        1    1    3    3  502    0 -0.17418259100E+03 -0.16978740178E+03  0.26219065257E+03  0.35764685813E+03  0.50400001928E-02 0. -1.
       -1    1    3    3    0  502  0.17418259100E+03  0.16978740178E+03 -0.10924804567E+04  0.11192322749E+04  0.50400001928E-02 0.  1.
</event>
<event>
 5   0  0.6493047E-03  0.1202870E+04  0.7818609E-02  0.9110348E-01
        2   -1    0    0  501    0  0.00000000000E+00  0.00000000000E+00  0.50186680105E+03  0.50186680106E+03  0.25500000920E-02 0. -1.
       -2   -1    0    0    0  501  0.00000000000E+00  0.00000000000E+00 -0.72075709955E+03  0.72075709955E+03  0.25500000920E-02 0.  1.
    10030    2    1    2    0    0  0.00000000000E+00  0.00000000000E+00 -0.21889029850E+03  0.12226239006E+04  0.12028700011E+04 0.  0.
        3    1    3    3  502    0 -0.36963463192E+03  0.17605825130E+03  0.33835524574E+03  0.53114080195E+03  0.10100000352E+00 0. -1.
       -3    1    3    3    0  502  0.36963463192E+03 -0.17605825130E+03 -0.55724554424E+03  0.69148309867E+03  0.10100000352E+00 0.  1.
</event>
<event>
 5   0  0.6640844E-03  0.1209794E+04  0.7818609E-02  0.9104327E-01
       -2   -1    0    0    0  501  0.00000000000E+00  0.00000000000E+00  0.45543290438E+03  0.45543290439E+03  0.25500000920E-02 0. -1.
        2   -1    0    0  501    0  0.00000000000E+00  0.00000000000E+00 -0.80341237265E+03  0.80341237265E+03  0.25500000920E-02 0.  1.
    10030    2    1    2    0    0  0.00000000000E+00  0.00000000000E+00 -0.34797946827E+03  0.12588452770E+04  0.12097940821E+04 0.  0.
        5    1    3    3  502    0  0.59459117384E+03  0.29412409881E+02 -0.62527069758E+02  0.59861129150E+03  0.46999998093E+01 0. -1.
       -5    1    3    3    0  502 -0.59459117384E+03 -0.29412409881E+02 -0.28545239851E+03  0.66023398555E+03  0.46999998093E+01 0.  1.
</event>
<event>
 5   0  0.6640844E-03  0.1181999E+04  0.7818609E-02  0.9128761E-01
       -2   -1    0    0    0  501  0.00000000000E+00  0.00000000000E+00  0.58298353246E+03  0.58298353247E+03  0.25500000920E-02 0.  1.
        2   -1    0    0  501    0  0.00000000000E+00  0.00000000000E+00 -0.59912522739E+03  0.59912522740E+03  0.25500000920E-02 0. -1.
    10030    2    1    2    0    0  0.00000000000E+00  0.00000000000E+00 -0.16141694930E+02  0.11821087599E+04  0.11819985473E+04 0.  0.
        5    1    3    3  502    0  0.28722526561E+03  0.54792895042E+02  0.50555024442E+03  0.58404088400E+03  0.46999998093E+01 0.  1.
       -5    1    3    3    0  502 -0.28722526561E+03 -0.54792895042E+02 -0.52169193935E+03  0.59806787586E+03  0.46999998093E+01 0. -1.
</event>
<event>
 5   0  0.3701879E-03  0.1208590E+04  0.7818609E-02  0.9105371E-01
        1   -1    0    0  501    0  0.00000000000E+00  0.00000000000E+00  0.84145295680E+03  0.84145295681E+03  0.50400001928E-02 0.  1.
       -1   -1    0    0    0  501  0.00000000000E+00  0.00000000000E+00 -0.43397865520E+03  0.43397865523E+03  0.50400001928E-02 0. -1.
    10030    2    1    2    0    0  0.00000000000E+00  0.00000000000E+00  0.40747430160E+03  0.12754316120E+04  0.12085902906E+04 0.  0.
        1    1    3    3  502    0 -0.25753085065E+03 -0.26181894404E+03 -0.30270085902E+03  0.47591922484E+03  0.50400001928E-02 0. -1.
       -1    1    3    3    0  502  0.25753085065E+03  0.26181894404E+03  0.71017516062E+03  0.79951238720E+03  0.50400001928E-02 0.  1.
</event>
<event>
 5   0  0.6349142E-03  0.1016721E+04  0.7818609E-02  0.9290393E-01
        2   -1    0    0  501    0  0.00000000000E+00  0.00000000000E+00  0.10206768816E+04  0.10206768816E+04  0.25500000920E-02 0. -1.
       -2   -1    0    0    0  501  0.00000000000E+00  0.00000000000E+00 -0.25319510898E+03  0.25319510900E+03  0.25500000920E-02 0.  1.
    10030    2    1    2    0    0  0.00000000000E+00  0.00000000000E+00  0.76748177262E+03  0.12738719906E+04  0.10167209928E+04 0.  0.
        1    1    3    3  502    0 -0.19653008004E+03 -0.22630773804E+03 -0.13070696558E+03  0.32699170560E+03  0.50400001928E-02 0.  1.
       -1    1    3    3    0  502  0.19653008004E+03  0.22630773804E+03  0.89818873820E+03  0.94688028499E+03  0.50400001928E-02 0. -1.
</event>
<event>
 5   0  0.3772254E-03  0.1237536E+04  0.7818609E-02  0.9080621E-01
       -1   -1    0    0    0  501  0.00000000000E+00  0.00000000000E+00  0.33170709678E+03  0.33170709682E+03  0.50400001928E-02 0.  1.
        1   -1    0    0  501    0  0.00000000000E+00  0.00000000000E+00 -0.11542528672E+04  0.11542528672E+04  0.50400001928E-02 0. -1.
    10030    2    1    2    0    0  0.00000000000E+00  0.00000000000E+00 -0.82254577042E+03  0.14859599640E+04  0.12375360481E+04 0.  0.
        3    1    3    3  502    0  0.39166797566E+03  0.14692146039E+03 -0.95874238281E+03  0.10460290080E+04  0.10100000352E+00 0. -1.
       -3    1    3    3    0  502 -0.39166797566E+03 -0.14692146039E+03  0.13619661240E+03  0.43993095607E+03  0.10100000352E+00 0.  1.
</event>
<event>
 5   0  0.3648616E-03  0.1197789E+04  0.7818609E-02  0.9114794E-01
        1   -1    0    0  501    0  0.00000000000E+00  0.00000000000E+00  0.62878163778E+03  0.62878163780E+03  0.50400001928E-02 0. -1.
       -1   -1    0    0    0  501  0.00000000000E+00  0.00000000000E+00 -0.57042835165E+03  0.57042835167E+03  0.50400001928E-02 0.  1.
    10030    2    1    2    0    0  0.00000000000E+00  0.00000000000E+00  0.58353286135E+02  0.11992099895E+04  0.11977894192E+04 0.  0.
        2    1    3    3  502    0 -0.36607973297E+03 -0.24850885539E+03  0.43326881820E+03  0.61926802834E+03  0.25500000920E-02 0. -1.
       -2    1    3    3    0  502  0.36607973297E+03  0.24850885539E+03 -0.37491553206E+03  0.57994196114E+03  0.25500000920E-02 0.  1.
</event>
<event>
 5   0  0.3944074E-03  0.1176091E+04  0.7818609E-02  0.9134045E-01
       -1   -1    0    0    0  501  0.00000000000E+00  0.00000000000E+00  0.51260362811E+03  0.51260362814E+03  0.50400001928E-02 0. -1.
        1   -1    0    0  501    0  0.00000000000E+00  0.00000000000E+00 -0.67459032477E+03  0.67459032479E+03  0.50400001928E-02 0.  1.
    10030    2    1    2    0    0  0.00000000000E+00  0.00000000000E+00 -0.16198669666E+03  0.11871939529E+04  0.11760908944E+04 0.  0.
        4    1    3    3  502    0  0.41554004359E+03  0.36386417803E+03  0.12271659424E+03  0.56580177030E+03  0.12699999809E+01 0.  1.
       -4    1    3    3    0  502 -0.41554004359E+03 -0.36386417803E+03 -0.28470329090E+03  0.62139218262E+03  0.12699999809E+01 0. -1.
</event>
<event>
 5   0  0.6658994E-03  0.1202339E+04  0.7818609E-02  0.9110811E-01
       -2   -1    0    0    0  501  0.00000000000E+00  0.00000000000E+00  0.30255510340E+03  0.30255510341E+03  0.25500000920E-02 0.  1.
        2   -1    0    0  501    0  0.00000000000E+00  0.00000000000E+00 -0.11945098013E+04  0.11945098013E+04  0.25500000920E-02 0. -1.
    10030    2    1    2    0    0  0.00000000000E+00  0.00000000000E+00 -0.89195469786E+03  0.14970649047E+04  0.12023394470E+04 0.  0.
        4    1    3    3  502    0  0.51735484291E+03  0.23506299512E+03 -0.69026592788E+03  0.89408014699E+03  0.12699999809E+01 0. -1.
       -4    1    3    3    0  502 -0.51735484291E+03 -0.23506299512E+03 -0.20168876999E+03  0.60298475768E+03  0.12699999809E+01 0.  1.
</event>
<event>
 5   0  0.3731281E-03  0.1202084E+04  0.7818609E-02  0.9111034E-01
        1   -1    0    0  501    0  0.00000000000E+00  0.00000000000E+00  0.85918952927E+03  0.85918952928E+03  0.50400001928E-02 0.  1.
       -1   -1    0    0    0  501  0.00000000000E+00  0.00000000000E+00 -0.42045608783E+03  0.42045608786E+03  0.50400001928E-02 0. -1.
    10030    2    1    2    0    0  0.00000000000E+00  0.00000000000E+00  0.43873344144E+03  0.12796456171E+04  0.12020839708E+04 0.  0.
        5    1    3    3  502    0 -0.33724194081E+03 -0.41696699565E+02  0.74709370574E+03  0.82075686811E+03  0.46999998093E+01 0.  1.
       -5    1    3    3    0  502  0.33724194081E+03  0.41696699565E+02 -0.30836026430E+03  0.45888874904E+03  0.46999998093E+01 0. -1.
</event>
<event>
 5   0  0.3772254E-03  0.1116583E+04  0.7818609E-02  0.9189178E-01
        1   -1    0    0  501    0  0.00000000000E+00  0.00000000000E+00  0.39724712062E+03  0.39724712065E+03  0.50400001928E-02 0.  1.
       -1   -1    0    0    0  501  0.00000000000E+00  0.00000000000E+00 -0.78462347942E+03  0.78462347943E+03  0.50400001928E-02 0. -1.
    10030    2    1    2    0    0  0.00000000000E+00  0.00000000000E+00 -0.38737635880E+03  0.11818706001E+04  0.11165830341E+04 0.  0.
        3    1    3    3  502    0  0.19360905731E+03 -0.49077131886E+03 -0.38698145813E+03  0.65429016012E+03  0.10100000352E+00 0. -1.
       -3    1    3    3    0  502 -0.19360905731E+03  0.49077131886E+03 -0.39490067063E+00  0.52758043997E+03  0.10100000352E+00 0.  1.
</event>
<event>
 5   0  0.3731281E-03  0.1198019E+04  0.7818609E-02  0.9114592E-01
       -1   -1    0    0    0  501  0.00000000000E+00  0.00000000000E+00  0.30059250598E+03  0.30059250603E+03  0.50400001928E-02 0. -1.
        1   -1    0    0  501    0  0.00000000000E+00  0.00000000000E+00 -0.11936836545E+04  0.11936836545E+04  0.50400001928E-02 0.  1.
    10030    2    1    2    0    0  0.00000000000E+00  0.00000000000E+00 -0.89309114850E+03  0.14942761605E+04  0.11980189666E+04 0.  0.
        5    1    3    3  502    0  0.42454325868E+03 -0.42184278990E+03 -0.41594366359E+03  0.72884809059E+03  0.46999998093E+01 0.  1.
       -5    1    3    3    0  502 -0.42454325868E+03  0.42184278990E+03 -0.47714748492E+03  0.76542806993E+03  0.46999998093E+01 0. -1.
</event>
<event>
 5   0  0.6640844E-03  0.1338495E+04  0.7818609E-02  0.8999583E-01
        2   -1    0    0  501    0  0.00000000000E+00  0.00000000000E+00  0.88644225466E+03  0.88644225467E+03  0.25500000920E-02 0. -1.
       -2   -1    0    0    0  501  0.00000000000E+00  0.00000000000E+00 -0.50526956437E+03  0.50526956437E+03  0.25500000920E-02 0.  1.
    10030    2    1    2    0    0  0.00000000000E+00  0.00000000000E+00  0.38117269030E+03  0.13917118190E+04  0.13384951130E+04 0.  0.
        5    1    3    3  502    0  0.53298113888E+03  0.21682215821E+03 -0.16474567851E+03  0.59853485386E+03  0.46999998093E+01 0. -1.
       -5    1    3    3    0  502 -0.53298113888E+03 -0.21682215821E+03  0.54591836881E+03  0.79317696518E+03  0.46999998093E+01 0.  1.
</event>
<event>
 5   0  0.6349142E-03  0.1207919E+04  0.7818609E-02  0.9105953E-01
        2   -1    0    0  501    0  0.00000000000E+00  0.00000000000E+00  0.61667214010E+03  0.61667214011E+03  0.25500000920E-02 0. -1.
       -2   -1    0    0    0  501  0.00000000000E+00  0.00000000000E+00 -0.59150918339E+03  0.59150918339E+03  0.25500000920E-02 0.  1.
    10030    2    1    2    0    0  0.00000000000E+00  0.00000000000E+00  0.25162956718E+02  0.12081813235E+04  0.12079192589E+04 0.  0.
        1    1    3    3  502    0 -0.80228903204E+02  0.58200896600E+03  0.15259799334E+03  0.60700680475E+03  0.50400001928E-02 0. -1.
       -1    1    3    3    0  502  0.80228903204E+02 -0.58200896600E+03 -0.12743503662E+03  0.60117451875E+03  0.50400001928E-02 0.  1.
</event>
<event>
 5   0  0.3648616E-03  0.1224909E+04  0.7818609E-02  0.9091329E-01
        1   -1    0    0  501    0  0.00000000000E+00  0.00000000000E+00  0.45180436911E+03  0.45180436914E+03  0.50400001928E-02 0.  1.
       -1   -1    0    0    0  501  0.00000000000E+00  0.00000000000E+00 -0.83022750469E+03  0.83022750471E+03  0.50400001928E-02 0. -1.
    10030    2    1    2    0    0  0.00000000000E+00  0.00000000000E+00 -0.37842313558E+03  0.12820318738E+04  0.12249088358E+04 0.  0.
        2    1    3    3  502    0  0.97611242951E+02  0.32395929539E+03  0.34510825566E+03  0.48329834259E+03  0.25500000920E-02 0.  1.
       -2    1    3    3    0  502 -0.97611242951E+02 -0.32395929539E+03 -0.72353139124E+03  0.79873353125E+03  0.25500000920E-02 0. -1.
</event>
<event>
 5   0  0.6640844E-03  0.1295493E+04  0.7818609E-02  0.9033147E-01
       -2   -1    0    0    0  501  0.00000000000E+00  0.00000000000E+00  0.29162888101E+03  0.29162888103E+03  0.25500000920E-02 0. -1.
        2   -1    0    0  501    0  0.00000000000E+00  0.00000000000E+00 -0.14387315074E+04  0.14387315074E+04  0.25500000920E-02 0.  1.
    10030    2    1    2    0    0  0.00000000000E+00  0.00000000000E+00 -0.11471026264E+04  0.17303603885E+04  0.12954932028E+04 0.  0.
        5    1    3    3  502    0 -0.21512065659E+03  0.57177590016E+03 -0.86110674526E+03  0.10558084550E+04  0.46999998093E+01 0.  1.
       -5    1    3    3    0  502  0.21512065659E+03 -0.57177590016E+03 -0.28599588115E+03  0.67455193346E+03  0.46999998093E+01 0. -1.
</event>
<event>
 5   0  0.6349142E-03  0.1203422E+04  0.7818609E-02  0.9109867E-01
       -2   -1    0    0    0  501  0.00000000000E+00  0.00000000000E+00  0.25088350820E+03  0.25088350821E+03  0.25500000920E-02 0.  1.
        2   -1    0    0  501    0  0.00000000000E+00  0.00000000000E+00 -0.14431236647E+04  0.14431236647E+04  0.25500000920E-02 0. -1.
    10030    2    1    2    0    0  0.00000000000E+00  0.00000000000E+00 -0.11922401565E+04  0.16940071729E+04  0.12034216680E+04 0.  0.
        1    1    3    3  502    0 -0.39402203878E+03  0.80158688372E+02  0.33997377400E+02  0.40352769925E+03  0.50400001928E-02 0.  1.
       -1    1    3    3    0  502  0.39402203878E+03 -0.80158688372E+02 -0.12262375339E+04  0.12904794736E+04  0.50400001928E-02 0. -1.
</event>
<event>
 5   0  0.2537625E-03  0.1158924E+04  0.7818609E-02  0.9149590E-01
        3   -1    0    0  501    0  0.00000000000E+00  0.00000000000E+00  0.87559265098E+03  0.87559265680E+03  0.10100000352E+00 0. -1.
       -3   -1    0    0    0  501  0.00000000000E+00  0.00000000000E+00 -0.38348463740E+03  0.38348465070E+03  0.10100000352E+00 0.  1.
    10030    2    1    2    0    0  0.00000000000E+00  0.00000000000E+00  0.49210801358E+03  0.12590773075E+04  0.11589242293E+04 0.  0.
        4    1    3    3  502    0  0.23857607204E+03 -0.45409945227E+03  0.53888348180E+03  0.74399050703E+03  0.12699999809E+01 0.  1.
       -4    1    3    3    0  502 -0.23857607204E+03  0.45409945227E+03 -0.46775468223E+02  0.51508680048E+03  0.12699999809E+01 0. -1.
</event>
<event>
 5   0  0.6349142E-03  0.1201926E+04  0.7818609E-02  0.9111172E-01
        2   -1    0    0  501    0  0.00000000000E+00  0.00000000000E+00  0.10557849811E+04  0.10557849811E+04  0.25500000920E-02 0. -1.
       -2   -1    0    0    0  501  0.00000000000E+00  0.00000000000E+00 -0.34207418068E+03  0.34207418069E+03  0.25500000920E-02 0.  1.
    10030    2    1    2    0    0  0.00000000000E+00  0.00000000000E+00  0.71371080041E+03  0.13978591618E+04  0.12019264244E+04 0.  0.
        1    1    3    3  502    0  0.46459795110E+03  0.79654321084E+02 -0.76686976921E+02  0.47757403560E+03  0.50400001928E-02 0.  1.
       -1    1    3    3    0  502 -0.46459795110E+03 -0.79654321084E+02  0.79039777733E+03  0.92028512617E+03  0.50400001928E-02 0. -1.
</event>
<event>
 5   0  0.6493047E-03  0.1206039E+04  0.7818609E-02  0.9107587E-01
        2   -1    0    0  501    0  0.00000000000E+00  0.00000000000E+00  0.10932966319E+04  0.10932966319E+04  0.25500000920E-02 0.  1.
       -2   -1    0    0    0  501  0.00000000000E+00  0.00000000000E+00 -0.33260161420E+03  0.33260161421E+03  0.25500000920E-02 0. -1.
    10030    2    1    2    0    0  0.00000000000E+00  0.00000000000E+00  0.76069501768E+03  0.14258982461E+04  0.12060385144E+04 0.  0.
        3    1    3    3  502    0  0.30194942246E+03 -0.42164905970E+03  0.74412468939E+03  0.90701871360E+03  0.10100000352E+00 0.  1.
       -3    1    3    3    0  502 -0.30194942246E+03  0.42164905970E+03  0.16570328297E+02  0.51887953250E+03  0.10100000352E+00 0. -1.
</event>
<event>
 5   0  0.3944074E-03  0.1326212E+04  0.7818609E-02  0.9009033E-01
        1   -1    0    0  501    0  0.00000000000E+00  0.00000000000E+00  0.82155027773E+03  0.82155027775E+03  0.50400001928E-02 0.  1.
       -1   -1    0    0    0  501  0.00000000000E+00  0.00000000000E+00 -0.53521927395E+03  0.53521927397E+03  0.50400001928E-02 0. -1.
    10030    2    1    2    0    0  0.00000000000E+00  0.00000000000E+00  0.28633100379E+03  0.13567695517E+04  0.13262119637E+04 0.  0.
        4    1    3    3  502    0  0.20934073056E+03 -0.49295762270E+03  0.54316962336E+03  0.76280116144E+03  0.12699999809E+01 0.  1.
       -4    1    3    3    0  502 -0.20934073056E+03  0.49295762270E+03 -0.25683861957E+03  0.59396839028E+03  0.12699999809E+01 0. -1.
</event>
<event>
 5   0  0.3944074E-03  0.1092641E+04  0.7818609E-02  0.9212394E-01
       -1   -1    0    0    0  501  0.00000000000E+00  0.00000000000E+00  0.37166127682E+03  0.37166127685E+03  0.50400001928E-02 0.  1.
        1   -1    0    0  501    0  0.00000000000E+00  0.00000000000E+00 -0.80305973912E+03  0.80305973914E+03  0.50400001928E-02 0. -1.
    10030    2    1    2    0    0  0.00000000000E+00  0.00000000000E+00 -0.43139846231E+03  0.11747210160E+04  0.10926412184E+04 0.  0.
        4    1    3    3  502    0  0.21420548369E+03 -0.47272418170E+03 -0.32258164975E+02  0.51999456085E+03  0.12699999809E+01 0. -1.
       -4    1    3    3    0  502 -0.21420548369E+03  0.47272418170E+03 -0.39914029733E+03  0.65472645514E+03  0.12699999809E+01 0.  1.
</event>
<event>
 5   0  0.3701879E-03  0.1160968E+04  0.7818609E-02  0.9147725E-01
       -1   -1    0    0    0  501  0.00000000000E+00  0.00000000000E+00  0.66161557084E+03  0.66161557086E+03  0.50400001928E-02 0. -1.
        1   -1    0    0  501    0  0.00000000000E+00  0.00000000000E+00 -0.50930092842E+03  0.50930092844E+03  0.50400001928E-02 0.  1.
    10030    2    1    2    0    0  0.00000000000E+00  0.00000000000E+00  0.15231464242E+03  0.11709164993E+04  0.11609675698E+04 0.  0.
        1    1    3    3  502    0 -0.18297266544E+03  0.50244374984E+03 -0.15168276577E+03  0.55582045618E+03  0.50400001928E-02 0.  1.
       -1    1    3    3    0  502  0.18297266544E+03 -0.50244374984E+03  0.30399740819E+03  0.61509604312E+03  0.50400001928E-02 0. -1.
</event>
<event>
 5   0  0.6640844E-03  0.1193647E+04  0.7818609E-02  0.9118436E-01
        2   -1    0    0  501    0  0.00000000000E+00  0.00000000000E+00  0.56504966487E+03  0.56504966488E+03  0.25500000920E-02 0.  1.
       -2   -1    0    0    0  501  0.00000000000E+00  0.00000000000E+00 -0.63038351588E+03  0.63038351588E+03  0.25500000920E-02 0. -1.
    10030    2    1    2    0    0  0.00000000000E+00  0.00000000000E+00 -0.65333851005E+02  0.11954331808E+04  0.11936465044E+04 0.  0.
        5    1    3    3  502    0  0.57247827624E+02 -0.31278774392E+03  0.47312607109E+03  0.57007355285E+03  0.46999998093E+01 0.  1.
       -5    1    3    3    0  502 -0.57247827624E+02  0.31278774392E+03 -0.53845992210E+03  0.62535962791E+03  0.46999998093E+01 0. -1.
</event>
<event>
 5   0  0.3701879E-03  0.1164958E+04  0.7818609E-02  0.9144094E-01
        1   -1    0    0  501    0  0.00000000000E+00  0.00000000000E+00  0.92607747905E+03  0.92607747907E+03  0.50400001928E-02 0.  1.
       -1   -1    0    0    0  501  0.00000000000E+00  0.00000000000E+00 -0.36636448564E+03  0.36636448567E+03  0.50400001928E-02 0. -1.
    10030    2    1    2    0    0  0.00000000000E+00  0.00000000000E+00  0.55971299341E+03  0.12924419647E+04  0.11649581955E+04 0.  0.
        1    1    3    3  502    0  0.29548555196E+03  0.33590973087E+03  0.69368333906E+03  0.82543542062E+03  0.50400001928E-02 0.  1.
       -1    1    3    3    0  502 -0.29548555196E+03 -0.33590973087E+03 -0.13397034565E+03  0.46700654412E+03  0.50400001928E-02 0. -1.
</event>
<event>
 5   0  0.2537625E-03  0.1152753E+04  0.7818609E-02  0.9155248E-01
       -3   -1    0    0    0  501  0.00000000000E+00  0.00000000000E+00  0.56350051501E+03  0.56350052406E+03  0.10100000352E+00 0. -1.
        3   -1    0    0  501    0  0.00000000000E+00  0.00000000000E+00 -0.58954662075E+03  0.58954662941E+03  0.10100000352E+00 0.  1.
    10030    2    1    2    0    0  0.00000000000E+00  0.00000000000E+00 -0.26046105746E+02  0.11530471535E+04  0.11527529390E+04 0.  0.
        4    1    3    3  502    0  0.19153995661E+03 -0.10371976078E+03  0.52074492596E+03  0.56446632723E+03  0.12699999809E+01 0. -1.
       -4    1    3    3    0  502 -0.19153995661E+03  0.10371976078E+03 -0.54679103171E+03  0.58858082624E+03  0.12699999809E+01 0.  1.
</event>
<event>
 5   0  0.6640844E-03  0.1146076E+04  0.7818609E-02  0.9161412E-01
       -2   -1    0    0    0  501  0.00000000000E+00  0.00000000000E+00  0.68150290718E+03  0.68150290719E+03  0.25500000920E-02 0. -1.
        2   -1    0    0  501    0  0.00000000000E+00  0.00000000000E+00 -0.48183557534E+03  0.48183557535E+03  0.25500000920E-02 0.  1.
    10030    2    1    2    0    0  0.00000000000E+00  0.00000000000E+00  0.19966733184E+03  0.11633384825E+04  0.11460756439E+04 0.  0.
        5    1    3    3  502    0 -0.17523263453E+03 -0.20067919696E+03 -0.41512593033E+03  0.49328515518E+03  0.46999998093E+01 0.  1.
       -5    1    3    3    0  502  0.17523263453E+03  0.20067919696E+03  0.61479326217E+03  0.67005332735E+03  0.46999998093E+01 0. -1.
</event>
<event>
 5   0  0.6349142E-03  0.1179468E+04  0.7818609E-02  0.9131020E-01
        2   -1    0    0  501    0  0.00000000000E+00  0.00000000000E+00  0.51485646550E+03  0.51485646550E+03  0.25500000920E-02 0.  1.
       -2   -1    0    0    0  501  0.00000000000E+00  0.00000000000E+00 -0.67550177179E+03  0.67550177179E+03  0.25500000920E-02 0. -1.
    10030    2    1    2    0    0  0.00000000000E+00  0.00000000000E+00 -0.16064530629E+03  0.11903582373E+04  0.11794684475E+04 0.  0.
        1    1    3    3  502    0  0.90865994791E+02 -0.19462591974E+03  0.47397550364E+03  0.52037357324E+03  0.50400001928E-02 0.  1.
       -1    1    3    3    0  502 -0.90865994791E+02  0.19462591974E+03 -0.63462080994E+03  0.66998466406E+03  0.50400001928E-02 0. -1.
</event>
<event>
 5   0  0.6658994E-03  0.1204571E+04  0.7818609E-02  0.9108865E-01
       -2   -1    0    0    0  501  0.00000000000E+00  0.00000000000E+00  0.71692747696E+03  0.71692747697E+03  0.25500000920E-02 0.  1.
        2   -1    0    0  501    0  0.00000000000E+00  0.00000000000E+00 -0.50597598823E+03  0.50597598824E+03  0.25500000920E-02 0. -1.
    10030    2    1    2    0    0  0.00000000000E+00  0.00000000000E+00  0.21095148873E+03  0.12229034652E+04  0.12045714402E+04 0.  0.
        4    1    3    3  502    0  0.34899193432E+03  0.48575370471E+03  0.17722265125E+03  0.62382811165E+03  0.12699999809E+01 0. -1.
       -4    1    3    3    0  502 -0.34899193432E+03 -0.48575370471E+03  0.33728837483E+02  0.59907535356E+03  0.12699999809E+01 0.  1.
</event>
<event>
 5   0  0.6640844E-03  0.1182277E+04  0.7818609E-02  0.9128512E-01
        2   -1    0    0  501    0  0.00000000000E+00  0.00000000000E+00  0.16748164812E+04  0.16748164812E+04  0.25500000920E-02 0.  1.
       -2   -1    0    0    0  501  0.00000000000E+00  0.00000000000E+00 -0.20864658130E+03  0.20864658131E+03  0.25500000920E-02 0. -1.
    10030    2    1    2    0    0  0.00000000000E+00  0.00000000000E+00  0.14661698999E+04  0.18834630625E+04  0.11822770117E+04 0.  0.
        5    1    3    3  502    0 -0.12698225344E+03 -0.49539405011E+03  0.12053545776E+04  0.13093668337E+04  0.46999998093E+01 0.  1.
       -5    1    3    3    0  502  0.12698225344E+03  0.49539405011E+03  0.26081532238E+03  0.57409622883E+03  0.46999998093E+01 0. -1.
</event>
<event>
 5   0  0.3944074E-03  0.1145646E+04  0.7818609E-02  0.9161809E-01
        1   -1    0    0  501    0  0.00000000000E+00  0.00000000000E+00  0.16263318961E+04  0.16263318961E+04  0.50400001928E-02 0. -1.
       -1   -1    0    0    0  501  0.00000000000E+00  0.00000000000E+00 -0.20175857800E+03  0.20175857806E+03  0.50400001928E-02 0.  1.
    10030    2    1    2    0    0  0.00000000000E+00  0.00000000000E+00  0.14245733181E+04  0.18280904742E+04  0.11456463866E+04 0.  0.
        4    1    3    3  502    0  0.31286384512E+03 -0.18932516343E+03  0.87416777439E+01  0.36579479619E+03  0.12699999809E+01 0.  1.
       -4    1    3    3    0  502 -0.31286384512E+03  0.18932516343E+03  0.14158316404E+04  0.14622956780E+04  0.12699999809E+01 0. -1.
</event>
<event>
 5   0  0.6349142E-03  0.1211080E+04  0.7818609E-02  0.9103213E-01
        2   -1    0    0  501    0  0.00000000000E+00  0.00000000000E+00  0.10757152437E+04  0.10757152437E+04  0.25500000920E-02 0.  1.
       -2   -1    0    0    0  501  0.00000000000E+00  0.00000000000E+00 -0.34086966356E+03  0.34086966357E+03  0.25500000920E-02 0. -1.
    10030    2    1    2    0    0  0.00000000000E+00  0.00000000000E+00  0.73484558014E+03  0.14165849073E+04  0.12110800027E+04 0.  0.
        1    1    3    3  502    0  0.45245383195E+03 -0.64094964936E+02  0.83215246488E+03  0.94936840026E+03  0.50400001928E-02 0.  1.
       -1    1    3    3    0  502 -0.45245383195E+03  0.64094964936E+02 -0.97306884746E+02  0.46721650700E+03  0.50400001928E-02 0. -1.
</event>
<event>
 5   0  0.3944074E-03  0.1279233E+04  0.7818609E-02  0.9046198E-01
       -1   -1    0    0    0  501  0.00000000000E+00  0.00000000000E+00  0.35728929738E+03  0.35728929741E+03  0.50400001928E-02 0. -1.
        1   -1    0    0  501    0  0.00000000000E+00  0.00000000000E+00 -0.11450359161E+04  0.11450359161E+04  0.50400001928E-02 0.  1.
    10030    2    1    2    0    0  0.00000000000E+00  0.00000000000E+00 -0.78774661868E+03  0.15023252135E+04  0.12792327043E+04 0.  0.
        4    1    3    3  502    0 -0.43292545595E+03  0.38946902733E+03 -0.83164348284E+02  0.58824186810E+03  0.12699999809E+01 0. -1.
       -4    1    3    3    0  502  0.43292545595E+03 -0.38946902733E+03 -0.70458227040E+03  0.91408334539E+03  0.12699999809E+01 0.  1.
</event>
<event>
 5   0  0.3648616E-03  0.1275976E+04  0.7818609E-02  0.9048836E-01
        1   -1    0    0  501    0  0.00000000000E+00  0.00000000000E+00  0.53695486333E+03  0.53695486336E+03  0.50400001928E-02 0.  1.
       -1   -1    0    0    0  501  0.00000000000E+00  0.00000000000E+00 -0.75803150056E+03  0.75803150057E+03  0.50400001928E-02 0. -1.
    10030    2    1    2    0    0  0.00000000000E+00  0.00000000000E+00 -0.22107663722E+03  0.12949863639E+04  0.12759760199E+04 0.  0.
        2    1    3    3  502    0 -0.32249804630E+03 -0.38669518971E+03  0.28707735136E+03  0.57961328942E+03  0.25500000920E-02 0.  1.
       -2    1    3    3    0  502  0.32249804630E+03  0.38669518971E+03 -0.50815398859E+03  0.71537307451E+03  0.25500000920E-02 0. -1.
</event>
<event>
 5   0  0.2537625E-03  0.1223081E+04  0.7818609E-02  0.9092890E-01
       -4   -1    0    0    0  501  0.00000000000E+00  0.00000000000E+00  0.37748736670E+03  0.37748950306E+03  0.12699999809E+01 0. -1.
        4   -1    0    0  501    0  0.00000000000E+00  0.00000000000E+00 -0.99070803449E+03  0.99070884850E+03  0.12699999809E+01 0.  1.
    10030    2    1    2    0    0  0.00000000000E+00  0.00000000000E+00 -0.61322066779E+03  0.13681983516E+04  0.12230810038E+04 0.  0.
        1    1    3    3  502    0  0.54280184708E+03  0.27479211838E+03 -0.23731517972E+03  0.65304138312E+03  0.50400001928E-02 0.  1.
       -1    1    3    3    0  502 -0.54280184708E+03 -0.27479211838E+03 -0.37590548807E+03  0.71515696844E+03  0.50400001928E-02 0. -1.
</event>
<event>
 5   0  0.3701879E-03  0.1203939E+04  0.7818609E-02  0.9109416E-01
       -1   -1    0    0    0  501  0.00000000000E+00  0.00000000000E+00  0.25494629925E+03  0.25494629930E+03  0.50400001928E-02 0.  1.
        1   -1    0    0  501    0  0.00000000000E+00  0.00000000000E+00 -0.14213480086E+04  0.14213480086E+04  0.50400001928E-02 0. -1.
    10030    2    1    2    0    0  0.00000000000E+00  0.00000000000E+00 -0.11664017094E+04  0.16762943079E+04  0.12039392257E+04 0.  0.
        1    1    3    3  502    0 -0.14185133927E+03  0.26068390471E+03  0.14600527124E+03  0.33074981464E+03  0.50400001928E-02 0.  1.
       -1    1    3    3    0  502  0.14185133927E+03 -0.26068390471E+03 -0.13124069806E+04  0.13455444933E+04  0.50400001928E-02 0. -1.
</event>
<event>
 5   0  0.3944074E-03  0.1227190E+04  0.7818609E-02  0.9089384E-01
        1   -1    0    0  501    0  0.00000000000E+00  0.00000000000E+00  0.97161343288E+03  0.97161343289E+03  0.50400001928E-02 0.  1.
       -1   -1    0    0    0  501  0.00000000000E+00  0.00000000000E+00 -0.38749879657E+03  0.38749879660E+03  0.50400001928E-02 0. -1.
    10030    2    1    2    0    0  0.00000000000E+00  0.00000000000E+00  0.58411463631E+03  0.13591122295E+04  0.12271903455E+04 0.  0.
        4    1    3    3  502    0  0.30713472416E+03  0.52499353626E+03  0.20244242551E+03  0.64104173066E+03  0.12699999809E+01 0. -1.
       -4    1    3    3    0  502 -0.30713472416E+03 -0.52499353626E+03  0.38167221080E+03  0.71807049884E+03  0.12699999809E+01 0.  1.
</event>
<event>
 5   0  0.6658994E-03  0.1176573E+04  0.7818609E-02  0.9133613E-01
       -2   -1    0    0    0  501  0.00000000000E+00  0.00000000000E+00  0.10449671272E+04  0.10449671272E+04  0.25500000920E-02 0. -1.
        2   -1    0    0  501    0  0.00000000000E+00  0.00000000000E+00 -0.33118860724E+03  0.33118860725E+03  0.25500000920E-02 0.  1.
    10030    2    1    2    0    0  0.00000000000E+00  0.00000000000E+00  0.71377851992E+03  0.13761557344E+04  0.11765733423E+04 0.  0.
        4    1    3    3  502    0  0.38165605026E+03  0.21199440625E+03  0.81808058851E+03  0.92728659603E+03  0.12699999809E+01 0. -1.
       -4    1    3    3    0  502 -0.38165605026E+03 -0.21199440625E+03 -0.10430206859E+03  0.44886913838E+03  0.12699999809E+01 0.  1.
</event>
<event>
 5   0  0.6658994E-03  0.1182747E+04  0.7818609E-02  0.9128094E-01
       -2   -1    0    0    0  501  0.00000000000E+00  0.00000000000E+00  0.64841094722E+03  0.64841094723E+03  0.25500000920E-02 0. -1.
        2   -1    0    0  501    0  0.00000000000E+00  0.00000000000E+00 -0.53935298923E+03  0.53935298923E+03  0.25500000920E-02 0.  1.
    10030    2    1    2    0    0  0.00000000000E+00  0.00000000000E+00  0.10905795799E+03  0.11877639365E+04  0.11827466045E+04 0.  0.
        4    1    3    3  502    0 -0.10403703252E+03  0.16922055959E+03 -0.50484511120E+03  0.54252142919E+03  0.12699999809E+01 0.  1.
       -4    1    3    3    0  502  0.10403703252E+03 -0.16922055959E+03  0.61390306920E+03  0.64524250727E+03  0.12699999809E+01 0. -1.
</event>
<event>
 5   0  0.3772254E-03  0.1160998E+04  0.7818609E-02  0.9147697E-01
       -1   -1    0    0    0  501  0.00000000000E+00  0.00000000000E+00  0.31448612857E+03  0.31448612861E+03  0.50400001928E-02 0.  1.
        1   -1    0    0  501    0  0.00000000000E+00  0.00000000000E+00 -0.10715230536E+04  0.10715230537E+04  0.50400001928E-02 0. -1.
    10030    2    1    2    0    0  0.00000000000E+00  0.00000000000E+00 -0.75703692508E+03  0.13860091823E+04  0.11609980824E+04 0.  0.
        3    1    3    3  502    0  0.50001569147E+01  0.57649224566E+03 -0.45958161521E+03  0.73728120965E+03  0.10100000352E+00 0.  1.
       -3    1    3    3    0  502 -0.50001569147E+01 -0.57649224566E+03 -0.29745530987E+03  0.64872797261E+03  0.10100000352E+00 0. -1.
</event>
<event>
 5   0  0.6585930E-03  0.1222287E+04  0.7818609E-02  0.9093569E-01
        2   -1    0    0  501    0  0.00000000000E+00  0.00000000000E+00  0.13202438328E+04  0.13202438328E+04  0.25500000920E-02 0.  1.
       -2   -1    0    0    0  501  0.00000000000E+00  0.00000000000E+00 -0.28289974019E+03  0.28289974020E+03  0.25500000920E-02 0. -1.
    10030    2    1    2    0    0  0.00000000000E+00  0.00000000000E+00  0.10373440926E+04  0.16031435730E+04  0.12222874250E+04 0.  0.
        2    1    3    3  502    0 -0.68737786941E+02  0.52041586770E+03  0.10820614807E+03  0.53597213471E+03  0.25500000920E-02 0. -1.
       -2    1    3    3    0  502  0.68737786941E+02 -0.52041586770E+03  0.92913794456E+03  0.10671714383E+04  0.25500000920E-02 0.  1.
</event>
<event>
 5   0  0.3731281E-03  0.1430819E+04  0.7818609E-02  0.8931807E-01
       -1   -1    0    0    0  501  0.00000000000E+00  0.00000000000E+00  0.52276043103E+03  0.52276043105E+03  0.50400001928E-02 0. -1.
        1   -1    0    0  501    0  0.00000000000E+00  0.00000000000E+00 -0.97905433989E+03  0.97905433990E+03  0.50400001928E-02 0.  1.
    10030    2    1    2    0    0  0.00000000000E+00  0.00000000000E+00 -0.45629390886E+03  0.15018147710E+04  0.14308191622E+04 0.  0.
        5    1    3    3  502    0  0.71262063630E+03 -0.35985639154E+02 -0.17395529202E+03  0.73444242192E+03  0.46999998093E+01 0.  1.
       -5    1    3    3    0  502 -0.71262063630E+03  0.35985639154E+02 -0.28233861684E+03  0.76737234903E+03  0.46999998093E+01 0. -1.
</event>
<event>
 5   0  0.6349142E-03  0.1198994E+04  0.7818609E-02  0.9113738E-01
        2   -1    0    0  501    0  0.00000000000E+00  0.00000000000E+00  0.52493875840E+03  0.52493875841E+03  0.25500000920E-02 0.  1.
       -2   -1    0    0    0  501  0.00000000000E+00  0.00000000000E+00 -0.68464462502E+03  0.68464462502E+03  0.25500000920E-02 0. -1.
    10030    2    1    2    0    0  0.00000000000E+00  0.00000000000E+00 -0.15970586662E+03  0.12095833834E+04  0.11989937438E+04 0.  0.
        1    1    3    3  502    0  0.21388537537E+03  0.12517822931E+03 -0.63054956647E+03  0.67750224995E+03  0.50400001928E-02 0. -1.
       -1    1    3    3    0  502 -0.21388537537E+03 -0.12517822931E+03  0.47084369985E+03  0.53208113348E+03  0.50400001928E-02 0.  1.
</event>
<event>
 5   0  0.6658994E-03  0.1204289E+04  0.7818609E-02  0.9109111E-01
       -2   -1    0    0    0  501  0.00000000000E+00  0.00000000000E+00  0.26600814394E+03  0.26600814396E+03  0.25500000920E-02 0.  1.
        2   -1    0    0  501    0  0.00000000000E+00  0.00000000000E+00 -0.13630328862E+04  0.13630328862E+04  0.25500000920E-02 0. -1.
    10030    2    1    2    0    0  0.00000000000E+00  0.00000000000E+00 -0.10970247422E+04  0.16290410301E+04  0.12042887497E+04 0.  0.
        4    1    3    3  502    0  0.26977680689E+03  0.19253779067E+03  0.13151481799E+03  0.35657830364E+03  0.12699999809E+01 0.  1.
       -4    1    3    3    0  502 -0.26977680689E+03 -0.19253779067E+03 -0.12285395602E+04  0.12724627265E+04  0.12699999809E+01 0. -1.
</event>
<event>
 5   0  0.3772254E-03  0.1185671E+04  0.7818609E-02  0.9125492E-01
       -1   -1    0    0    0  501  0.00000000000E+00  0.00000000000E+00  0.18101453515E+03  0.18101453522E+03  0.50400001928E-02 0.  1.
        1   -1    0    0  501    0  0.00000000000E+00  0.00000000000E+00 -0.19415787386E+04  0.19415787386E+04  0.50400001928E-02 0. -1.
    10030    2    1    2    0    0  0.00000000000E+00  0.00000000000E+00 -0.17605642035E+04  0.21225932738E+04  0.11856710723E+04 0.  0.
        3    1    3    3  502    0 -0.16266664580E+03  0.56375694516E+03 -0.10318864133E+04  0.11870433484E+04  0.10100000352E+00 0.  1.
       -3    1    3    3    0  502  0.16266664580E+03 -0.56375694516E+03 -0.72867779016E+03  0.93554992541E+03  0.10100000352E+00 0. -1.
</event>
<event>
 5   0  0.6658994E-03  0.1166430E+04  0.7818609E-02  0.9142759E-01
       -2   -1    0    0    0  501  0.00000000000E+00  0.00000000000E+00  0.19613180168E+03  0.19613180169E+03  0.25500000920E-02 0. -1.
        2   -1    0    0  501    0  0.00000000000E+00  0.00000000000E+00 -0.17342401492E+04  0.17342401493E+04  0.25500000920E-02 0.  1.
    10030    2    1    2    0    0  0.00000000000E+00  0.00000000000E+00 -0.15381083476E+04  0.19303719509E+04  0.11664298436E+04 0.  0.
        4    1    3    3  502    0  0.85164990293E+02 -0.82600098490E+02 -0.17140558740E+04  0.17181574444E+04  0.12699999809E+01 0.  1.
       -4    1    3    3    0  502 -0.85164990293E+02  0.82600098490E+02  0.17594752638E+03  0.21221450653E+03  0.12699999809E+01 0. -1.
</event>
<event>
 5   0  0.6640844E-03  0.1201552E+04  0.7818609E-02  0.9111500E-01
       -2   -1    0    0    0  501  0.00000000000E+00  0.00000000000E+00  0.34565402431E+03  0.34565402432E+03  0.25500000920E-02 0. -1.
        2   -1    0    0  501    0  0.00000000000E+00  0.00000000000E+00 -0.10441988416E+04  0.10441988416E+04  0.25500000920E-02 0.  1.
    10030    2    1    2    0    0  0.00000000000E+00  0.00000000000E+00 -0.69854481726E+03  0.13898528659E+04  0.12015515499E+04 0.  0.
        5    1    3    3  502    0  0.17237418966E+03  0.33166520342E+03  0.19474631768E+03  0.42150075524E+03  0.46999998093E+01 0. -1.
       -5    1    3    3    0  502 -0.17237418966E+03 -0.33166520342E+03 -0.89329113494E+03  0.96835211064E+03  0.46999998093E+01 0.  1.
</event>
<event>
 5   0  0.6349142E-03  0.1185529E+04  0.7818609E-02  0.9125618E-01
        2   -1    0    0  501    0  0.00000000000E+00  0.00000000000E+00  0.18146234660E+04  0.18146234660E+04  0.25500000920E-02 0.  1.
       -2   -1    0    0    0  501  0.00000000000E+00  0.00000000000E+00 -0.19363232650E+03  0.19363232652E+03  0.25500000920E-02 0. -1.
    10030    2    1    2    0    0  0.00000000000E+00  0.00000000000E+00  0.16209911395E+04  0.20082557926E+04  0.11855290186E+04 0.  0.
        1    1    3    3  502    0 -0.18280122927E+03  0.14738135389E+03  0.17324787095E+04  0.17483192019E+04  0.50400001928E-02 0.  1.
       -1    1    3    3    0  502  0.18280122927E+03 -0.14738135389E+03 -0.11148756993E+03  0.25993659067E+03  0.50400001928E-02 0. -1.
</event>
<event>
 5   0  0.3944074E-03  0.1151024E+04  0.7818609E-02  0.9156840E-01
        1   -1    0    0  501    0  0.00000000000E+00  0.00000000000E+00  0.36924511360E+03  0.36924511363E+03  0.50400001928E-02 0.  1.
       -1   -1    0    0    0  501  0.00000000000E+00  0.00000000000E+00 -0.89700257767E+03  0.89700257768E+03  0.50400001928E-02 0. -1.
    10030    2    1    2    0    0  0.00000000000E+00  0.00000000000E+00 -0.52775746407E+03  0.12662476913E+04  0.11510235770E+04 0.  0.
        4    1    3    3  502    0  0.16300278149E+03  0.42468493207E+02  0.34151811152E+03  0.38080140898E+03  0.12699999809E+01 0.  1.
       -4    1    3    3    0  502 -0.16300278149E+03 -0.42468493207E+02 -0.86927557558E+03  0.88544628233E+03  0.12699999809E+01 0. -1.
</event>
<event>
 5   0  0.6349142E-03  0.1190246E+04  0.7818609E-02  0.9121437E-01
        2   -1    0    0  501    0  0.00000000000E+00  0.00000000000E+00  0.46814992192E+03  0.46814992192E+03  0.25500000920E-02 0.  1.
       -2   -1    0    0    0  501  0.00000000000E+00  0.00000000000E+00 -0.75653404653E+03  0.75653404653E+03  0.25500000920E-02 0. -1.
    10030    2    1    2    0    0  0.00000000000E+00  0.00000000000E+00 -0.28838412461E+03  0.12246839685E+04  0.11902459491E+04 0.  0.
        1    1    3    3  502    0 -0.46209687456E+03  0.57887760746E+02 -0.52543497236E+03  0.70211567745E+03  0.50400001928E-02 0. -1.
       -1    1    3    3    0  502  0.46209687456E+03 -0.57887760746E+02  0.23705084774E+03  0.52256829101E+03  0.50400001928E-02 0.  1.
</event>
<event>
 5   0  0.3648616E-03  0.1057257E+04  0.7818609E-02  0.9247884E-01
       -1   -1    0    0    0  501  0.00000000000E+00  0.00000000000E+00  0.35493195584E+03  0.35493195588E+03  0.50400001928E-02 0. -1.
        1   -1    0    0  501    0  0.00000000000E+00  0.00000000000E+00 -0.78732801418E+03  0.78732801419E+03  0.50400001928E-02 0.  1.
    10030    2    1    2    0    0  0.00000000000E+00  0.00000000000E+00 -0.43239605834E+03  0.11422599701E+04  0.10572565857E+04 0.  0.
        2    1    3    3  502    0  0.41332538994E+03 -0.32847572680E+03 -0.24506090778E+03  0.58205586467E+03  0.25500000920E-02 0. -1.
       -2    1    3    3    0  502 -0.41332538994E+03  0.32847572680E+03 -0.18733515056E+03  0.56020410540E+03  0.25500000920E-02 0.  1.
</event>
<event>
 5   0  0.6493047E-03  0.1146603E+04  0.7818609E-02  0.9160923E-01
       -2   -1    0    0    0  501  0.00000000000E+00  0.00000000000E+00  0.51169867320E+03  0.51169867321E+03  0.25500000920E-02 0. -1.
        2   -1    0    0  501    0  0.00000000000E+00  0.00000000000E+00 -0.64232084069E+03  0.64232084070E+03  0.25500000920E-02 0.  1.
    10030    2    1    2    0    0  0.00000000000E+00  0.00000000000E+00 -0.13062216749E+03  0.11540195139E+04  0.11466031955E+04 0.  0.
        3    1    3    3  502    0 -0.10079343979E+03  0.55780053282E+03  0.21116105426E+02  0.56722716087E+03  0.10100000352E+00 0.  1.
       -3    1    3    3    0  502  0.10079343979E+03 -0.55780053282E+03 -0.15173827292E+03  0.58679235304E+03  0.10100000352E+00 0. -1.
</event>
<event>
 5   0  0.3944074E-03  0.1198829E+04  0.7818609E-02  0.9113882E-01
        1   -1    0    0  501    0  0.00000000000E+00  0.00000000000E+00  0.62085833498E+03  0.62085833500E+03  0.50400001928E-02 0. -1.
       -1   -1    0    0    0  501  0.00000000000E+00  0.00000000000E+00 -0.57871172269E+03  0.57871172271E+03  0.50400001928E-02 0.  1.
    10030    2    1    2    0    0  0.00000000000E+00  0.00000000000E+00  0.42146612293E+02  0.11995700577E+04  0.11988294234E+04 0.  0.
        4    1    3    3  502    0  0.51280265313E+03 -0.30884222701E+03 -0.97077119111E+01  0.59870354501E+03  0.12699999809E+01 0.  1.
       -4    1    3    3    0  502 -0.51280265313E+03  0.30884222701E+03  0.51854324205E+02  0.60086651270E+03  0.12699999809E+01 0. -1.
</event>
<event>
 5   0  0.3944074E-03  0.1197118E+04  0.7818609E-02  0.9115383E-01
       -1   -1    0    0    0  501  0.00000000000E+00  0.00000000000E+00  0.26646451068E+03  0.26646451073E+03  0.50400001928E-02 0. -1.
        1   -1    0    0  501    0  0.00000000000E+00  0.00000000000E+00 -0.13445424091E+04  0.13445424091E+04  0.50400001928E-02 0.  1.
    10030    2    1    2    0    0  0.00000000000E+00  0.00000000000E+00 -0.10780778984E+04  0.16110069198E+04  0.11971179310E+04 0.  0.
        4    1    3    3  502    0  0.35781374781E+03 -0.45959965268E+03 -0.35349930597E+03  0.68134124423E+03  0.12699999809E+01 0. -1.
       -4    1    3    3    0  502 -0.35781374781E+03  0.45959965268E+03 -0.72457859241E+03  0.92966567557E+03  0.12699999809E+01 0.  1.
</event>
<event>
 5   0  0.6349142E-03  0.1177408E+04  0.7818609E-02  0.9132865E-01
       -2   -1    0    0    0  501  0.00000000000E+00  0.00000000000E+00  0.23244323749E+03  0.23244323751E+03  0.25500000920E-02 0. -1.
        2   -1    0    0  501    0  0.00000000000E+00  0.00000000000E+00 -0.14909969478E+04  0.14909969478E+04  0.25500000920E-02 0.  1.
    10030    2    1    2    0    0  0.00000000000E+00  0.00000000000E+00 -0.12585537103E+04  0.17234401853E+04  0.11774075890E+04 0.  0.
        1    1    3    3  502    0 -0.53775861929E+02 -0.51873861911E+03 -0.22950582773E+03  0.56978462885E+03  0.50400001928E-02 0. -1.
       -1    1    3    3    0  502  0.53775861929E+02  0.51873861911E+03 -0.10290478825E+04  0.11536555564E+04  0.50400001928E-02 0.  1.
</event>
<event>
 5   0  0.6658994E-03  0.1179343E+04  0.7818609E-02  0.9131132E-01
        2   -1    0    0  501    0  0.00000000000E+00  0.00000000000E+00  0.69394570011E+03  0.69394570012E+03  0.25500000920E-02 0.  1.
       -2   -1    0    0    0  501  0.00000000000E+00  0.00000000000E+00 -0.50106557533E+03  0.50106557534E+03  0.25500000920E-02 0. -1.
    10030    2    1    2    0    0  0.00000000000E+00  0.00000000000E+00  0.19288012478E+03  0.11950112755E+04  0.11793427008E+04 0.  0.
        4    1    3    3  502    0 -0.23825481282E+03  0.53393641625E+03  0.18890679364E+02  0.58498882305E+03  0.12699999809E+01 0. -1.
       -4    1    3    3    0  502  0.23825481282E+03 -0.53393641625E+03  0.17398944542E+03  0.61002245241E+03  0.12699999809E+01 0.  1.
</event>
<event>
 5   0  0.3731281E-03  0.1279474E+04  0.7818609E-02  0.9046003E-01
       -1   -1    0    0    0  501  0.00000000000E+00  0.00000000000E+00  0.68976023031E+03  0.68976023033E+03  0.50400001928E-02 0. -1.
        1   -1    0    0  501    0  0.00000000000E+00  0.00000000000E+00 -0.59334149590E+03  0.59334149592E+03  0.50400001928E-02 0.  1.
    10030    2    1    2    0    0  0.00000000000E+00  0.00000000000E+00  0.96418734415E+02  0.12831017262E+04  0.12794739026E+04 0.  0.
        5    1    3    3  502    0 -0.16312468836E+03 -0.50224118247E+03  0.41032239659E+03  0.66876186229E+03  0.46999998093E+01 0. -1.
       -5    1    3    3    0  502  0.16312468836E+03  0.50224118247E+03 -0.31390366217E+03  0.61433986395E+03  0.46999998093E+01 0.  1.
</event>
<event>
 5   0  0.6349142E-03  0.1181343E+04  0.7818609E-02  0.9129346E-01
        2   -1    0    0  501    0  0.00000000000E+00  0.00000000000E+00  0.16049413824E+04  0.16049413824E+04  0.25500000920E-02 0.  1.
       -2   -1    0    0    0  501  0.00000000000E+00  0.00000000000E+00 -0.21738655226E+03  0.21738655228E+03  0.25500000920E-02 0. -1.
    10030    2    1    2    0    0  0.00000000000E+00  0.00000000000E+00  0.13875548301E+04  0.18223279347E+04  0.11813427508E+04 0.  0.
        1    1    3    3  502    0  0.17128590498E+03  0.33582725657E+03  0.13952301874E+04  0.14452633266E+04  0.50400001928E-02 0.  1.
       -1    1    3    3    0  502 -0.17128590498E+03 -0.33582725657E+03 -0.76753572569E+01  0.37706460804E+03  0.50400001928E-02 0. -1.
</event>
<event>
 5   0  0.6493047E-03  0.1455379E+04  0.7818609E-02  0.8914680E-01
        2   -1    0    0  501    0  0.00000000000E+00  0.00000000000E+00  0.12828194669E+04  0.12828194669E+04  0.25500000920E-02 0.  1.
       -2   -1    0    0    0  501  0.00000000000E+00  0.00000000000E+00 -0.41278746122E+03  0.41278746123E+03  0.25500000920E-02 0. -1.
    10030    2    1    2    0    0  0.00000000000E+00  0.00000000000E+00  0.87003200566E+03  0.16956069281E+04  0.14553787012E+04 0.  0.
        3    1    3    3  502    0 -0.72632604976E+03 -0.18652329257E+02  0.48211595639E+03  0.87197089719E+03  0.10100000352E+00 0.  1.
       -3    1    3    3    0  502  0.72632604976E+03  0.18652329257E+02  0.38791604927E+03  0.82363603092E+03  0.10100000352E+00 0. -1.
</event>
<event>
 5   0  0.3701879E-03  0.1169195E+04  0.7818609E-02  0.9140256E-01
        1   -1    0    0  501    0  0.00000000000E+00  0.00000000000E+00  0.24866558483E+03  0.24866558488E+03  0.50400001928E-02 0. -1.
       -1   -1    0    0    0  501  0.00000000000E+00  0.00000000000E+00 -0.13743522507E+04  0.13743522507E+04  0.50400001928E-02 0.  1.
    10030    2    1    2    0    0  0.00000000000E+00  0.00000000000E+00 -0.11256866658E+04  0.16230178356E+04  0.11691947763E+04 0.  0.
        1    1    3    3  502    0  0.25573004653E+03  0.26057855041E+03  0.70942687666E+02  0.37192997001E+03  0.50400001928E-02 0. -1.
       -1    1    3    3    0  502 -0.25573004653E+03 -0.26057855041E+03 -0.11966293535E+04  0.12510878656E+04  0.50400001928E-02 0.  1.
</event>
<event>
 5   0  0.3944074E-03  0.1288244E+04  0.7818609E-02  0.9038940E-01
        1   -1    0    0  501    0  0.00000000000E+00  0.00000000000E+00  0.93630807705E+03  0.93630807706E+03  0.50400001928E-02 0.  1.
       -1   -1    0    0    0  501  0.00000000000E+00  0.00000000000E+00 -0.44311625677E+03  0.44311625680E+03  0.50400001928E-02 0. -1.
    10030    2    1    2    0    0  0.00000000000E+00  0.00000000000E+00  0.49319182028E+03  0.13794243339E+04  0.12882442786E+04 0.  0.
        4    1    3    3  502    0  0.10174006092E+03  0.60697437191E+03  0.45010803996E+03  0.76247477905E+03  0.12699999809E+01 0. -1.
       -4    1    3    3    0  502 -0.10174006092E+03 -0.60697437191E+03  0.43083780317E+02  0.61694955481E+03  0.12699999809E+01 0.  1.
</event>
<event>
 5   0  0.3772254E-03  0.1185946E+04  0.7818609E-02  0.9125248E-01
        1   -1    0    0  501    0  0.00000000000E+00  0.00000000000E+00  0.49887655238E+03  0.49887655241E+03  0.50400001928E-02 0.  1.
       -1   -1    0    0    0  501  0.00000000000E+00  0.00000000000E+00 -0.70481733521E+03  0.70481733523E+03  0.50400001928E-02 0. -1.
    10030    2    1    2    0    0  0.00000000000E+00  0.00000000000E+00 -0.20594078283E+03  0.12036938876E+04  0.11859457699E+04 0.  0.
        3    1    3    3  502    0  0.56086231518E+02 -0.39382524471E+03  0.34335229906E+03  0.52548529971E+03  0.10100000352E+00 0.  1.
       -3    1    3    3    0  502 -0.56086231518E+02  0.39382524471E+03 -0.54929308189E+03  0.67820858793E+03  0.10100000352E+00 0. -1.
</event>
<event>
 5   0  0.3731281E-03  0.1254283E+04  0.7818609E-02  0.9066626E-01
       -1   -1    0    0    0  501  0.00000000000E+00  0.00000000000E+00  0.33690327847E+03  0.33690327850E+03  0.50400001928E-02 0. -1.
        1   -1    0    0  501    0  0.00000000000E+00  0.00000000000E+00 -0.11674171706E+04  0.11674171706E+04  0.50400001928E-02 0.  1.
    10030    2    1    2    0    0  0.00000000000E+00  0.00000000000E+00 -0.83051389209E+03  0.15043204491E+04  0.12542833366E+04 0.  0.
        5    1    3    3  502    0 -0.84854579791E+02  0.45022863548E+03 -0.92884967303E+03  0.10357074534E+04  0.46999998093E+01 0.  1.
       -5    1    3    3    0  502  0.84854579791E+02 -0.45022863548E+03  0.98335780932E+02  0.46861299569E+03  0.46999998093E+01 0. -1.
</event>
<event>
 5   0  0.2537625E-03  0.1265300E+04  0.7818609E-02  0.9057545E-01
       -3   -1    0    0    0  501  0.00000000000E+00  0.00000000000E+00  0.29405966657E+03  0.29405968391E+03  0.10100000352E+00 0.  1.
        3   -1    0    0  501    0  0.00000000000E+00  0.00000000000E+00 -0.13611041431E+04  0.13611041469E+04  0.10100000352E+00 0. -1.
    10030    2    1    2    0    0  0.00000000000E+00  0.00000000000E+00 -0.10670444765E+04  0.16551638308E+04  0.12652997241E+04 0.  0.
        3    1    3    3  502    0  0.99934314312E+02  0.57124878455E+03 -0.20276236110E+03  0.61434894507E+03  0.10100000352E+00 0.  1.
       -3    1    3    3    0  502 -0.99934314312E+02 -0.57124878455E+03 -0.86428211544E+03  0.10408148857E+04  0.10100000352E+00 0. -1.
</event>
<event>
 5   0  0.3772254E-03  0.1160743E+04  0.7818609E-02  0.9147930E-01
       -1   -1    0    0    0  501  0.00000000000E+00  0.00000000000E+00  0.43184399054E+03  0.43184399057E+03  0.50400001928E-02 0.  1.
        1   -1    0    0  501    0  0.00000000000E+00  0.00000000000E+00 -0.77998317810E+03  0.77998317811E+03  0.50400001928E-02 0. -1.
    10030    2    1    2    0    0  0.00000000000E+00  0.00000000000E+00 -0.34813918756E+03  0.12118271687E+04  0.11607429487E+04 0.  0.
        3    1    3    3  502    0 -0.37891625830E+01 -0.57166653700E+03 -0.27854390691E+03  0.63592743733E+03  0.10100000352E+00 0.  1.
       -3    1    3    3    0  502  0.37891625830E+01  0.57166653700E+03 -0.69595280648E+02  0.57589973135E+03  0.10100000352E+00 0. -1.
</event>
<event>
 5   0  0.6658994E-03  0.1179848E+04  0.7818609E-02  0.9130681E-01
        2   -1    0    0  501    0  0.00000000000E+00  0.00000000000E+00  0.52651375631E+03  0.52651375632E+03  0.25500000920E-02 0.  1.
       -2   -1    0    0    0  501  0.00000000000E+00  0.00000000000E+00 -0.66097116117E+03  0.66097116118E+03  0.25500000920E-02 0. -1.
    10030    2    1    2    0    0  0.00000000000E+00  0.00000000000E+00 -0.13445740486E+03  0.11874849175E+04  0.11798481409E+04 0.  0.
        4    1    3    3  502    0  0.30572404881E+03  0.45440199623E+03 -0.28787457395E+03  0.61872590977E+03  0.12699999809E+01 0.  1.
       -4    1    3    3    0  502 -0.30572404881E+03 -0.45440199623E+03  0.15341716909E+03  0.56875900772E+03  0.12699999809E+01 0. -1.
</event>
<event>
 5   0  0.6349142E-03  0.1199963E+04  0.7818609E-02  0.9112889E-01
        2   -1    0    0  501    0  0.00000000000E+00  0.00000000000E+00  0.16787982455E+04  0.16787982455E+04  0.25500000920E-02 0. -1.
       -2   -1    0    0    0  501  0.00000000000E+00  0.00000000000E+00 -0.21442597128E+03  0.21442597129E+03  0.25500000920E-02 0.  1.
    10030    2    1    2    0    0  0.00000000000E+00  0.00000000000E+00  0.14643722743E+04  0.18932242168E+04  0.11999632401E+04 0.  0.
        1    1    3    3  502    0  0.42697055348E+03 -0.38918633839E+03  0.47676798883E+03  0.74905111623E+03  0.50400001928E-02 0.  1.
       -1    1    3    3    0  502 -0.42697055348E+03  0.38918633839E+03  0.98760428544E+03  0.11441731006E+04  0.50400001928E-02 0. -1.
</event>
<event>
 5   0  0.3648616E-03  0.1190633E+04  0.7818609E-02  0.9121095E-01
       -1   -1    0    0    0  501  0.00000000000E+00  0.00000000000E+00  0.63862788571E+03  0.63862788573E+03  0.50400001928E-02 0.  1.
        1   -1    0    0  501    0  0.00000000000E+00  0.00000000000E+00 -0.55494274955E+03  0.55494274958E+03  0.50400001928E-02 0. -1.
    10030    2    1    2    0    0  0.00000000000E+00  0.00000000000E+00  0.83685136152E+02  0.11935706353E+04  0.11906333018E+04 0.  0.
        2    1    3    3  502    0  0.57971222413E+03 -0.33522206591E+02 -0.89675275730E+02  0.58756417201E+03  0.25500000920E-02 0. -1.
       -2    1    3    3    0  502 -0.57971222413E+03  0.33522206591E+02  0.17336041188E+03  0.60600646330E+03  0.25500000920E-02 0.  1.
</event>
<event>
 5   0  0.6640844E-03  0.1204705E+04  0.7818609E-02  0.9108748E-01
       -2   -1    0    0    0  501  0.00000000000E+00  0.00000000000E+00  0.11392501124E+04  0.11392501124E+04  0.25500000920E-02 0. -1.
        2   -1    0    0  501    0  0.00000000000E+00  0.00000000000E+00 -0.31848037938E+03  0.31848037939E+03  0.25500000920E-02 0.  1.
    10030    2    1    2    0    0  0.00000000000E+00  0.00000000000E+00  0.82076973298E+03  0.14577304918E+04  0.12047054545E+04 0.  0.
        5    1    3    3  502    0 -0.13966251471E+03 -0.58588250419E+03  0.40246944688E+03  0.72440849830E+03  0.46999998093E+01 0.  1.
       -5    1    3    3    0  502  0.13966251471E+03  0.58588250419E+03  0.41830028610E+03  0.73332199346E+03  0.46999998093E+01 0. -1.
</event>
<event>
 5   0  0.3648616E-03  0.1213363E+04  0.7818609E-02  0.9101240E-01
        1   -1    0    0  501    0  0.00000000000E+00  0.00000000000E+00  0.76804985358E+03  0.76804985359E+03  0.50400001928E-02 0.  1.
       -1   -1    0    0    0  501  0.00000000000E+00  0.00000000000E+00 -0.47921686528E+03  0.47921686531E+03  0.50400001928E-02 0. -1.
    10030    2    1    2    0    0  0.00000000000E+00  0.00000000000E+00  0.28883298829E+03  0.12472667189E+04  0.12133630013E+04 0.  0.
        2    1    3    3  502    0  0.43686108599E+03  0.88013371462E+02  0.56758472400E+03  0.72162759158E+03  0.25500000920E-02 0.  1.
       -2    1    3    3    0  502 -0.43686108599E+03 -0.88013371462E+02 -0.27875173570E+03  0.52563912732E+03  0.25500000920E-02 0. -1.
</event>
<event>
 5   0  0.6585930E-03  0.1190114E+04  0.7818609E-02  0.9121554E-01
        2   -1    0    0  501    0  0.00000000000E+00  0.00000000000E+00  0.13234152234E+04  0.13234152234E+04  0.25500000920E-02 0. -1.
       -2   -1    0    0    0  501  0.00000000000E+00  0.00000000000E+00 -0.26755977850E+03  0.26755977851E+03  0.25500000920E-02 0.  1.
    10030    2    1    2    0    0  0.00000000000E+00  0.00000000000E+00  0.10558554449E+04  0.15909750020E+04  0.11901137493E+04 0.  0.
        2    1    3    3  502    0 -0.89679855984E+02  0.14465859738E+03  0.12901812858E+04  0.13013594187E+04  0.25500000920E-02 0. -1.
       -2    1    3    3    0  502  0.89679855984E+02 -0.14465859738E+03 -0.23432584087E+03  0.28961558327E+03  0.25500000920E-02 0.  1.
</event>
<event>
 5   0  0.6493047E-03  0.1181026E+04  0.7818609E-02  0.9129628E-01
        2   -1    0    0  501    0  0.00000000000E+00  0.00000000000E+00  0.96196138338E+03  0.96196138338E+03  0.25500000920E-02 0. -1.
       -2   -1    0    0    0  501  0.00000000000E+00  0.00000000000E+00 -0.36249467496E+03  0.36249467497E+03  0.25500000920E-02 0.  1.
    10030    2    1    2    0    0  0.00000000000E+00  0.00000000000E+00  0.59946670842E+03  0.13244560583E+04  0.11810264671E+04 0.  0.
        3    1    3    3  502    0  0.49788615599E+03  0.53570909452E+02  0.65070331782E+03  0.82108177710E+03  0.10100000352E+00 0. -1.
       -3    1    3    3    0  502 -0.49788615599E+03 -0.53570909452E+02 -0.51236609399E+02  0.50337428124E+03  0.10100000352E+00 0.  1.
</event>
<event>
 5   0  0.2537625E-03  0.1230461E+04  0.7818609E-02  0.9086604E-01
        3   -1    0    0  501    0  0.00000000000E+00  0.00000000000E+00  0.38917726726E+03  0.38917728036E+03  0.10100000352E+00 0.  1.
       -3   -1    0    0    0  501  0.00000000000E+00  0.00000000000E+00 -0.97258712636E+03  0.97258713160E+03  0.10100000352E+00 0. -1.
    10030    2    1    2    0    0  0.00000000000E+00  0.00000000000E+00 -0.58340985910E+03  0.13617644120E+04  0.12304613972E+04 0.  0.
        4    1    3    3  502    0  0.33704005225E+03 -0.42868969714E+03  0.23535354732E+02  0.54582632684E+03  0.12699999809E+01 0.  1.
       -4    1    3    3    0  502 -0.33704005225E+03  0.42868969714E+03 -0.60694521383E+03  0.81593808512E+03  0.12699999809E+01 0. -1.
</event>
<event>
 5   0  0.6349142E-03  0.1199523E+04  0.7818609E-02  0.9113274E-01
       -2   -1    0    0    0  501  0.00000000000E+00  0.00000000000E+00  0.54160639200E+03  0.54160639200E+03  0.25500000920E-02 0.  1.
        2   -1    0    0  501    0  0.00000000000E+00  0.00000000000E+00 -0.66416111352E+03  0.66416111352E+03  0.25500000920E-02 0. -1.
    10030    2    1    2    0    0  0.00000000000E+00  0.00000000000E+00 -0.12255472152E+03  0.12057675055E+04  0.11995230792E+04 0.  0.
        1    1    3    3  502    0 -0.41939575514E+03  0.35532911871E+03 -0.30244782592E+03  0.62739642130E+03  0.50400001928E-02 0. -1.
       -1    1    3    3    0  502  0.41939575514E+03 -0.35532911871E+03  0.17989310440E+03  0.57837108423E+03  0.50400001928E-02 0.  1.
</event>
<event>
 5   0  0.6658994E-03  0.1209232E+04  0.7818609E-02  0.9104814E-01
        2   -1    0    0  501    0  0.00000000000E+00  0.00000000000E+00  0.19522593425E+04  0.19522593425E+04  0.25500000920E-02 0.  1.
       -2   -1    0    0    0  501  0.00000000000E+00  0.00000000000E+00 -0.18724991577E+03  0.18724991579E+03  0.25500000920E-02 0. -1.
    10030    2    1    2    0    0  0.00000000000E+00  0.00000000000E+00  0.17650094268E+04  0.21395092583E+04  0.12092318181E+04 0.  0.
        4    1    3    3  502    0  0.16520477934E+03  0.23136167577E+02  0.19107340530E+04  0.19180026422E+04  0.12699999809E+01 0.  1.
       -4    1    3    3    0  502 -0.16520477934E+03 -0.23136167577E+02 -0.14572462626E+03  0.22150661608E+03  0.12699999809E+01 0. -1.
</event>
<event>
 5   0  0.3731281E-03  0.1202601E+04  0.7818609E-02  0.9110583E-01
       -1   -1    0    0    0  501  0.00000000000E+00  0.00000000000E+00  0.51729138576E+03  0.51729138579E+03  0.50400001928E-02 0. -1.
        1   -1    0    0  501    0  0.00000000000E+00  0.00000000000E+00 -0.69895279987E+03  0.69895279988E+03  0.50400001928E-02 0.  1.
    10030    2    1    2    0    0  0.00000000000E+00  0.00000000000E+00 -0.18166141410E+03  0.12162441857E+04  0.12026009520E+04 0.  0.
        5    1    3    3  502    0 -0.23904519514E+03  0.41078989220E+03 -0.46331494752E+03  0.66375731367E+03  0.46999998093E+01 0.  1.
       -5    1    3    3    0  502  0.23904519514E+03 -0.41078989220E+03  0.28165353342E+03  0.55248687201E+03  0.46999998093E+01 0. -1.
</event>
<event>
 5   0  0.3648616E-03  0.1122461E+04  0.7818609E-02  0.9183572E-01
        1   -1    0    0  501    0  0.00000000000E+00  0.00000000000E+00  0.12623345031E+04  0.12623345031E+04  0.50400001928E-02 0.  1.
       -1   -1    0    0    0  501  0.00000000000E+00  0.00000000000E+00 -0.24952150101E+03  0.24952150107E+03  0.50400001928E-02 0. -1.
    10030    2    1    2    0    0  0.00000000000E+00  0.00000000000E+00  0.10128130021E+04  0.15118560042E+04  0.11224608680E+04 0.  0.
        2    1    3    3  502    0  0.24554065554E+03  0.36885769470E+03  0.97032606298E+03  0.10667140577E+04  0.25500000920E-02 0.  1.
       -2    1    3    3    0  502 -0.24554065554E+03 -0.36885769470E+03  0.42486939081E+02  0.44514194642E+03  0.25500000920E-02 0. -1.
</event>
<event>
 5   0  0.3731281E-03  0.1168225E+04  0.7818609E-02  0.9141133E-01
       -1   -1    0    0    0  501  0.00000000000E+00  0.00000000000E+00  0.41767665709E+03  0.41767665712E+03  0.50400001928E-02 0.  1.
        1   -1    0    0  501    0  0.00000000000E+00  0.00000000000E+00 -0.81687019928E+03  0.81687019930E+03  0.50400001928E-02 0. -1.
    10030    2    1    2    0    0  0.00000000000E+00  0.00000000000E+00 -0.39919354219E+03  0.12345468564E+04  0.11682253449E+04 0.  0.
        5    1    3    3  502    0  0.77381818802E+02 -0.48489631645E+03  0.13467239384E+03  0.50918673122E+03  0.46999998093E+01 0.  1.
       -5    1    3    3    0  502 -0.77381818802E+02  0.48489631645E+03 -0.53386593603E+03  0.72536012520E+03  0.46999998093E+01 0. -1.
</event>
<event>
 5   0  0.6493047E-03  0.1233567E+04  0.7818609E-02  0.9083973E-01
        2   -1    0    0  501    0  0.00000000000E+00  0.00000000000E+00  0.10838650081E+04  0.10838650081E+04  0.25500000920E-02 0.  1.
       -2   -1    0    0    0  501  0.00000000000E+00  0.00000000000E+00 -0.35098620716E+03  0.35098620717E+03  0.25500000920E-02 0. -1.
    10030    2    1    2    0    0  0.00000000000E+00  0.00000000000E+00  0.73287880093E+03  0.14348512153E+04  0.12335666472E+04 0.  0.
        3    1    3    3  502    0 -0.92893133096E+01  0.47259107712E+03  0.82731578119E+03  0.95282738705E+03  0.10100000352E+00 0.  1.
       -3    1    3    3    0  502  0.92893133096E+01 -0.47259107712E+03 -0.94436980263E+02  0.48202382820E+03  0.10100000352E+00 0. -1.
</event>
<event>
 5   0  0.6585930E-03  0.1106034E+04  0.7818609E-02  0.9199330E-01
       -2   -1    0    0    0  501  0.00000000000E+00  0.00000000000E+00  0.19949605552E+03  0.19949605553E+03  0.25500000920E-02 0. -1.
        2   -1    0    0  501    0  0.00000000000E+00  0.00000000000E+00 -0.15330026058E+04  0.15330026058E+04  0.25500000920E-02 0.  1.
    10030    2    1    2    0    0  0.00000000000E+00  0.00000000000E+00 -0.13335065503E+04  0.17324986613E+04  0.11060343086E+04 0.  0.
        2    1    3    3  502    0  0.47508946390E+03 -0.20611126382E+02 -0.11089492869E+04  0.12066081957E+04  0.25500000920E-02 0.  1.
       -2    1    3    3    0  502 -0.47508946390E+03  0.20611126382E+02 -0.22455726345E+03  0.52589046560E+03  0.25500000920E-02 0. -1.
</event>
<event>
 5   0  0.6640844E-03  0.1185516E+04  0.7818609E-02  0.9125630E-01
        2   -1    0    0  501    0  0.00000000000E+00  0.00000000000E+00  0.74123841059E+03  0.74123841060E+03  0.25500000920E-02 0. -1.
       -2   -1    0    0    0  501  0.00000000000E+00  0.00000000000E+00 -0.47402036608E+03  0.47402036608E+03  0.25500000920E-02 0.  1.
    10030    2    1    2    0    0  0.00000000000E+00  0.00000000000E+00  0.26721804451E+03  0.12152587767E+04  0.11855160948E+04 0.  0.
        5    1    3    3  502    0 -0.30294600340E+03  0.50358295293E+03  0.21279961303E+03  0.62504226798E+03  0.46999998093E+01 0.  1.
       -5    1    3    3    0  502  0.30294600340E+03 -0.50358295293E+03  0.54418431486E+02  0.59021650870E+03  0.46999998093E+01 0. -1.
</event>
<event>
 5   0  0.3944074E-03  0.1161485E+04  0.7818609E-02  0.9147253E-01
        1   -1    0    0  501    0  0.00000000000E+00  0.00000000000E+00  0.26979205022E+03  0.26979205027E+03  0.50400001928E-02 0. -1.
       -1   -1    0    0    0  501  0.00000000000E+00  0.00000000000E+00 -0.12500798240E+04  0.12500798240E+04  0.50400001928E-02 0.  1.
    10030    2    1    2    0    0  0.00000000000E+00  0.00000000000E+00 -0.98028777377E+03  0.15198718743E+04  0.11614845650E+04 0.  0.
        4    1    3    3  502    0 -0.56010761712E+03 -0.83098564304E+02 -0.65891294222E+03  0.86878869265E+03  0.12699999809E+01 0.  1.
       -4    1    3    3    0  502  0.56010761712E+03  0.83098564304E+02 -0.32137483155E+03  0.65108318163E+03  0.12699999809E+01 0. -1.
</event>
<event>
 5   0  0.3701879E-03  0.1213970E+04  0.7818609E-02  0.9100716E-01
       -1   -1    0    0    0  501  0.00000000000E+00  0.00000000000E+00  0.78808912118E+03  0.78808912119E+03  0.50400001928E-02 0.  1.
        1   -1    0    0  501    0  0.00000000000E+00  0.00000000000E+00 -0.46749881019E+03  0.46749881022E+03  0.50400001928E-02 0. -1.
    10030    2    1    2    0    0  0.00000000000E+00  0.00000000000E+00  0.32059031098E+03  0.12555879314E+04  0.12139698950E+04 0.  0.
        1    1    3    3  502    0  0.49250212367E+03  0.33080570142E+03  0.27681037857E+02  0.59393349274E+03  0.50400001928E-02 0.  1.
       -1    1    3    3    0  502 -0.49250212367E+03 -0.33080570142E+03  0.29290927313E+03  0.66165443868E+03  0.50400001928E-02 0. -1.
</event>
<event>
 5   0  0.6585930E-03  0.1275074E+04  0.7818609E-02  0.9049569E-01
        2   -1    0    0  501    0  0.00000000000E+00  0.00000000000E+00  0.40330861088E+03  0.40330861089E+03  0.25500000920E-02 0. -1.
       -2   -1    0    0    0  501  0.00000000000E+00  0.00000000000E+00 -0.10077968772E+04  0.10077968772E+04  0.25500000920E-02 0.  1.
    10030    2    1    2    0    0  0.00000000000E+00  0.00000000000E+00 -0.60448826635E+03  0.14111054881E+04  0.12750735800E+04 0.  0.
        2    1    3    3  502    0  0.23445528624E+03 -0.56832254531E+03 -0.11543587091E+03  0.62552796665E+03  0.25500000920E-02 0.  1.
       -2    1    3    3    0  502 -0.23445528624E+03  0.56832254531E+03 -0.48905239545E+03  0.78557752148E+03  0.25500000920E-02 0. -1.
</event>
<event>
 5   0  0.2537625E-03  0.1213476E+04  0.7818609E-02  0.9101143E-01
       -3   -1    0    0    0  501  0.00000000000E+00  0.00000000000E+00  0.17130868321E+04  0.17130868351E+04  0.10100000352E+00 0.  1.
        3   -1    0    0  501    0  0.00000000000E+00  0.00000000000E+00 -0.21489318659E+03  0.21489321032E+03  0.10100000352E+00 0. -1.
    10030    2    1    2    0    0  0.00000000000E+00  0.00000000000E+00  0.14981936455E+04  0.19279800454E+04  0.12134755276E+04 0.  0.
        2    1    3    3  502    0 -0.75129221968E+02 -0.35065144273E+02 -0.20585068024E+03  0.22191995606E+03  0.25500000920E-02 0. -1.
       -2    1    3    3    0  502  0.75129221968E+02  0.35065144273E+02  0.17040443257E+04  0.17060600893E+04  0.25500000920E-02 0.  1.
</event>
<event>
 5   0  0.3944074E-03  0.1421902E+04  0.7818609E-02  0.8938115E-01
       -1   -1    0    0    0  501  0.00000000000E+00  0.00000000000E+00  0.12223020586E+04  0.12223020586E+04  0.50400001928E-02 0.  1.
        1   -1    0    0  501    0  0.00000000000E+00  0.00000000000E+00 -0.41352431499E+03  0.41352431502E+03  0.50400001928E-02 0. -1.
    10030    2    1    2    0    0  0.00000000000E+00  0.00000000000E+00  0.80877774357E+03  0.16358263736E+04  0.14219024179E+04 0.  0.
        4    1    3    3  502    0 -0.19789876349E+03 -0.33966166052E+03 -0.27711609565E+03  0.48096663875E+03  0.12699999809E+01 0. -1.
       -4    1    3    3    0  502  0.19789876349E+03  0.33966166052E+03  0.10858938392E+04  0.11548597348E+04  0.12699999809E+01 0.  1.
</event>
<event>
 5   0  0.6658994E-03  0.1210500E+04  0.7818609E-02  0.9103715E-01
        2   -1    0    0  501    0  0.00000000000E+00  0.00000000000E+00  0.12812264897E+04  0.12812264897E+04  0.25500000920E-02 0.  1.
       -2   -1    0    0    0  501  0.00000000000E+00  0.00000000000E+00 -0.28591952310E+03  0.28591952311E+03  0.25500000920E-02 0. -1.
    10030    2    1    2    0    0  0.00000000000E+00  0.00000000000E+00  0.99530696661E+03  0.15671460128E+04  0.12105001725E+04 0.  0.
        4    1    3    3  502    0 -0.22796384092E+03 -0.12242527395E+03 -0.21069860013E+03  0.33369293290E+03  0.12699999809E+01 0. -1.
       -4    1    3    3    0  502  0.22796384092E+03  0.12242527395E+03  0.12060055667E+04  0.12334530799E+04  0.12699999809E+01 0.  1.
</event>
<event>
 5   0  0.3731281E-03  0.1135608E+04  0.7818609E-02  0.9171164E-01
       -1   -1    0    0    0  501  0.00000000000E+00  0.00000000000E+00  0.41397878073E+03  0.41397878076E+03  0.50400001928E-02 0.  1.
        1   -1    0    0  501    0  0.00000000000E+00  0.00000000000E+00 -0.77878784499E+03  0.77878784501E+03  0.50400001928E-02 0. -1.
    10030    2    1    2    0    0  0.00000000000E+00  0.00000000000E+00 -0.36480906426E+03  0.11927666258E+04  0.11356084581E+04 0.  0.
        5    1    3    3  502    0 -0.20177003913E+03 -0.29657473580E+02  0.37416160620E+03  0.42615691005E+03  0.46999998093E+01 0.  1.
       -5    1    3    3    0  502  0.20177003913E+03  0.29657473580E+02 -0.73897067046E+03  0.76660971572E+03  0.46999998093E+01 0. -1.
</event>
<event>
 5   0  0.6493047E-03  0.1199552E+04  0.7818609E-02  0.9113248E-01
        2   -1    0    0  501    0  0.00000000000E+00  0.00000000000E+00  0.18061726723E+04  0.18061726723E+04  0.25500000920E-02 0. -1.
       -2   -1    0    0    0  501  0.00000000000E+00  0.00000000000E+00 -0.19916780096E+03  0.19916780098E+03  0.25500000920E-02 0.  1.
    10030    2    1    2    0    0  0.00000000000E+00  0.00000000000E+00  0.16070048714E+04  0.20053404733E+04  0.11995523154E+04 0.  0.
        3    1    3    3  502    0 -0.38774637420E+03 -0.11667491259E+03  0.15431813936E+04  0.15954212954E+04  0.10100000352E+00 0. -1.
       -3    1    3    3    0  502  0.38774637420E+03  0.11667491259E+03  0.63823477764E+02  0.40991917795E+03  0.10100000352E+00 0.  1.
</event>
<event>
 5   0  0.6349142E-03  0.1067549E+04  0.7818609E-02  0.9237411E-01
       -2   -1    0    0    0  501  0.00000000000E+00  0.00000000000E+00  0.26259601956E+03  0.26259601958E+03  0.25500000920E-02 0.  1.
        2   -1    0    0  501    0  0.00000000000E+00  0.00000000000E+00 -0.10849954183E+04  0.10849954183E+04  0.25500000920E-02 0. -1.
    10030    2    1    2    0    0  0.00000000000E+00  0.00000000000E+00 -0.82239939875E+03  0.13475914379E+04  0.10675494894E+04 0.  0.
        1    1    3    3  502    0 -0.25937860525E+03  0.55525054150E+02 -0.99590863857E+03  0.10306281138E+04  0.50400001928E-02 0. -1.
       -1    1    3    3    0  502  0.25937860525E+03 -0.55525054150E+02  0.17350923983E+03  0.31696332411E+03  0.50400001928E-02 0.  1.
</event>
<event>
 5   0  0.3701879E-03  0.1249547E+04  0.7818609E-02  0.9070560E-01
        1   -1    0    0  501    0  0.00000000000E+00  0.00000000000E+00  0.13238003731E+04  0.13238003731E+04  0.50400001928E-02 0.  1.
       -1   -1    0    0    0  501  0.00000000000E+00  0.00000000000E+00 -0.29486463824E+03  0.29486463828E+03  0.50400001928E-02 0. -1.
    10030    2    1    2    0    0  0.00000000000E+00  0.00000000000E+00  0.10289357348E+04  0.16186650113E+04  0.12495469869E+04 0.  0.
        1    1    3    3  502    0  0.46788552171E+03  0.40925837793E+03  0.59570345126E+03  0.86097147641E+03  0.50400001928E-02 0.  1.
       -1    1    3    3    0  502 -0.46788552171E+03 -0.40925837793E+03  0.43323228357E+03  0.75769353493E+03  0.50400001928E-02 0. -1.
</event>
<event>
 5   0  0.2537625E-03  0.1184913E+04  0.7818609E-02  0.9126166E-01
       -3   -1    0    0    0  501  0.00000000000E+00  0.00000000000E+00  0.27064565000E+03  0.27064566885E+03  0.10100000352E+00 0.  1.
        3   -1    0    0  501    0  0.00000000000E+00  0.00000000000E+00 -0.12969152574E+04  0.12969152613E+04  0.10100000352E+00 0. -1.
    10030    2    1    2    0    0  0.00000000000E+00  0.00000000000E+00 -0.10262696074E+04  0.15675609301E+04  0.11849126393E+04 0.  0.
        3    1    3    3  502    0 -0.30195868122E+03 -0.35422370299E+03 -0.99804191803E+03  0.11012452757E+04  0.10100000352E+00 0. -1.
       -3    1    3    3    0  502  0.30195868122E+03  0.35422370299E+03 -0.28227689333E+02  0.46631565443E+03  0.10100000352E+00 0.  1.
</event>
<event>
 5   0  0.3648616E-03  0.1200310E+04  0.7818609E-02  0.9112586E-01
        1   -1    0    0  501    0  0.00000000000E+00  0.00000000000E+00  0.45787548422E+03  0.45787548425E+03  0.50400001928E-02 0. -1.
       -1   -1    0    0    0  501  0.00000000000E+00  0.00000000000E+00 -0.78664582482E+03  0.78664582483E+03  0.50400001928E-02 0.  1.
    10030    2    1    2    0    0  0.00000000000E+00  0.00000000000E+00 -0.32877034059E+03  0.12445213091E+04  0.12003096900E+04 0.  0.
        2    1    3    3  502    0  0.48391215334E+02  0.59532960721E+03 -0.10369021695E+03  0.60622661773E+03  0.25500000920E-02 0.  1.
       -2    1    3    3    0  502 -0.48391215334E+02 -0.59532960721E+03 -0.22508012364E+03  0.63829469135E+03  0.25500000920E-02 0. -1.
</event>
<event>
 5   0  0.3944074E-03  0.1229477E+04  0.7818609E-02  0.9087440E-01
        1   -1    0    0  501    0  0.00000000000E+00  0.00000000000E+00  0.64877823045E+03  0.64877823047E+03  0.50400001928E-02 0. -1.
       -1   -1    0    0    0  501  0.00000000000E+00  0.00000000000E+00 -0.58248482666E+03  0.58248482668E+03  0.50400001928E-02 0.  1.
    10030    2    1    2    0    0  0.00000000000E+00  0.00000000000E+00  0.66293403797E+02  0.12312630571E+04  0.12294770842E+04 0.  0.
        4    1    3    3  502    0  0.24311525973E+03 -0.43294600655E+03  0.39610191131E+03  0.63517368581E+03  0.12699999809E+01 0. -1.
       -4    1    3    3    0  502 -0.24311525973E+03  0.43294600655E+03 -0.32980850752E+03  0.59608937134E+03  0.12699999809E+01 0.  1.
</event>
<event>
 5   0  0.3944074E-03  0.1196693E+04  0.7818609E-02  0.9115756E-01
       -1   -1    0    0    0  501  0.00000000000E+00  0.00000000000E+00  0.55237094213E+03  0.55237094215E+03  0.50400001928E-02 0. -1.
        1   -1    0    0  501    0  0.00000000000E+00  0.00000000000E+00 -0.64814914672E+03  0.64814914674E+03  0.50400001928E-02 0.  1.
    10030    2    1    2    0    0  0.00000000000E+00  0.00000000000E+00 -0.95778204589E+02  0.12005200889E+04  0.11966933690E+04 0.  0.
        4    1    3    3  502    0 -0.34464026054E+02  0.47167256452E+03  0.31982682134E+03  0.57092345000E+03  0.12699999809E+01 0. -1.
       -4    1    3    3    0  502  0.34464026054E+02 -0.47167256452E+03 -0.41560502593E+03  0.62959663888E+03  0.12699999809E+01 0.  1.
</event>
<event>
 5   0  0.3701879E-03  0.1185733E+04  0.7818609E-02  0.9125437E-01
        1   -1    0    0  501    0  0.00000000000E+00  0.00000000000E+00  0.49353664373E+03  0.49353664375E+03  0.50400001928E-02 0. -1.
       -1   -1    0    0    0  501  0.00000000000E+00  0.00000000000E+00 -0.71218788852E+03  0.71218788853E+03  0.50400001928E-02 0.  1.
    10030    2    1    2    0    0  0.00000000000E+00  0.00000000000E+00 -0.21865124479E+03  0.12057245323E+04  0.11857332250E+04 0.  0.
        1    1    3    3  502    0 -0.11604626171E+03 -0.23863044492E+03 -0.64843361248E+03  0.70062641538E+03  0.50400001928E-02 0.  1.
       -1    1    3    3    0  502  0.11604626171E+03  0.23863044492E+03  0.42978236769E+03  0.50509811691E+03  0.50400001928E-02 0. -1.
</event>
<event>
 5   0  0.6640844E-03  0.1105037E+04  0.7818609E-02  0.9200297E-01
        2   -1    0    0  501    0  0.00000000000E+00  0.00000000000E+00  0.12192564144E+04  0.12192564144E+04  0.25500000920E-02 0. -1.
       -2   -1    0    0    0  501  0.00000000000E+00  0.00000000000E+00 -0.25037919574E+03  0.25037919575E+03  0.25500000920E-02 0.  1.
    10030    2    1    2    0    0  0.00000000000E+00  0.00000000000E+00  0.96887721869E+03  0.14696356102E+04  0.11050365432E+04 0.  0.
        5    1    3    3  502    0  0.10709658074E+03  0.53474912175E+03  0.60210699950E+03  0.81239228804E+03  0.46999998093E+01 0.  1.
       -5    1    3    3    0  502 -0.10709658074E+03 -0.53474912175E+03  0.36677021919E+03  0.65724332214E+03  0.46999998093E+01 0. -1.
</event>
<event>
 5   0  0.6585930E-03  0.1195252E+04  0.7818609E-02  0.9117023E-01
        2   -1    0    0  501    0  0.00000000000E+00  0.00000000000E+00  0.76578335257E+03  0.76578335257E+03  0.25500000920E-02 0. -1.
       -2   -1    0    0    0  501  0.00000000000E+00  0.00000000000E+00 -0.46639393507E+03  0.46639393508E+03  0.25500000920E-02 0.  1.
    10030    2    1    2    0    0  0.00000000000E+00  0.00000000000E+00  0.29938941750E+03  0.12321772877E+04  0.11952517914E+04 0.  0.
        2    1    3    3  502    0 -0.57962370613E+03 -0.61279274428E+02  0.13562419007E+02  0.58301177466E+03  0.25500000920E-02 0.  1.
       -2    1    3    3    0  502  0.57962370613E+03  0.61279274428E+02  0.28582699849E+03  0.64916551299E+03  0.25500000920E-02 0. -1.
</event>
<event>
 5   0  0.3648616E-03  0.1194263E+04  0.7818609E-02  0.9117893E-01
        1   -1    0    0  501    0  0.00000000000E+00  0.00000000000E+00  0.33601939530E+03  0.33601939533E+03  0.50400001928E-02 0.  1.
       -1   -1    0    0    0  501  0.00000000000E+00  0.00000000000E+00 -0.10611478678E+04  0.10611478678E+04  0.50400001928E-02 0. -1.
    10030    2    1    2    0    0  0.00000000000E+00  0.00000000000E+00 -0.72512847253E+03  0.13971672632E+04  0.11942633962E+04 0.  0.
        2    1    3    3  502    0 -0.61172128320E+02 -0.32889732948E+03  0.21609326059E+03  0.39826094448E+03  0.25500000920E-02 0.  1.
       -2    1    3    3    0  502  0.61172128320E+02  0.32889732948E+03 -0.94122173312E+03  0.99890631869E+03  0.25500000920E-02 0. -1.
</event>
<event>
 5   0  0.3701879E-03  0.1179999E+04  0.7818609E-02  0.9130545E-01
        1   -1    0    0  501    0  0.00000000000E+00  0.00000000000E+00  0.27121183825E+03  0.27121183829E+03  0.50400001928E-02 0. -1.
       -1   -1    0    0    0  501  0.00000000000E+00  0.00000000000E+00 -0.12834971917E+04  0.12834971917E+04  0.50400001928E-02 0.  1.
    10030    2    1    2    0    0  0.00000000000E+00  0.00000000000E+00 -0.10122853535E+04  0.15547090300E+04  0.11799993776E+04 0.  0.
        1    1    3    3  502    0  0.26702430591E+03 -0.18440366052E+03 -0.11553529332E+04  0.12000612860E+04  0.50400001928E-02 0.  1.
       -1    1    3    3    0  502 -0.26702430591E+03  0.18440366052E+03  0.14306757969E+03  0.35464774402E+03  0.50400001928E-02 0. -1.
</event>
<event>
 5   0  0.3772254E-03  0.1184536E+04  0.7818609E-02  0.9126501E-01
       -1   -1    0    0    0  501  0.00000000000E+00  0.00000000000E+00  0.20660352585E+03  0.20660352591E+03  0.50400001928E-02 0. -1.
        1   -1    0    0  501    0  0.00000000000E+00  0.00000000000E+00 -0.16978483187E+04  0.16978483187E+04  0.50400001928E-02 0.  1.
    10030    2    1    2    0    0  0.00000000000E+00  0.00000000000E+00 -0.14912447928E+04  0.19044518446E+04  0.11845361102E+04 0.  0.
        3    1    3    3  502    0 -0.25708667961E+03 -0.10030585206E+03 -0.15881671960E+04  0.16119646018E+04  0.10100000352E+00 0.  1.
       -3    1    3    3    0  502  0.25708667961E+03  0.10030585206E+03  0.96922403143E+02  0.29248724284E+03  0.10100000352E+00 0. -1.
</event>
<event>
 5   0  0.3701879E-03  0.1192226E+04  0.7818609E-02  0.9119688E-01
       -1   -1    0    0    0  501  0.00000000000E+00  0.00000000000E+00  0.51243095744E+03  0.51243095747E+03  0.50400001928E-02 0.  1.
        1   -1    0    0  501    0  0.00000000000E+00  0.00000000000E+00 -0.69346108811E+03  0.69346108812E+03  0.50400001928E-02 0. -1.
    10030    2    1    2    0    0  0.00000000000E+00  0.00000000000E+00 -0.18103013067E+03  0.12058920456E+04  0.11922263700E+04 0.  0.
        1    1    3    3  502    0 -0.40919103885E+03 -0.36804613209E+03  0.14114219544E+03  0.56816932422E+03  0.50400001928E-02 0.  1.
       -1    1    3    3    0  502  0.40919103885E+03  0.36804613209E+03 -0.32217232610E+03  0.63772272137E+03  0.50400001928E-02 0. -1.
</event>
<event>
 5   0  0.3648616E-03  0.1183996E+04  0.7818609E-02  0.9126981E-01
        1   -1    0    0  501    0  0.00000000000E+00  0.00000000000E+00  0.25582264378E+03  0.25582264383E+03  0.50400001928E-02 0. -1.
       -1   -1    0    0    0  501  0.00000000000E+00  0.00000000000E+00 -0.13699402809E+04  0.13699402810E+04  0.50400001928E-02 0.  1.
    10030    2    1    2    0    0  0.00000000000E+00  0.00000000000E+00 -0.11141176372E+04  0.16257629248E+04  0.11839961901E+04 0.  0.
        2    1    3    3  502    0 -0.34657561556E+03  0.34765422464E+03 -0.10271826873E+03  0.50152682874E+03  0.25500000920E-02 0. -1.
       -2    1    3    3    0  502  0.34657561556E+03 -0.34765422464E+03 -0.10113993684E+04  0.11242360960E+04  0.25500000920E-02 0.  1.
</event>
<event>
 5   0  0.3944074E-03  0.1180033E+04  0.7818609E-02  0.9130516E-01
        1   -1    0    0  501    0  0.00000000000E+00  0.00000000000E+00  0.70764939219E+03  0.70764939220E+03  0.50400001928E-02 0.  1.
       -1   -1    0    0    0  501  0.00000000000E+00  0.00000000000E+00 -0.49193753382E+03  0.49193753384E+03  0.50400001928E-02 0. -1.
    10030    2    1    2    0    0  0.00000000000E+00  0.00000000000E+00  0.21571185837E+03  0.11995869260E+04  0.11800327060E+04 0.  0.
        4    1    3    3  502    0 -0.38946720766E+02  0.32486498974E+03 -0.39126235095E+03  0.51004112460E+03  0.12699999809E+01 0. -1.
       -4    1    3    3    0  502  0.38946720766E+02 -0.32486498974E+03  0.60697420932E+03  0.68954580145E+03  0.12699999809E+01 0.  1.
</event>
<event>
 5   0  0.3772254E-03  0.1227279E+04  0.7818609E-02  0.9089308E-01
       -1   -1    0    0    0  501  0.00000000000E+00  0.00000000000E+00  0.91139652697E+03  0.91139652698E+03  0.50400001928E-02 0. -1.
        1   -1    0    0  501    0  0.00000000000E+00  0.00000000000E+00 -0.41316120860E+03  0.41316120863E+03  0.50400001928E-02 0.  1.
    10030    2    1    2    0    0  0.00000000000E+00  0.00000000000E+00  0.49823531837E+03  0.13245577356E+04  0.12272794150E+04 0.  0.
        3    1    3    3  502    0  0.13033968316E+03 -0.24647903486E+03  0.83908426416E+03  0.88419610958E+03  0.10100000352E+00 0. -1.
       -3    1    3    3    0  502 -0.13033968316E+03  0.24647903486E+03 -0.34084894580E+03  0.44036162603E+03  0.10100000352E+00 0.  1.
</event>
<event>
 5   0  0.6585930E-03  0.8787936E+03  0.7818609E-02  0.9452486E-01
       -2   -1    0    0    0  501  0.00000000000E+00  0.00000000000E+00  0.11600127406E+04  0.11600127406E+04  0.25500000920E-02 0.  1.
        2   -1    0    0  501    0  0.00000000000E+00  0.00000000000E+00 -0.16643742422E+03  0.16643742424E+03  0.25500000920E-02 0. -1.
    10030    2    1    2    0    0  0.00000000000E+00  0.00000000000E+00  0.99357531636E+03  0.13264501648E+04  0.87879356534E+03 0.  0.
        2    1    3    3  502    0  0.23119479871E+03 -0.28386991203E+03  0.13004291685E+03  0.38851553654E+03  0.25500000920E-02 0. -1.
       -2    1    3    3    0  502 -0.23119479871E+03  0.28386991203E+03  0.86353239951E+03  0.93793462828E+03  0.25500000920E-02 0.  1.
</event>
<event>
 5   0  0.3731281E-03  0.1237631E+04  0.7818609E-02  0.9080541E-01
        1   -1    0    0  501    0  0.00000000000E+00  0.00000000000E+00  0.11981538451E+04  0.11981538452E+04  0.50400001928E-02 0. -1.
       -1   -1    0    0    0  501  0.00000000000E+00  0.00000000000E+00 -0.31960205694E+03  0.31960205698E+03  0.50400001928E-02 0.  1.
    10030    2    1    2    0    0  0.00000000000E+00  0.00000000000E+00  0.87855178820E+03  0.15177559021E+04  0.12376306937E+04 0.  0.
        5    1    3    3  502    0  0.22900654698E+03  0.13265709183E+03  0.11252247529E+04  0.11559388985E+04  0.46999998093E+01 0. -1.
       -5    1    3    3    0  502 -0.22900654698E+03 -0.13265709183E+03 -0.24667296472E+03  0.36181700360E+03  0.46999998093E+01 0.  1.
</event>
<event>
 5   0  0.6349142E-03  0.1196164E+04  0.7818609E-02  0.9116221E-01
        2   -1    0    0  501    0  0.00000000000E+00  0.00000000000E+00  0.42931310104E+03  0.42931310104E+03  0.25500000920E-02 0. -1.
       -2   -1    0    0    0  501  0.00000000000E+00  0.00000000000E+00 -0.83319561087E+03  0.83319561087E+03  0.25500000920E-02 0.  1.
    10030    2    1    2    0    0  0.00000000000E+00  0.00000000000E+00 -0.40388250983E+03  0.12625087119E+04  0.11961635197E+04 0.  0.
        1    1    3    3  502    0  0.10153570046E+03 -0.23679361435E+03  0.36773718565E+03  0.44901152769E+03  0.50400001928E-02 0. -1.
       -1    1    3    3    0  502 -0.10153570046E+03  0.23679361435E+03 -0.77161969548E+03  0.81349718422E+03  0.50400001928E-02 0.  1.
</event>
<event>
 5   0  0.3772254E-03  0.1219764E+04  0.7818609E-02  0.9095731E-01
        1   -1    0    0  501    0  0.00000000000E+00  0.00000000000E+00  0.11313179441E+04  0.11313179441E+04  0.50400001928E-02 0.  1.
       -1   -1    0    0    0  501  0.00000000000E+00  0.00000000000E+00 -0.32878127340E+03  0.32878127344E+03  0.50400001928E-02 0. -1.
    10030    2    1    2    0    0  0.00000000000E+00  0.00000000000E+00  0.80253667072E+03  0.14600992176E+04  0.12197641646E+04 0.  0.
        3    1    3    3  502    0  0.24120649272E+03 -0.23832750274E+03 -0.20554123273E+03  0.39651958242E+03  0.10100000352E+00 0. -1.
       -3    1    3    3    0  502 -0.24120649272E+03  0.23832750274E+03  0.10080779035E+04  0.10635796352E+04  0.10100000352E+00 0.  1.
</event>
<event>
 5   0  0.6349142E-03  0.1159379E+04  0.7818609E-02  0.9149174E-01
        2   -1    0    0  501    0  0.00000000000E+00  0.00000000000E+00  0.75079397472E+03  0.75079397472E+03  0.25500000920E-02 0. -1.
       -2   -1    0    0    0  501  0.00000000000E+00  0.00000000000E+00 -0.44757965287E+03  0.44757965288E+03  0.25500000920E-02 0.  1.
    10030    2    1    2    0    0  0.00000000000E+00  0.00000000000E+00  0.30321432185E+03  0.11983736276E+04  0.11593793281E+04 0.  0.
        1    1    3    3  502    0  0.13588822747E+03 -0.52564202789E+03  0.36160266327E+03  0.65232019588E+03  0.50400001928E-02 0.  1.
       -1    1    3    3    0  502 -0.13588822747E+03  0.52564202789E+03 -0.58388341418E+02  0.54605343172E+03  0.50400001928E-02 0. -1.
</event>
<event>
 5   0  0.3701879E-03  0.1222852E+04  0.7818609E-02  0.9093086E-01
        1   -1    0    0  501    0  0.00000000000E+00  0.00000000000E+00  0.45745923727E+03  0.45745923730E+03  0.50400001928E-02 0.  1.
       -1   -1    0    0    0  501  0.00000000000E+00  0.00000000000E+00 -0.81721290893E+03  0.81721290895E+03  0.50400001928E-02 0. -1.
    10030    2    1    2    0    0  0.00000000000E+00  0.00000000000E+00 -0.35975367166E+03  0.12746721462E+04  0.12228517392E+04 0.  0.
        1    1    3    3  502    0 -0.70234820382E+02  0.60734863623E+03 -0.18615693608E+03  0.63910852036E+03  0.50400001928E-02 0. -1.
       -1    1    3    3    0  502  0.70234820382E+02 -0.60734863623E+03 -0.17359673558E+03  0.63556362589E+03  0.50400001928E-02 0.  1.
</event>
<event>
 5   0  0.6640844E-03  0.1202433E+04  0.7818609E-02  0.9110730E-01
        2   -1    0    0  501    0  0.00000000000E+00  0.00000000000E+00  0.78361082011E+03  0.78361082011E+03  0.25500000920E-02 0.  1.
       -2   -1    0    0    0  501  0.00000000000E+00  0.00000000000E+00 -0.46127648254E+03  0.46127648255E+03  0.25500000920E-02 0. -1.
    10030    2    1    2    0    0  0.00000000000E+00  0.00000000000E+00  0.32233433756E+03  0.12448873027E+04  0.12024329383E+04 0.  0.
        5    1    3    3  502    0 -0.25176651714E+03  0.47935578347E+03  0.43167926486E+03  0.69248640709E+03  0.46999998093E+01 0.  1.
       -5    1    3    3    0  502  0.25176651714E+03 -0.47935578347E+03 -0.10934492730E+03  0.55240089557E+03  0.46999998093E+01 0. -1.
</event>
<event>
 5   0  0.3648616E-03  0.1218074E+04  0.7818609E-02  0.9097182E-01
        1   -1    0    0  501    0  0.00000000000E+00  0.00000000000E+00  0.10086549975E+04  0.10086549975E+04  0.50400001928E-02 0.  1.
       -1   -1    0    0    0  501  0.00000000000E+00  0.00000000000E+00 -0.36774344491E+03  0.36774344494E+03  0.50400001928E-02 0. -1.
    10030    2    1    2    0    0  0.00000000000E+00  0.00000000000E+00  0.64091155255E+03  0.13763984424E+04  0.12180743221E+04 0.  0.
        2    1    3    3  502    0 -0.43067361633E+02 -0.43224390364E+03  0.80283464456E+03  0.91281600357E+03  0.25500000920E-02 0.  1.
       -2    1    3    3    0  502  0.43067361633E+02  0.43224390364E+03 -0.16192309200E+03  0.46358243884E+03  0.25500000920E-02 0. -1.
</event>
<event>
 5   0  0.6493047E-03  0.1189493E+04  0.7818609E-02  0.9122103E-01
        2   -1    0    0  501    0  0.00000000000E+00  0.00000000000E+00  0.56935861816E+03  0.56935861817E+03  0.25500000920E-02 0. -1.
       -2   -1    0    0    0  501  0.00000000000E+00  0.00000000000E+00 -0.62126647978E+03  0.62126647978E+03  0.25500000920E-02 0.  1.
    10030    2    1    2    0    0  0.00000000000E+00  0.00000000000E+00 -0.51907861616E+02  0.11906250980E+04  0.11894930423E+04 0.  0.
        3    1    3    3  502    0 -0.37970884949E+03  0.42144451711E+03  0.15290334883E+03  0.58751488123E+03  0.10100000352E+00 0. -1.
       -3    1    3    3    0  502  0.37970884949E+03 -0.42144451711E+03 -0.20481121045E+03  0.60311021672E+03  0.10100000352E+00 0.  1.
</event>
<event>
 5   0  0.6585930E-03  0.1207336E+04  0.7818609E-02  0.9106460E-01
        2   -1    0    0  501    0  0.00000000000E+00  0.00000000000E+00  0.22895367058E+04  0.22895367058E+04  0.25500000920E-02 0. -1.
       -2   -1    0    0    0  501  0.00000000000E+00  0.00000000000E+00 -0.15916540003E+03  0.15916540005E+03  0.25500000920E-02 0.  1.
    10030    2    1    2    0    0  0.00000000000E+00  0.00000000000E+00  0.21303713058E+04  0.24487021058E+04  0.12073359527E+04 0.  0.
        2    1    3    3  502    0 -0.19709833651E+03  0.12785898639E+02  0.22221477360E+04  0.22309082891E+04  0.25500000920E-02 0. -1.
       -2    1    3    3    0  502  0.19709833651E+03 -0.12785898639E+02 -0.91776430279E+02  0.21779381676E+03  0.25500000920E-02 0.  1.
</event>
<event>
 5   0  0.2537625E-03  0.1219804E+04  0.7818609E-02  0.9095696E-01
        4   -1    0    0  501    0  0.00000000000E+00  0.00000000000E+00  0.10829200294E+04  0.10829207741E+04  0.12699999809E+01 0.  1.
       -4   -1    0    0    0  501  0.00000000000E+00  0.00000000000E+00 -0.34349574858E+03  0.34349809634E+03  0.12699999809E+01 0. -1.
    10030    2    1    2    0    0  0.00000000000E+00  0.00000000000E+00  0.73942428082E+03  0.14264188704E+04  0.12198042986E+04 0.  0.
        1    1    3    3  502    0 -0.26104563826E+03 -0.15870558844E+02 -0.27459998842E+03  0.37921214848E+03  0.50400001928E-02 0. -1.
       -1    1    3    3    0  502  0.26104563826E+03  0.15870558844E+02  0.10140242692E+04  0.10472067220E+04  0.50400001928E-02 0.  1.
</event>
<event>
 5   0  0.6640844E-03  0.1178116E+04  0.7818609E-02  0.9132231E-01
        2   -1    0    0  501    0  0.00000000000E+00  0.00000000000E+00  0.10654096272E+04  0.10654096272E+04  0.25500000920E-02 0.  1.
       -2   -1    0    0    0  501  0.00000000000E+00  0.00000000000E+00 -0.32568606383E+03  0.32568606384E+03  0.25500000920E-02 0. -1.
    10030    2    1    2    0    0  0.00000000000E+00  0.00000000000E+00  0.73972356332E+03  0.13910956910E+04  0.11781155594E+04 0.  0.
        5    1    3    3  502    0  0.39761029929E+03  0.87338776629E+02 -0.13283035278E+03  0.42823825684E+03  0.46999998093E+01 0. -1.
       -5    1    3    3    0  502 -0.39761029929E+03 -0.87338776629E+02  0.87255391610E+03  0.96285743415E+03  0.46999998093E+01 0.  1.
</event>
<event>
 5   0  0.6640844E-03  0.1221243E+04  0.7818609E-02  0.9094463E-01
       -2   -1    0    0    0  501  0.00000000000E+00  0.00000000000E+00  0.29387297191E+03  0.29387297192E+03  0.25500000920E-02 0.  1.
        2   -1    0    0  501    0  0.00000000000E+00  0.00000000000E+00 -0.12687743152E+04  0.12687743152E+04  0.25500000920E-02 0. -1.
    10030    2    1    2    0    0  0.00000000000E+00  0.00000000000E+00 -0.97490134326E+03  0.15626472871E+04  0.12212427747E+04 0.  0.
        5    1    3    3  502    0  0.44686809781E+03  0.38560627714E+03 -0.68754087973E+03  0.90615553252E+03  0.46999998093E+01 0. -1.
       -5    1    3    3    0  502 -0.44686809781E+03 -0.38560627714E+03 -0.28736046352E+03  0.65649175456E+03  0.46999998093E+01 0.  1.
</event>
<event>
 5   0  0.6493047E-03  0.1199207E+04  0.7818609E-02  0.9113551E-01
       -2   -1    0    0    0  501  0.00000000000E+00  0.00000000000E+00  0.45627582298E+03  0.45627582299E+03  0.25500000920E-02 0.  1.
        2   -1    0    0  501    0  0.00000000000E+00  0.00000000000E+00 -0.78795371065E+03  0.78795371065E+03  0.25500000920E-02 0. -1.
    10030    2    1    2    0    0  0.00000000000E+00  0.00000000000E+00 -0.33167788766E+03  0.12442295336E+04  0.11992067842E+04 0.  0.
        3    1    3    3  502    0 -0.53194111196E+03 -0.10859757079E+03  0.98214292951E+02  0.55172532706E+03  0.10100000352E+00 0.  1.
       -3    1    3    3    0  502  0.53194111196E+03  0.10859757079E+03 -0.42989218062E+03  0.69250420658E+03  0.10100000352E+00 0. -1.
</event>
<event>
 5   0  0.6349142E-03  0.1192377E+04  0.7818609E-02  0.9119556E-01
        2   -1    0    0  501    0  0.00000000000E+00  0.00000000000E+00  0.53994086954E+03  0.53994086955E+03  0.25500000920E-02 0. -1.
       -2   -1    0    0    0  501  0.00000000000E+00  0.00000000000E+00 -0.65829523896E+03  0.65829523896E+03  0.25500000920E-02 0.  1.
    10030    2    1    2    0    0  0.00000000000E+00  0.00000000000E+00 -0.11835436941E+03  0.11982361085E+04  0.11923766246E+04 0.  0.
        1    1    3    3  502    0  0.49027069648E+03 -0.20855730880E+03 -0.32803443526E+03  0.62567411456E+03  0.50400001928E-02 0.  1.
       -1    1    3    3    0  502 -0.49027069648E+03  0.20855730880E+03  0.20968006585E+03  0.57256199395E+03  0.50400001928E-02 0. -1.
</event>
<event>
 5   0  0.3731281E-03  0.1341040E+04  0.7818609E-02  0.8997638E-01
        1   -1    0    0  501    0  0.00000000000E+00  0.00000000000E+00  0.90949343832E+03  0.90949343833E+03  0.50400001928E-02 0.  1.
       -1   -1    0    0    0  501  0.00000000000E+00  0.00000000000E+00 -0.49433815462E+03  0.49433815464E+03  0.50400001928E-02 0. -1.
    10030    2    1    2    0    0  0.00000000000E+00  0.00000000000E+00  0.41515528370E+03  0.14038315930E+04  0.13410403543E+04 0.  0.
        5    1    3    3  502    0  0.27378787708E+02 -0.55521443587E+03 -0.18489372608E+03  0.58585019224E+03  0.46999998093E+01 0. -1.
       -5    1    3    3    0  502 -0.27378787708E+02  0.55521443587E+03  0.60004900977E+03  0.81798140073E+03  0.46999998093E+01 0.  1.
</event>
<event>
 5   0  0.3701879E-03  0.1197171E+04  0.7818609E-02  0.9115337E-01
        1   -1    0    0  501    0  0.00000000000E+00  0.00000000000E+00  0.11516999871E+04  0.11516999871E+04  0.50400001928E-02 0. -1.
       -1   -1    0    0    0  501  0.00000000000E+00  0.00000000000E+00 -0.31110917113E+03  0.31110917117E+03  0.50400001928E-02 0.  1.
    10030    2    1    2    0    0  0.00000000000E+00  0.00000000000E+00  0.84059081595E+03  0.14628091583E+04  0.11971707120E+04 0.  0.
        1    1    3    3  502    0  0.45348839292E+03 -0.81817101221E+02  0.88711226745E+03  0.99965690897E+03  0.50400001928E-02 0. -1.
       -1    1    3    3    0  502 -0.45348839292E+03  0.81817101221E+02 -0.46521451497E+02  0.46315224930E+03  0.50400001928E-02 0.  1.
</event>
<event>
 5   0  0.2537625E-03  0.1197508E+04  0.7818609E-02  0.9115041E-01
       -3   -1    0    0    0  501  0.00000000000E+00  0.00000000000E+00  0.14789128298E+03  0.14789131746E+03  0.10100000352E+00 0.  1.
        3   -1    0    0  501    0  0.00000000000E+00  0.00000000000E+00 -0.24241196221E+04  0.24241196243E+04  0.10100000352E+00 0. -1.
    10030    2    1    2    0    0  0.00000000000E+00  0.00000000000E+00 -0.22762283392E+04  0.25720109417E+04  0.11975077587E+04 0.  0.
        1    1    3    3  502    0  0.46814432863E+03  0.33723146826E+03 -0.79431781757E+03  0.98174587901E+03  0.50400001928E-02 0. -1.
       -1    1    3    3    0  502 -0.46814432863E+03 -0.33723146826E+03 -0.14819105216E+04  0.15902650627E+04  0.50400001928E-02 0.  1.
</event>
<event>
 5   0  0.6585930E-03  0.1085488E+04  0.7818609E-02  0.9219453E-01
        2   -1    0    0  501    0  0.00000000000E+00  0.00000000000E+00  0.72662506259E+03  0.72662506260E+03  0.25500000920E-02 0.  1.
       -2   -1    0    0    0  501  0.00000000000E+00  0.00000000000E+00 -0.40539590220E+03  0.40539590221E+03  0.25500000920E-02 0. -1.
    10030    2    1    2    0    0  0.00000000000E+00  0.00000000000E+00  0.32122916039E+03  0.11320209648E+04  0.10854875823E+04 0.  0.
        2    1    3    3  502    0  0.13718859400E+03  0.45590704225E+03  0.43235917842E+03  0.64312238390E+03  0.25500000920E-02 0.  1.
       -2    1    3    3    0  502 -0.13718859400E+03 -0.45590704225E+03 -0.11113001803E+03  0.48889858091E+03  0.25500000920E-02 0. -1.
</event>
<event>
 5   0  0.3648616E-03  0.1182019E+04  0.7818609E-02  0.9128742E-01
        1   -1    0    0  501    0  0.00000000000E+00  0.00000000000E+00  0.87797174965E+03  0.87797174967E+03  0.50400001928E-02 0.  1.
       -1   -1    0    0    0  501  0.00000000000E+00  0.00000000000E+00 -0.39784008885E+03  0.39784008888E+03  0.50400001928E-02 0. -1.
    10030    2    1    2    0    0  0.00000000000E+00  0.00000000000E+00  0.48013166081E+03  0.12758118385E+04  0.11820192197E+04 0.  0.
        2    1    3    3  502    0 -0.25797195647E+03 -0.83280419687E+02 -0.32677991253E+03  0.42458246533E+03  0.25500000920E-02 0. -1.
       -2    1    3    3    0  502  0.25797195647E+03  0.83280419687E+02  0.80691157334E+03  0.85122937321E+03  0.25500000920E-02 0.  1.
</event>
<event>
 5   0  0.6349142E-03  0.1209639E+04  0.7818609E-02  0.9104461E-01
       -2   -1    0    0    0  501  0.00000000000E+00  0.00000000000E+00  0.22181541984E+03  0.22181541985E+03  0.25500000920E-02 0.  1.
        2   -1    0    0  501    0  0.00000000000E+00  0.00000000000E+00 -0.16491485523E+04  0.16491485523E+04  0.25500000920E-02 0. -1.
    10030    2    1    2    0    0  0.00000000000E+00  0.00000000000E+00 -0.14273331325E+04  0.18709639722E+04  0.12096389189E+04 0.  0.
        1    1    3    3  502    0  0.19270359612E+03 -0.52682536725E+03 -0.36393522603E+03  0.66867667248E+03  0.50400001928E-02 0.  1.
       -1    1    3    3    0  502 -0.19270359612E+03  0.52682536725E+03 -0.10633979065E+04  0.12022872997E+04  0.50400001928E-02 0. -1.
</event>
<event>
 5   0  0.6640844E-03  0.1198444E+04  0.7818609E-02  0.9114220E-01
       -2   -1    0    0    0  501  0.00000000000E+00  0.00000000000E+00  0.87131536217E+03  0.87131536218E+03  0.25500000920E-02 0. -1.
        2   -1    0    0  501    0  0.00000000000E+00  0.00000000000E+00 -0.41209743433E+03  0.41209743434E+03  0.25500000920E-02 0.  1.
    10030    2    1    2    0    0  0.00000000000E+00  0.00000000000E+00  0.45921792784E+03  0.12834127965E+04  0.11984436996E+04 0.  0.
        5    1    3    3  502    0  0.19049190286E+03 -0.37502449133E+03 -0.22739570302E+03  0.47818556011E+03  0.46999998093E+01 0.  1.
       -5    1    3    3    0  502 -0.19049190286E+03  0.37502449133E+03  0.68661363087E+03  0.80522723640E+03  0.46999998093E+01 0. -1.
</event>
<event>
 5   0  0.2537625E-03  0.1150534E+04  0.7818609E-02  0.9157291E-01
       -3   -1    0    0    0  501  0.00000000000E+00  0.00000000000E+00  0.65488740213E+03  0.65488740992E+03  0.10100000352E+00 0. -1.
        3   -1    0    0  501    0  0.00000000000E+00  0.00000000000E+00 -0.50532714689E+03  0.50532715698E+03  0.10100000352E+00 0.  1.
    10030    2    1    2    0    0  0.00000000000E+00  0.00000000000E+00  0.14956025524E+03  0.11602145669E+04  0.11505344720E+04 0.  0.
        1    1    3    3  502    0  0.36340348545E+03  0.18787841876E+03  0.48262326546E+03  0.63268128617E+03  0.50400001928E-02 0. -1.
       -1    1    3    3    0  502 -0.36340348545E+03 -0.18787841876E+03 -0.33306301022E+03  0.52753328073E+03  0.50400001928E-02 0.  1.
</event>
<event>
 5   0  0.3772254E-03  0.1219688E+04  0.7818609E-02  0.9095796E-01
        1   -1    0    0  501    0  0.00000000000E+00  0.00000000000E+00  0.51554215042E+03  0.51554215044E+03  0.50400001928E-02 0.  1.
       -1   -1    0    0    0  501  0.00000000000E+00  0.00000000000E+00 -0.72139506831E+03  0.72139506833E+03  0.50400001928E-02 0. -1.
    10030    2    1    2    0    0  0.00000000000E+00  0.00000000000E+00 -0.20585291789E+03  0.12369372188E+04  0.12196877713E+04 0.  0.
        3    1    3    3  502    0  0.58227217823E+03  0.57575975767E+02 -0.27726953860E+03  0.64748304207E+03  0.10100000352E+00 0.  1.
       -3    1    3    3    0  502 -0.58227217823E+03 -0.57575975767E+02  0.71416620710E+02  0.58945417671E+03  0.10100000352E+00 0. -1.
</event>
<event>
 5   0  0.3731281E-03  0.1172287E+04  0.7818609E-02  0.9137466E-01
        1   -1    0    0  501    0  0.00000000000E+00  0.00000000000E+00  0.94614819686E+03  0.94614819687E+03  0.50400001928E-02 0.  1.
       -1   -1    0    0    0  501  0.00000000000E+00  0.00000000000E+00 -0.36311865545E+03  0.36311865549E+03  0.50400001928E-02 0. -1.
    10030    2    1    2    0    0  0.00000000000E+00  0.00000000000E+00  0.58302954141E+03  0.13092668524E+04  0.11722867587E+04 0.  0.
        5    1    3    3  502    0 -0.17539818527E+03  0.44801759560E+03  0.66538004627E+03  0.82111934902E+03  0.46999998093E+01 0.  1.
       -5    1    3    3    0  502  0.17539818527E+03 -0.44801759560E+03 -0.82350504866E+02  0.48814750334E+03  0.46999998093E+01 0. -1.
</event>
<event>
 5   0  0.6349142E-03  0.1224121E+04  0.7818609E-02  0.9092002E-01
        2   -1    0    0  501    0  0.00000000000E+00  0.00000000000E+00  0.11487912882E+04  0.11487912882E+04  0.25500000920E-02 0.  1.
       -2   -1    0    0    0  501  0.00000000000E+00  0.00000000000E+00 -0.32609748928E+03  0.32609748929E+03  0.25500000920E-02 0. -1.
    10030    2    1    2    0    0  0.00000000000E+00  0.00000000000E+00  0.82269379895E+03  0.14748887775E+04  0.12241208352E+04 0.  0.
        1    1    3    3  502    0  0.34983427767E+03  0.23610868620E+03  0.94542094556E+03  0.10353511954E+04  0.50400001928E-02 0.  1.
       -1    1    3    3    0  502 -0.34983427767E+03 -0.23610868620E+03 -0.12272714661E+03  0.43953758209E+03  0.50400001928E-02 0. -1.
</event>
<event>
 5   0  0.6658994E-03  0.1128367E+04  0.7818609E-02  0.9177976E-01
       -2   -1    0    0    0  501  0.00000000000E+00  0.00000000000E+00  0.50216886978E+03  0.50216886979E+03  0.25500000920E-02 0. -1.
        2   -1    0    0  501    0  0.00000000000E+00  0.00000000000E+00 -0.63385700359E+03  0.63385700360E+03  0.25500000920E-02 0.  1.
    10030    2    1    2    0    0  0.00000000000E+00  0.00000000000E+00 -0.13168813381E+03  0.11360258734E+04  0.11283674138E+04 0.  0.
        4    1    3    3  502    0  0.28451367148E+03 -0.39553451226E+03 -0.35221452882E+03  0.60120900431E+03  0.12699999809E+01 0.  1.
       -4    1    3    3    0  502 -0.28451367148E+03  0.39553451226E+03  0.22052639501E+03  0.53481686908E+03  0.12699999809E+01 0. -1.
</event>
<event>
 5   0  0.2537625E-03  0.1315794E+04  0.7818609E-02  0.9017133E-01
        4   -1    0    0  501    0  0.00000000000E+00  0.00000000000E+00  0.81978411947E+03  0.81978510321E+03  0.12699999809E+01 0.  1.
       -4   -1    0    0    0  501  0.00000000000E+00  0.00000000000E+00 -0.52797678454E+03  0.52797831197E+03  0.12699999809E+01 0. -1.
    10030    2    1    2    0    0  0.00000000000E+00  0.00000000000E+00  0.29180733493E+03  0.13477634152E+04  0.13157943238E+04 0.  0.
        4    1    3    3  502    0  0.23133890710E+03 -0.49970898272E+03 -0.22284347816E+03  0.59404342098E+03  0.12699999809E+01 0. -1.
       -4    1    3    3    0  502 -0.23133890710E+03  0.49970898272E+03  0.51465081309E+03  0.75371999421E+03  0.12699999809E+01 0.  1.
</event>
<event>
 5   0  0.3648616E-03  0.1180716E+04  0.7818609E-02  0.9129906E-01
       -1   -1    0    0    0  501  0.00000000000E+00  0.00000000000E+00  0.43484267266E+03  0.43484267269E+03  0.50400001928E-02 0. -1.
        1   -1    0    0  501    0  0.00000000000E+00  0.00000000000E+00 -0.80149073716E+03  0.80149073717E+03  0.50400001928E-02 0.  1.
    10030    2    1    2    0    0  0.00000000000E+00  0.00000000000E+00 -0.36664806450E+03  0.12363334099E+04  0.11807156716E+04 0.  0.
        2    1    3    3  502    0 -0.24989349514E+03 -0.49994879170E+03  0.15699830854E+02  0.55914402253E+03  0.25500000920E-02 0.  1.
       -2    1    3    3    0  502  0.24989349514E+03  0.49994879170E+03 -0.38234789535E+03  0.67718938734E+03  0.25500000920E-02 0. -1.
</event>
<event>
 5   0  0.6493047E-03  0.1193298E+04  0.7818609E-02  0.9118743E-01
        2   -1    0    0  501    0  0.00000000000E+00  0.00000000000E+00  0.91926705242E+03  0.91926705243E+03  0.25500000920E-02 0.  1.
       -2   -1    0    0    0  501  0.00000000000E+00  0.00000000000E+00 -0.38725439470E+03  0.38725439471E+03  0.25500000920E-02 0. -1.
    10030    2    1    2    0    0  0.00000000000E+00  0.00000000000E+00  0.53201265773E+03  0.13065214471E+04  0.11932982963E+04 0.  0.
        3    1    3    3  502    0  0.86515881417E+02  0.48651626032E+03  0.63210846731E+03  0.80233670858E+03  0.10100000352E+00 0.  1.
       -3    1    3    3    0  502 -0.86515881417E+02 -0.48651626032E+03 -0.10009580958E+03  0.50418473855E+03  0.10100000352E+00 0. -1.
</event>
<event>
 5   0  0.3701879E-03  0.1193019E+04  0.7818609E-02  0.9118989E-01
        1   -1    0    0  501    0  0.00000000000E+00  0.00000000000E+00  0.17866274100E+04  0.17866274100E+04  0.50400001928E-02 0.  1.
       -1   -1    0    0    0  501  0.00000000000E+00  0.00000000000E+00 -0.19915928370E+03  0.19915928376E+03  0.50400001928E-02 0. -1.
    10030    2    1    2    0    0  0.00000000000E+00  0.00000000000E+00  0.15874681263E+04  0.19857866937E+04  0.11930187514E+04 0.  0.
        1    1    3    3  502    0  0.29453996106E+03 -0.23376083786E+03  0.22966269077E+02  0.37672983359E+03  0.50400001928E-02 0. -1.
       -1    1    3    3    0  502 -0.29453996106E+03  0.23376083786E+03  0.15645018572E+04  0.16090568602E+04  0.50400001928E-02 0.  1.
</event>
<event>
 5   0  0.6493047E-03  0.1177633E+04  0.7818609E-02  0.9132663E-01
       -2   -1    0    0    0  501  0.00000000000E+00  0.00000000000E+00  0.59220546757E+03  0.59220546757E+03  0.25500000920E-02 0.  1.
        2   -1    0    0  501    0  0.00000000000E+00  0.00000000000E+00 -0.58544697779E+03  0.58544697780E+03  0.25500000920E-02 0. -1.
    10030    2    1    2    0    0  0.00000000000E+00  0.00000000000E+00  0.67584897774E+01  0.11776524454E+04  0.11776330519E+04 0.  0.
        3    1    3    3  502    0  0.80146330353E+01 -0.50169280482E+02  0.59000948129E+03  0.59219286492E+03  0.10100000352E+00 0.  1.
       -3    1    3    3    0  502 -0.80146330353E+01  0.50169280482E+02 -0.58325099151E+03  0.58545958045E+03  0.10100000352E+00 0. -1.
</event>
<event>
 5   0  0.3648616E-03  0.1192010E+04  0.7818609E-02  0.9119879E-01
        1   -1    0    0  501    0  0.00000000000E+00  0.00000000000E+00  0.47515782803E+03  0.47515782805E+03  0.50400001928E-02 0. -1.
       -1   -1    0    0    0  501  0.00000000000E+00  0.00000000000E+00 -0.74758671593E+03  0.74758671595E+03  0.50400001928E-02 0.  1.
    10030    2    1    2    0    0  0.00000000000E+00  0.00000000000E+00 -0.27242888790E+03  0.12227445440E+04  0.11920095305E+04 0.  0.
        2    1    3    3  502    0  0.31090389593E+03 -0.47839080001E+03  0.40574010272E+02  0.57198360148E+03  0.25500000920E-02 0. -1.
       -2    1    3    3    0  502 -0.31090389593E+03  0.47839080001E+03 -0.31300289818E+03  0.65076094252E+03  0.25500000920E-02 0.  1.
</event>
<event>
 5   0  0.6349142E-03  0.1250759E+04  0.7818609E-02  0.9069552E-01
       -2   -1    0    0    0  501  0.00000000000E+00  0.00000000000E+00  0.31272801627E+03  0.31272801628E+03  0.25500000920E-02 0. -1.
        2   -1    0    0  501    0  0.00000000000E+00  0.00000000000E+00 -0.12506062611E+04  0.12506062611E+04  0.25500000920E-02 0.  1.
    10030    2    1    2    0    0  0.00000000000E+00  0.00000000000E+00 -0.93787824480E+03  0.15633342774E+04  0.12507591537E+04 0.  0.
        1    1    3    3  502    0  0.10838902882E+03 -0.53068019122E+03 -0.85968287140E+03  0.10160828147E+04  0.50400001928E-02 0.  1.
       -1    1    3    3    0  502 -0.10838902882E+03  0.53068019122E+03 -0.78195373402E+02  0.54725146265E+03  0.50400001928E-02 0. -1.
</event>
<event>
 5   0  0.6585930E-03  0.1201581E+04  0.7818609E-02  0.9111473E-01
       -2   -1    0    0    0  501  0.00000000000E+00  0.00000000000E+00  0.30278676535E+03  0.30278676536E+03  0.25500000920E-02 0.  1.
        2   -1    0    0  501    0  0.00000000000E+00  0.00000000000E+00 -0.11920914213E+04  0.11920914213E+04  0.25500000920E-02 0. -1.
    10030    2    1    2    0    0  0.00000000000E+00  0.00000000000E+00 -0.88930465595E+03  0.14948781867E+04  0.12015814670E+04 0.  0.
        2    1    3    3  502    0 -0.11255220897E+02 -0.39358710840E+03 -0.10091906476E+04  0.10832835525E+04  0.25500000920E-02 0. -1.
       -2    1    3    3    0  502  0.11255220897E+02  0.39358710840E+03  0.11988599163E+03  0.41159463418E+03  0.25500000920E-02 0.  1.
</event>
<event>
 5   0  0.3731281E-03  0.7176355E+03  0.7818609E-02  0.9687540E-01
        1   -1    0    0  501    0  0.00000000000E+00  0.00000000000E+00  0.15161949331E+04  0.15161949332E+04  0.50400001928E-02 0. -1.
       -1   -1    0    0    0  501  0.00000000000E+00  0.00000000000E+00 -0.84916640274E+02  0.84916640424E+02  0.50400001928E-02 0.  1.
    10030    2    1    2    0    0  0.00000000000E+00  0.00000000000E+00  0.14312782929E+04  0.16011115736E+04  0.71763550595E+03 0.  0.
        5    1    3    3  502    0  0.34105548575E+03 -0.97346465662E+02  0.83646701922E+03  0.90856719233E+03  0.46999998093E+01 0. -1.
       -5    1    3    3    0  502 -0.34105548575E+03  0.97346465662E+02  0.59481127365E+03  0.69254438125E+03  0.46999998093E+01 0.  1.
</event>
<event>
 5   0  0.3944074E-03  0.1204943E+04  0.7818609E-02  0.9108541E-01
        1   -1    0    0  501    0  0.00000000000E+00  0.00000000000E+00  0.10169456166E+04  0.10169456166E+04  0.50400001928E-02 0.  1.
       -1   -1    0    0    0  501  0.00000000000E+00  0.00000000000E+00 -0.35692359490E+03  0.35692359494E+03  0.50400001928E-02 0. -1.
    10030    2    1    2    0    0  0.00000000000E+00  0.00000000000E+00  0.66002202167E+03  0.13738692115E+04  0.12049429618E+04 0.  0.
        4    1    3    3  502    0  0.10059247217E+02 -0.51647558667E+03 -0.23489804081E+02  0.51710888977E+03  0.12699999809E+01 0. -1.
       -4    1    3    3    0  502 -0.10059247217E+02  0.51647558667E+03  0.68351182575E+03  0.85676032175E+03  0.12699999809E+01 0.  1.
</event>
<event>
 5   0  0.2537625E-03  0.6868978E+03  0.7818609E-02  0.9739905E-01
        3   -1    0    0  501    0  0.00000000000E+00  0.00000000000E+00  0.63647565571E+03  0.63647566373E+03  0.10100000352E+00 0. -1.
       -3   -1    0    0    0  501  0.00000000000E+00  0.00000000000E+00 -0.18532857884E+03  0.18532860636E+03  0.10100000352E+00 0.  1.
    10030    2    1    2    0    0  0.00000000000E+00  0.00000000000E+00  0.45114707687E+03  0.82180427009E+03  0.68689778961E+03 0.  0.
        4    1    3    3  502    0 -0.29704766946E+03 -0.66726243553E+02  0.35403111474E+02  0.30650400114E+03  0.12699999809E+01 0.  1.
       -4    1    3    3    0  502  0.29704766946E+03  0.66726243553E+02  0.41574396540E+03  0.51530026895E+03  0.12699999809E+01 0. -1.
</event>
<event>
 5   0  0.6658994E-03  0.1282493E+04  0.7818609E-02  0.9043564E-01
        2   -1    0    0  501    0  0.00000000000E+00  0.00000000000E+00  0.10565689046E+04  0.10565689046E+04  0.25500000920E-02 0.  1.
       -2   -1    0    0    0  501  0.00000000000E+00  0.00000000000E+00 -0.38918171416E+03  0.38918171416E+03  0.25500000920E-02 0. -1.
    10030    2    1    2    0    0  0.00000000000E+00  0.00000000000E+00  0.66738719049E+03  0.14457506188E+04  0.12824933488E+04 0.  0.
        4    1    3    3  502    0  0.14414730235E+03  0.25572614674E+03  0.97637277211E+03  0.10195487776E+04  0.12699999809E+01 0.  1.
       -4    1    3    3    0  502 -0.14414730235E+03 -0.25572614674E+03 -0.30898558162E+03  0.42620184121E+03  0.12699999809E+01 0. -1.
</event>
<event>
 5   0  0.6640844E-03  0.1156853E+04  0.7818609E-02  0.9151484E-01
       -2   -1    0    0    0  501  0.00000000000E+00  0.00000000000E+00  0.27898328414E+03  0.27898328415E+03  0.25500000920E-02 0.  1.
        2   -1    0    0  501    0  0.00000000000E+00  0.00000000000E+00 -0.11992740542E+04  0.11992740542E+04  0.25500000920E-02 0. -1.
    10030    2    1    2    0    0  0.00000000000E+00  0.00000000000E+00 -0.92029077005E+03  0.14782573383E+04  0.11568533429E+04 0.  0.
        5    1    3    3  502    0  0.40396347240E+03  0.22240232835E+03 -0.13991835612E+02  0.46137527475E+03  0.46999998093E+01 0.  1.
       -5    1    3    3    0  502 -0.40396347240E+03 -0.22240232835E+03 -0.90629893444E+03  0.10168820636E+04  0.46999998093E+01 0. -1.
</event>
<event>
 5   0  0.3944074E-03  0.1213952E+04  0.7818609E-02  0.9100731E-01
       -1   -1    0    0    0  501  0.00000000000E+00  0.00000000000E+00  0.26834776314E+03  0.26834776318E+03  0.50400001928E-02 0. -1.
        1   -1    0    0  501    0  0.00000000000E+00  0.00000000000E+00 -0.13729189764E+04  0.13729189764E+04  0.50400001928E-02 0.  1.
    10030    2    1    2    0    0  0.00000000000E+00  0.00000000000E+00 -0.11045712133E+04  0.16412667396E+04  0.12139517887E+04 0.  0.
        4    1    3    3  502    0  0.11096789381E+03  0.75502390901E+02 -0.13526025899E+04  0.13592460644E+04  0.12699999809E+01 0.  1.
       -4    1    3    3    0  502 -0.11096789381E+03 -0.75502390901E+02  0.24803137668E+03  0.28202067514E+03  0.12699999809E+01 0. -1.
</event>
<event>
 5   0  0.6658994E-03  0.1198083E+04  0.7818609E-02  0.9114536E-01
       -2   -1    0    0    0  501  0.00000000000E+00  0.00000000000E+00  0.72728606559E+03  0.72728606559E+03  0.25500000920E-02 0.  1.
        2   -1    0    0  501    0  0.00000000000E+00  0.00000000000E+00 -0.49341075976E+03  0.49341075977E+03  0.25500000920E-02 0. -1.
    10030    2    1    2    0    0  0.00000000000E+00  0.00000000000E+00  0.23387530582E+03  0.12206968254E+04  0.11980830859E+04 0.  0.
        4    1    3    3  502    0  0.43610679295E+03  0.20149027139E+03  0.48154926640E+03  0.68020494940E+03  0.12699999809E+01 0.  1.
       -4    1    3    3    0  502 -0.43610679295E+03 -0.20149027139E+03 -0.24767396058E+03  0.54049187595E+03  0.12699999809E+01 0. -1.
</event>
<event>
 5   0  0.2537625E-03  0.6644263E+03  0.7818609E-02  0.9780080E-01
       -3   -1    0    0    0  501  0.00000000000E+00  0.00000000000E+00  0.40522108462E+03  0.40522109721E+03  0.10100000352E+00 0. -1.
        3   -1    0    0  501    0  0.00000000000E+00  0.00000000000E+00 -0.27235885897E+03  0.27235887770E+03  0.10100000352E+00 0.  1.
    10030    2    1    2    0    0  0.00000000000E+00  0.00000000000E+00  0.13286222565E+03  0.67757997491E+03  0.66442625730E+03 0.  0.
        4    1    3    3  502    0 -0.27224126568E+03  0.24646625018E+02 -0.12609509461E+03  0.30103878263E+03  0.12699999809E+01 0.  1.
       -4    1    3    3    0  502  0.27224126568E+03 -0.24646625018E+02  0.25895732026E+03  0.37654119227E+03  0.12699999809E+01 0. -1.
</event>
<event>
 5   0  0.3772254E-03  0.1241484E+04  0.7818609E-02  0.9077301E-01
        1   -1    0    0  501    0  0.00000000000E+00  0.00000000000E+00  0.54268551959E+03  0.54268551961E+03  0.50400001928E-02 0. -1.
       -1   -1    0    0    0  501  0.00000000000E+00  0.00000000000E+00 -0.71002569523E+03  0.71002569524E+03  0.50400001928E-02 0.  1.
    10030    2    1    2    0    0  0.00000000000E+00  0.00000000000E+00 -0.16734017564E+03  0.12527112149E+04  0.12414840528E+04 0.  0.
        3    1    3    3  502    0 -0.82233963511E+02 -0.43453259306E+03 -0.52320044121E+03  0.68506912868E+03  0.10100000352E+00 0.  1.
       -3    1    3    3    0  502  0.82233963511E+02  0.43453259306E+03  0.35586026557E+03  0.56764208618E+03  0.10100000352E+00 0. -1.
</event>
<event>
 5   0  0.3648616E-03  0.1192874E+04  0.7818609E-02  0.9119117E-01
        1   -1    0    0  501    0  0.00000000000E+00  0.00000000000E+00  0.64640091813E+03  0.64640091815E+03  0.50400001928E-02 0. -1.
       -1   -1    0    0    0  501  0.00000000000E+00  0.00000000000E+00 -0.55033474635E+03  0.55033474637E+03  0.50400001928E-02 0.  1.
    10030    2    1    2    0    0  0.00000000000E+00  0.00000000000E+00  0.96066171783E+02  0.11967356645E+04  0.11928736485E+04 0.  0.
        2    1    3    3  502    0 -0.29292757093E+03 -0.45799903408E+03 -0.19805110800E+03  0.57861379038E+03  0.25500000920E-02 0. -1.
       -2    1    3    3    0  502  0.29292757093E+03  0.45799903408E+03  0.29411727979E+03  0.61812187415E+03  0.25500000920E-02 0.  1.
</event>
<event>
 5   0  0.3648616E-03  0.1087004E+04  0.7818609E-02  0.9217952E-01
        1   -1    0    0  501    0  0.00000000000E+00  0.00000000000E+00  0.40251873741E+03  0.40251873744E+03  0.50400001928E-02 0. -1.
       -1   -1    0    0    0  501  0.00000000000E+00  0.00000000000E+00 -0.73386529302E+03  0.73386529304E+03  0.50400001928E-02 0.  1.
    10030    2    1    2    0    0  0.00000000000E+00  0.00000000000E+00 -0.33134655561E+03  0.11363840305E+04  0.10870041972E+04 0.  0.
        2    1    3    3  502    0 -0.30493490181E+03 -0.44770311924E+03 -0.21208783008E+03  0.58172555814E+03  0.25500000920E-02 0.  1.
       -2    1    3    3    0  502  0.30493490181E+03  0.44770311924E+03 -0.11925872553E+03  0.55465847234E+03  0.25500000920E-02 0. -1.
</event>
<event>
 5   0  0.3701879E-03  0.1129923E+04  0.7818609E-02  0.9176508E-01
       -1   -1    0    0    0  501  0.00000000000E+00  0.00000000000E+00  0.27584876536E+03  0.27584876541E+03  0.50400001928E-02 0. -1.
        1   -1    0    0  501    0  0.00000000000E+00  0.00000000000E+00 -0.11570884751E+04  0.11570884751E+04  0.50400001928E-02 0.  1.
    10030    2    1    2    0    0  0.00000000000E+00  0.00000000000E+00 -0.88123970971E+03  0.14329372405E+04  0.11299228776E+04 0.  0.
        1    1    3    3  502    0  0.37963604004E+03  0.35820414801E+02 -0.96927415513E+03  0.10415848563E+04  0.50400001928E-02 0.  1.
       -1    1    3    3    0  502 -0.37963604004E+03 -0.35820414801E+02  0.88034445422E+02  0.39135238420E+03  0.50400001928E-02 0. -1.
</event>
<event>
 5   0  0.3731281E-03  0.1217659E+04  0.7818609E-02  0.9097538E-01
        1   -1    0    0  501    0  0.00000000000E+00  0.00000000000E+00  0.84555708973E+03  0.84555708975E+03  0.50400001928E-02 0.  1.
       -1   -1    0    0    0  501  0.00000000000E+00  0.00000000000E+00 -0.43837779454E+03  0.43837779457E+03  0.50400001928E-02 0. -1.
    10030    2    1    2    0    0  0.00000000000E+00  0.00000000000E+00  0.40717929519E+03  0.12839348843E+04  0.12176591513E+04 0.  0.
        5    1    3    3  502    0  0.37673659288E+02  0.54269110443E+03  0.49181429035E+03  0.73337325123E+03  0.46999998093E+01 0.  1.
       -5    1    3    3    0  502 -0.37673659288E+02 -0.54269110443E+03 -0.84634995163E+02  0.55056163309E+03  0.46999998093E+01 0. -1.
</event>
<event>
 5   0  0.3648616E-03  0.1183814E+04  0.7818609E-02  0.9127143E-01
        1   -1    0    0  501    0  0.00000000000E+00  0.00000000000E+00  0.80535122753E+03  0.80535122754E+03  0.50400001928E-02 0.  1.
       -1   -1    0    0    0  501  0.00000000000E+00  0.00000000000E+00 -0.43503254996E+03  0.43503254999E+03  0.50400001928E-02 0. -1.
    10030    2    1    2    0    0  0.00000000000E+00  0.00000000000E+00  0.37031867756E+03  0.12403837775E+04  0.11838141715E+04 0.  0.
        2    1    3    3  502    0  0.16013765819E+03 -0.55088309534E+03  0.33785501239E+03  0.66577944074E+03  0.25500000920E-02 0.  1.
       -2    1    3    3    0  502 -0.16013765819E+03  0.55088309534E+03  0.32463665174E+02  0.57460433680E+03  0.25500000920E-02 0. -1.
</event>
<event>
 5   0  0.6658994E-03  0.1196850E+04  0.7818609E-02  0.9115619E-01
        2   -1    0    0  501    0  0.00000000000E+00  0.00000000000E+00  0.37398869416E+03  0.37398869417E+03  0.25500000920E-02 0. -1.
       -2   -1    0    0    0  501  0.00000000000E+00  0.00000000000E+00 -0.95754821215E+03  0.95754821215E+03  0.25500000920E-02 0.  1.
    10030    2    1    2    0    0  0.00000000000E+00  0.00000000000E+00 -0.58355951799E+03  0.13315369063E+04  0.11968495402E+04 0.  0.
        4    1    3    3  502    0  0.28596206602E+02  0.16012324411E+03  0.34892193981E+03  0.38497445281E+03  0.12699999809E+01 0. -1.
       -4    1    3    3    0  502 -0.28596206602E+02 -0.16012324411E+03 -0.93248145780E+03  0.94656245350E+03  0.12699999809E+01 0.  1.
</event>
<event>
 5   0  0.6658994E-03  0.1209248E+04  0.7818609E-02  0.9104800E-01
        2   -1    0    0  501    0  0.00000000000E+00  0.00000000000E+00  0.53122655634E+03  0.53122655634E+03  0.25500000920E-02 0.  1.
       -2   -1    0    0    0  501  0.00000000000E+00  0.00000000000E+00 -0.68816252321E+03  0.68816252322E+03  0.25500000920E-02 0. -1.
    10030    2    1    2    0    0  0.00000000000E+00  0.00000000000E+00 -0.15693596688E+03  0.12193890796E+04  0.12092480431E+04 0.  0.
        4    1    3    3  502    0  0.29753662195E+03 -0.42709507069E+03  0.23173226389E+03  0.56977161726E+03  0.12699999809E+01 0. -1.
       -4    1    3    3    0  502 -0.29753662195E+03  0.42709507069E+03 -0.38866823077E+03  0.64961746230E+03  0.12699999809E+01 0.  1.
</event>
<event>
 5   0  0.6349142E-03  0.8367409E+03  0.7818609E-02  0.9508308E-01
        2   -1    0    0  501    0  0.00000000000E+00  0.00000000000E+00  0.43865738559E+03  0.43865738560E+03  0.25500000920E-02 0.  1.
       -2   -1    0    0    0  501  0.00000000000E+00  0.00000000000E+00 -0.39902177232E+03  0.39902177233E+03  0.25500000920E-02 0. -1.
    10030    2    1    2    0    0  0.00000000000E+00  0.00000000000E+00  0.39635613265E+02  0.83767915793E+03  0.83674093350E+03 0.  0.
        1    1    3    3  502    0 -0.33861439191E+03 -0.12998712344E+03 -0.18892855780E+03  0.40896253942E+03  0.50400001928E-02 0. -1.
       -1    1    3    3    0  502  0.33861439191E+03  0.12998712344E+03  0.22856417106E+03  0.42871661851E+03  0.50400001928E-02 0.  1.
</event>
<event>
 5   0  0.3944074E-03  0.1128186E+04  0.7818609E-02  0.9178147E-01
        1   -1    0    0  501    0  0.00000000000E+00  0.00000000000E+00  0.30401670751E+03  0.30401670755E+03  0.50400001928E-02 0.  1.
       -1   -1    0    0    0  501  0.00000000000E+00  0.00000000000E+00 -0.10466562861E+04  0.10466562861E+04  0.50400001928E-02 0. -1.
    10030    2    1    2    0    0  0.00000000000E+00  0.00000000000E+00 -0.74263957861E+03  0.13506729937E+04  0.11281861514E+04 0.  0.
        4    1    3    3  502    0 -0.46660606210E+03  0.20163644422E+03 -0.78503004302E+02  0.51433725066E+03  0.12699999809E+01 0.  1.
       -4    1    3    3    0  502  0.46660606210E+03 -0.20163644422E+03 -0.66413657431E+03  0.83633574302E+03  0.12699999809E+01 0. -1.
</event>
<event>
 5   0  0.3944074E-03  0.1246107E+04  0.7818609E-02  0.9073429E-01
        1   -1    0    0  501    0  0.00000000000E+00  0.00000000000E+00  0.16374987674E+04  0.16374987674E+04  0.50400001928E-02 0. -1.
       -1   -1    0    0    0  501  0.00000000000E+00  0.00000000000E+00 -0.23706638312E+03  0.23706638318E+03  0.50400001928E-02 0.  1.
    10030    2    1    2    0    0  0.00000000000E+00  0.00000000000E+00  0.14004323843E+04  0.18745651506E+04  0.12461073954E+04 0.  0.
        4    1    3    3  502    0 -0.55937492444E+03  0.39632455186E+02  0.29175826388E+03  0.63213569353E+03  0.12699999809E+01 0.  1.
       -4    1    3    3    0  502  0.55937492444E+03 -0.39632455186E+02  0.11086741204E+04  0.12424294570E+04  0.12699999809E+01 0. -1.
</event>
<event>
 5   0  0.6640844E-03  0.1216876E+04  0.7818609E-02  0.9098212E-01
        2   -1    0    0  501    0  0.00000000000E+00  0.00000000000E+00  0.87496828314E+03  0.87496828314E+03  0.25500000920E-02 0. -1.
       -2   -1    0    0    0  501  0.00000000000E+00  0.00000000000E+00 -0.42309757464E+03  0.42309757465E+03  0.25500000920E-02 0.  1.
    10030    2    1    2    0    0  0.00000000000E+00  0.00000000000E+00  0.45187070849E+03  0.12980658578E+04  0.12168762607E+04 0.  0.
        5    1    3    3  502    0 -0.29830736027E+03 -0.22214078295E+03 -0.28768885426E+03  0.47023480890E+03  0.46999998093E+01 0.  1.
       -5    1    3    3    0  502  0.29830736027E+03  0.22214078295E+03  0.73955956275E+03  0.82783104889E+03  0.46999998093E+01 0. -1.
</event>
<event>
 5   0  0.3731281E-03  0.1236214E+04  0.7818609E-02  0.9081736E-01
        1   -1    0    0  501    0  0.00000000000E+00  0.00000000000E+00  0.13305710758E+04  0.13305710758E+04  0.50400001928E-02 0. -1.
       -1   -1    0    0    0  501  0.00000000000E+00  0.00000000000E+00 -0.28713697868E+03  0.28713697872E+03  0.50400001928E-02 0.  1.
    10030    2    1    2    0    0  0.00000000000E+00  0.00000000000E+00  0.10434340972E+04  0.16177080546E+04  0.12362138305E+04 0.  0.
        5    1    3    3  502    0 -0.18170455910E+03  0.57885213200E+03  0.36717084767E+03  0.70917054288E+03  0.46999998093E+01 0. -1.
       -5    1    3    3    0  502  0.18170455910E+03 -0.57885213200E+03  0.67626324948E+03  0.90853751167E+03  0.46999998093E+01 0.  1.
</event>
<event>
 5   0  0.3731281E-03  0.1220485E+04  0.7818609E-02  0.9095113E-01
       -1   -1    0    0    0  501  0.00000000000E+00  0.00000000000E+00  0.62769606795E+03  0.62769606797E+03  0.50400001928E-02 0.  1.
        1   -1    0    0  501    0  0.00000000000E+00  0.00000000000E+00 -0.59327433060E+03  0.59327433062E+03  0.50400001928E-02 0. -1.
    10030    2    1    2    0    0  0.00000000000E+00  0.00000000000E+00  0.34421737353E+02  0.12209703986E+04  0.12204850914E+04 0.  0.
        5    1    3    3  502    0 -0.45115208580E+03 -0.67899514362E+02  0.42261924960E+03  0.62191451881E+03  0.46999998093E+01 0.  1.
       -5    1    3    3    0  502  0.45115208580E+03  0.67899514362E+02 -0.38819751225E+03  0.59905587977E+03  0.46999998093E+01 0. -1.
</event>
<event>
 5   0  0.6585930E-03  0.1310490E+04  0.7818609E-02  0.9021287E-01
        2   -1    0    0  501    0  0.00000000000E+00  0.00000000000E+00  0.75517255120E+03  0.75517255120E+03  0.25500000920E-02 0.  1.
       -2   -1    0    0    0  501  0.00000000000E+00  0.00000000000E+00 -0.56854049373E+03  0.56854049374E+03  0.25500000920E-02 0. -1.
    10030    2    1    2    0    0  0.00000000000E+00  0.00000000000E+00  0.18663205747E+03  0.13237130449E+04  0.13104902520E+04 0.  0.
        2    1    3    3  502    0  0.55494519341E+03 -0.71626153427E+02  0.43771330900E+03  0.71041355169E+03  0.25500000920E-02 0.  1.
       -2    1    3    3    0  502 -0.55494519341E+03  0.71626153427E+02 -0.25108125153E+03  0.61329949325E+03  0.25500000920E-02 0. -1.
</event>
<event>
 5   0  0.3772254E-03  0.1203887E+04  0.7818609E-02  0.9109461E-01
       -1   -1    0    0    0  501  0.00000000000E+00  0.00000000000E+00  0.45180745977E+03  0.45180745979E+03  0.50400001928E-02 0.  1.
        1   -1    0    0  501    0  0.00000000000E+00  0.00000000000E+00 -0.80196992651E+03  0.80196992653E+03  0.50400001928E-02 0. -1.
    10030    2    1    2    0    0  0.00000000000E+00  0.00000000000E+00 -0.35016246675E+03  0.12537773863E+04  0.12038870301E+04 0.  0.
        3    1    3    3  502    0 -0.55919489429E+03  0.19913028115E+03 -0.71019504174E+02  0.59782570942E+03  0.10100000352E+00 0. -1.
       -3    1    3    3    0  502  0.55919489429E+03 -0.19913028115E+03 -0.27914296257E+03  0.65595167690E+03  0.10100000352E+00 0.  1.
</event>
<event>
 5   0  0.6493047E-03  0.1206797E+04  0.7818609E-02  0.9106928E-01
       -2   -1    0    0    0  501  0.00000000000E+00  0.00000000000E+00  0.48514515675E+03  0.48514515676E+03  0.25500000920E-02 0.  1.
        2   -1    0    0  501    0  0.00000000000E+00  0.00000000000E+00 -0.75047542562E+03  0.75047542562E+03  0.25500000920E-02 0. -1.
    10030    2    1    2    0    0  0.00000000000E+00  0.00000000000E+00 -0.26533026887E+03  0.12356205824E+04  0.12067966158E+04 0.  0.
        3    1    3    3  502    0  0.55114730787E+03 -0.13446370476E+03 -0.34311183705E+03  0.66300044178E+03  0.10100000352E+00 0. -1.
       -3    1    3    3    0  502 -0.55114730787E+03  0.13446370476E+03  0.77781568186E+02  0.57262014060E+03  0.10100000352E+00 0.  1.
</event>
<event>
 5   0  0.2537625E-03  0.1113120E+04  0.7818609E-02  0.9192498E-01
       -3   -1    0    0    0  501  0.00000000000E+00  0.00000000000E+00  0.54288347489E+03  0.54288348428E+03  0.10100000352E+00 0. -1.
        3   -1    0    0  501    0  0.00000000000E+00  0.00000000000E+00 -0.57058072138E+03  0.57058073032E+03  0.10100000352E+00 0.  1.
    10030    2    1    2    0    0  0.00000000000E+00  0.00000000000E+00 -0.27697246491E+02  0.11134642146E+04  0.11131196790E+04 0.  0.
        4    1    3    3  502    0  0.40378397767E+03 -0.55570909389E+02 -0.39294826867E+03  0.56616215111E+03  0.12699999809E+01 0.  1.
       -4    1    3    3    0  502 -0.40378397767E+03  0.55570909389E+02  0.36525102218E+03  0.54730206349E+03  0.12699999809E+01 0. -1.
</event>
<event>
 5   0  0.6658994E-03  0.1206841E+04  0.7818609E-02  0.9106889E-01
       -2   -1    0    0    0  501  0.00000000000E+00  0.00000000000E+00  0.57096846217E+03  0.57096846218E+03  0.25500000920E-02 0. -1.
        2   -1    0    0  501    0  0.00000000000E+00  0.00000000000E+00 -0.63771735890E+03  0.63771735890E+03  0.25500000920E-02 0.  1.
    10030    2    1    2    0    0  0.00000000000E+00  0.00000000000E+00 -0.66748896725E+02  0.12086858211E+04  0.12068413313E+04 0.  0.
        4    1    3    3  502    0  0.35224736944E+03  0.57884508007E+02 -0.52062191923E+03  0.63125083859E+03  0.12699999809E+01 0.  1.
       -4    1    3    3    0  502 -0.35224736944E+03 -0.57884508007E+02  0.45387302250E+03  0.57743498249E+03  0.12699999809E+01 0. -1.
</event>
<event>
 5   0  0.6658994E-03  0.1219138E+04  0.7818609E-02  0.9096268E-01
        2   -1    0    0  501    0  0.00000000000E+00  0.00000000000E+00  0.79799515633E+03  0.79799515634E+03  0.25500000920E-02 0. -1.
       -2   -1    0    0    0  501  0.00000000000E+00  0.00000000000E+00 -0.46563511295E+03  0.46563511295E+03  0.25500000920E-02 0.  1.
    10030    2    1    2    0    0  0.00000000000E+00  0.00000000000E+00  0.33236004338E+03  0.12636302693E+04  0.12191383265E+04 0.  0.
        4    1    3    3  502    0  0.91235609609E+02  0.62750585480E+02 -0.45512164949E+03  0.46840036419E+03  0.12699999809E+01 0.  1.
       -4    1    3    3    0  502 -0.91235609609E+02 -0.62750585480E+02  0.78748169288E+03  0.79522990510E+03  0.12699999809E+01 0. -1.
</event>
<event>
 5   0  0.3648616E-03  0.1197614E+04  0.7818609E-02  0.9114948E-01
        1   -1    0    0  501    0  0.00000000000E+00  0.00000000000E+00  0.53848817491E+03  0.53848817493E+03  0.50400001928E-02 0. -1.
       -1   -1    0    0    0  501  0.00000000000E+00  0.00000000000E+00 -0.66588201250E+03  0.66588201251E+03  0.50400001928E-02 0.  1.
    10030    2    1    2    0    0  0.00000000000E+00  0.00000000000E+00 -0.12739383759E+03  0.12043701874E+04  0.11976136099E+04 0.  0.
        2    1    3    3  502    0 -0.27576891357E+03  0.17209364649E+03 -0.56943059341E+03  0.65567973705E+03  0.25500000920E-02 0.  1.
       -2    1    3    3    0  502  0.27576891357E+03 -0.17209364649E+03  0.44203675583E+03  0.54869045040E+03  0.25500000920E-02 0. -1.
</event>
<event>
 5   0  0.6349142E-03  0.1175095E+04  0.7818609E-02  0.9134939E-01
       -2   -1    0    0    0  501  0.00000000000E+00  0.00000000000E+00  0.27085716656E+03  0.27085716657E+03  0.25500000920E-02 0.  1.
        2   -1    0    0  501    0  0.00000000000E+00  0.00000000000E+00 -0.12745176579E+04  0.12745176579E+04  0.25500000920E-02 0. -1.
    10030    2    1    2    0    0  0.00000000000E+00  0.00000000000E+00 -0.10036604913E+04  0.15453748244E+04  0.11750953009E+04 0.  0.
        1    1    3    3  502    0 -0.55494727413E+02 -0.56802763402E+03 -0.31829316308E+03  0.65348725731E+03  0.50400001928E-02 0.  1.
       -1    1    3    3    0  502  0.55494727413E+02  0.56802763402E+03 -0.68536732822E+03  0.89188756713E+03  0.50400001928E-02 0. -1.
</event>
<event>
 5   0  0.3701879E-03  0.1139063E+04  0.7818609E-02  0.9167933E-01
       -1   -1    0    0    0  501  0.00000000000E+00  0.00000000000E+00  0.27582671638E+03  0.27582671643E+03  0.50400001928E-02 0.  1.
        1   -1    0    0  501    0  0.00000000000E+00  0.00000000000E+00 -0.11759778649E+04  0.11759778649E+04  0.50400001928E-02 0. -1.
    10030    2    1    2    0    0  0.00000000000E+00  0.00000000000E+00 -0.90015114851E+03  0.14518045813E+04  0.11390629711E+04 0.  0.
        1    1    3    3  502    0 -0.33419191459E+03  0.42092205534E+03 -0.69024314450E+03  0.87481152885E+03  0.50400001928E-02 0. -1.
       -1    1    3    3    0  502  0.33419191459E+03 -0.42092205534E+03 -0.20990800401E+03  0.57699305249E+03  0.50400001928E-02 0.  1.
</event>
<event>
 5   0  0.3731281E-03  0.1298632E+04  0.7818609E-02  0.9030651E-01
       -1   -1    0    0    0  501  0.00000000000E+00  0.00000000000E+00  0.36308881657E+03  0.36308881660E+03  0.50400001928E-02 0.  1.
        1   -1    0    0  501    0  0.00000000000E+00  0.00000000000E+00 -0.11611788932E+04  0.11611788932E+04  0.50400001928E-02 0. -1.
    10030    2    1    2    0    0  0.00000000000E+00  0.00000000000E+00 -0.79809007667E+03  0.15242677098E+04  0.12986316956E+04 0.  0.
        5    1    3    3  502    0 -0.12551728199E+03  0.11676902060E+03  0.33602497599E+03  0.37725915063E+03  0.46999998093E+01 0.  1.
       -5    1    3    3    0  502  0.12551728199E+03 -0.11676902060E+03 -0.11341150527E+04  0.11470085592E+04  0.46999998093E+01 0. -1.
</event>
<event>
 5   0  0.6349142E-03  0.7009829E+03  0.7818609E-02  0.9715553E-01
        2   -1    0    0  501    0  0.00000000000E+00  0.00000000000E+00  0.13219332480E+04  0.13219332480E+04  0.25500000920E-02 0. -1.
       -2   -1    0    0    0  501  0.00000000000E+00  0.00000000000E+00 -0.92927728745E+02  0.92927728780E+02  0.25500000920E-02 0.  1.
    10030    2    1    2    0    0  0.00000000000E+00  0.00000000000E+00  0.12290055192E+04  0.14148609768E+04  0.70098289369E+03 0.  0.
        1    1    3    3  502    0 -0.30563971818E+03 -0.74972291850E+02  0.92593654876E+03  0.97795448475E+03  0.50400001928E-02 0. -1.
       -1    1    3    3    0  502  0.30563971818E+03  0.74972291850E+02  0.30306897047E+03  0.43690649201E+03  0.50400001928E-02 0.  1.
</event>
<event>
 5   0  0.3731281E-03  0.1079807E+04  0.7818609E-02  0.9225100E-01
       -1   -1    0    0    0  501  0.00000000000E+00  0.00000000000E+00  0.71805713363E+03  0.71805713364E+03  0.50400001928E-02 0.  1.
        1   -1    0    0  501    0  0.00000000000E+00  0.00000000000E+00 -0.40595093076E+03  0.40595093080E+03  0.50400001928E-02 0. -1.
    10030    2    1    2    0    0  0.00000000000E+00  0.00000000000E+00  0.31210620286E+03  0.11240080644E+04  0.10798073194E+04 0.  0.
        5    1    3    3  502    0  0.49842892109E+03  0.46951490167E+02  0.36640944104E+03  0.62041421670E+03  0.46999998093E+01 0.  1.
       -5    1    3    3    0  502 -0.49842892109E+03 -0.46951490167E+02 -0.54303238174E+02  0.50359384774E+03  0.46999998093E+01 0. -1.
</event>
<event>
 5   0  0.3772254E-03  0.1241474E+04  0.7818609E-02  0.9077309E-01
        1   -1    0    0  501    0  0.00000000000E+00  0.00000000000E+00  0.12000906448E+04  0.12000906449E+04  0.50400001928E-02 0. -1.
       -1   -1    0    0    0  501  0.00000000000E+00  0.00000000000E+00 -0.32107121244E+03  0.32107121248E+03  0.50400001928E-02 0.  1.
    10030    2    1    2    0    0  0.00000000000E+00  0.00000000000E+00  0.87901943241E+03  0.15211618573E+04  0.12414742179E+04 0.  0.
        3    1    3    3  502    0  0.55975854190E+03  0.17330365129E+03  0.69047154895E+03  0.90560187218E+03  0.10100000352E+00 0. -1.
       -3    1    3    3    0  502 -0.55975854190E+03 -0.17330365129E+03  0.18854788346E+03  0.61555998516E+03  0.10100000352E+00 0.  1.
</event>
<event>
 5   0  0.3944074E-03  0.1182675E+04  0.7818609E-02  0.9128158E-01
        1   -1    0    0  501    0  0.00000000000E+00  0.00000000000E+00  0.36695755289E+03  0.36695755292E+03  0.50400001928E-02 0. -1.
       -1   -1    0    0    0  501  0.00000000000E+00  0.00000000000E+00 -0.95291690320E+03  0.95291690322E+03  0.50400001928E-02 0.  1.
    10030    2    1    2    0    0  0.00000000000E+00  0.00000000000E+00 -0.58595935032E+03  0.13198744561E+04  0.11826750271E+04 0.  0.
        4    1    3    3  502    0 -0.93722833057E+02 -0.19381560432E+03 -0.90762540476E+03  0.93280970523E+03  0.12699999809E+01 0.  1.
       -4    1    3    3    0  502  0.93722833057E+02  0.19381560432E+03  0.32166605444E+03  0.38706475091E+03  0.12699999809E+01 0. -1.
</event>
<event>
 5   0  0.6640844E-03  0.1235161E+04  0.7818609E-02  0.9082625E-01
       -2   -1    0    0    0  501  0.00000000000E+00  0.00000000000E+00  0.75440317918E+03  0.75440317918E+03  0.25500000920E-02 0. -1.
        2   -1    0    0  501    0  0.00000000000E+00  0.00000000000E+00 -0.50557254841E+03  0.50557254842E+03  0.25500000920E-02 0.  1.
    10030    2    1    2    0    0  0.00000000000E+00  0.00000000000E+00  0.24883063077E+03  0.12599757276E+04  0.12351607796E+04 0.  0.
        5    1    3    3  502    0  0.48247293840E+03  0.35132388488E+03  0.28626879510E+03  0.66195205372E+03  0.46999998093E+01 0. -1.
       -5    1    3    3    0  502 -0.48247293840E+03 -0.35132388488E+03 -0.37438164331E+02  0.59802367388E+03  0.46999998093E+01 0.  1.
</event>
<event>
 5   0  0.6349142E-03  0.1167763E+04  0.7818609E-02  0.9141551E-01
       -2   -1    0    0    0  501  0.00000000000E+00  0.00000000000E+00  0.32945504557E+03  0.32945504558E+03  0.25500000920E-02 0. -1.
        2   -1    0    0  501    0  0.00000000000E+00  0.00000000000E+00 -0.10347916705E+04  0.10347916705E+04  0.25500000920E-02 0.  1.
    10030    2    1    2    0    0  0.00000000000E+00  0.00000000000E+00 -0.70533662493E+03  0.13642467161E+04  0.11677625392E+04 0.  0.
        1    1    3    3  502    0 -0.22705008184E+03 -0.15534964530E+03 -0.95432868373E+03  0.99319106348E+03  0.50400001928E-02 0.  1.
       -1    1    3    3    0  502  0.22705008184E+03  0.15534964530E+03  0.24899205880E+03  0.37105565261E+03  0.50400001928E-02 0. -1.
</event>
<event>
 5   0  0.3648616E-03  0.1221203E+04  0.7818609E-02  0.9094498E-01
       -1   -1    0    0    0  501  0.00000000000E+00  0.00000000000E+00  0.90283685350E+03  0.90283685352E+03  0.50400001928E-02 0. -1.
        1   -1    0    0  501    0  0.00000000000E+00  0.00000000000E+00 -0.41295844984E+03  0.41295844987E+03  0.50400001928E-02 0.  1.
    10030    2    1    2    0    0  0.00000000000E+00  0.00000000000E+00  0.48987840366E+03  0.13157953034E+04  0.12212028620E+04 0.  0.
        2    1    3    3  502    0 -0.14155445106E+03  0.47541603130E+03  0.62857498881E+03  0.80072753293E+03  0.25500000920E-02 0. -1.
       -2    1    3    3    0  502  0.14155445106E+03 -0.47541603130E+03 -0.13869658514E+03  0.51506777046E+03  0.25500000920E-02 0.  1.
</event>
<event>
 5   0  0.3731281E-03  0.1192215E+04  0.7818609E-02  0.9119698E-01
       -1   -1    0    0    0  501  0.00000000000E+00  0.00000000000E+00  0.67680298736E+03  0.67680298738E+03  0.50400001928E-02 0. -1.
        1   -1    0    0  501    0  0.00000000000E+00  0.00000000000E+00 -0.52503320140E+03  0.52503320142E+03  0.50400001928E-02 0.  1.
    10030    2    1    2    0    0  0.00000000000E+00  0.00000000000E+00  0.15176978596E+03  0.12018361888E+04  0.11922148115E+04 0.  0.
        5    1    3    3  502    0  0.47975829535E+02 -0.26418353309E+03 -0.46060104502E+03  0.53316979664E+03  0.46999998093E+01 0.  1.
       -5    1    3    3    0  502 -0.47975829535E+02  0.26418353309E+03  0.61237083098E+03  0.66866639216E+03  0.46999998093E+01 0. -1.
</event>
<event>
 5   0  0.6493047E-03  0.1232508E+04  0.7818609E-02  0.9084869E-01
       -2   -1    0    0    0  501  0.00000000000E+00  0.00000000000E+00  0.20161309095E+03  0.20161309096E+03  0.25500000920E-02 0.  1.
        2   -1    0    0  501    0  0.00000000000E+00  0.00000000000E+00 -0.18836511567E+04  0.18836511567E+04  0.25500000920E-02 0. -1.
    10030    2    1    2    0    0  0.00000000000E+00  0.00000000000E+00 -0.16820380658E+04  0.20852642477E+04  0.12325075773E+04 0.  0.
        3    1    3    3  502    0 -0.97008030322E+02  0.60853344741E+03 -0.82964340343E+03  0.10334561924E+04  0.10100000352E+00 0. -1.
       -3    1    3    3    0  502  0.97008030322E+02 -0.60853344741E+03 -0.85239466235E+03  0.10518080553E+04  0.10100000352E+00 0.  1.
</event>
<event>
 5   0  0.6349142E-03  0.1250769E+04  0.7818609E-02  0.9069544E-01
       -2   -1    0    0    0  501  0.00000000000E+00  0.00000000000E+00  0.55926332924E+03  0.55926332925E+03  0.25500000920E-02 0. -1.
        2   -1    0    0  501    0  0.00000000000E+00  0.00000000000E+00 -0.69932260025E+03  0.69932260025E+03  0.25500000920E-02 0.  1.
    10030    2    1    2    0    0  0.00000000000E+00  0.00000000000E+00 -0.14005927101E+03  0.12585859295E+04  0.12507685408E+04 0.  0.
        1    1    3    3  502    0  0.26186231489E+03 -0.56472387714E+03 -0.94825041329E+01  0.62255509578E+03  0.50400001928E-02 0. -1.
       -1    1    3    3    0  502 -0.26186231489E+03  0.56472387714E+03 -0.13057676688E+03  0.63603083372E+03  0.50400001928E-02 0.  1.
</event>
<event>
 5   0  0.2537625E-03  0.1203110E+04  0.7818609E-02  0.9110138E-01
       -3   -1    0    0    0  501  0.00000000000E+00  0.00000000000E+00  0.29722720109E+03  0.29722721826E+03  0.10100000352E+00 0. -1.
        3   -1    0    0  501    0  0.00000000000E+00  0.00000000000E+00 -0.12174816053E+04  0.12174816095E+04  0.10100000352E+00 0.  1.
    10030    2    1    2    0    0  0.00000000000E+00  0.00000000000E+00 -0.92025440417E+03  0.15147088277E+04  0.12031104124E+04 0.  0.
        3    1    3    3  502    0  0.45055495563E+03  0.21619160155E+03 -0.38542604592E+02  0.50122262438E+03  0.10100000352E+00 0. -1.
       -3    1    3    3    0  502 -0.45055495563E+03 -0.21619160155E+03 -0.88171179958E+03  0.10134862033E+04  0.10100000352E+00 0.  1.
</event>
<event>
 5   0  0.3731281E-03  0.1176667E+04  0.7818609E-02  0.9133529E-01
       -1   -1    0    0    0  501  0.00000000000E+00  0.00000000000E+00  0.58959639098E+03  0.58959639100E+03  0.50400001928E-02 0.  1.
        1   -1    0    0  501    0  0.00000000000E+00  0.00000000000E+00 -0.58707333819E+03  0.58707333821E+03  0.50400001928E-02 0. -1.
    10030    2    1    2    0    0  0.00000000000E+00  0.00000000000E+00  0.25230527905E+01  0.11766697292E+04  0.11766670242E+04 0.  0.
        5    1    3    3  502    0  0.57989050817E+03 -0.72400957384E+02 -0.66556999911E+02  0.58818944596E+03  0.46999998093E+01 0. -1.
       -5    1    3    3    0  502 -0.57989050817E+03  0.72400957384E+02  0.69080052702E+02  0.58848028325E+03  0.46999998093E+01 0.  1.
</event>
<event>
 5   0  0.3648616E-03  0.1191555E+04  0.7818609E-02  0.9120280E-01
        1   -1    0    0  501    0  0.00000000000E+00  0.00000000000E+00  0.53226183671E+03  0.53226183673E+03  0.50400001928E-02 0.  1.
       -1   -1    0    0    0  501  0.00000000000E+00  0.00000000000E+00 -0.66687305324E+03  0.66687305326E+03  0.50400001928E-02 0. -1.
    10030    2    1    2    0    0  0.00000000000E+00  0.00000000000E+00 -0.13461121653E+03  0.11991348900E+04  0.11915554141E+04 0.  0.
        2    1    3    3  502    0 -0.53804465593E+01  0.17855875717E+03  0.50467486743E+03  0.53535866556E+03  0.25500000920E-02 0.  1.
       -2    1    3    3    0  502  0.53804465593E+01 -0.17855875717E+03 -0.63928608396E+03  0.66377622443E+03  0.25500000920E-02 0. -1.
</event>
<event>
 5   0  0.3731281E-03  0.1182664E+04  0.7818609E-02  0.9128167E-01
       -1   -1    0    0    0  501  0.00000000000E+00  0.00000000000E+00  0.40332794242E+03  0.40332794245E+03  0.50400001928E-02 0.  1.
        1   -1    0    0  501    0  0.00000000000E+00  0.00000000000E+00 -0.86697133897E+03  0.86697133898E+03  0.50400001928E-02 0. -1.
    10030    2    1    2    0    0  0.00000000000E+00  0.00000000000E+00 -0.46364339655E+03  0.12702992814E+04  0.11826643925E+04 0.  0.
        5    1    3    3  502    0  0.67971248603E+02  0.12334642354E+03  0.38503063419E+03  0.41000623178E+03  0.46999998093E+01 0.  1.
       -5    1    3    3    0  502 -0.67971248603E+02 -0.12334642354E+03 -0.84867403074E+03  0.86029304965E+03  0.46999998093E+01 0. -1.
</event>
<event>
 5   0  0.3648616E-03  0.9761594E+03  0.7818609E-02  0.9335086E-01
       -1   -1    0    0    0  501  0.00000000000E+00  0.00000000000E+00  0.12922429363E+04  0.12922429363E+04  0.50400001928E-02 0.  1.
        1   -1    0    0  501    0  0.00000000000E+00  0.00000000000E+00 -0.18434753392E+03  0.18434753399E+03  0.50400001928E-02 0. -1.
    10030    2    1    2    0    0  0.00000000000E+00  0.00000000000E+00  0.11078954024E+04  0.14765904703E+04  0.97615941032E+03 0.  0.
        2    1    3    3  502    0 -0.53176017276E+02 -0.17242498248E+03  0.12399383182E+04  0.12529984422E+04  0.25500000920E-02 0.  1.
       -2    1    3    3    0  502  0.53176017276E+02  0.17242498248E+03 -0.13204291578E+03  0.22359202806E+03  0.25500000920E-02 0. -1.
</event>
<event>
 5   0  0.3731281E-03  0.1208876E+04  0.7818609E-02  0.9105123E-01
        1   -1    0    0  501    0  0.00000000000E+00  0.00000000000E+00  0.10857992340E+04  0.10857992340E+04  0.50400001928E-02 0. -1.
       -1   -1    0    0    0  501  0.00000000000E+00  0.00000000000E+00 -0.33647598936E+03  0.33647598940E+03  0.50400001928E-02 0.  1.
    10030    2    1    2    0    0  0.00000000000E+00  0.00000000000E+00  0.74932324468E+03  0.14222752234E+04  0.12088761253E+04 0.  0.
        5    1    3    3  502    0  0.57268388224E+03 -0.17008608155E+03  0.26665685816E+03  0.65423548828E+03  0.46999998093E+01 0. -1.
       -5    1    3    3    0  502 -0.57268388224E+03  0.17008608155E+03  0.48266638652E+03  0.76803973517E+03  0.46999998093E+01 0.  1.
</event>
<event>
 5   0  0.2537625E-03  0.1200905E+04  0.7818609E-02  0.9112065E-01
        4   -1    0    0  501    0  0.00000000000E+00  0.00000000000E+00  0.43614691703E+03  0.43614876606E+03  0.12699999809E+01 0.  1.
       -4   -1    0    0    0  501  0.00000000000E+00  0.00000000000E+00 -0.82665068162E+03  0.82665165718E+03  0.12699999809E+01 0. -1.
    10030    2    1    2    0    0  0.00000000000E+00  0.00000000000E+00 -0.39050376459E+03  0.12628004232E+04  0.12009045419E+04 0.  0.
        1    1    3    3  502    0  0.46062675679E+02  0.52923022997E+03  0.99060394070E+02  0.54038816429E+03  0.50400001928E-02 0.  1.
       -1    1    3    3    0  502 -0.46062675679E+02 -0.52923022997E+03 -0.48956415866E+03  0.72241225895E+03  0.50400001928E-02 0. -1.
</event>
<event>
 5   0  0.6493047E-03  0.1214594E+04  0.7818609E-02  0.9100178E-01
        2   -1    0    0  501    0  0.00000000000E+00  0.00000000000E+00  0.17005553856E+04  0.17005553856E+04  0.25500000920E-02 0.  1.
       -2   -1    0    0    0  501  0.00000000000E+00  0.00000000000E+00 -0.21687589310E+03  0.21687589311E+03  0.25500000920E-02 0. -1.
    10030    2    1    2    0    0  0.00000000000E+00  0.00000000000E+00  0.14836794925E+04  0.19174312787E+04  0.12145937066E+04 0.  0.
        3    1    3    3  502    0  0.32490763229E+03  0.38687136720E+03  0.12738625138E+04  0.13703868573E+04  0.10100000352E+00 0.  1.
       -3    1    3    3    0  502 -0.32490763229E+03 -0.38687136720E+03  0.20981697869E+03  0.54704442144E+03  0.10100000352E+00 0. -1.
</event>
<event>
 5   0  0.6585930E-03  0.1252972E+04  0.7818609E-02  0.9067714E-01
       -2   -1    0    0    0  501  0.00000000000E+00  0.00000000000E+00  0.61546542065E+03  0.61546542066E+03  0.25500000920E-02 0. -1.
        2   -1    0    0  501    0  0.00000000000E+00  0.00000000000E+00 -0.63770364305E+03  0.63770364306E+03  0.25500000920E-02 0.  1.
    10030    2    1    2    0    0  0.00000000000E+00  0.00000000000E+00 -0.22238222399E+02  0.12531690637E+04  0.12529717330E+04 0.  0.
        2    1    3    3  502    0  0.38058750349E+03 -0.44029628501E+02  0.48463937979E+03  0.61778700573E+03  0.25500000920E-02 0. -1.
       -2    1    3    3    0  502 -0.38058750349E+03  0.44029628501E+02 -0.50687760219E+03  0.63538205798E+03  0.25500000920E-02 0.  1.
</event>
<event>
 5   0  0.6349142E-03  0.1210287E+04  0.7818609E-02  0.9103900E-01
       -2   -1    0    0    0  501  0.00000000000E+00  0.00000000000E+00  0.61256411786E+03  0.61256411787E+03  0.25500000920E-02 0.  1.
        2   -1    0    0  501    0  0.00000000000E+00  0.00000000000E+00 -0.59781253643E+03  0.59781253644E+03  0.25500000920E-02 0. -1.
    10030    2    1    2    0    0  0.00000000000E+00  0.00000000000E+00  0.14751581429E+02  0.12103766543E+04  0.12102867578E+04 0.  0.
        1    1    3    3  502    0 -0.43518862787E+03  0.41759806506E+03  0.56585372463E+02  0.60578807365E+03  0.50400001928E-02 0.  1.
       -1    1    3    3    0  502  0.43518862787E+03 -0.41759806506E+03 -0.41833791035E+02  0.60458858066E+03  0.50400001928E-02 0. -1.
</event>
<event>
 5   0  0.3648616E-03  0.1228087E+04  0.7818609E-02  0.9088621E-01
       -1   -1    0    0    0  501  0.00000000000E+00  0.00000000000E+00  0.32044785319E+03  0.32044785323E+03  0.50400001928E-02 0. -1.
        1   -1    0    0  501    0  0.00000000000E+00  0.00000000000E+00 -0.11766334197E+04  0.11766334197E+04  0.50400001928E-02 0.  1.
    10030    2    1    2    0    0  0.00000000000E+00  0.00000000000E+00 -0.85618556654E+03  0.14970812730E+04  0.12280873803E+04 0.  0.
        2    1    3    3  502    0 -0.47115596703E+03 -0.36162975233E+03 -0.23812025646E+03  0.63989474102E+03  0.25500000920E-02 0. -1.
       -2    1    3    3    0  502  0.47115596703E+03  0.36162975233E+03 -0.61806531008E+03  0.85718653195E+03  0.25500000920E-02 0.  1.
</event>
<event>
 5   0  0.6658994E-03  0.1222599E+04  0.7818609E-02  0.9093302E-01
       -2   -1    0    0    0  501  0.00000000000E+00  0.00000000000E+00  0.24468569535E+03  0.24468569536E+03  0.25500000920E-02 0.  1.
        2   -1    0    0  501    0  0.00000000000E+00  0.00000000000E+00 -0.15272126599E+04  0.15272126599E+04  0.25500000920E-02 0. -1.
    10030    2    1    2    0    0  0.00000000000E+00  0.00000000000E+00 -0.12825269646E+04  0.17718983553E+04  0.12225990212E+04 0.  0.
        4    1    3    3  502    0  0.16227107608E+03 -0.37670983153E+03  0.15638739510E+02  0.41047336379E+03  0.12699999809E+01 0.  1.
       -4    1    3    3    0  502 -0.16227107608E+03  0.37670983153E+03 -0.12981657041E+04  0.13614249915E+04  0.12699999809E+01 0. -1.
</event>
<event>
 5   0  0.3944074E-03  0.1215187E+04  0.7818609E-02  0.9099666E-01
        1   -1    0    0  501    0  0.00000000000E+00  0.00000000000E+00  0.10108996744E+04  0.10108996744E+04  0.50400001928E-02 0.  1.
       -1   -1    0    0    0  501  0.00000000000E+00  0.00000000000E+00 -0.36518958454E+03  0.36518958458E+03  0.50400001928E-02 0. -1.
    10030    2    1    2    0    0  0.00000000000E+00  0.00000000000E+00  0.64571008986E+03  0.13760892590E+04  0.12151872813E+04 0.  0.
        4    1    3    3  502    0  0.26065097497E+03 -0.53848296599E+03  0.44304834003E+03  0.74444360425E+03  0.12699999809E+01 0.  1.
       -4    1    3    3    0  502 -0.26065097497E+03  0.53848296599E+03  0.20266174984E+03  0.63164565475E+03  0.12699999809E+01 0. -1.
</event>
<event>
 5   0  0.3648616E-03  0.1193426E+04  0.7818609E-02  0.9118630E-01
        1   -1    0    0  501    0  0.00000000000E+00  0.00000000000E+00  0.51929930546E+03  0.51929930548E+03  0.50400001928E-02 0.  1.
       -1   -1    0    0    0  501  0.00000000000E+00  0.00000000000E+00 -0.68566714468E+03  0.68566714470E+03  0.50400001928E-02 0. -1.
    10030    2    1    2    0    0  0.00000000000E+00  0.00000000000E+00 -0.16636783923E+03  0.12049664502E+04  0.11934261134E+04 0.  0.
        2    1    3    3  502    0 -0.58049444512E+03 -0.16014300231E+02  0.55388314752E+02  0.58335077273E+03  0.25500000920E-02 0. -1.
       -2    1    3    3    0  502  0.58049444512E+03  0.16014300231E+02 -0.22175615398E+03  0.62161567746E+03  0.25500000920E-02 0.  1.
</event>
<event>
 5   0  0.6493047E-03  0.1209162E+04  0.7818609E-02  0.9104874E-01
       -2   -1    0    0    0  501  0.00000000000E+00  0.00000000000E+00  0.40981333518E+03  0.40981333519E+03  0.25500000920E-02 0.  1.
        2   -1    0    0  501    0  0.00000000000E+00  0.00000000000E+00 -0.89191448018E+03  0.89191448019E+03  0.25500000920E-02 0. -1.
    10030    2    1    2    0    0  0.00000000000E+00  0.00000000000E+00 -0.48210114500E+03  0.13017278154E+04  0.12091624338E+04 0.  0.
        3    1    3    3  502    0  0.27442555326E+03 -0.25458050314E+03 -0.75215588524E+03  0.84015421368E+03  0.10100000352E+00 0. -1.
       -3    1    3    3    0  502 -0.27442555326E+03  0.25458050314E+03  0.27005474024E+03  0.46157360170E+03  0.10100000352E+00 0.  1.
</event>
<event>
 5   0  0.3731281E-03  0.1223923E+04  0.7818609E-02  0.9092171E-01
        1   -1    0    0  501    0  0.00000000000E+00  0.00000000000E+00  0.93879379661E+03  0.93879379662E+03  0.50400001928E-02 0. -1.
       -1   -1    0    0    0  501  0.00000000000E+00  0.00000000000E+00 -0.39891280218E+03  0.39891280221E+03  0.50400001928E-02 0.  1.
    10030    2    1    2    0    0  0.00000000000E+00  0.00000000000E+00  0.53988099443E+03  0.13377065988E+04  0.12239229781E+04 0.  0.
        5    1    3    3  502    0  0.35426217676E+03  0.44920681032E+03  0.32521830392E+02  0.57303421169E+03  0.46999998093E+01 0.  1.
       -5    1    3    3    0  502 -0.35426217676E+03 -0.44920681032E+03  0.50735916404E+03  0.76467238714E+03  0.46999998093E+01 0. -1.
</event>
<event>
 5   0  0.6493047E-03  0.1229424E+04  0.7818609E-02  0.9087485E-01
       -2   -1    0    0    0  501  0.00000000000E+00  0.00000000000E+00  0.53818721639E+03  0.53818721639E+03  0.25500000920E-02 0. -1.
        2   -1    0    0  501    0  0.00000000000E+00  0.00000000000E+00 -0.70211739153E+03  0.70211739154E+03  0.25500000920E-02 0.  1.
    10030    2    1    2    0    0  0.00000000000E+00  0.00000000000E+00 -0.16393017515E+03  0.12403046079E+04  0.12294236122E+04 0.  0.
        3    1    3    3  502    0 -0.59360379216E+03 -0.11933998573E+03  0.25101948094E+02  0.60600133025E+03  0.10100000352E+00 0.  1.
       -3    1    3    3    0  502  0.59360379216E+03  0.11933998573E+03 -0.18903212324E+03  0.63430327768E+03  0.10100000352E+00 0. -1.
</event>
<event>
 5   0  0.2537625E-03  0.1178744E+04  0.7818609E-02  0.9131668E-01
        3   -1    0    0  501    0  0.00000000000E+00  0.00000000000E+00  0.63371427008E+03  0.63371427813E+03  0.10100000352E+00 0. -1.
       -3   -1    0    0    0  501  0.00000000000E+00  0.00000000000E+00 -0.54813199850E+03  0.54813200781E+03  0.10100000352E+00 0.  1.
    10030    2    1    2    0    0  0.00000000000E+00  0.00000000000E+00  0.85582271580E+02  0.11818462859E+04  0.11787435338E+04 0.  0.
        5    1    3    3  502    0  0.20127098307E+03 -0.62397228171E+02  0.59463392312E+03  0.63088431208E+03  0.46999998093E+01 0. -1.
       -5    1    3    3    0  502 -0.20127098307E+03  0.62397228171E+02 -0.50905165154E+03  0.55096197386E+03  0.46999998093E+01 0.  1.
</event>
<event>
 5   0  0.3944074E-03  0.1147591E+04  0.7818609E-02  0.9160009E-01
       -1   -1    0    0    0  501  0.00000000000E+00  0.00000000000E+00  0.24935726397E+03  0.24935726402E+03  0.50400001928E-02 0.  1.
        1   -1    0    0  501    0  0.00000000000E+00  0.00000000000E+00 -0.13203603625E+04  0.13203603625E+04  0.50400001928E-02 0. -1.
    10030    2    1    2    0    0  0.00000000000E+00  0.00000000000E+00 -0.10710030985E+04  0.15697176265E+04  0.11475912992E+04 0.  0.
        4    1    3    3  502    0 -0.19259181271E+03  0.53363809520E+03 -0.41800594637E+03  0.70469270400E+03  0.12699999809E+01 0.  1.
       -4    1    3    3    0  502  0.19259181271E+03 -0.53363809520E+03 -0.65299715218E+03  0.86502492255E+03  0.12699999809E+01 0. -1.
</event>
<event>
 5   0  0.3731281E-03  0.1155539E+04  0.7818609E-02  0.9152689E-01
       -1   -1    0    0    0  501  0.00000000000E+00  0.00000000000E+00  0.66440131827E+03  0.66440131829E+03  0.50400001928E-02 0. -1.
        1   -1    0    0  501    0  0.00000000000E+00  0.00000000000E+00 -0.50243329403E+03  0.50243329406E+03  0.50400001928E-02 0.  1.
    10030    2    1    2    0    0  0.00000000000E+00  0.00000000000E+00  0.16196802424E+03  0.11668346123E+04  0.11555385635E+04 0.  0.
        5    1    3    3  502    0  0.28140707705E+03 -0.27090511176E+03  0.51083982746E+03  0.64308548569E+03  0.46999998093E+01 0. -1.
       -5    1    3    3    0  502 -0.28140707705E+03  0.27090511176E+03 -0.34887180322E+03  0.52374912665E+03  0.46999998093E+01 0.  1.
</event>
<event>
 5   0  0.6640844E-03  0.1201244E+04  0.7818609E-02  0.9111768E-01
       -2   -1    0    0    0  501  0.00000000000E+00  0.00000000000E+00  0.23616944401E+03  0.23616944402E+03  0.25500000920E-02 0.  1.
        2   -1    0    0  501    0  0.00000000000E+00  0.00000000000E+00 -0.15274913825E+04  0.15274913825E+04  0.25500000920E-02 0. -1.
    10030    2    1    2    0    0  0.00000000000E+00  0.00000000000E+00 -0.12913219385E+04  0.17636608265E+04  0.12012440061E+04 0.  0.
        5    1    3    3  502    0  0.54677228743E+02 -0.59795306876E+03 -0.62557142372E+03  0.86712119566E+03  0.46999998093E+01 0.  1.
       -5    1    3    3    0  502 -0.54677228743E+02  0.59795306876E+03 -0.66575051474E+03  0.89653963084E+03  0.46999998093E+01 0. -1.
</event>
<event>
 5   0  0.3701879E-03  0.1236482E+04  0.7818609E-02  0.9081510E-01
       -1   -1    0    0    0  501  0.00000000000E+00  0.00000000000E+00  0.56663742796E+03  0.56663742799E+03  0.50400001928E-02 0. -1.
        1   -1    0    0  501    0  0.00000000000E+00  0.00000000000E+00 -0.67454363742E+03  0.67454363744E+03  0.50400001928E-02 0.  1.
    10030    2    1    2    0    0  0.00000000000E+00  0.00000000000E+00 -0.10790620945E+03  0.12411810654E+04  0.12364815757E+04 0.  0.
        1    1    3    3  502    0 -0.42927793080E+03 -0.35826765160E+03  0.21084186965E+03  0.59756969976E+03  0.50400001928E-02 0.  1.
       -1    1    3    3    0  502  0.42927793080E+03  0.35826765160E+03 -0.31874807910E+03  0.64361136566E+03  0.50400001928E-02 0. -1.
</event>
<event>
 5   0  0.6640844E-03  0.1194136E+04  0.7818609E-02  0.9118004E-01
       -2   -1    0    0    0  501  0.00000000000E+00  0.00000000000E+00  0.21130469366E+03  0.21130469367E+03  0.25500000920E-02 0.  1.
        2   -1    0    0  501    0  0.00000000000E+00  0.00000000000E+00 -0.16870920335E+04  0.16870920335E+04  0.25500000920E-02 0. -1.
    10030    2    1    2    0    0  0.00000000000E+00  0.00000000000E+00 -0.14757873399E+04  0.18983967272E+04  0.11941364501E+04 0.  0.
        5    1    3    3  502    0 -0.34674771273E+03 -0.36345632823E+03 -0.12509075094E+04  0.13480082217E+04  0.46999998093E+01 0. -1.
       -5    1    3    3    0  502  0.34674771273E+03  0.36345632823E+03 -0.22487983050E+03  0.55038850549E+03  0.46999998093E+01 0.  1.
</event>
<event>
 5   0  0.3648616E-03  0.1188693E+04  0.7818609E-02  0.9122811E-01
        1   -1    0    0  501    0  0.00000000000E+00  0.00000000000E+00  0.15747047846E+04  0.15747047846E+04  0.50400001928E-02 0.  1.
       -1   -1    0    0    0  501  0.00000000000E+00  0.00000000000E+00 -0.22432642921E+03  0.22432642926E+03  0.50400001928E-02 0. -1.
    10030    2    1    2    0    0  0.00000000000E+00  0.00000000000E+00  0.13503783554E+04  0.17990312139E+04  0.11886932345E+04 0.  0.
        2    1    3    3  502    0  0.19291273433E+03 -0.48143240591E+03  0.11144958744E+04  0.12292654468E+04  0.25500000920E-02 0.  1.
       -2    1    3    3    0  502 -0.19291273433E+03  0.48143240591E+03  0.23588248099E+03  0.56976576711E+03  0.25500000920E-02 0. -1.
</event>
<event>
 5   0  0.3772254E-03  0.1222995E+04  0.7818609E-02  0.9092964E-01
        1   -1    0    0  501    0  0.00000000000E+00  0.00000000000E+00  0.71010017232E+03  0.71010017234E+03  0.50400001928E-02 0.  1.
       -1   -1    0    0    0  501  0.00000000000E+00  0.00000000000E+00 -0.52658672270E+03  0.52658672272E+03  0.50400001928E-02 0. -1.
    10030    2    1    2    0    0  0.00000000000E+00  0.00000000000E+00  0.18351344962E+03  0.12366868951E+04  0.12229952127E+04 0.  0.
        3    1    3    3  502    0 -0.15408501449E+03  0.39632864976E+03 -0.35260658763E+03  0.55240384335E+03  0.10100000352E+00 0. -1.
       -3    1    3    3    0  502  0.15408501449E+03 -0.39632864976E+03  0.53612003725E+03  0.68428305171E+03  0.10100000352E+00 0.  1.
</event>
<event>
 5   0  0.2537625E-03  0.1194702E+04  0.7818609E-02  0.9117507E-01
        3   -1    0    0  501    0  0.00000000000E+00  0.00000000000E+00  0.57999983686E+03  0.57999984566E+03  0.10100000352E+00 0.  1.
       -3   -1    0    0    0  501  0.00000000000E+00  0.00000000000E+00 -0.61522081459E+03  0.61522082288E+03  0.10100000352E+00 0. -1.
    10030    2    1    2    0    0  0.00000000000E+00  0.00000000000E+00 -0.35220977727E+02  0.11952206685E+04  0.11947016068E+04 0.  0.
        3    1    3    3  502    0 -0.34262630845E+03  0.10781783827E+03 -0.49511283983E+03  0.61168145947E+03  0.10100000352E+00 0. -1.
       -3    1    3    3    0  502  0.34262630845E+03 -0.10781783827E+03  0.45989186211E+03  0.58353920907E+03  0.10100000352E+00 0.  1.
</event>
<event>
 5   0  0.3731281E-03  0.1207961E+04  0.7818609E-02  0.9105917E-01
        1   -1    0    0  501    0  0.00000000000E+00  0.00000000000E+00  0.13253559726E+04  0.13253559726E+04  0.50400001928E-02 0.  1.
       -1   -1    0    0    0  501  0.00000000000E+00  0.00000000000E+00 -0.27524109895E+03  0.27524109900E+03  0.50400001928E-02 0. -1.
    10030    2    1    2    0    0  0.00000000000E+00  0.00000000000E+00  0.10501148736E+04  0.16005970716E+04  0.12079609835E+04 0.  0.
        5    1    3    3  502    0  0.36405987769E+03  0.24145684168E+03  0.10776633652E+04  0.11628505578E+04  0.46999998093E+01 0.  1.
       -5    1    3    3    0  502 -0.36405987769E+03 -0.24145684168E+03 -0.27548491643E+02  0.43774651378E+03  0.46999998093E+01 0. -1.
</event>
<event>
 5   0  0.6585930E-03  0.1180150E+04  0.7818609E-02  0.9130411E-01
        2   -1    0    0  501    0  0.00000000000E+00  0.00000000000E+00  0.21911630396E+04  0.21911630396E+04  0.25500000920E-02 0.  1.
       -2   -1    0    0    0  501  0.00000000000E+00  0.00000000000E+00 -0.15890571237E+03  0.15890571239E+03  0.25500000920E-02 0. -1.
    10030    2    1    2    0    0  0.00000000000E+00  0.00000000000E+00  0.20322573272E+04  0.23500687520E+04  0.11801496918E+04 0.  0.
        2    1    3    3  502    0  0.78539738019E+02 -0.51175116399E+03  0.15798216253E+04  0.16624963495E+04  0.25500000920E-02 0.  1.
       -2    1    3    3    0  502 -0.78539738019E+02  0.51175116399E+03  0.45243570194E+03  0.68757240250E+03  0.25500000920E-02 0. -1.
</event>
<event>
 5   0  0.6349142E-03  0.1183549E+04  0.7818609E-02  0.9127379E-01
       -2   -1    0    0    0  501  0.00000000000E+00  0.00000000000E+00  0.42579228431E+03  0.42579228432E+03  0.25500000920E-02 0. -1.
        2   -1    0    0  501    0  0.00000000000E+00  0.00000000000E+00 -0.82246024512E+03  0.82246024513E+03  0.25500000920E-02 0.  1.
    10030    2    1    2    0    0  0.00000000000E+00  0.00000000000E+00 -0.39666796081E+03  0.12482525294E+04  0.11835492834E+04 0.  0.
        1    1    3    3  502    0  0.55008229151E+03  0.16907273038E+03 -0.34379078642E+03  0.67034932718E+03  0.50400001928E-02 0.  1.
       -1    1    3    3    0  502 -0.55008229151E+03 -0.16907273038E+03 -0.52877174388E+02  0.57790320227E+03  0.50400001928E-02 0. -1.
</event>
<event>
 5   0  0.3701879E-03  0.1211694E+04  0.7818609E-02  0.9102682E-01
        1   -1    0    0  501    0  0.00000000000E+00  0.00000000000E+00  0.45374338175E+03  0.45374338178E+03  0.50400001928E-02 0.  1.
       -1   -1    0    0    0  501  0.00000000000E+00  0.00000000000E+00 -0.80893806179E+03  0.80893806181E+03  0.50400001928E-02 0. -1.
    10030    2    1    2    0    0  0.00000000000E+00  0.00000000000E+00 -0.35519468004E+03  0.12626814436E+04  0.12116935121E+04 0.  0.
        1    1    3    3  502    0 -0.20823032654E+03  0.59958530448E+02 -0.76717460820E+03  0.79718992326E+03  0.50400001928E-02 0. -1.
       -1    1    3    3    0  502  0.20823032654E+03 -0.59958530448E+02  0.41197992816E+03  0.46549152032E+03  0.50400001928E-02 0.  1.
</event>
<event>
 5   0  0.3772254E-03  0.9111406E+03  0.7818609E-02  0.9411761E-01
       -1   -1    0    0    0  501  0.00000000000E+00  0.00000000000E+00  0.84538039746E+03  0.84538039747E+03  0.50400001928E-02 0. -1.
        1   -1    0    0  501    0  0.00000000000E+00  0.00000000000E+00 -0.24550404038E+03  0.24550404043E+03  0.50400001928E-02 0.  1.
    10030    2    1    2    0    0  0.00000000000E+00  0.00000000000E+00  0.59987635708E+03  0.10908844379E+04  0.91114061103E+03 0.  0.
        3    1    3    3  502    0  0.14376420428E+03 -0.33116262843E+02 -0.21611230566E+03  0.26166652854E+03  0.10100000352E+00 0.  1.
       -3    1    3    3    0  502 -0.14376420428E+03  0.33116262843E+02  0.81598866274E+03  0.82921790937E+03  0.10100000352E+00 0. -1.
</event>
<event>
 5   0  0.3772254E-03  0.7348139E+03  0.7818609E-02  0.9659481E-01
       -1   -1    0    0    0  501  0.00000000000E+00  0.00000000000E+00  0.35589777914E+03  0.35589777918E+03  0.50400001928E-02 0.  1.
        1   -1    0    0  501    0  0.00000000000E+00  0.00000000000E+00 -0.37928827996E+03  0.37928827999E+03  0.50400001928E-02 0. -1.
    10030    2    1    2    0    0  0.00000000000E+00  0.00000000000E+00 -0.23390500814E+02  0.73518605917E+03  0.73481387172E+03 0.  0.
        3    1    3    3  502    0  0.10811207305E+03 -0.25313672903E+03  0.23178253003E+03  0.35984659975E+03  0.10100000352E+00 0.  1.
       -3    1    3    3    0  502 -0.10811207305E+03  0.25313672903E+03 -0.25517303084E+03  0.37533945942E+03  0.10100000352E+00 0. -1.
</event>
<event>
 5   0  0.3648616E-03  0.1191874E+04  0.7818609E-02  0.9119999E-01
        1   -1    0    0  501    0  0.00000000000E+00  0.00000000000E+00  0.48214865761E+03  0.48214865764E+03  0.50400001928E-02 0.  1.
       -1   -1    0    0    0  501  0.00000000000E+00  0.00000000000E+00 -0.73657970083E+03  0.73657970084E+03  0.50400001928E-02 0. -1.
    10030    2    1    2    0    0  0.00000000000E+00  0.00000000000E+00 -0.25443104321E+03  0.12187283585E+04  0.11918740101E+04 0.  0.
        2    1    3    3  502    0 -0.21491476691E+03  0.12045245838E+03 -0.68206827592E+03  0.72519947931E+03  0.25500000920E-02 0. -1.
       -2    1    3    3    0  502  0.21491476691E+03 -0.12045245838E+03  0.42763723271E+03  0.49352887917E+03  0.25500000920E-02 0.  1.
</event>
<event>
 5   0  0.6349142E-03  0.1293300E+04  0.7818609E-02  0.9034895E-01
       -2   -1    0    0    0  501  0.00000000000E+00  0.00000000000E+00  0.26575252134E+03  0.26575252135E+03  0.25500000920E-02 0. -1.
        2   -1    0    0  501    0  0.00000000000E+00  0.00000000000E+00 -0.15734808436E+04  0.15734808436E+04  0.25500000920E-02 0.  1.
    10030    2    1    2    0    0  0.00000000000E+00  0.00000000000E+00 -0.13077283222E+04  0.18392333649E+04  0.12933004314E+04 0.  0.
        1    1    3    3  502    0 -0.61174211788E+03  0.74361793507E+02 -0.93253659725E+03  0.11177578451E+04  0.50400001928E-02 0.  1.
       -1    1    3    3    0  502  0.61174211788E+03 -0.74361793507E+02 -0.37519172496E+03  0.72147551977E+03  0.50400001928E-02 0. -1.
</event>
<event>
 5   0  0.6493047E-03  0.1001467E+04  0.7818609E-02  0.9306938E-01
        2   -1    0    0  501    0  0.00000000000E+00  0.00000000000E+00  0.66682934381E+03  0.66682934382E+03  0.25500000920E-02 0. -1.
       -2   -1    0    0    0  501  0.00000000000E+00  0.00000000000E+00 -0.37600900028E+03  0.37600900029E+03  0.25500000920E-02 0.  1.
    10030    2    1    2    0    0  0.00000000000E+00  0.00000000000E+00  0.29082034353E+03  0.10428383441E+04  0.10014665944E+04 0.  0.
        3    1    3    3  502    0  0.21623956796E+03  0.21965507452E+03  0.55633367301E+03  0.63601499074E+03  0.10100000352E+00 0. -1.
       -3    1    3    3    0  502 -0.21623956796E+03 -0.21965507452E+03 -0.26551332949E+03  0.40682335337E+03  0.10100000352E+00 0.  1.
</event>
<event>
 5   0  0.3772254E-03  0.1207530E+04  0.7818609E-02  0.9106291E-01
        1   -1    0    0  501    0  0.00000000000E+00  0.00000000000E+00  0.79418763055E+03  0.79418763057E+03  0.50400001928E-02 0. -1.
       -1   -1    0    0    0  501  0.00000000000E+00  0.00000000000E+00 -0.45899982153E+03  0.45899982155E+03  0.50400001928E-02 0.  1.
    10030    2    1    2    0    0  0.00000000000E+00  0.00000000000E+00  0.33518780903E+03  0.12531874521E+04  0.12075296778E+04 0.  0.
        3    1    3    3  502    0 -0.10238400219E+00  0.59423773814E+03  0.56720575783E+02  0.59693863490E+03  0.10100000352E+00 0.  1.
       -3    1    3    3    0  502  0.10238400219E+00 -0.59423773814E+03  0.27846723325E+03  0.65624881722E+03  0.10100000352E+00 0. -1.
</event>
<event>
 5   0  0.6658994E-03  0.1233510E+04  0.7818609E-02  0.9084021E-01
        2   -1    0    0  501    0  0.00000000000E+00  0.00000000000E+00  0.12774697473E+04  0.12774697473E+04  0.25500000920E-02 0. -1.
       -2   -1    0    0    0  501  0.00000000000E+00  0.00000000000E+00 -0.29776561971E+03  0.29776561972E+03  0.25500000920E-02 0.  1.
    10030    2    1    2    0    0  0.00000000000E+00  0.00000000000E+00  0.97970412755E+03  0.15752353670E+04  0.12335097421E+04 0.  0.
        4    1    3    3  502    0 -0.51898320524E+03 -0.33042175208E+03  0.43473417542E+03  0.75333758551E+03  0.12699999809E+01 0. -1.
       -4    1    3    3    0  502  0.51898320524E+03  0.33042175208E+03  0.54496995213E+03  0.82189778148E+03  0.12699999809E+01 0.  1.
</event>
<event>
 5   0  0.3772254E-03  0.1205109E+04  0.7818609E-02  0.9108397E-01
       -1   -1    0    0    0  501  0.00000000000E+00  0.00000000000E+00  0.19169197030E+03  0.19169197037E+03  0.50400001928E-02 0.  1.
        1   -1    0    0  501    0  0.00000000000E+00  0.00000000000E+00 -0.18940369804E+04  0.18940369804E+04  0.50400001928E-02 0. -1.
    10030    2    1    2    0    0  0.00000000000E+00  0.00000000000E+00 -0.17023450101E+04  0.20857289508E+04  0.12051085937E+04 0.  0.
        3    1    3    3  502    0  0.48586388305E+03  0.11106084637E+03 -0.14372608941E+04  0.15212222429E+04  0.10100000352E+00 0. -1.
       -3    1    3    3    0  502 -0.48586388305E+03 -0.11106084637E+03 -0.26508411599E+03  0.56450670784E+03  0.10100000352E+00 0.  1.
</event>
<event>
 5   0  0.3772254E-03  0.1208384E+04  0.7818609E-02  0.9105549E-01
       -1   -1    0    0    0  501  0.00000000000E+00  0.00000000000E+00  0.24179991625E+03  0.24179991631E+03  0.50400001928E-02 0. -1.
        1   -1    0    0  501    0  0.00000000000E+00  0.00000000000E+00 -0.15097121011E+04  0.15097121011E+04  0.50400001928E-02 0.  1.
    10030    2    1    2    0    0  0.00000000000E+00  0.00000000000E+00 -0.12679121849E+04  0.17515120174E+04  0.12083844747E+04 0.  0.
        3    1    3    3  502    0 -0.11498801836E+03  0.41726658715E+03 -0.22916235660E+02  0.43342682563E+03  0.10100000352E+00 0. -1.
       -3    1    3    3    0  502  0.11498801836E+03 -0.41726658715E+03 -0.12449959492E+04  0.13180851918E+04  0.10100000352E+00 0.  1.
</event>
<event>
 5   0  0.6493047E-03  0.1204102E+04  0.7818609E-02  0.9109273E-01
        2   -1    0    0  501    0  0.00000000000E+00  0.00000000000E+00  0.27996559831E+04  0.27996559831E+04  0.25500000920E-02 0. -1.
       -2   -1    0    0    0  501  0.00000000000E+00  0.00000000000E+00 -0.12946793508E+03  0.12946793511E+03  0.25500000920E-02 0.  1.
    10030    2    1    2    0    0  0.00000000000E+00  0.00000000000E+00  0.26701880480E+04  0.29291239182E+04  0.12041024527E+04 0.  0.
        3    1    3    3  502    0 -0.44779843510E+03  0.10726872562E+03  0.22786109358E+04  0.23246715520E+04  0.10100000352E+00 0. -1.
       -3    1    3    3    0  502  0.44779843510E+03 -0.10726872562E+03  0.39157711229E+03  0.60445236623E+03  0.10100000352E+00 0.  1.
</event>
<event>
 5   0  0.3944074E-03  0.1108399E+04  0.7818609E-02  0.9197045E-01
        1   -1    0    0  501    0  0.00000000000E+00  0.00000000000E+00  0.78553923084E+03  0.78553923085E+03  0.50400001928E-02 0.  1.
       -1   -1    0    0    0  501  0.00000000000E+00  0.00000000000E+00 -0.39098853011E+03  0.39098853014E+03  0.50400001928E-02 0. -1.
    10030    2    1    2    0    0  0.00000000000E+00  0.00000000000E+00  0.39455070073E+03  0.11765277610E+04  0.11083985371E+04 0.  0.
        4    1    3    3  502    0 -0.16478877001E+03  0.13605189024E+02 -0.36419397737E+03  0.39997413159E+03  0.12699999809E+01 0. -1.
       -4    1    3    3    0  502  0.16478877001E+03 -0.13605189024E+02  0.75874467810E+03  0.77655362940E+03  0.12699999809E+01 0.  1.
</event>
<event>
 5   0  0.3772254E-03  0.1182692E+04  0.7818609E-02  0.9128142E-01
       -1   -1    0    0    0  501  0.00000000000E+00  0.00000000000E+00  0.56411240500E+03  0.56411240502E+03  0.50400001928E-02 0. -1.
        1   -1    0    0  501    0  0.00000000000E+00  0.00000000000E+00 -0.61989462927E+03  0.61989462929E+03  0.50400001928E-02 0.  1.
    10030    2    1    2    0    0  0.00000000000E+00  0.00000000000E+00 -0.55782224270E+02  0.11840070343E+04  0.11826922680E+04 0.  0.
        3    1    3    3  502    0 -0.54383085356E+03 -0.71145869623E+02  0.19343497686E+03  0.58157616227E+03  0.10100000352E+00 0. -1.
       -3    1    3    3    0  502  0.54383085356E+03  0.71145869623E+02 -0.24921720113E+03  0.60243087204E+03  0.10100000352E+00 0.  1.
</event>
<event>
 5   0  0.6585930E-03  0.1199402E+04  0.7818609E-02  0.9113380E-01
       -2   -1    0    0    0  501  0.00000000000E+00  0.00000000000E+00  0.49046316625E+03  0.49046316626E+03  0.25500000920E-02 0.  1.
        2   -1    0    0  501    0  0.00000000000E+00  0.00000000000E+00 -0.73326925732E+03  0.73326925732E+03  0.25500000920E-02 0. -1.
    10030    2    1    2    0    0  0.00000000000E+00  0.00000000000E+00 -0.24280609107E+03  0.12237324236E+04  0.11994024540E+04 0.  0.
        2    1    3    3  502    0  0.12581881075E+03  0.29751972125E+03  0.39411178167E+03  0.50958066499E+03  0.25500000920E-02 0.  1.
       -2    1    3    3    0  502 -0.12581881075E+03 -0.29751972125E+03 -0.63691787274E+03  0.71415175859E+03  0.25500000920E-02 0. -1.
</event>
<event>
 5   0  0.3944074E-03  0.1202068E+04  0.7818609E-02  0.9111049E-01
        1   -1    0    0  501    0  0.00000000000E+00  0.00000000000E+00  0.32820673744E+03  0.32820673748E+03  0.50400001928E-02 0.  1.
       -1   -1    0    0    0  501  0.00000000000E+00  0.00000000000E+00 -0.11006525777E+04  0.11006525777E+04  0.50400001928E-02 0. -1.
    10030    2    1    2    0    0  0.00000000000E+00  0.00000000000E+00 -0.77244584029E+03  0.14288593152E+04  0.12020675383E+04 0.  0.
        4    1    3    3  502    0  0.99602222385E+02  0.43523949381E+03 -0.86448416783E+03  0.97297919249E+03  0.12699999809E+01 0. -1.
       -4    1    3    3    0  502 -0.99602222385E+02 -0.43523949381E+03  0.92038327540E+02  0.45588012274E+03  0.12699999809E+01 0.  1.
</event>
<event>
 5   0  0.6349142E-03  0.1111421E+04  0.7818609E-02  0.9194131E-01
       -2   -1    0    0    0  501  0.00000000000E+00  0.00000000000E+00  0.19650267855E+03  0.19650267857E+03  0.25500000920E-02 0. -1.
        2   -1    0    0  501    0  0.00000000000E+00  0.00000000000E+00 -0.15715520298E+04  0.15715520298E+04  0.25500000920E-02 0.  1.
    10030    2    1    2    0    0  0.00000000000E+00  0.00000000000E+00 -0.13750493512E+04  0.17680547083E+04  0.11114210424E+04 0.  0.
        1    1    3    3  502    0 -0.14342195457E+02 -0.95478819012E+02  0.18305775856E+03  0.20695904534E+03  0.50400001928E-02 0. -1.
       -1    1    3    3    0  502  0.14342195457E+02  0.95478819012E+02 -0.15581071098E+04  0.15610956630E+04  0.50400001928E-02 0.  1.
</event>
<event>
 5   0  0.2537625E-03  0.1017298E+04  0.7818609E-02  0.9289774E-01
        4   -1    0    0  501    0  0.00000000000E+00  0.00000000000E+00  0.12919074814E+04  0.12919081056E+04  0.12699999809E+01 0. -1.
       -4   -1    0    0    0  501  0.00000000000E+00  0.00000000000E+00 -0.20026210465E+03  0.20026613158E+03  0.12699999809E+01 0.  1.
    10030    2    1    2    0    0  0.00000000000E+00  0.00000000000E+00  0.10916453767E+04  0.14921742372E+04  0.10172975600E+04 0.  0.
        3    1    3    3  502    0 -0.36849124510E+03  0.34701466154E+03  0.61943508804E+03  0.79994050500E+03  0.10100000352E+00 0. -1.
       -3    1    3    3    0  502  0.36849124510E+03 -0.34701466154E+03  0.47221028866E+03  0.69223373217E+03  0.10100000352E+00 0.  1.
</event>
<event>
 5   0  0.3944074E-03  0.1197731E+04  0.7818609E-02  0.9114844E-01
       -1   -1    0    0    0  501  0.00000000000E+00  0.00000000000E+00  0.72144225524E+03  0.72144225525E+03  0.50400001928E-02 0. -1.
        1   -1    0    0  501    0  0.00000000000E+00  0.00000000000E+00 -0.49711555729E+03  0.49711555732E+03  0.50400001928E-02 0.  1.
    10030    2    1    2    0    0  0.00000000000E+00  0.00000000000E+00  0.22432669795E+03  0.12185578126E+04  0.11977314704E+04 0.  0.
        4    1    3    3  502    0 -0.23886132457E+03  0.47086746329E+03 -0.17535935611E+03  0.55634828752E+03  0.12699999809E+01 0.  1.
       -4    1    3    3    0  502  0.23886132457E+03 -0.47086746329E+03  0.39968605405E+03  0.66220952504E+03  0.12699999809E+01 0. -1.
</event>
<event>
 5   0  0.6493047E-03  0.1223725E+04  0.7818609E-02  0.9092340E-01
        2   -1    0    0  501    0  0.00000000000E+00  0.00000000000E+00  0.13721377914E+04  0.13721377914E+04  0.25500000920E-02 0.  1.
       -2   -1    0    0    0  501  0.00000000000E+00  0.00000000000E+00 -0.27284106310E+03  0.27284106311E+03  0.25500000920E-02 0. -1.
    10030    2    1    2    0    0  0.00000000000E+00  0.00000000000E+00  0.10992967283E+04  0.16449788545E+04  0.12237246973E+04 0.  0.
        3    1    3    3  502    0  0.17299219843E+03 -0.20170332530E+03  0.12905242418E+04  0.13175975717E+04  0.10100000352E+00 0.  1.
       -3    1    3    3    0  502 -0.17299219843E+03  0.20170332530E+03 -0.19122751354E+03  0.32738128274E+03  0.10100000352E+00 0. -1.
</event>
<event>
 5   0  0.3772254E-03  0.1190326E+04  0.7818609E-02  0.9121366E-01
        1   -1    0    0  501    0  0.00000000000E+00  0.00000000000E+00  0.25756549910E+03  0.25756549915E+03  0.50400001928E-02 0. -1.
       -1   -1    0    0    0  501  0.00000000000E+00  0.00000000000E+00 -0.13752590240E+04  0.13752590240E+04  0.50400001928E-02 0.  1.
    10030    2    1    2    0    0  0.00000000000E+00  0.00000000000E+00 -0.11176935249E+04  0.16328245232E+04  0.11903264711E+04 0.  0.
        3    1    3    3  502    0  0.49471461996E+03  0.32725296294E+03 -0.62579874271E+03  0.86224192285E+03  0.10100000352E+00 0. -1.
       -3    1    3    3    0  502 -0.49471461996E+03 -0.32725296294E+03 -0.49189478221E+03  0.77058260032E+03  0.10100000352E+00 0.  1.
</event>
<event>
 5   0  0.6585930E-03  0.1193284E+04  0.7818609E-02  0.9118755E-01
        2   -1    0    0  501    0  0.00000000000E+00  0.00000000000E+00  0.14802772309E+04  0.14802772309E+04  0.25500000920E-02 0.  1.
       -2   -1    0    0    0  501  0.00000000000E+00  0.00000000000E+00 -0.24048329231E+03  0.24048329232E+03  0.25500000920E-02 0. -1.
    10030    2    1    2    0    0  0.00000000000E+00  0.00000000000E+00  0.12397939386E+04  0.17207605232E+04  0.11932844456E+04 0.  0.
        2    1    3    3  502    0 -0.35227370771E+03  0.20464016396E+03 -0.86849982286E+01  0.40749207483E+03  0.25500000920E-02 0. -1.
       -2    1    3    3    0  502  0.35227370771E+03 -0.20464016396E+03  0.12484789368E+04  0.13132684484E+04  0.25500000920E-02 0.  1.
</event>
<event>
 5   0  0.6493047E-03  0.1260009E+04  0.7818609E-02  0.9061894E-01
        2   -1    0    0  501    0  0.00000000000E+00  0.00000000000E+00  0.15474932610E+04  0.15474932610E+04  0.25500000920E-02 0.  1.
       -2   -1    0    0    0  501  0.00000000000E+00  0.00000000000E+00 -0.25648302668E+03  0.25648302670E+03  0.25500000920E-02 0. -1.
    10030    2    1    2    0    0  0.00000000000E+00  0.00000000000E+00  0.12910102343E+04  0.18039762877E+04  0.12600091355E+04 0.  0.
        3    1    3    3  502    0  0.48375211605E+03  0.22237888943E+03  0.16329645881E+03  0.55689695987E+03  0.10100000352E+00 0. -1.
       -3    1    3    3    0  502 -0.48375211605E+03 -0.22237888943E+03  0.11277137755E+04  0.12470793278E+04  0.10100000352E+00 0.  1.
</event>
<event>
 5   0  0.6585930E-03  0.1187465E+04  0.7818609E-02  0.9123900E-01
        2   -1    0    0  501    0  0.00000000000E+00  0.00000000000E+00  0.12387319348E+04  0.12387319348E+04  0.25500000920E-02 0.  1.
       -2   -1    0    0    0  501  0.00000000000E+00  0.00000000000E+00 -0.28457997813E+03  0.28457997814E+03  0.25500000920E-02 0. -1.
    10030    2    1    2    0    0  0.00000000000E+00  0.00000000000E+00  0.95415195671E+03  0.15233119130E+04  0.11874650427E+04 0.  0.
        2    1    3    3  502    0 -0.14173074799E+03 -0.40037084765E+03 -0.55156278365E+02  0.42828335903E+03  0.25500000920E-02 0. -1.
       -2    1    3    3    0  502  0.14173074799E+03  0.40037084765E+03  0.10093082351E+04  0.10950285540E+04  0.25500000920E-02 0.  1.
</event>
<event>
 5   0  0.6585930E-03  0.1259925E+04  0.7818609E-02  0.9061963E-01
        2   -1    0    0  501    0  0.00000000000E+00  0.00000000000E+00  0.68341275465E+03  0.68341275466E+03  0.25500000920E-02 0.  1.
       -2   -1    0    0    0  501  0.00000000000E+00  0.00000000000E+00 -0.58069308443E+03  0.58069308444E+03  0.25500000920E-02 0. -1.
    10030    2    1    2    0    0  0.00000000000E+00  0.00000000000E+00  0.10271967022E+03  0.12641058391E+04  0.12599254906E+04 0.  0.
        2    1    3    3  502    0  0.13277759885E+03  0.61521542914E+03  0.24193338160E+02  0.62984540375E+03  0.25500000920E-02 0. -1.
       -2    1    3    3    0  502 -0.13277759885E+03 -0.61521542914E+03  0.78526332058E+02  0.63426043534E+03  0.25500000920E-02 0.  1.
</event>
<event>
 5   0  0.3731281E-03  0.1235313E+04  0.7818609E-02  0.9082497E-01
        1   -1    0    0  501    0  0.00000000000E+00  0.00000000000E+00  0.15092836747E+04  0.15092836747E+04  0.50400001928E-02 0.  1.
       -1   -1    0    0    0  501  0.00000000000E+00  0.00000000000E+00 -0.25276855462E+03  0.25276855467E+03  0.50400001928E-02 0. -1.
    10030    2    1    2    0    0  0.00000000000E+00  0.00000000000E+00  0.12565151200E+04  0.17620522293E+04  0.12353128397E+04 0.  0.
        5    1    3    3  502    0  0.84996732645E+02 -0.15391168109E+03 -0.21629279639E+03  0.27877932833E+03  0.46999998093E+01 0. -1.
       -5    1    3    3    0  502 -0.84996732645E+02  0.15391168109E+03  0.14728079164E+04  0.14832729010E+04  0.46999998093E+01 0.  1.
</event>
<event>
 5   0  0.3944074E-03  0.1148891E+04  0.7818609E-02  0.9158807E-01
        1   -1    0    0  501    0  0.00000000000E+00  0.00000000000E+00  0.86164475963E+03  0.86164475964E+03  0.50400001928E-02 0.  1.
       -1   -1    0    0    0  501  0.00000000000E+00  0.00000000000E+00 -0.38297401592E+03  0.38297401595E+03  0.50400001928E-02 0. -1.
    10030    2    1    2    0    0  0.00000000000E+00  0.00000000000E+00  0.47867074371E+03  0.12446187756E+04  0.11488908633E+04 0.  0.
        4    1    3    3  502    0  0.49004588487E+03  0.29752703224E+03  0.27867408714E+03  0.63743875309E+03  0.12699999809E+01 0.  1.
       -4    1    3    3    0  502 -0.49004588487E+03 -0.29752703224E+03  0.19999665657E+03  0.60718002251E+03  0.12699999809E+01 0. -1.
</event>
<event>
 5   0  0.6585930E-03  0.1223689E+04  0.7818609E-02  0.9092371E-01
        2   -1    0    0  501    0  0.00000000000E+00  0.00000000000E+00  0.72110797471E+03  0.72110797471E+03  0.25500000920E-02 0. -1.
       -2   -1    0    0    0  501  0.00000000000E+00  0.00000000000E+00 -0.51913652866E+03  0.51913652867E+03  0.25500000920E-02 0.  1.
    10030    2    1    2    0    0  0.00000000000E+00  0.00000000000E+00  0.20197144604E+03  0.12402445034E+04  0.12236886708E+04 0.  0.
        2    1    3    3  502    0  0.10539412754E+03 -0.57316860222E+03 -0.87877330091E+02  0.58936626460E+03  0.25500000920E-02 0. -1.
       -2    1    3    3    0  502 -0.10539412754E+03  0.57316860222E+03  0.28984877613E+03  0.65087823879E+03  0.25500000920E-02 0.  1.
</event>
<event>
 5   0  0.6585930E-03  0.1194105E+04  0.7818609E-02  0.9118032E-01
        2   -1    0    0  501    0  0.00000000000E+00  0.00000000000E+00  0.12329840916E+04  0.12329840916E+04  0.25500000920E-02 0. -1.
       -2   -1    0    0    0  501  0.00000000000E+00  0.00000000000E+00 -0.28911314614E+03  0.28911314615E+03  0.25500000920E-02 0.  1.
    10030    2    1    2    0    0  0.00000000000E+00  0.00000000000E+00  0.94387094550E+03  0.15220972378E+04  0.11941053720E+04 0.  0.
        2    1    3    3  502    0 -0.38891417870E+03  0.40578257806E+03  0.21522775495E+03  0.60186105170E+03  0.25500000920E-02 0.  1.
       -2    1    3    3    0  502  0.38891417870E+03 -0.40578257806E+03  0.72864319055E+03  0.92023618609E+03  0.25500000920E-02 0. -1.
</event>
<event>
 5   0  0.2537625E-03  0.1260182E+04  0.7818609E-02  0.9061751E-01
        3   -1    0    0  501    0  0.00000000000E+00  0.00000000000E+00  0.34852248136E+03  0.34852249600E+03  0.10100000352E+00 0.  1.
       -3   -1    0    0    0  501  0.00000000000E+00  0.00000000000E+00 -0.11391362730E+04  0.11391362774E+04  0.10100000352E+00 0. -1.
    10030    2    1    2    0    0  0.00000000000E+00  0.00000000000E+00 -0.79061379159E+03  0.14876587734E+04  0.12601819149E+04 0.  0.
        2    1    3    3  502    0  0.17377657150E+03 -0.51068260454E+03 -0.77968899671E+03  0.94810861771E+03  0.25500000920E-02 0. -1.
       -2    1    3    3    0  502 -0.17377657150E+03  0.51068260454E+03 -0.10924794875E+02  0.53955015571E+03  0.25500000920E-02 0.  1.
</event>
<event>
 5   0  0.6493047E-03  0.1210463E+04  0.7818609E-02  0.9103747E-01
        2   -1    0    0  501    0  0.00000000000E+00  0.00000000000E+00  0.83311880591E+03  0.83311880591E+03  0.25500000920E-02 0.  1.
       -2   -1    0    0    0  501  0.00000000000E+00  0.00000000000E+00 -0.43967950831E+03  0.43967950832E+03  0.25500000920E-02 0. -1.
    10030    2    1    2    0    0  0.00000000000E+00  0.00000000000E+00  0.39343929760E+03  0.12727983142E+04  0.12104631625E+04 0.  0.
        3    1    3    3  502    0  0.16269401645E+03  0.58290427821E+03  0.20476316770E+03  0.63888551838E+03  0.10100000352E+00 0.  1.
       -3    1    3    3    0  502 -0.16269401645E+03 -0.58290427821E+03  0.18867612990E+03  0.63391279585E+03  0.10100000352E+00 0. -1.
</event>
<event>
 5   0  0.2537625E-03  0.1213143E+04  0.7818609E-02  0.9101429E-01
        4   -1    0    0  501    0  0.00000000000E+00  0.00000000000E+00  0.40677563422E+03  0.40677761676E+03  0.12699999809E+01 0. -1.
       -4   -1    0    0    0  501  0.00000000000E+00  0.00000000000E+00 -0.90449672449E+03  0.90449761609E+03  0.12699999809E+01 0.  1.
    10030    2    1    2    0    0  0.00000000000E+00  0.00000000000E+00 -0.49772109027E+03  0.13112752329E+04  0.12131432119E+04 0.  0.
        4    1    3    3  502    0 -0.18550324049E+03  0.43053081184E+03  0.16719009816E+03  0.49771716266E+03  0.12699999809E+01 0. -1.
       -4    1    3    3    0  502  0.18550324049E+03 -0.43053081184E+03 -0.66491118843E+03  0.81355807019E+03  0.12699999809E+01 0.  1.
</event>
<event>
 5   0  0.3701879E-03  0.1263666E+04  0.7818609E-02  0.9058885E-01
       -1   -1    0    0    0  501  0.00000000000E+00  0.00000000000E+00  0.30558452003E+03  0.30558452007E+03  0.50400001928E-02 0. -1.
        1   -1    0    0  501    0  0.00000000000E+00  0.00000000000E+00 -0.13063909795E+04  0.13063909795E+04  0.50400001928E-02 0.  1.
    10030    2    1    2    0    0  0.00000000000E+00  0.00000000000E+00 -0.10008064595E+04  0.16119754996E+04  0.12636658743E+04 0.  0.
        1    1    3    3  502    0  0.49442090002E+02 -0.11606736537E+03 -0.12901606650E+04  0.12963142732E+04  0.50400001928E-02 0.  1.
       -1    1    3    3    0  502 -0.49442090002E+02  0.11606736537E+03  0.28935420548E+03  0.31566122635E+03  0.50400001928E-02 0. -1.
</event>
<event>
 5   0  0.6585930E-03  0.1179037E+04  0.7818609E-02  0.9131406E-01
       -2   -1    0    0    0  501  0.00000000000E+00  0.00000000000E+00  0.12946993991E+03  0.12946993993E+03  0.25500000920E-02 0. -1.
        2   -1    0    0  501    0  0.00000000000E+00  0.00000000000E+00 -0.26842677445E+04  0.26842677445E+04  0.25500000920E-02 0.  1.
    10030    2    1    2    0    0  0.00000000000E+00  0.00000000000E+00 -0.25547978046E+04  0.28137376844E+04  0.11790368673E+04 0.  0.
        2    1    3    3  502    0  0.88453132357E+02  0.57125132465E+03 -0.10013516145E+04  0.11562253623E+04  0.25500000920E-02 0.  1.
       -2    1    3    3    0  502 -0.88453132357E+02 -0.57125132465E+03 -0.15534461901E+04  0.16575123221E+04  0.25500000920E-02 0. -1.
</event>
<event>
 5   0  0.6640844E-03  0.1179126E+04  0.7818609E-02  0.9131326E-01
        2   -1    0    0  501    0  0.00000000000E+00  0.00000000000E+00  0.96030068494E+03  0.96030068494E+03  0.25500000920E-02 0.  1.
       -2   -1    0    0    0  501  0.00000000000E+00  0.00000000000E+00 -0.36195374336E+03  0.36195374337E+03  0.25500000920E-02 0. -1.
    10030    2    1    2    0    0  0.00000000000E+00  0.00000000000E+00  0.59834694157E+03  0.13222544283E+04  0.11791258248E+04 0.  0.
        5    1    3    3  502    0  0.26639746575E+03 -0.32994293023E+03  0.75843846849E+03  0.86895393862E+03  0.46999998093E+01 0.  1.
       -5    1    3    3    0  502 -0.26639746575E+03  0.32994293023E+03 -0.16009152692E+03  0.45330048969E+03  0.46999998093E+01 0. -1.
</event>
<event>
 5   0  0.2537625E-03  0.1206889E+04  0.7818609E-02  0.9106848E-01
        4   -1    0    0  501    0  0.00000000000E+00  0.00000000000E+00  0.80544097455E+03  0.80544197580E+03  0.12699999809E+01 0. -1.
       -4   -1    0    0    0  501  0.00000000000E+00  0.00000000000E+00 -0.45210477902E+03  0.45210656278E+03  0.12699999809E+01 0.  1.
    10030    2    1    2    0    0  0.00000000000E+00  0.00000000000E+00  0.35333619553E+03  0.12575485386E+04  0.12068893320E+04 0.  0.
        4    1    3    3  502    0  0.35942653516E+03  0.43783003894E+03  0.39339207655E+03  0.68966768517E+03  0.12699999809E+01 0.  1.
       -4    1    3    3    0  502 -0.35942653516E+03 -0.43783003894E+03 -0.40055881014E+02  0.56788085342E+03  0.12699999809E+01 0. -1.
</event>
<event>
 5   0  0.3731281E-03  0.1205117E+04  0.7818609E-02  0.9108389E-01
        1   -1    0    0  501    0  0.00000000000E+00  0.00000000000E+00  0.90269000489E+03  0.90269000491E+03  0.50400001928E-02 0. -1.
       -1   -1    0    0    0  501  0.00000000000E+00  0.00000000000E+00 -0.40221650568E+03  0.40221650571E+03  0.50400001928E-02 0.  1.
    10030    2    1    2    0    0  0.00000000000E+00  0.00000000000E+00  0.50047349922E+03  0.13049065106E+04  0.12051171221E+04 0.  0.
        5    1    3    3  502    0  0.13566827503E+03  0.69890674991E+02  0.88139594293E+03  0.89452304918E+03  0.46999998093E+01 0. -1.
       -5    1    3    3    0  502 -0.13566827503E+03 -0.69890674991E+02 -0.38092244371E+03  0.41038346144E+03  0.46999998093E+01 0.  1.
</event>
<event>
 5   0  0.6658994E-03  0.1215417E+04  0.7818609E-02  0.9099468E-01
       -2   -1    0    0    0  501  0.00000000000E+00  0.00000000000E+00  0.36695783132E+03  0.36695783132E+03  0.25500000920E-02 0. -1.
        2   -1    0    0  501    0  0.00000000000E+00  0.00000000000E+00 -0.10064090181E+04  0.10064090181E+04  0.25500000920E-02 0.  1.
    10030    2    1    2    0    0  0.00000000000E+00  0.00000000000E+00 -0.63945118680E+03  0.13733668494E+04  0.12154170818E+04 0.  0.
        4    1    3    3  502    0  0.21430727841E+02  0.27800127009E+03 -0.92986381306E+03  0.97076892513E+03  0.12699999809E+01 0.  1.
       -4    1    3    3    0  502 -0.21430727841E+02 -0.27800127009E+03  0.29041262626E+03  0.40259792431E+03  0.12699999809E+01 0. -1.
</event>
<event>
 5   0  0.3772254E-03  0.1160684E+04  0.7818609E-02  0.9147983E-01
        1   -1    0    0  501    0  0.00000000000E+00  0.00000000000E+00  0.64447631840E+03  0.64447631842E+03  0.50400001928E-02 0.  1.
       -1   -1    0    0    0  501  0.00000000000E+00  0.00000000000E+00 -0.52259009545E+03  0.52259009547E+03  0.50400001928E-02 0. -1.
    10030    2    1    2    0    0  0.00000000000E+00  0.00000000000E+00  0.12188622296E+03  0.11670664139E+04  0.11606841789E+04 0.  0.
        3    1    3    3  502    0  0.21781290994E+03 -0.52607598886E+03 -0.51917210432E+02  0.57174628703E+03  0.10100000352E+00 0. -1.
       -3    1    3    3    0  502 -0.21781290994E+03  0.52607598886E+03  0.17380343339E+03  0.59532012686E+03  0.10100000352E+00 0.  1.
</event>
<event>
 5   0  0.3648616E-03  0.1198386E+04  0.7818609E-02  0.9114271E-01
       -1   -1    0    0    0  501  0.00000000000E+00  0.00000000000E+00  0.16523179549E+03  0.16523179557E+03  0.50400001928E-02 0.  1.
        1   -1    0    0  501    0  0.00000000000E+00  0.00000000000E+00 -0.21728992938E+04  0.21728992938E+04  0.50400001928E-02 0. -1.
    10030    2    1    2    0    0  0.00000000000E+00  0.00000000000E+00 -0.20076674983E+04  0.23381310894E+04  0.11983856672E+04 0.  0.
        2    1    3    3  502    0 -0.73766115909E+02 -0.29651696886E+03 -0.20094727737E+04  0.20325709289E+04  0.25500000920E-02 0. -1.
       -2    1    3    3    0  502  0.73766115909E+02  0.29651696886E+03  0.18052753488E+01  0.30556016053E+03  0.25500000920E-02 0.  1.
</event>
<event>
 5   0  0.6585930E-03  0.1211627E+04  0.7818609E-02  0.9102740E-01
       -2   -1    0    0    0  501  0.00000000000E+00  0.00000000000E+00  0.28286491384E+03  0.28286491386E+03  0.25500000920E-02 0.  1.
        2   -1    0    0  501    0  0.00000000000E+00  0.00000000000E+00 -0.12974743204E+04  0.12974743204E+04  0.25500000920E-02 0. -1.
    10030    2    1    2    0    0  0.00000000000E+00  0.00000000000E+00 -0.10146094065E+04  0.15803392342E+04  0.12116269423E+04 0.  0.
        2    1    3    3  502    0 -0.50453286868E+02  0.26763598091E+03 -0.12131234600E+04  0.12433193804E+04  0.25500000920E-02 0. -1.
       -2    1    3    3    0  502  0.50453286868E+02 -0.26763598091E+03  0.19851405349E+03  0.33701985383E+03  0.25500000920E-02 0.  1.
</event>
<event>
 5   0  0.6493047E-03  0.1184586E+04  0.7818609E-02  0.9126456E-01
        2   -1    0    0  501    0  0.00000000000E+00  0.00000000000E+00  0.83728130099E+03  0.83728130099E+03  0.25500000920E-02 0.  1.
       -2   -1    0    0    0  501  0.00000000000E+00  0.00000000000E+00 -0.41898848083E+03  0.41898848084E+03  0.25500000920E-02 0. -1.
    10030    2    1    2    0    0  0.00000000000E+00  0.00000000000E+00  0.41829282016E+03  0.12562697818E+04  0.11845863756E+04 0.  0.
        3    1    3    3  502    0 -0.40190480003E+03  0.14986158762E+03  0.64230513594E+03  0.77236122481E+03  0.10100000352E+00 0.  1.
       -3    1    3    3    0  502  0.40190480003E+03 -0.14986158762E+03 -0.22401231579E+03  0.48390855702E+03  0.10100000352E+00 0. -1.
</event>
<event>
 5   0  0.3944074E-03  0.1207483E+04  0.7818609E-02  0.9106332E-01
        1   -1    0    0  501    0  0.00000000000E+00  0.00000000000E+00  0.85792363000E+03  0.85792363001E+03  0.50400001928E-02 0. -1.
       -1   -1    0    0    0  501  0.00000000000E+00  0.00000000000E+00 -0.42486759387E+03  0.42486759390E+03  0.50400001928E-02 0.  1.
    10030    2    1    2    0    0  0.00000000000E+00  0.00000000000E+00  0.43305603613E+03  0.12827912239E+04  0.12074832478E+04 0.  0.
        4    1    3    3  502    0  0.51243836690E+03 -0.27084603839E+03  0.37017172305E+02  0.58079474888E+03  0.12699999809E+01 0.  1.
       -4    1    3    3    0  502 -0.51243836690E+03  0.27084603839E+03  0.39603886383E+03  0.70199647503E+03  0.12699999809E+01 0. -1.
</event>
<event>
 5   0  0.6493047E-03  0.1219202E+04  0.7818609E-02  0.9096213E-01
       -2   -1    0    0    0  501  0.00000000000E+00  0.00000000000E+00  0.29242708978E+03  0.29242708980E+03  0.25500000920E-02 0.  1.
        2   -1    0    0  501    0  0.00000000000E+00  0.00000000000E+00 -0.12707905482E+04  0.12707905482E+04  0.25500000920E-02 0. -1.
    10030    2    1    2    0    0  0.00000000000E+00  0.00000000000E+00 -0.97836345844E+03  0.15632176380E+04  0.12192023323E+04 0.  0.
        3    1    3    3  502    0  0.50756776726E+03 -0.32481226958E+03 -0.37107273743E+03  0.70768851587E+03  0.10100000352E+00 0.  1.
       -3    1    3    3    0  502 -0.50756776726E+03  0.32481226958E+03 -0.60729072101E+03  0.85552912216E+03  0.10100000352E+00 0. -1.
</event>
<event>
 5   0  0.3772254E-03  0.1025668E+04  0.7818609E-02  0.9280832E-01
        1   -1    0    0  501    0  0.00000000000E+00  0.00000000000E+00  0.15829426830E+04  0.15829426830E+04  0.50400001928E-02 0.  1.
       -1   -1    0    0    0  501  0.00000000000E+00  0.00000000000E+00 -0.16614546210E+03  0.16614546217E+03  0.50400001928E-02 0. -1.
    10030    2    1    2    0    0  0.00000000000E+00  0.00000000000E+00  0.14167972209E+04  0.17490881452E+04  0.10256680625E+04 0.  0.
        3    1    3    3  502    0  0.14233195862E+03 -0.44783882994E+03  0.10586355153E+04  0.11582431388E+04  0.10100000352E+00 0.  1.
       -3    1    3    3    0  502 -0.14233195862E+03  0.44783882994E+03  0.35816170560E+03  0.59084500641E+03  0.10100000352E+00 0. -1.
</event>
<event>
 5   0  0.6585930E-03  0.1196763E+04  0.7818609E-02  0.9115695E-01
        2   -1    0    0  501    0  0.00000000000E+00  0.00000000000E+00  0.11660149477E+04  0.11660149477E+04  0.25500000920E-02 0. -1.
       -2   -1    0    0    0  501  0.00000000000E+00  0.00000000000E+00 -0.30708042674E+03  0.30708042675E+03  0.25500000920E-02 0.  1.
    10030    2    1    2    0    0  0.00000000000E+00  0.00000000000E+00  0.85893452097E+03  0.14730953745E+04  0.11967629134E+04 0.  0.
        2    1    3    3  502    0 -0.40556511163E+03  0.32538132784E+03  0.64937336148E+02  0.52399706670E+03  0.25500000920E-02 0.  1.
       -2    1    3    3    0  502  0.40556511163E+03 -0.32538132784E+03  0.79399718482E+03  0.94909830776E+03  0.25500000920E-02 0. -1.
</event>
<event>
 5   0  0.6493047E-03  0.1188801E+04  0.7818609E-02  0.9122716E-01
        2   -1    0    0  501    0  0.00000000000E+00  0.00000000000E+00  0.17826490353E+04  0.17826490353E+04  0.25500000920E-02 0. -1.
       -2   -1    0    0    0  501  0.00000000000E+00  0.00000000000E+00 -0.19819487934E+03  0.19819487935E+03  0.25500000920E-02 0.  1.
    10030    2    1    2    0    0  0.00000000000E+00  0.00000000000E+00  0.15844541560E+04  0.19808439147E+04  0.11888009261E+04 0.  0.
        3    1    3    3  502    0 -0.52197945472E+03 -0.23914875801E+03  0.53594220016E+03  0.78542264528E+03  0.10100000352E+00 0.  1.
       -3    1    3    3    0  502  0.52197945472E+03  0.23914875801E+03  0.10485119558E+04  0.11954212694E+04  0.10100000352E+00 0. -1.
</event>
<event>
 5   0  0.6349142E-03  0.1204054E+04  0.7818609E-02  0.9109315E-01
        2   -1    0    0  501    0  0.00000000000E+00  0.00000000000E+00  0.10742318097E+04  0.10742318097E+04  0.25500000920E-02 0. -1.
       -2   -1    0    0    0  501  0.00000000000E+00  0.00000000000E+00 -0.33739137556E+03  0.33739137557E+03  0.25500000920E-02 0.  1.
    10030    2    1    2    0    0  0.00000000000E+00  0.00000000000E+00  0.73684043414E+03  0.14116231853E+04  0.12040540652E+04 0.  0.
        1    1    3    3  502    0 -0.40209516870E+03 -0.95417671287E+01  0.89360070864E+03  0.97994581305E+03  0.50400001928E-02 0. -1.
       -1    1    3    3    0  502  0.40209516870E+03  0.95417671287E+01 -0.15676027450E+03  0.43167737223E+03  0.50400001928E-02 0.  1.
</event>
<event>
 5   0  0.3701879E-03  0.1171491E+04  0.7818609E-02  0.9138183E-01
       -1   -1    0    0    0  501  0.00000000000E+00  0.00000000000E+00  0.32789821601E+03  0.32789821605E+03  0.50400001928E-02 0. -1.
        1   -1    0    0  501    0  0.00000000000E+00  0.00000000000E+00 -0.10463538522E+04  0.10463538522E+04  0.50400001928E-02 0.  1.
    10030    2    1    2    0    0  0.00000000000E+00  0.00000000000E+00 -0.71845563622E+03  0.13742520683E+04  0.11714906086E+04 0.  0.
        1    1    3    3  502    0 -0.57567031125E+01  0.64292935150E+02 -0.10421687331E+04  0.10441658822E+04  0.50400001928E-02 0.  1.
       -1    1    3    3    0  502  0.57567031125E+01 -0.64292935150E+02  0.32371309691E+03  0.33008618613E+03  0.50400001928E-02 0. -1.
</event>
<event>
 5   0  0.6493047E-03  0.1218447E+04  0.7818609E-02  0.9096862E-01
       -2   -1    0    0    0  501  0.00000000000E+00  0.00000000000E+00  0.31949059431E+03  0.31949059432E+03  0.25500000920E-02 0. -1.
        2   -1    0    0  501    0  0.00000000000E+00  0.00000000000E+00 -0.11617027375E+04  0.11617027375E+04  0.25500000920E-02 0.  1.
    10030    2    1    2    0    0  0.00000000000E+00  0.00000000000E+00 -0.84221214321E+03  0.14811933318E+04  0.12184467129E+04 0.  0.
        3    1    3    3  502    0  0.51614155533E+03  0.31875480718E+03 -0.35291788989E+03  0.70182460732E+03  0.10100000352E+00 0. -1.
       -3    1    3    3    0  502 -0.51614155533E+03 -0.31875480718E+03 -0.48929425331E+03  0.77936872452E+03  0.10100000352E+00 0.  1.
</event>
<event>
 5   0  0.3944074E-03  0.1189118E+04  0.7818609E-02  0.9122435E-01
       -1   -1    0    0    0  501  0.00000000000E+00  0.00000000000E+00  0.25070173165E+03  0.25070173170E+03  0.50400001928E-02 0. -1.
        1   -1    0    0  501    0  0.00000000000E+00  0.00000000000E+00 -0.14100446384E+04  0.14100446384E+04  0.50400001928E-02 0.  1.
    10030    2    1    2    0    0  0.00000000000E+00  0.00000000000E+00 -0.11593429067E+04  0.16607463701E+04  0.11891183837E+04 0.  0.
        4    1    3    3  502    0  0.49388200685E+03  0.31816880689E+03 -0.70727844417E+03  0.91945377091E+03  0.12699999809E+01 0. -1.
       -4    1    3    3    0  502 -0.49388200685E+03 -0.31816880689E+03 -0.45206446255E+03  0.74129259916E+03  0.12699999809E+01 0.  1.
</event>
<event>
 5   0  0.6640844E-03  0.1162782E+04  0.7818609E-02  0.9146072E-01
        2   -1    0    0  501    0  0.00000000000E+00  0.00000000000E+00  0.12867386418E+04  0.12867386418E+04  0.25500000920E-02 0. -1.
       -2   -1    0    0    0  501  0.00000000000E+00  0.00000000000E+00 -0.26269165001E+03  0.26269165003E+03  0.25500000920E-02 0.  1.
    10030    2    1    2    0    0  0.00000000000E+00  0.00000000000E+00  0.10240469918E+04  0.15494302918E+04  0.11627820036E+04 0.  0.
        5    1    3    3  502    0 -0.13797975027E+03 -0.45852675385E+03  0.95136771471E+03  0.10650858247E+04  0.46999998093E+01 0. -1.
       -5    1    3    3    0  502  0.13797975027E+03  0.45852675385E+03  0.72679277086E+02  0.48434446709E+03  0.46999998093E+01 0.  1.
</event>
<event>
 5   0  0.3944074E-03  0.1194905E+04  0.7818609E-02  0.9117328E-01
       -1   -1    0    0    0  501  0.00000000000E+00  0.00000000000E+00  0.32594625569E+03  0.32594625573E+03  0.50400001928E-02 0.  1.
        1   -1    0    0  501    0  0.00000000000E+00  0.00000000000E+00 -0.10951178695E+04  0.10951178695E+04  0.50400001928E-02 0. -1.
    10030    2    1    2    0    0  0.00000000000E+00  0.00000000000E+00 -0.76917161384E+03  0.14210641253E+04  0.11949051329E+04 0.  0.
        4    1    3    3  502    0 -0.38919135858E+03 -0.86877637373E+02 -0.91368416180E+03  0.99691423798E+03  0.12699999809E+01 0. -1.
       -4    1    3    3    0  502  0.38919135858E+03  0.86877637373E+02  0.14451254796E+03  0.42414988729E+03  0.12699999809E+01 0.  1.
</event>
<event>
 5   0  0.3772254E-03  0.1184613E+04  0.7818609E-02  0.9126432E-01
        1   -1    0    0  501    0  0.00000000000E+00  0.00000000000E+00  0.76253006862E+03  0.76253006863E+03  0.50400001928E-02 0. -1.
       -1   -1    0    0    0  501  0.00000000000E+00  0.00000000000E+00 -0.46008285466E+03  0.46008285469E+03  0.50400001928E-02 0.  1.
    10030    2    1    2    0    0  0.00000000000E+00  0.00000000000E+00  0.30244721395E+03  0.12226129233E+04  0.11846130352E+04 0.  0.
        3    1    3    3  502    0 -0.26234892013E+03  0.29653657679E+02 -0.39599252474E+03  0.47593737525E+03  0.10100000352E+00 0.  1.
       -3    1    3    3    0  502  0.26234892013E+03 -0.29653657679E+02  0.69843973869E+03  0.74667554808E+03  0.10100000352E+00 0. -1.
</event>
<event>
 5   0  0.6349142E-03  0.1215430E+04  0.7818609E-02  0.9099457E-01
        2   -1    0    0  501    0  0.00000000000E+00  0.00000000000E+00  0.57921469682E+03  0.57921469683E+03  0.25500000920E-02 0. -1.
       -2   -1    0    0    0  501  0.00000000000E+00  0.00000000000E+00 -0.63761812603E+03  0.63761812604E+03  0.25500000920E-02 0.  1.
    10030    2    1    2    0    0  0.00000000000E+00  0.00000000000E+00 -0.58403429211E+02  0.12168328229E+04  0.12154304416E+04 0.  0.
        1    1    3    3  502    0  0.29385651145E+03 -0.53166595063E+03 -0.11934868419E+02  0.60758766733E+03  0.50400001928E-02 0.  1.
       -1    1    3    3    0  502 -0.29385651145E+03  0.53166595063E+03 -0.46468560792E+02  0.60924515554E+03  0.50400001928E-02 0. -1.
</event>
<event>
 5   0  0.6658994E-03  0.1205121E+04  0.7818609E-02  0.9108386E-01
        2   -1    0    0  501    0  0.00000000000E+00  0.00000000000E+00  0.77760892320E+03  0.77760892320E+03  0.25500000920E-02 0. -1.
       -2   -1    0    0    0  501  0.00000000000E+00  0.00000000000E+00 -0.46691755642E+03  0.46691755642E+03  0.25500000920E-02 0.  1.
    10030    2    1    2    0    0  0.00000000000E+00  0.00000000000E+00  0.31069136678E+03  0.12445264796E+04  0.12051211695E+04 0.  0.
        4    1    3    3  502    0  0.59035828745E+03 -0.12233370022E+02  0.27929133660E+03  0.65320580715E+03  0.12699999809E+01 0. -1.
       -4    1    3    3    0  502 -0.59035828745E+03  0.12233370022E+02  0.31400030189E+02  0.59132067247E+03  0.12699999809E+01 0.  1.
</event>
<event>
 5   0  0.6493047E-03  0.1191584E+04  0.7818609E-02  0.9120256E-01
       -2   -1    0    0    0  501  0.00000000000E+00  0.00000000000E+00  0.36243031255E+03  0.36243031256E+03  0.25500000920E-02 0. -1.
        2   -1    0    0  501    0  0.00000000000E+00  0.00000000000E+00 -0.97940987107E+03  0.97940987108E+03  0.25500000920E-02 0.  1.
    10030    2    1    2    0    0  0.00000000000E+00  0.00000000000E+00 -0.61697955853E+03  0.13418401836E+04  0.11915835274E+04 0.  0.
        3    1    3    3  502    0 -0.34101855934E+03  0.16270933018E+03  0.21024912456E+03  0.43240338634E+03  0.10100000352E+00 0. -1.
       -3    1    3    3    0  502  0.34101855934E+03 -0.16270933018E+03 -0.82722868309E+03  0.90943679729E+03  0.10100000352E+00 0.  1.
</event>
<event>
 5   0  0.3648616E-03  0.1164550E+04  0.7818609E-02  0.9144464E-01
        1   -1    0    0  501    0  0.00000000000E+00  0.00000000000E+00  0.47925176166E+03  0.47925176168E+03  0.50400001928E-02 0. -1.
       -1   -1    0    0    0  501  0.00000000000E+00  0.00000000000E+00 -0.70744494800E+03  0.70744494801E+03  0.50400001928E-02 0.  1.
    10030    2    1    2    0    0  0.00000000000E+00  0.00000000000E+00 -0.22819318634E+03  0.11866967097E+04  0.11645501065E+04 0.  0.
        2    1    3    3  502    0 -0.77516469847E+02 -0.27862133439E+03 -0.62908417289E+03  0.69237673824E+03  0.25500000920E-02 0.  1.
       -2    1    3    3    0  502  0.77516469847E+02  0.27862133439E+03  0.40089098655E+03  0.49431997145E+03  0.25500000920E-02 0. -1.
</event>
<event>
 5   0  0.3648616E-03  0.1134318E+04  0.7818609E-02  0.9172374E-01
        1   -1    0    0  501    0  0.00000000000E+00  0.00000000000E+00  0.21860232981E+03  0.21860232986E+03  0.50400001928E-02 0.  1.
       -1   -1    0    0    0  501  0.00000000000E+00  0.00000000000E+00 -0.14714815837E+04  0.14714815838E+04  0.50400001928E-02 0. -1.
    10030    2    1    2    0    0  0.00000000000E+00  0.00000000000E+00 -0.12528792539E+04  0.16900839136E+04  0.11343179493E+04 0.  0.
        2    1    3    3  502    0  0.30861155859E+03 -0.10471099168E+03  0.65169375962E+02  0.33234399866E+03  0.25500000920E-02 0.  1.
       -2    1    3    3    0  502 -0.30861155859E+03  0.10471099168E+03 -0.13180486299E+04  0.13577399150E+04  0.25500000920E-02 0. -1.
</event>
<event>
 5   0  0.6640844E-03  0.1163698E+04  0.7818609E-02  0.9145239E-01
        2   -1    0    0  501    0  0.00000000000E+00  0.00000000000E+00  0.15352883273E+04  0.15352883273E+04  0.25500000920E-02 0.  1.
       -2   -1    0    0    0  501  0.00000000000E+00  0.00000000000E+00 -0.22051115940E+03  0.22051115941E+03  0.25500000920E-02 0. -1.
    10030    2    1    2    0    0  0.00000000000E+00  0.00000000000E+00  0.13147771679E+04  0.17557994867E+04  0.11636979145E+04 0.  0.
        5    1    3    3  502    0 -0.20497929638E+02 -0.42849088373E+03  0.64325304161E+02  0.43380230211E+03  0.46999998093E+01 0. -1.
       -5    1    3    3    0  502  0.20497929638E+02  0.42849088373E+03  0.12504518637E+04  0.13219971846E+04  0.46999998093E+01 0.  1.
</event>
<event>
 5   0  0.3701879E-03  0.1267169E+04  0.7818609E-02  0.9056014E-01
       -1   -1    0    0    0  501  0.00000000000E+00  0.00000000000E+00  0.95150480160E+03  0.95150480161E+03  0.50400001928E-02 0.  1.
        1   -1    0    0  501    0  0.00000000000E+00  0.00000000000E+00 -0.42188861526E+03  0.42188861529E+03  0.50400001928E-02 0. -1.
    10030    2    1    2    0    0  0.00000000000E+00  0.00000000000E+00  0.52961618634E+03  0.13733934169E+04  0.12671685653E+04 0.  0.
        1    1    3    3  502    0 -0.32487919453E+03 -0.43037023028E+03 -0.95740483887E+02  0.54765980904E+03  0.50400001928E-02 0. -1.
       -1    1    3    3    0  502  0.32487919453E+03  0.43037023028E+03  0.62535667022E+03  0.82573360787E+03  0.50400001928E-02 0.  1.
</event>
<event>
 5   0  0.6493047E-03  0.1164187E+04  0.7818609E-02  0.9144795E-01
       -2   -1    0    0    0  501  0.00000000000E+00  0.00000000000E+00  0.38323340552E+03  0.38323340553E+03  0.25500000920E-02 0.  1.
        2   -1    0    0  501    0  0.00000000000E+00  0.00000000000E+00 -0.88414169729E+03  0.88414169729E+03  0.25500000920E-02 0. -1.
    10030    2    1    2    0    0  0.00000000000E+00  0.00000000000E+00 -0.50090829177E+03  0.12673751028E+04  0.11641866407E+04 0.  0.
        3    1    3    3  502    0  0.21770386237E+03 -0.69453480725E+02 -0.83326973310E+03  0.86403542518E+03  0.10100000352E+00 0. -1.
       -3    1    3    3    0  502 -0.21770386237E+03  0.69453480725E+02  0.33236144133E+03  0.40333967764E+03  0.10100000352E+00 0.  1.
</event>
<event>
 5   0  0.2537625E-03  0.1173048E+04  0.7818609E-02  0.9136780E-01
       -4   -1    0    0    0  501  0.00000000000E+00  0.00000000000E+00  0.51769379239E+03  0.51769535016E+03  0.12699999809E+01 0.  1.
        4   -1    0    0  501    0  0.00000000000E+00  0.00000000000E+00 -0.66450277968E+03  0.66450399329E+03  0.12699999809E+01 0. -1.
    10030    2    1    2    0    0  0.00000000000E+00  0.00000000000E+00 -0.14680898729E+03  0.11821993435E+04  0.11730483404E+04 0.  0.
        5    1    3    3  502    0  0.21354637866E+03 -0.54483180196E+03 -0.33794399906E+02  0.58618077393E+03  0.46999998093E+01 0.  1.
       -5    1    3    3    0  502 -0.21354637866E+03  0.54483180196E+03 -0.11301458738E+03  0.59601856953E+03  0.46999998093E+01 0. -1.
</event>
<event>
 5   0  0.3944074E-03  0.1208696E+04  0.7818609E-02  0.9105279E-01
        1   -1    0    0  501    0  0.00000000000E+00  0.00000000000E+00  0.55088238034E+03  0.55088238037E+03  0.50400001928E-02 0. -1.
       -1   -1    0    0    0  501  0.00000000000E+00  0.00000000000E+00 -0.66300225507E+03  0.66300225509E+03  0.50400001928E-02 0.  1.
    10030    2    1    2    0    0  0.00000000000E+00  0.00000000000E+00 -0.11211987473E+03  0.12138846355E+04  0.12086955952E+04 0.  0.
        4    1    3    3  502    0  0.38997622408E+02 -0.28943865819E+03  0.47530421618E+03  0.55786312141E+03  0.12699999809E+01 0. -1.
       -4    1    3    3    0  502 -0.38997622408E+02  0.28943865819E+03 -0.58742409091E+03  0.65602151404E+03  0.12699999809E+01 0.  1.
</event>
<event>
 5   0  0.3731281E-03  0.1198339E+04  0.7818609E-02  0.9114311E-01
       -1   -1    0    0    0  501  0.00000000000E+00  0.00000000000E+00  0.49011764665E+03  0.49011764667E+03  0.50400001928E-02 0. -1.
        1   -1    0    0  501    0  0.00000000000E+00  0.00000000000E+00 -0.73248576071E+03  0.73248576072E+03  0.50400001928E-02 0.  1.
    10030    2    1    2    0    0  0.00000000000E+00  0.00000000000E+00 -0.24236811406E+03  0.12226034074E+04  0.11983391795E+04 0.  0.
        5    1    3    3  502    0  0.81307396375E+02 -0.23089303867E+03  0.43675238826E+03  0.50069674121E+03  0.46999998093E+01 0. -1.
       -5    1    3    3    0  502 -0.81307396375E+02  0.23089303867E+03 -0.67912050232E+03  0.72190666618E+03  0.46999998093E+01 0.  1.
</event>
<event>
 5   0  0.6658994E-03  0.1087085E+04  0.7818609E-02  0.9217872E-01
        2   -1    0    0  501    0  0.00000000000E+00  0.00000000000E+00  0.12506574047E+04  0.12506574047E+04  0.25500000920E-02 0.  1.
       -2   -1    0    0    0  501  0.00000000000E+00  0.00000000000E+00 -0.23622664058E+03  0.23622664060E+03  0.25500000920E-02 0. -1.
    10030    2    1    2    0    0  0.00000000000E+00  0.00000000000E+00  0.10144307641E+04  0.14868840453E+04  0.10870852722E+04 0.  0.
        4    1    3    3  502    0 -0.39499566155E+03  0.37154279480E+03  0.55786658380E+03  0.77799894552E+03  0.12699999809E+01 0.  1.
       -4    1    3    3    0  502  0.39499566155E+03 -0.37154279480E+03  0.45656418028E+03  0.70888509974E+03  0.12699999809E+01 0. -1.
</event>
<event>
 5   0  0.3731281E-03  0.1428030E+04  0.7818609E-02  0.8933776E-01
        1   -1    0    0  501    0  0.00000000000E+00  0.00000000000E+00  0.79961509708E+03  0.79961509710E+03  0.50400001928E-02 0. -1.
       -1   -1    0    0    0  501  0.00000000000E+00  0.00000000000E+00 -0.63757811609E+03  0.63757811611E+03  0.50400001928E-02 0.  1.
    10030    2    1    2    0    0  0.00000000000E+00  0.00000000000E+00  0.16203698100E+03  0.14371932132E+04  0.14280295336E+04 0.  0.
        5    1    3    3  502    0 -0.71179083996E+03  0.39397030622E+02  0.40803706998E+02  0.71406257315E+03  0.46999998093E+01 0.  1.
       -5    1    3    3    0  502  0.71179083996E+03 -0.39397030622E+02  0.12123327400E+03  0.72313064006E+03  0.46999998093E+01 0. -1.
</event>
<event>
 5   0  0.6585930E-03  0.1230363E+04  0.7818609E-02  0.9086687E-01
        2   -1    0    0  501    0  0.00000000000E+00  0.00000000000E+00  0.18350698735E+04  0.18350698735E+04  0.25500000920E-02 0.  1.
       -2   -1    0    0    0  501  0.00000000000E+00  0.00000000000E+00 -0.20623103608E+03  0.20623103609E+03  0.25500000920E-02 0. -1.
    10030    2    1    2    0    0  0.00000000000E+00  0.00000000000E+00  0.16288388375E+04  0.20413009096E+04  0.12303631355E+04 0.  0.
        2    1    3    3  502    0 -0.39971522750E+03 -0.46652711956E+03  0.76121038750E+03  0.97819275729E+03  0.25500000920E-02 0. -1.
       -2    1    3    3    0  502  0.39971522750E+03  0.46652711956E+03  0.86762844996E+03  0.10631081523E+04  0.25500000920E-02 0.  1.
</event>
<event>
 5   0  0.3648616E-03  0.1251411E+04  0.7818609E-02  0.9069010E-01
        1   -1    0    0  501    0  0.00000000000E+00  0.00000000000E+00  0.10173098887E+04  0.10173098887E+04  0.50400001928E-02 0. -1.
       -1   -1    0    0    0  501  0.00000000000E+00  0.00000000000E+00 -0.38484558294E+03  0.38484558297E+03  0.50400001928E-02 0.  1.
    10030    2    1    2    0    0  0.00000000000E+00  0.00000000000E+00  0.63246430571E+03  0.14021554716E+04  0.12514107514E+04 0.  0.
        2    1    3    3  502    0 -0.27245766492E+02 -0.35301066521E+03 -0.26180823376E+03  0.44034351683E+03  0.25500000920E-02 0.  1.
       -2    1    3    3    0  502  0.27245766492E+02  0.35301066521E+03  0.89427253947E+03  0.96181195481E+03  0.25500000920E-02 0. -1.
</event>
<event>
 5   0  0.3944074E-03  0.1166605E+04  0.7818609E-02  0.9142600E-01
        1   -1    0    0  501    0  0.00000000000E+00  0.00000000000E+00  0.89645791052E+03  0.89645791053E+03  0.50400001928E-02 0. -1.
       -1   -1    0    0    0  501  0.00000000000E+00  0.00000000000E+00 -0.37954031115E+03  0.37954031119E+03  0.50400001928E-02 0.  1.
    10030    2    1    2    0    0  0.00000000000E+00  0.00000000000E+00  0.51691759937E+03  0.12759982217E+04  0.11666051848E+04 0.  0.
        4    1    3    3  502    0  0.10364800409E+02 -0.20596951917E+03  0.85525007046E+03  0.87976426834E+03  0.12699999809E+01 0. -1.
       -4    1    3    3    0  502 -0.10364800409E+02  0.20596951917E+03 -0.33833247110E+03  0.39623395338E+03  0.12699999809E+01 0.  1.
</event>
<event>
 5   0  0.6585930E-03  0.1167845E+04  0.7818609E-02  0.9141477E-01
        2   -1    0    0  501    0  0.00000000000E+00  0.00000000000E+00  0.57173213932E+03  0.57173213933E+03  0.25500000920E-02 0. -1.
       -2   -1    0    0    0  501  0.00000000000E+00  0.00000000000E+00 -0.59637271054E+03  0.59637271054E+03  0.25500000920E-02 0.  1.
    10030    2    1    2    0    0  0.00000000000E+00  0.00000000000E+00 -0.24640571213E+02  0.11681048499E+04  0.11678449309E+04 0.  0.
        2    1    3    3  502    0  0.35073705999E+03  0.45728155936E+03 -0.10637597301E+03  0.58603648130E+03  0.25500000920E-02 0.  1.
       -2    1    3    3    0  502 -0.35073705999E+03 -0.45728155936E+03  0.81735401796E+02  0.58206836857E+03  0.25500000920E-02 0. -1.
</event>
<event>
 5   0  0.6349142E-03  0.1240420E+04  0.7818609E-02  0.9078194E-01
        2   -1    0    0  501    0  0.00000000000E+00  0.00000000000E+00  0.15370804650E+04  0.15370804650E+04  0.25500000920E-02 0. -1.
       -2   -1    0    0    0  501  0.00000000000E+00  0.00000000000E+00 -0.25025411377E+03  0.25025411378E+03  0.25500000920E-02 0.  1.
    10030    2    1    2    0    0  0.00000000000E+00  0.00000000000E+00  0.12868263512E+04  0.17873345787E+04  0.12404204280E+04 0.  0.
        1    1    3    3  502    0  0.58762847510E+03  0.16805870100E+03  0.79528920810E+03  0.10030133979E+04  0.50400001928E-02 0. -1.
       -1    1    3    3    0  502 -0.58762847510E+03 -0.16805870100E+03  0.49153714309E+03  0.78432118089E+03  0.50400001928E-02 0.  1.
</event>
<event>
 5   0  0.3648616E-03  0.1258338E+04  0.7818609E-02  0.9063272E-01
       -1   -1    0    0    0  501  0.00000000000E+00  0.00000000000E+00  0.55377473142E+03  0.55377473145E+03  0.50400001928E-02 0.  1.
        1   -1    0    0  501    0  0.00000000000E+00  0.00000000000E+00 -0.71482737040E+03  0.71482737042E+03  0.50400001928E-02 0. -1.
    10030    2    1    2    0    0  0.00000000000E+00  0.00000000000E+00 -0.16105263898E+03  0.12686021019E+04  0.12583375304E+04 0.  0.
        2    1    3    3  502    0  0.56316532824E+02 -0.53882941445E+03  0.24199679092E+03  0.59335582627E+03  0.25500000920E-02 0.  1.
       -2    1    3    3    0  502 -0.56316532824E+02  0.53882941445E+03 -0.40304942991E+03  0.67524627559E+03  0.25500000920E-02 0. -1.
</event>
<event>
 5   0  0.3701879E-03  0.1211796E+04  0.7818609E-02  0.9102594E-01
        1   -1    0    0  501    0  0.00000000000E+00  0.00000000000E+00  0.21012183777E+04  0.21012183777E+04  0.50400001928E-02 0. -1.
       -1   -1    0    0    0  501  0.00000000000E+00  0.00000000000E+00 -0.17471397966E+03  0.17471397973E+03  0.50400001928E-02 0.  1.
    10030    2    1    2    0    0  0.00000000000E+00  0.00000000000E+00  0.19265043981E+04  0.22759323574E+04  0.12117957336E+04 0.  0.
        1    1    3    3  502    0 -0.51940798890E+03  0.26891421458E+03  0.66621535922E+03  0.88653393540E+03  0.50400001928E-02 0.  1.
       -1    1    3    3    0  502  0.51940798890E+03 -0.26891421458E+03  0.12602890388E+04  0.13893984220E+04  0.50400001928E-02 0. -1.
</event>
<event>
 5   0  0.3944074E-03  0.1264213E+04  0.7818609E-02  0.9058436E-01
        1   -1    0    0  501    0  0.00000000000E+00  0.00000000000E+00  0.12613807911E+04  0.12613807911E+04  0.50400001928E-02 0. -1.
       -1   -1    0    0    0  501  0.00000000000E+00  0.00000000000E+00 -0.31676300589E+03  0.31676300593E+03  0.50400001928E-02 0.  1.
    10030    2    1    2    0    0  0.00000000000E+00  0.00000000000E+00  0.94461778518E+03  0.15781437970E+04  0.12642132273E+04 0.  0.
        4    1    3    3  502    0 -0.13023342557E+03 -0.50869042437E+03  0.91158744016E+03  0.10520075888E+04  0.12699999809E+01 0. -1.
       -4    1    3    3    0  502  0.13023342557E+03  0.50869042437E+03  0.33030345021E+02  0.52613620819E+03  0.12699999809E+01 0.  1.
</event>
<event>
 5   0  0.6658994E-03  0.1206304E+04  0.7818609E-02  0.9107356E-01
        2   -1    0    0  501    0  0.00000000000E+00  0.00000000000E+00  0.95286278035E+03  0.95286278035E+03  0.25500000920E-02 0. -1.
       -2   -1    0    0    0  501  0.00000000000E+00  0.00000000000E+00 -0.38178897293E+03  0.38178897294E+03  0.25500000920E-02 0.  1.
    10030    2    1    2    0    0  0.00000000000E+00  0.00000000000E+00  0.57107380742E+03  0.13346517533E+04  0.12063042771E+04 0.  0.
        4    1    3    3  502    0  0.22235609692E+03  0.49632296202E+03  0.57407583488E+03  0.79078656638E+03  0.12699999809E+01 0. -1.
       -4    1    3    3    0  502 -0.22235609692E+03 -0.49632296202E+03 -0.30020274593E+01  0.54386518692E+03  0.12699999809E+01 0.  1.
</event>
<event>
 5   0  0.3772254E-03  0.1078921E+04  0.7818609E-02  0.9225984E-01
       -1   -1    0    0    0  501  0.00000000000E+00  0.00000000000E+00  0.14917770195E+04  0.14917770195E+04  0.50400001928E-02 0. -1.
        1   -1    0    0  501    0  0.00000000000E+00  0.00000000000E+00 -0.19508111898E+03  0.19508111904E+03  0.50400001928E-02 0.  1.
    10030    2    1    2    0    0  0.00000000000E+00  0.00000000000E+00  0.12966959005E+04  0.16868581385E+04  0.10789208132E+04 0.  0.
        3    1    3    3  502    0 -0.38953467028E+03 -0.46965970975E+02  0.12271995780E+04  0.12883950777E+04  0.10100000352E+00 0. -1.
       -3    1    3    3    0  502  0.38953467028E+03  0.46965970975E+02  0.69496322453E+02  0.39846306079E+03  0.10100000352E+00 0.  1.
</event>
<event>
 5   0  0.3701879E-03  0.1096624E+04  0.7818609E-02  0.9208489E-01
        1   -1    0    0  501    0  0.00000000000E+00  0.00000000000E+00  0.14889380320E+04  0.14889380320E+04  0.50400001928E-02 0. -1.
       -1   -1    0    0    0  501  0.00000000000E+00  0.00000000000E+00 -0.20191964198E+03  0.20191964205E+03  0.50400001928E-02 0.  1.
    10030    2    1    2    0    0  0.00000000000E+00  0.00000000000E+00  0.12870183900E+04  0.16908576740E+04  0.10966236080E+04 0.  0.
        1    1    3    3  502    0  0.46944577980E+03  0.10180459851E+03  0.23585187003E+03  0.53513514281E+03  0.50400001928E-02 0.  1.
       -1    1    3    3    0  502 -0.46944577980E+03 -0.10180459851E+03  0.10511665200E+04  0.11557225312E+04  0.50400001928E-02 0. -1.
</event>
<event>
 5   0  0.3701879E-03  0.1196236E+04  0.7818609E-02  0.9116158E-01
       -1   -1    0    0    0  501  0.00000000000E+00  0.00000000000E+00  0.19888764465E+03  0.19888764471E+03  0.50400001928E-02 0. -1.
        1   -1    0    0  501    0  0.00000000000E+00  0.00000000000E+00 -0.17987285331E+04  0.17987285331E+04  0.50400001928E-02 0.  1.
    10030    2    1    2    0    0  0.00000000000E+00  0.00000000000E+00 -0.15998408885E+04  0.19976161779E+04  0.11962355644E+04 0.  0.
        1    1    3    3  502    0 -0.39776140139E+03 -0.97678483632E+02 -0.72039545761E+02  0.41586646268E+03  0.50400001928E-02 0. -1.
       -1    1    3    3    0  502  0.39776140139E+03  0.97678483632E+02 -0.15278013427E+04  0.15817497152E+04  0.50400001928E-02 0.  1.
</event>
<event>
 5   0  0.6658994E-03  0.1141224E+04  0.7818609E-02  0.9165918E-01
        2   -1    0    0  501    0  0.00000000000E+00  0.00000000000E+00  0.68045825789E+03  0.68045825789E+03  0.25500000920E-02 0. -1.
       -2   -1    0    0    0  501  0.00000000000E+00  0.00000000000E+00 -0.47849836111E+03  0.47849836112E+03  0.25500000920E-02 0.  1.
    10030    2    1    2    0    0  0.00000000000E+00  0.00000000000E+00  0.20195989677E+03  0.11589566190E+04  0.11412241869E+04 0.  0.
        4    1    3    3  502    0  0.52524957326E+03 -0.21181672276E+03  0.17165373845E+03  0.59179393126E+03  0.12699999809E+01 0. -1.
       -4    1    3    3    0  502 -0.52524957326E+03  0.21181672276E+03  0.30306158323E+02  0.56716268775E+03  0.12699999809E+01 0.  1.
</event>
<event>
 5   0  0.6493047E-03  0.8628952E+03  0.7818609E-02  0.9473191E-01
        2   -1    0    0  501    0  0.00000000000E+00  0.00000000000E+00  0.67573150933E+03  0.67573150933E+03  0.25500000920E-02 0. -1.
       -2   -1    0    0    0  501  0.00000000000E+00  0.00000000000E+00 -0.27547481961E+03  0.27547481962E+03  0.25500000920E-02 0.  1.
    10030    2    1    2    0    0  0.00000000000E+00  0.00000000000E+00  0.40025668972E+03  0.95120632895E+03  0.86289516314E+03 0.  0.
        3    1    3    3  502    0  0.18547848963E+03  0.10721582234E+03 -0.21269795948E+03  0.30189060078E+03  0.10100000352E+00 0.  1.
       -3    1    3    3    0  502 -0.18547848963E+03 -0.10721582234E+03  0.61295464920E+03  0.64931572817E+03  0.10100000352E+00 0. -1.
</event>
<event>
 5   0  0.6640844E-03  0.1175052E+04  0.7818609E-02  0.9134978E-01
        2   -1    0    0  501    0  0.00000000000E+00  0.00000000000E+00  0.45059267465E+03  0.45059267466E+03  0.25500000920E-02 0.  1.
       -2   -1    0    0    0  501  0.00000000000E+00  0.00000000000E+00 -0.76607256295E+03  0.76607256295E+03  0.25500000920E-02 0. -1.
    10030    2    1    2    0    0  0.00000000000E+00  0.00000000000E+00 -0.31547988830E+03  0.12166652376E+04  0.11750518033E+04 0.  0.
        5    1    3    3  502    0 -0.35933084450E+02 -0.21294863437E+03  0.40798506283E+03  0.46164077910E+03  0.46999998093E+01 0.  1.
       -5    1    3    3    0  502  0.35933084450E+02  0.21294863437E+03 -0.72346495113E+03  0.75502445851E+03  0.46999998093E+01 0. -1.
</event>
<event>
 5   0  0.6493047E-03  0.1363643E+04  0.7818609E-02  0.8980564E-01
        2   -1    0    0  501    0  0.00000000000E+00  0.00000000000E+00  0.24845261012E+04  0.24845261012E+04  0.25500000920E-02 0. -1.
       -2   -1    0    0    0  501  0.00000000000E+00  0.00000000000E+00 -0.18711035348E+03  0.18711035350E+03  0.25500000920E-02 0.  1.
    10030    2    1    2    0    0  0.00000000000E+00  0.00000000000E+00  0.22974157477E+04  0.26716364547E+04  0.13636429988E+04 0.  0.
        3    1    3    3  502    0 -0.15752203938E+03 -0.96032109398E+02  0.24346970021E+04  0.24416766496E+04  0.10100000352E+00 0. -1.
       -3    1    3    3    0  502  0.15752203938E+03  0.96032109398E+02 -0.13728125443E+03  0.22995980506E+03  0.10100000352E+00 0.  1.
</event>
<event>
 5   0  0.3772254E-03  0.1197470E+04  0.7818609E-02  0.9115074E-01
        1   -1    0    0  501    0  0.00000000000E+00  0.00000000000E+00  0.12120753931E+04  0.12120753931E+04  0.50400001928E-02 0. -1.
       -1   -1    0    0    0  501  0.00000000000E+00  0.00000000000E+00 -0.29576005819E+03  0.29576005824E+03  0.50400001928E-02 0.  1.
    10030    2    1    2    0    0  0.00000000000E+00  0.00000000000E+00  0.91631533493E+03  0.15078354514E+04  0.11974698140E+04 0.  0.
        3    1    3    3  502    0 -0.73664070541E+02 -0.48315866644E+03  0.89365130060E+03  0.10185682842E+04  0.10100000352E+00 0. -1.
       -3    1    3    3    0  502  0.73664070541E+02  0.48315866644E+03  0.22664034329E+02  0.48926716720E+03  0.10100000352E+00 0.  1.
</event>
<event>
 5   0  0.6640844E-03  0.1192027E+04  0.7818609E-02  0.9119864E-01
        2   -1    0    0  501    0  0.00000000000E+00  0.00000000000E+00  0.43451298598E+03  0.43451298599E+03  0.25500000920E-02 0. -1.
       -2   -1    0    0    0  501  0.00000000000E+00  0.00000000000E+00 -0.81754020759E+03  0.81754020759E+03  0.25500000920E-02 0.  1.
    10030    2    1    2    0    0  0.00000000000E+00  0.00000000000E+00 -0.38302722161E+03  0.12520531936E+04  0.11920265715E+04 0.  0.
        5    1    3    3  502    0 -0.66650733697E+01  0.56270203662E+03 -0.39769343416E+03  0.68910098156E+03  0.46999998093E+01 0.  1.
       -5    1    3    3    0  502  0.66650733697E+01 -0.56270203662E+03  0.14666212548E+02  0.56295221201E+03  0.46999998093E+01 0. -1.
</event>
<event>
 5   0  0.6585930E-03  0.1199612E+04  0.7818609E-02  0.9113196E-01
        2   -1    0    0  501    0  0.00000000000E+00  0.00000000000E+00  0.44172538271E+03  0.44172538271E+03  0.25500000920E-02 0. -1.
       -2   -1    0    0    0  501  0.00000000000E+00  0.00000000000E+00 -0.81445908199E+03  0.81445908200E+03  0.25500000920E-02 0.  1.
    10030    2    1    2    0    0  0.00000000000E+00  0.00000000000E+00 -0.37273369929E+03  0.12561844647E+04  0.11996120201E+04 0.  0.
        2    1    3    3  502    0 -0.39942764225E+03  0.37238005520E+02 -0.65330832864E+03  0.76664260430E+03  0.25500000920E-02 0.  1.
       -2    1    3    3    0  502  0.39942764225E+03 -0.37238005520E+02  0.28057462935E+03  0.48954186041E+03  0.25500000920E-02 0. -1.
</event>
<event>
 5   0  0.6640844E-03  0.1212208E+04  0.7818609E-02  0.9102237E-01
       -2   -1    0    0    0  501  0.00000000000E+00  0.00000000000E+00  0.30547439860E+03  0.30547439861E+03  0.25500000920E-02 0.  1.
        2   -1    0    0  501    0  0.00000000000E+00  0.00000000000E+00 -0.12025960864E+04  0.12025960864E+04  0.25500000920E-02 0. -1.
    10030    2    1    2    0    0  0.00000000000E+00  0.00000000000E+00 -0.89712168779E+03  0.15080704850E+04  0.12122084248E+04 0.  0.
        5    1    3    3  502    0  0.52129885633E+03 -0.94539157448E+02 -0.82352009320E+02  0.53618475672E+03  0.46999998093E+01 0.  1.
       -5    1    3    3    0  502 -0.52129885633E+03  0.94539157448E+02 -0.81476967847E+03  0.97188572829E+03  0.46999998093E+01 0. -1.
</event>
<event>
 5   0  0.3701879E-03  0.1006529E+04  0.7818609E-02  0.9301412E-01
        1   -1    0    0  501    0  0.00000000000E+00  0.00000000000E+00  0.19752650625E+04  0.19752650625E+04  0.50400001928E-02 0. -1.
       -1   -1    0    0    0  501  0.00000000000E+00  0.00000000000E+00 -0.12822348288E+03  0.12822348298E+03  0.50400001928E-02 0.  1.
    10030    2    1    2    0    0  0.00000000000E+00  0.00000000000E+00  0.18470415796E+04  0.21034885455E+04  0.10065294155E+04 0.  0.
        1    1    3    3  502    0 -0.39953142121E+03  0.23523149472E+03  0.13325973839E+04  0.14109482628E+04  0.50400001928E-02 0. -1.
       -1    1    3    3    0  502  0.39953142121E+03 -0.23523149472E+03  0.51444419573E+03  0.69254028272E+03  0.50400001928E-02 0.  1.
</event>
<event>
 5   0  0.6585930E-03  0.1199050E+04  0.7818609E-02  0.9113688E-01
       -2   -1    0    0    0  501  0.00000000000E+00  0.00000000000E+00  0.51005215173E+03  0.51005215173E+03  0.25500000920E-02 0. -1.
        2   -1    0    0  501    0  0.00000000000E+00  0.00000000000E+00 -0.70469329038E+03  0.70469329038E+03  0.25500000920E-02 0.  1.
    10030    2    1    2    0    0  0.00000000000E+00  0.00000000000E+00 -0.19464113865E+03  0.12147454421E+04  0.11990501725E+04 0.  0.
        2    1    3    3  502    0  0.73763789050E+02  0.16488559437E+03 -0.67646949810E+03  0.70017093461E+03  0.25500000920E-02 0.  1.
       -2    1    3    3    0  502 -0.73763789050E+02 -0.16488559437E+03  0.48182835945E+03  0.51457450751E+03  0.25500000920E-02 0. -1.
</event>
<event>
 5   0  0.3731281E-03  0.1219347E+04  0.7818609E-02  0.9096089E-01
        1   -1    0    0  501    0  0.00000000000E+00  0.00000000000E+00  0.38313692685E+03  0.38313692688E+03  0.50400001928E-02 0. -1.
       -1   -1    0    0    0  501  0.00000000000E+00  0.00000000000E+00 -0.97015387361E+03  0.97015387362E+03  0.50400001928E-02 0.  1.
    10030    2    1    2    0    0  0.00000000000E+00  0.00000000000E+00 -0.58701694676E+03  0.13532908005E+04  0.12193469953E+04 0.  0.
        5    1    3    3  502    0  0.18457915178E+03 -0.46631483631E+03 -0.67822870978E+03  0.84352549612E+03  0.46999998093E+01 0.  1.
       -5    1    3    3    0  502 -0.18457915178E+03  0.46631483631E+03  0.91211763016E+02  0.50976530438E+03  0.46999998093E+01 0. -1.
</event>
<event>
 5   0  0.3772254E-03  0.1181039E+04  0.7818609E-02  0.9129617E-01
       -1   -1    0    0    0  501  0.00000000000E+00  0.00000000000E+00  0.19261052982E+03  0.19261052989E+03  0.50400001928E-02 0.  1.
        1   -1    0    0  501    0  0.00000000000E+00  0.00000000000E+00 -0.18104568541E+04  0.18104568541E+04  0.50400001928E-02 0. -1.
    10030    2    1    2    0    0  0.00000000000E+00  0.00000000000E+00 -0.16178463243E+04  0.20030673840E+04  0.11810386174E+04 0.  0.
        3    1    3    3  502    0  0.24718945739E+03  0.34119922864E+02  0.98799188557E+02  0.26838048893E+03  0.10100000352E+00 0.  1.
       -3    1    3    3    0  502 -0.24718945739E+03 -0.34119922864E+02 -0.17166455129E+04  0.17346868951E+04  0.10100000352E+00 0. -1.
</event>
<event>
 5   0  0.6658994E-03  0.6725893E+03  0.7818609E-02  0.9765291E-01
       -2   -1    0    0    0  501  0.00000000000E+00  0.00000000000E+00  0.79307820749E+02  0.79307820790E+02  0.25500000920E-02 0.  1.
        2   -1    0    0  501    0  0.00000000000E+00  0.00000000000E+00 -0.14260145540E+04  0.14260145540E+04  0.25500000920E-02 0. -1.
    10030    2    1    2    0    0  0.00000000000E+00  0.00000000000E+00 -0.13467067332E+04  0.15053223748E+04  0.67258934474E+03 0.  0.
        4    1    3    3  502    0  0.89728052576E+02  0.30554533007E+03 -0.91526934751E+03  0.96908650983E+03  0.12699999809E+01 0.  1.
       -4    1    3    3    0  502 -0.89728052576E+02 -0.30554533007E+03 -0.43143738572E+03  0.53623586494E+03  0.12699999809E+01 0. -1.
</event>
<event>
 5   0  0.3772254E-03  0.1212914E+04  0.7818609E-02  0.9101628E-01
        1   -1    0    0  501    0  0.00000000000E+00  0.00000000000E+00  0.92946412031E+03  0.92946412032E+03  0.50400001928E-02 0.  1.
       -1   -1    0    0    0  501  0.00000000000E+00  0.00000000000E+00 -0.39570095923E+03  0.39570095926E+03  0.50400001928E-02 0. -1.
    10030    2    1    2    0    0  0.00000000000E+00  0.00000000000E+00  0.53376316108E+03  0.13251650796E+04  0.12129135897E+04 0.  0.
        3    1    3    3  502    0 -0.25298376676E+03 -0.53903255487E+03  0.14120090821E+03  0.61195962950E+03  0.10100000352E+00 0. -1.
       -3    1    3    3    0  502  0.25298376676E+03  0.53903255487E+03  0.39256225287E+03  0.71320545008E+03  0.10100000352E+00 0.  1.
</event>
<event>
 5   0  0.3944074E-03  0.8222643E+03  0.7818609E-02  0.9528338E-01
       -1   -1    0    0    0  501  0.00000000000E+00  0.00000000000E+00  0.19344122013E+03  0.19344122020E+03  0.50400001928E-02 0.  1.
        1   -1    0    0  501    0  0.00000000000E+00  0.00000000000E+00 -0.87380369625E+03  0.87380369627E+03  0.50400001928E-02 0. -1.
    10030    2    1    2    0    0  0.00000000000E+00  0.00000000000E+00 -0.68036247612E+03  0.10672449165E+04  0.82226432053E+03 0.  0.
        4    1    3    3  502    0 -0.35517884382E+03  0.95581258290E+02 -0.57859252479E+03  0.68560827786E+03  0.12699999809E+01 0. -1.
       -4    1    3    3    0  502  0.35517884382E+03 -0.95581258290E+02 -0.10176995133E+03  0.38163663860E+03  0.12699999809E+01 0.  1.
</event>
<event>
 5   0  0.3772254E-03  0.1147518E+04  0.7818609E-02  0.9160076E-01
        1   -1    0    0  501    0  0.00000000000E+00  0.00000000000E+00  0.72960669753E+03  0.72960669755E+03  0.50400001928E-02 0.  1.
       -1   -1    0    0    0  501  0.00000000000E+00  0.00000000000E+00 -0.45120132556E+03  0.45120132559E+03  0.50400001928E-02 0. -1.
    10030    2    1    2    0    0  0.00000000000E+00  0.00000000000E+00  0.27840537197E+03  0.11808080231E+04  0.11475182074E+04 0.  0.
        3    1    3    3  502    0 -0.47716334569E+03 -0.15792352093E+03  0.42395197697E+03  0.65754086254E+03  0.10100000352E+00 0.  1.
       -3    1    3    3    0  502  0.47716334569E+03  0.15792352093E+03 -0.14554660500E+03  0.52326716060E+03  0.10100000352E+00 0. -1.
</event>
<event>
 5   0  0.6493047E-03  0.1196592E+04  0.7818609E-02  0.9115844E-01
       -2   -1    0    0    0  501  0.00000000000E+00  0.00000000000E+00  0.69667357800E+03  0.69667357801E+03  0.25500000920E-02 0.  1.
        2   -1    0    0  501    0  0.00000000000E+00  0.00000000000E+00 -0.51381065830E+03  0.51381065831E+03  0.25500000920E-02 0. -1.
    10030    2    1    2    0    0  0.00000000000E+00  0.00000000000E+00  0.18286291970E+03  0.12104842363E+04  0.11965923445E+04 0.  0.
        3    1    3    3  502    0 -0.15902925947E+03 -0.49750965634E+03 -0.20376469179E+03  0.56064803874E+03  0.10100000352E+00 0. -1.
       -3    1    3    3    0  502  0.15902925947E+03  0.49750965634E+03  0.38662761149E+03  0.64983619758E+03  0.10100000352E+00 0.  1.
</event>
<event>
 5   0  0.3944074E-03  0.1166778E+04  0.7818609E-02  0.9142443E-01
        1   -1    0    0  501    0  0.00000000000E+00  0.00000000000E+00  0.16481946441E+04  0.16481946441E+04  0.50400001928E-02 0.  1.
       -1   -1    0    0    0  501  0.00000000000E+00  0.00000000000E+00 -0.20649432567E+03  0.20649432574E+03  0.50400001928E-02 0. -1.
    10030    2    1    2    0    0  0.00000000000E+00  0.00000000000E+00  0.14417003184E+04  0.18546889698E+04  0.11667781994E+04 0.  0.
        4    1    3    3  502    0 -0.98657301574E+02 -0.31128379726E+03 -0.47610728779E+02  0.32999887877E+03  0.12699999809E+01 0. -1.
       -4    1    3    3    0  502  0.98657301574E+02  0.31128379726E+03  0.14893110472E+04  0.15246900911E+04  0.12699999809E+01 0.  1.
</event>
<event>
 5   0  0.3731281E-03  0.1207655E+04  0.7818609E-02  0.9106182E-01
       -1   -1    0    0    0  501  0.00000000000E+00  0.00000000000E+00  0.10682161844E+04  0.10682161844E+04  0.50400001928E-02 0. -1.
        1   -1    0    0  501    0  0.00000000000E+00  0.00000000000E+00 -0.34132395071E+03  0.34132395074E+03  0.50400001928E-02 0.  1.
    10030    2    1    2    0    0  0.00000000000E+00  0.00000000000E+00  0.72689223366E+03  0.14095401351E+04  0.12076551963E+04 0.  0.
        5    1    3    3  502    0 -0.10628057501E+03 -0.49355803239E+03 -0.23115893364E+02  0.50542212703E+03  0.46999998093E+01 0.  1.
       -5    1    3    3    0  502  0.10628057501E+03  0.49355803239E+03  0.75000812703E+03  0.90411800810E+03  0.46999998093E+01 0. -1.
</event>
<event>
 5   0  0.6640844E-03  0.1174877E+04  0.7818609E-02  0.9135135E-01
       -2   -1    0    0    0  501  0.00000000000E+00  0.00000000000E+00  0.68744466091E+03  0.68744466092E+03  0.25500000920E-02 0. -1.
        2   -1    0    0  501    0  0.00000000000E+00  0.00000000000E+00 -0.50198096606E+03  0.50198096607E+03  0.25500000920E-02 0.  1.
    10030    2    1    2    0    0  0.00000000000E+00  0.00000000000E+00  0.18546369485E+03  0.11894256270E+04  0.11748772447E+04 0.  0.
        5    1    3    3  502    0 -0.26894057774E+03 -0.31943797664E+03 -0.32553349317E+03  0.52949390974E+03  0.46999998093E+01 0.  1.
       -5    1    3    3    0  502  0.26894057774E+03  0.31943797664E+03  0.51099718802E+03  0.65993171725E+03  0.46999998093E+01 0. -1.
</event>
<event>
 5   0  0.3731281E-03  0.1201405E+04  0.7818609E-02  0.9111628E-01
        1   -1    0    0  501    0  0.00000000000E+00  0.00000000000E+00  0.54846219660E+03  0.54846219663E+03  0.50400001928E-02 0. -1.
       -1   -1    0    0    0  501  0.00000000000E+00  0.00000000000E+00 -0.65791838075E+03  0.65791838077E+03  0.50400001928E-02 0.  1.
    10030    2    1    2    0    0  0.00000000000E+00  0.00000000000E+00 -0.10945618415E+03  0.12063805774E+04  0.12014047783E+04 0.  0.
        5    1    3    3  502    0 -0.34950523800E+03  0.25605251304E+03  0.36305332847E+03  0.56528453909E+03  0.46999998093E+01 0. -1.
       -5    1    3    3    0  502  0.34950523800E+03 -0.25605251304E+03 -0.47250951261E+03  0.64109603831E+03  0.46999998093E+01 0.  1.
</event>
<event>
 5   0  0.6658994E-03  0.1231291E+04  0.7818609E-02  0.9085900E-01
        2   -1    0    0  501    0  0.00000000000E+00  0.00000000000E+00  0.72034981213E+03  0.72034981213E+03  0.25500000920E-02 0. -1.
       -2   -1    0    0    0  501  0.00000000000E+00  0.00000000000E+00 -0.52615984837E+03  0.52615984838E+03  0.25500000920E-02 0.  1.
    10030    2    1    2    0    0  0.00000000000E+00  0.00000000000E+00  0.19418996375E+03  0.12465096605E+04  0.12312906203E+04 0.  0.
        4    1    3    3  502    0  0.19533764875E+03  0.25067990829E+03  0.63088856437E+03  0.70641291536E+03  0.12699999809E+01 0. -1.
       -4    1    3    3    0  502 -0.19533764875E+03 -0.25067990829E+03 -0.43669860061E+03  0.54009674515E+03  0.12699999809E+01 0.  1.
</event>
<event>
 5   0  0.3648616E-03  0.1233115E+04  0.7818609E-02  0.9084355E-01
        1   -1    0    0  501    0  0.00000000000E+00  0.00000000000E+00  0.92549903815E+03  0.92549903816E+03  0.50400001928E-02 0.  1.
       -1   -1    0    0    0  501  0.00000000000E+00  0.00000000000E+00 -0.41074420904E+03  0.41074420908E+03  0.50400001928E-02 0. -1.
    10030    2    1    2    0    0  0.00000000000E+00  0.00000000000E+00  0.51475482910E+03  0.13362432472E+04  0.12331153562E+04 0.  0.
        2    1    3    3  502    0 -0.46323676173E+03  0.40319874258E+03  0.19816461549E+03  0.64531134987E+03  0.25500000920E-02 0. -1.
       -2    1    3    3    0  502  0.46323676173E+03 -0.40319874258E+03  0.31659021361E+03  0.69093189736E+03  0.25500000920E-02 0.  1.
</event>
<event>
 5   0  0.3648616E-03  0.1182185E+04  0.7818609E-02  0.9128594E-01
       -1   -1    0    0    0  501  0.00000000000E+00  0.00000000000E+00  0.44267835427E+03  0.44267835430E+03  0.50400001928E-02 0. -1.
        1   -1    0    0  501    0  0.00000000000E+00  0.00000000000E+00 -0.78926491439E+03  0.78926491441E+03  0.50400001928E-02 0.  1.
    10030    2    1    2    0    0  0.00000000000E+00  0.00000000000E+00 -0.34658656012E+03  0.12319432687E+04  0.11821852535E+04 0.  0.
        2    1    3    3  502    0  0.54455355115E+03 -0.22648193516E+03 -0.21442424344E+03  0.62754314051E+03  0.25500000920E-02 0.  1.
       -2    1    3    3    0  502 -0.54455355115E+03  0.22648193516E+03 -0.13216231668E+03  0.60440012821E+03  0.25500000920E-02 0. -1.
</event>
<event>
 5   0  0.3701879E-03  0.1204962E+04  0.7818609E-02  0.9108524E-01
        1   -1    0    0  501    0  0.00000000000E+00  0.00000000000E+00  0.51079300766E+03  0.51079300769E+03  0.50400001928E-02 0. -1.
       -1   -1    0    0    0  501  0.00000000000E+00  0.00000000000E+00 -0.71062742120E+03  0.71062742121E+03  0.50400001928E-02 0.  1.
    10030    2    1    2    0    0  0.00000000000E+00  0.00000000000E+00 -0.19983441353E+03  0.12214204289E+04  0.12049622697E+04 0.  0.
        1    1    3    3  502    0 -0.53088003488E+03  0.99837224097E+02  0.17052729188E+03  0.56646327335E+03  0.50400001928E-02 0. -1.
       -1    1    3    3    0  502  0.53088003488E+03 -0.99837224097E+02 -0.37036170542E+03  0.65495715556E+03  0.50400001928E-02 0.  1.
</event>
<event>
 5   0  0.6493047E-03  0.1140307E+04  0.7818609E-02  0.9166773E-01
       -2   -1    0    0    0  501  0.00000000000E+00  0.00000000000E+00  0.35011623215E+03  0.35011623216E+03  0.25500000920E-02 0.  1.
        2   -1    0    0  501    0  0.00000000000E+00  0.00000000000E+00 -0.92847694259E+03  0.92847694259E+03  0.25500000920E-02 0. -1.
    10030    2    1    2    0    0  0.00000000000E+00  0.00000000000E+00 -0.57836071044E+03  0.12785931748E+04  0.11403067110E+04 0.  0.
        3    1    3    3  502    0 -0.55536944646E+03  0.12136110885E+03 -0.33819796792E+03  0.66146928614E+03  0.10100000352E+00 0.  1.
       -3    1    3    3    0  502  0.55536944646E+03 -0.12136110885E+03 -0.24016274252E+03  0.61712388861E+03  0.10100000352E+00 0. -1.
</event>
<event>
 5   0  0.3648616E-03  0.1180324E+04  0.7818609E-02  0.9130256E-01
       -1   -1    0    0    0  501  0.00000000000E+00  0.00000000000E+00  0.68296470383E+03  0.68296470385E+03  0.50400001928E-02 0.  1.
        1   -1    0    0  501    0  0.00000000000E+00  0.00000000000E+00 -0.50996923760E+03  0.50996923762E+03  0.50400001928E-02 0. -1.
    10030    2    1    2    0    0  0.00000000000E+00  0.00000000000E+00  0.17299546624E+03  0.11929339415E+04  0.11803236664E+04 0.  0.
        2    1    3    3  502    0  0.21686050166E+03  0.52007443588E+03 -0.90833615654E+02  0.57075094549E+03  0.25500000920E-02 0.  1.
       -2    1    3    3    0  502 -0.21686050166E+03 -0.52007443588E+03  0.26382908189E+03  0.62218299599E+03  0.25500000920E-02 0. -1.
</event>
<event>
 5   0  0.2537625E-03  0.7706341E+03  0.7818609E-02  0.9603523E-01
        3   -1    0    0  501    0  0.00000000000E+00  0.00000000000E+00  0.10033351386E+04  0.10033351437E+04  0.10100000352E+00 0. -1.
       -3   -1    0    0    0  501  0.00000000000E+00  0.00000000000E+00 -0.14797569333E+03  0.14797572780E+03  0.10100000352E+00 0.  1.
    10030    2    1    2    0    0  0.00000000000E+00  0.00000000000E+00  0.85535944529E+03  0.11513108715E+04  0.77063411694E+03 0.  0.
        1    1    3    3  502    0 -0.66521374925E+02 -0.25404277849E+03  0.84893508543E+03  0.88862455848E+03  0.50400001928E-02 0. -1.
       -1    1    3    3    0  502  0.66521374925E+02  0.25404277849E+03  0.64243598611E+01  0.26268631302E+03  0.50400001928E-02 0.  1.
</event>
<event>
 5   0  0.3648616E-03  0.1229589E+04  0.7818609E-02  0.9087345E-01
        1   -1    0    0  501    0  0.00000000000E+00  0.00000000000E+00  0.11328444440E+04  0.11328444440E+04  0.50400001928E-02 0.  1.
       -1   -1    0    0    0  501  0.00000000000E+00  0.00000000000E+00 -0.33364865903E+03  0.33364865907E+03  0.50400001928E-02 0. -1.
    10030    2    1    2    0    0  0.00000000000E+00  0.00000000000E+00  0.79919578497E+03  0.14664931031E+04  0.12295885973E+04 0.  0.
        2    1    3    3  502    0  0.38387042381E+03 -0.18765311283E+03 -0.12761317487E+03  0.44593196279E+03  0.25500000920E-02 0. -1.
       -2    1    3    3    0  502 -0.38387042381E+03  0.18765311283E+03  0.92680895984E+03  0.10205611403E+04  0.25500000920E-02 0.  1.
</event>
<event>
 5   0  0.6640844E-03  0.1205564E+04  0.7818609E-02  0.9108000E-01
        2   -1    0    0  501    0  0.00000000000E+00  0.00000000000E+00  0.57864048105E+03  0.57864048105E+03  0.25500000920E-02 0.  1.
       -2   -1    0    0    0  501  0.00000000000E+00  0.00000000000E+00 -0.62793046561E+03  0.62793046561E+03  0.25500000920E-02 0. -1.
    10030    2    1    2    0    0  0.00000000000E+00  0.00000000000E+00 -0.49289984561E+02  0.12065709467E+04  0.12055637465E+04 0.  0.
        5    1    3    3  502    0 -0.57340396637E+03  0.10934271748E+03 -0.17502350324E+03  0.60942863011E+03  0.46999998093E+01 0.  1.
       -5    1    3    3    0  502  0.57340396637E+03 -0.10934271748E+03  0.12573351868E+03  0.59714231656E+03  0.46999998093E+01 0. -1.
</event>
<event>
 5   0  0.6658994E-03  0.7056306E+03  0.7818609E-02  0.9707651E-01
        2   -1    0    0  501    0  0.00000000000E+00  0.00000000000E+00  0.74132748791E+03  0.74132748791E+03  0.25500000920E-02 0. -1.
       -2   -1    0    0    0  501  0.00000000000E+00  0.00000000000E+00 -0.16791317361E+03  0.16791317363E+03  0.25500000920E-02 0.  1.
    10030    2    1    2    0    0  0.00000000000E+00  0.00000000000E+00  0.57341431429E+03  0.90924066154E+03  0.70563064330E+03 0.  0.
        4    1    3    3  502    0  0.10333584309E+03  0.29558015910E+02 -0.14630151299E+03  0.18154260760E+03  0.12699999809E+01 0.  1.
       -4    1    3    3    0  502 -0.10333584309E+03 -0.29558015910E+02  0.71971582728E+03  0.72769805394E+03  0.12699999809E+01 0. -1.
</event>
<event>
 5   0  0.3648616E-03  0.1211797E+04  0.7818609E-02  0.9102593E-01
       -1   -1    0    0    0  501  0.00000000000E+00  0.00000000000E+00  0.19882326125E+03  0.19882326131E+03  0.50400001928E-02 0. -1.
        1   -1    0    0  501    0  0.00000000000E+00  0.00000000000E+00 -0.18464297009E+04  0.18464297009E+04  0.50400001928E-02 0.  1.
    10030    2    1    2    0    0  0.00000000000E+00  0.00000000000E+00 -0.16476064397E+04  0.20452529622E+04  0.12117973013E+04 0.  0.
        2    1    3    3  502    0 -0.18761860615E+02 -0.38449257324E+03 -0.16135108676E+04  0.16587959086E+04  0.25500000920E-02 0.  1.
       -2    1    3    3    0  502  0.18761860615E+02  0.38449257324E+03 -0.34095572040E+02  0.38645705367E+03  0.25500000920E-02 0. -1.
</event>
<event>
 5   0  0.3701879E-03  0.1178244E+04  0.7818609E-02  0.9132115E-01
        1   -1    0    0  501    0  0.00000000000E+00  0.00000000000E+00  0.44140620853E+03  0.44140620856E+03  0.50400001928E-02 0. -1.
       -1   -1    0    0    0  501  0.00000000000E+00  0.00000000000E+00 -0.78627118709E+03  0.78627118711E+03  0.50400001928E-02 0.  1.
    10030    2    1    2    0    0  0.00000000000E+00  0.00000000000E+00 -0.34486497856E+03  0.12276773957E+04  0.11782444290E+04 0.  0.
        1    1    3    3  502    0  0.25150936767E+03 -0.53065375668E+03 -0.22146653141E+03  0.62761277557E+03  0.50400001928E-02 0. -1.
       -1    1    3    3    0  502 -0.25150936767E+03  0.53065375668E+03 -0.12339844715E+03  0.60006462009E+03  0.50400001928E-02 0.  1.
</event>
<event>
 5   0  0.3772254E-03  0.1180036E+04  0.7818609E-02  0.9130513E-01
       -1   -1    0    0    0  501  0.00000000000E+00  0.00000000000E+00  0.29904928441E+03  0.29904928445E+03  0.50400001928E-02 0.  1.
        1   -1    0    0  501    0  0.00000000000E+00  0.00000000000E+00 -0.11640927038E+04  0.11640927038E+04  0.50400001928E-02 0. -1.
    10030    2    1    2    0    0  0.00000000000E+00  0.00000000000E+00 -0.86504341936E+03  0.14631419882E+04  0.11800357454E+04 0.  0.
        3    1    3    3  502    0  0.40366254058E+03  0.15395515508E+03 -0.93076855020E+03  0.10261460621E+04  0.10100000352E+00 0. -1.
       -3    1    3    3    0  502 -0.40366254058E+03 -0.15395515508E+03  0.65725130849E+02  0.43699592615E+03  0.10100000352E+00 0.  1.
</event>
<event>
 5   0  0.6585930E-03  0.1344605E+04  0.7818609E-02  0.8994922E-01
        2   -1    0    0  501    0  0.00000000000E+00  0.00000000000E+00  0.19356637469E+04  0.19356637469E+04  0.25500000920E-02 0.  1.
       -2   -1    0    0    0  501  0.00000000000E+00  0.00000000000E+00 -0.23350684661E+03  0.23350684662E+03  0.25500000920E-02 0. -1.
    10030    2    1    2    0    0  0.00000000000E+00  0.00000000000E+00  0.17021569003E+04  0.21691705935E+04  0.13446051281E+04 0.  0.
        2    1    3    3  502    0  0.29700019275E+03  0.42048989474E+03  0.15351332499E+03  0.53720313386E+03  0.25500000920E-02 0. -1.
       -2    1    3    3    0  502 -0.29700019275E+03 -0.42048989474E+03  0.15486435753E+04  0.16319674597E+04  0.25500000920E-02 0.  1.
</event>
<event>
 5   0  0.3701879E-03  0.1163402E+04  0.7818609E-02  0.9145508E-01
        1   -1    0    0  501    0  0.00000000000E+00  0.00000000000E+00  0.13902308992E+04  0.13902308992E+04  0.50400001928E-02 0.  1.
       -1   -1    0    0    0  501  0.00000000000E+00  0.00000000000E+00 -0.24339540387E+03  0.24339540392E+03  0.50400001928E-02 0. -1.
    10030    2    1    2    0    0  0.00000000000E+00  0.00000000000E+00  0.11468354953E+04  0.16336263031E+04  0.11634015837E+04 0.  0.
        1    1    3    3  502    0  0.44115779849E+03 -0.19828221450E+03  0.11962659634E+03  0.49824347696E+03  0.50400001928E-02 0. -1.
       -1    1    3    3    0  502 -0.44115779849E+03  0.19828221450E+03  0.10272088990E+04  0.11353828262E+04  0.50400001928E-02 0.  1.
</event>
<event>
 5   0  0.6640844E-03  0.1195428E+04  0.7818609E-02  0.9116867E-01
       -2   -1    0    0    0  501  0.00000000000E+00  0.00000000000E+00  0.41389469373E+03  0.41389469374E+03  0.25500000920E-02 0.  1.
        2   -1    0    0  501    0  0.00000000000E+00  0.00000000000E+00 -0.86317193240E+03  0.86317193240E+03  0.25500000920E-02 0. -1.
    10030    2    1    2    0    0  0.00000000000E+00  0.00000000000E+00 -0.44927723866E+03  0.12770666261E+04  0.11954284297E+04 0.  0.
        5    1    3    3  502    0  0.22799319342E+03 -0.73062274821E+02 -0.80968939344E+03  0.84435655744E+03  0.46999998093E+01 0. -1.
       -5    1    3    3    0  502 -0.22799319342E+03  0.73062274821E+02  0.36041215478E+03  0.43271006870E+03  0.46999998093E+01 0.  1.
</event>
<event>
 5   0  0.3701879E-03  0.1216844E+04  0.7818609E-02  0.9098239E-01
       -1   -1    0    0    0  501  0.00000000000E+00  0.00000000000E+00  0.42069113327E+03  0.42069113330E+03  0.50400001928E-02 0. -1.
        1   -1    0    0  501    0  0.00000000000E+00  0.00000000000E+00 -0.87992731328E+03  0.87992731330E+03  0.50400001928E-02 0.  1.
    10030    2    1    2    0    0  0.00000000000E+00  0.00000000000E+00 -0.45923618001E+03  0.13006184466E+04  0.12168444743E+04 0.  0.
        1    1    3    3  502    0 -0.48837337590E+03 -0.36285007755E+03 -0.23280417332E+03  0.65143419945E+03  0.50400001928E-02 0.  1.
       -1    1    3    3    0  502  0.48837337590E+03  0.36285007755E+03 -0.22643200669E+03  0.64918424715E+03  0.50400001928E-02 0. -1.
</event>
<event>
 5   0  0.6585930E-03  0.1211542E+04  0.7818609E-02  0.9102814E-01
        2   -1    0    0  501    0  0.00000000000E+00  0.00000000000E+00  0.70194622320E+03  0.70194622320E+03  0.25500000920E-02 0. -1.
       -2   -1    0    0    0  501  0.00000000000E+00  0.00000000000E+00 -0.52277276206E+03  0.52277276207E+03  0.25500000920E-02 0.  1.
    10030    2    1    2    0    0  0.00000000000E+00  0.00000000000E+00  0.17917346114E+03  0.12247189853E+04  0.12115417713E+04 0.  0.
        2    1    3    3  502    0 -0.41357303047E+03 -0.32077438955E+03  0.39789492717E+03  0.65746424511E+03  0.25500000920E-02 0. -1.
       -2    1    3    3    0  502  0.41357303047E+03  0.32077438955E+03 -0.21872146603E+03  0.56725474016E+03  0.25500000920E-02 0.  1.
</event>
<event>
 5   0  0.2537625E-03  0.1307869E+04  0.7818609E-02  0.9023348E-01
        3   -1    0    0  501    0  0.00000000000E+00  0.00000000000E+00  0.57032820885E+03  0.57032821780E+03  0.10100000352E+00 0.  1.
       -3   -1    0    0    0  501  0.00000000000E+00  0.00000000000E+00 -0.74979736588E+03  0.74979737268E+03  0.10100000352E+00 0. -1.
    10030    2    1    2    0    0  0.00000000000E+00  0.00000000000E+00 -0.17946915702E+03  0.13201255905E+04  0.13078694110E+04 0.  0.
        2    1    3    3  502    0 -0.22861018140E+03 -0.61217269062E+03 -0.11471688827E+03  0.66345910397E+03  0.25500000920E-02 0.  1.
       -2    1    3    3    0  502  0.22861018140E+03  0.61217269062E+03 -0.64752268754E+02  0.65666648650E+03  0.25500000920E-02 0. -1.
</event>
<event>
 5   0  0.6640844E-03  0.1222188E+04  0.7818609E-02  0.9093654E-01
        2   -1    0    0  501    0  0.00000000000E+00  0.00000000000E+00  0.18544304314E+04  0.18544304315E+04  0.25500000920E-02 0.  1.
       -2   -1    0    0    0  501  0.00000000000E+00  0.00000000000E+00 -0.20137503443E+03  0.20137503444E+03  0.25500000920E-02 0. -1.
    10030    2    1    2    0    0  0.00000000000E+00  0.00000000000E+00  0.16530553970E+04  0.20558054659E+04  0.12221881884E+04 0.  0.
        5    1    3    3  502    0 -0.11123854939E+03 -0.38089969696E+03  0.16082020746E+04  0.16564403390E+04  0.46999998093E+01 0.  1.
       -5    1    3    3    0  502  0.11123854939E+03  0.38089969696E+03  0.44853322409E+02  0.39936512685E+03  0.46999998093E+01 0. -1.
</event>
<event>
 5   0  0.3701879E-03  0.9501794E+03  0.7818609E-02  0.9364941E-01
       -1   -1    0    0    0  501  0.00000000000E+00  0.00000000000E+00  0.12086892819E+04  0.12086892819E+04  0.50400001928E-02 0.  1.
        1   -1    0    0  501    0  0.00000000000E+00  0.00000000000E+00 -0.18673965809E+03  0.18673965816E+03  0.50400001928E-02 0. -1.
    10030    2    1    2    0    0  0.00000000000E+00  0.00000000000E+00  0.10219496238E+04  0.13954289401E+04  0.95017940051E+03 0.  0.
        1    1    3    3  502    0  0.58180545034E+02 -0.12696525748E+03  0.11778610958E+04  0.11861120999E+04  0.50400001928E-02 0.  1.
       -1    1    3    3    0  502 -0.58180545034E+02  0.12696525748E+03 -0.15591147205E+03  0.20931684014E+03  0.50400001928E-02 0. -1.
</event>
<event>
 5   0  0.3648616E-03  0.1206282E+04  0.7818609E-02  0.9107375E-01
        1   -1    0    0  501    0  0.00000000000E+00  0.00000000000E+00  0.18889106463E+04  0.18889106463E+04  0.50400001928E-02 0. -1.
       -1   -1    0    0    0  501  0.00000000000E+00  0.00000000000E+00 -0.19258682756E+03  0.19258682762E+03  0.50400001928E-02 0.  1.
    10030    2    1    2    0    0  0.00000000000E+00  0.00000000000E+00  0.16963238187E+04  0.20814974739E+04  0.12062824031E+04 0.  0.
        2    1    3    3  502    0 -0.37957119086E+03  0.43935814898E+03  0.11299572574E+04  0.12703988647E+04  0.25500000920E-02 0.  1.
       -2    1    3    3    0  502  0.37957119086E+03 -0.43935814898E+03  0.56636656136E+03  0.81109860919E+03  0.25500000920E-02 0. -1.
</event>
<event>
 5   0  0.6493047E-03  0.1190974E+04  0.7818609E-02  0.9120794E-01
        2   -1    0    0  501    0  0.00000000000E+00  0.00000000000E+00  0.10900591325E+04  0.10900591325E+04  0.25500000920E-02 0.  1.
       -2   -1    0    0    0  501  0.00000000000E+00  0.00000000000E+00 -0.32530763854E+03  0.32530763855E+03  0.25500000920E-02 0. -1.
    10030    2    1    2    0    0  0.00000000000E+00  0.00000000000E+00  0.76475149394E+03  0.14153667710E+04  0.11909736559E+04 0.  0.
        3    1    3    3  502    0 -0.62932697689E+02 -0.14322830311E+03 -0.30044880158E+03  0.33873937448E+03  0.10100000352E+00 0. -1.
       -3    1    3    3    0  502  0.62932697689E+02  0.14322830311E+03  0.10652002955E+04  0.10766273966E+04  0.10100000352E+00 0.  1.
</event>
<event>
 5   0  0.3772254E-03  0.1094899E+04  0.7818609E-02  0.9210178E-01
        1   -1    0    0  501    0  0.00000000000E+00  0.00000000000E+00  0.54322681637E+03  0.54322681640E+03  0.50400001928E-02 0.  1.
       -1   -1    0    0    0  501  0.00000000000E+00  0.00000000000E+00 -0.55170512822E+03  0.55170512824E+03  0.50400001928E-02 0. -1.
    10030    2    1    2    0    0  0.00000000000E+00  0.00000000000E+00 -0.84783118458E+01  0.10949319446E+04  0.10948991194E+04 0.  0.
        3    1    3    3  502    0 -0.14500060325E+03 -0.10628892122E+03 -0.52134120855E+03  0.55147001337E+03  0.10100000352E+00 0. -1.
       -3    1    3    3    0  502  0.14500060325E+03  0.10628892122E+03  0.51286289671E+03  0.54346193127E+03  0.10100000352E+00 0.  1.
</event>
<event>
 5   0  0.6349142E-03  0.1178768E+04  0.7818609E-02  0.9131647E-01
        2   -1    0    0  501    0  0.00000000000E+00  0.00000000000E+00  0.23527961424E+04  0.23527961424E+04  0.25500000920E-02 0.  1.
       -2   -1    0    0    0  501  0.00000000000E+00  0.00000000000E+00 -0.14764278718E+03  0.14764278720E+03  0.25500000920E-02 0. -1.
    10030    2    1    2    0    0  0.00000000000E+00  0.00000000000E+00  0.22051533553E+04  0.25004389296E+04  0.11787677976E+04 0.  0.
        1    1    3    3  502    0  0.82160517956E+02  0.64580413181E+02 -0.12783318586E+03  0.16511300345E+03  0.50400001928E-02 0. -1.
       -1    1    3    3    0  502 -0.82160517956E+02 -0.64580413181E+02  0.23329865411E+04  0.23353259262E+04  0.50400001928E-02 0.  1.
</event>
<event>
 5   0  0.3701879E-03  0.1185124E+04  0.7818609E-02  0.9125978E-01
       -1   -1    0    0    0  501  0.00000000000E+00  0.00000000000E+00  0.92981204971E+03  0.92981204972E+03  0.50400001928E-02 0.  1.
        1   -1    0    0  501    0  0.00000000000E+00  0.00000000000E+00 -0.37763537102E+03  0.37763537106E+03  0.50400001928E-02 0. -1.
    10030    2    1    2    0    0  0.00000000000E+00  0.00000000000E+00  0.55217667869E+03  0.13074474208E+04  0.11851243283E+04 0.  0.
        1    1    3    3  502    0 -0.42417463100E+03 -0.21244240098E+03  0.66780598163E+03  0.81915854415E+03  0.50400001928E-02 0.  1.
       -1    1    3    3    0  502  0.42417463100E+03  0.21244240098E+03 -0.11562930295E+03  0.48828887663E+03  0.50400001928E-02 0. -1.
</event>
<event>
 5   0  0.6585930E-03  0.1159726E+04  0.7818609E-02  0.9148857E-01
        2   -1    0    0  501    0  0.00000000000E+00  0.00000000000E+00  0.20381657716E+04  0.20381657716E+04  0.25500000920E-02 0. -1.
       -2   -1    0    0    0  501  0.00000000000E+00  0.00000000000E+00 -0.16497241310E+03  0.16497241312E+03  0.25500000920E-02 0.  1.
    10030    2    1    2    0    0  0.00000000000E+00  0.00000000000E+00  0.18731933585E+04  0.22031381847E+04  0.11597260464E+04 0.  0.
        2    1    3    3  502    0 -0.50686610089E+03  0.18845701051E+03  0.53896401207E+03  0.76348640809E+03  0.25500000920E-02 0.  1.
       -2    1    3    3    0  502  0.50686610089E+03 -0.18845701051E+03  0.13342293464E+04  0.14396517766E+04  0.25500000920E-02 0. -1.
</event>
<event>
 5   0  0.3772254E-03  0.1158897E+04  0.7818609E-02  0.9149615E-01
       -1   -1    0    0    0  501  0.00000000000E+00  0.00000000000E+00  0.22978734045E+03  0.22978734051E+03  0.50400001928E-02 0. -1.
        1   -1    0    0  501    0  0.00000000000E+00  0.00000000000E+00 -0.14611791497E+04  0.14611791497E+04  0.50400001928E-02 0.  1.
    10030    2    1    2    0    0  0.00000000000E+00  0.00000000000E+00 -0.12313918093E+04  0.16909664902E+04  0.11588968389E+04 0.  0.
        3    1    3    3  502    0  0.10762084132E+03 -0.88166960097E+02 -0.14364475391E+04  0.14431691519E+04  0.10100000352E+00 0.  1.
       -3    1    3    3    0  502 -0.10762084132E+03  0.88166960097E+02  0.20505572982E+03  0.24779733830E+03  0.10100000352E+00 0. -1.
</event>
<event>
 5   0  0.6658994E-03  0.1178591E+04  0.7818609E-02  0.9131805E-01
       -2   -1    0    0    0  501  0.00000000000E+00  0.00000000000E+00  0.16393880397E+03  0.16393880399E+03  0.25500000920E-02 0. -1.
        2   -1    0    0  501    0  0.00000000000E+00  0.00000000000E+00 -0.21182858708E+04  0.21182858708E+04  0.25500000920E-02 0.  1.
    10030    2    1    2    0    0  0.00000000000E+00  0.00000000000E+00 -0.19543470669E+04  0.22822246748E+04  0.11785911117E+04 0.  0.
        4    1    3    3  502    0  0.13434741712E+03  0.57285735710E+03 -0.10400054605E+04  0.11949174661E+04  0.12699999809E+01 0. -1.
       -4    1    3    3    0  502 -0.13434741712E+03 -0.57285735710E+03 -0.91434160638E+03  0.10873072087E+04  0.12699999809E+01 0.  1.
</event>
<event>
 5   0  0.6349142E-03  0.1184030E+04  0.7818609E-02  0.9126951E-01
        2   -1    0    0  501    0  0.00000000000E+00  0.00000000000E+00  0.67096345331E+03  0.67096345332E+03  0.25500000920E-02 0. -1.
       -2   -1    0    0    0  501  0.00000000000E+00  0.00000000000E+00 -0.52235597198E+03  0.52235597198E+03  0.25500000920E-02 0.  1.
    10030    2    1    2    0    0  0.00000000000E+00  0.00000000000E+00  0.14860748133E+03  0.11933194253E+04  0.11840300111E+04 0.  0.
        1    1    3    3  502    0  0.24126914829E+03 -0.21048928632E+03  0.57617160708E+03  0.65915875357E+03  0.50400001928E-02 0. -1.
       -1    1    3    3    0  502 -0.24126914829E+03  0.21048928632E+03 -0.42756412575E+03  0.53416067173E+03  0.50400001928E-02 0.  1.
</event>
<event>
 5   0  0.3772254E-03  0.5941429E+03  0.7818609E-02  0.9917633E-01
        1   -1    0    0  501    0  0.00000000000E+00  0.00000000000E+00  0.28270566112E+03  0.28270566117E+03  0.50400001928E-02 0. -1.
       -1   -1    0    0    0  501  0.00000000000E+00  0.00000000000E+00 -0.31216728512E+03  0.31216728516E+03  0.50400001928E-02 0.  1.
    10030    2    1    2    0    0  0.00000000000E+00  0.00000000000E+00 -0.29461623993E+02  0.59487294633E+03  0.59414294154E+03 0.  0.
        3    1    3    3  502    0 -0.19638460472E+03 -0.23569117192E+02  0.20719222208E+03  0.28644553295E+03  0.10100000352E+00 0. -1.
       -3    1    3    3    0  502  0.19638460472E+03  0.23569117192E+02 -0.23665384607E+03  0.30842741337E+03  0.10100000352E+00 0.  1.
</event>
<event>
 5   0  0.3731281E-03  0.1236996E+04  0.7818609E-02  0.9081077E-01
        1   -1    0    0  501    0  0.00000000000E+00  0.00000000000E+00  0.70633130639E+03  0.70633130641E+03  0.50400001928E-02 0.  1.
       -1   -1    0    0    0  501  0.00000000000E+00  0.00000000000E+00 -0.54158660515E+03  0.54158660518E+03  0.50400001928E-02 0. -1.
    10030    2    1    2    0    0  0.00000000000E+00  0.00000000000E+00  0.16474470124E+03  0.12479179116E+04  0.12369956740E+04 0.  0.
        5    1    3    3  502    0  0.42077369579E+03 -0.37614478888E+03 -0.17280787180E+03  0.59027117143E+03  0.46999998093E+01 0.  1.
       -5    1    3    3    0  502 -0.42077369579E+03  0.37614478888E+03  0.33755257304E+03  0.65764674015E+03  0.46999998093E+01 0. -1.
</event>
<event>
 5   0  0.3772254E-03  0.1192878E+04  0.7818609E-02  0.9119113E-01
        1   -1    0    0  501    0  0.00000000000E+00  0.00000000000E+00  0.11707408638E+04  0.11707408638E+04  0.50400001928E-02 0.  1.
       -1   -1    0    0    0  501  0.00000000000E+00  0.00000000000E+00 -0.30385841176E+03  0.30385841181E+03  0.50400001928E-02 0. -1.
    10030    2    1    2    0    0  0.00000000000E+00  0.00000000000E+00  0.86688245205E+03  0.14745992756E+04  0.11928779644E+04 0.  0.
        3    1    3    3  502    0  0.40425654079E+03  0.35842202584E+03  0.12107965356E+03  0.55366956940E+03  0.10100000352E+00 0. -1.
       -3    1    3    3    0  502 -0.40425654079E+03 -0.35842202584E+03  0.74580279848E+03  0.92092970622E+03  0.10100000352E+00 0.  1.
</event>
<event>
 5   0  0.3731281E-03  0.1216696E+04  0.7818609E-02  0.9098367E-01
        1   -1    0    0  501    0  0.00000000000E+00  0.00000000000E+00  0.41420376273E+03  0.41420376276E+03  0.50400001928E-02 0. -1.
       -1   -1    0    0    0  501  0.00000000000E+00  0.00000000000E+00 -0.89349053482E+03  0.89349053483E+03  0.50400001928E-02 0.  1.
    10030    2    1    2    0    0  0.00000000000E+00  0.00000000000E+00 -0.47928677209E+03  0.13076942976E+04  0.12166957574E+04 0.  0.
        5    1    3    3  502    0  0.14351845221E+03  0.39626667100E+02 -0.87358567460E+03  0.88619514766E+03  0.46999998093E+01 0.  1.
       -5    1    3    3    0  502 -0.14351845221E+03 -0.39626667100E+02  0.39429890251E+03  0.42149914993E+03  0.46999998093E+01 0. -1.
</event>
<event>
 5   0  0.6585930E-03  0.1210500E+04  0.7818609E-02  0.9103716E-01
       -2   -1    0    0    0  501  0.00000000000E+00  0.00000000000E+00  0.46724239391E+03  0.46724239391E+03  0.25500000920E-02 0. -1.
        2   -1    0    0  501    0  0.00000000000E+00  0.00000000000E+00 -0.78401996057E+03  0.78401996057E+03  0.25500000920E-02 0.  1.
    10030    2    1    2    0    0  0.00000000000E+00  0.00000000000E+00 -0.31677756667E+03  0.12512623545E+04  0.12104996708E+04 0.  0.
        2    1    3    3  502    0  0.26219334097E+03  0.27093547459E+03  0.33102730892E+03  0.50172747453E+03  0.25500000920E-02 0. -1.
       -2    1    3    3    0  502 -0.26219334097E+03 -0.27093547459E+03 -0.64780487559E+03  0.74953487996E+03  0.25500000920E-02 0.  1.
</event>
<event>
 5   0  0.3772254E-03  0.1164750E+04  0.7818609E-02  0.9144283E-01
        1   -1    0    0  501    0  0.00000000000E+00  0.00000000000E+00  0.11853544561E+04  0.11853544561E+04  0.50400001928E-02 0. -1.
       -1   -1    0    0    0  501  0.00000000000E+00  0.00000000000E+00 -0.28612599197E+03  0.28612599201E+03  0.50400001928E-02 0.  1.
    10030    2    1    2    0    0  0.00000000000E+00  0.00000000000E+00  0.89922846416E+03  0.14714804481E+04  0.11647501357E+04 0.  0.
        3    1    3    3  502    0 -0.54852948715E+03 -0.19353229422E+03  0.48582094461E+03  0.75786631249E+03  0.10100000352E+00 0. -1.
       -3    1    3    3    0  502  0.54852948715E+03  0.19353229422E+03  0.41340751954E+03  0.71361413565E+03  0.10100000352E+00 0.  1.
</event>
<event>
 5   0  0.6349142E-03  0.1186268E+04  0.7818609E-02  0.9124962E-01
       -2   -1    0    0    0  501  0.00000000000E+00  0.00000000000E+00  0.21872354939E+03  0.21872354940E+03  0.25500000920E-02 0. -1.
        2   -1    0    0  501    0  0.00000000000E+00  0.00000000000E+00 -0.16084594647E+04  0.16084594647E+04  0.25500000920E-02 0.  1.
    10030    2    1    2    0    0  0.00000000000E+00  0.00000000000E+00 -0.13897359153E+04  0.18271830141E+04  0.11862680358E+04 0.  0.
        1    1    3    3  502    0  0.54888778945E+03  0.13089924225E+03 -0.41339058031E+03  0.69950281554E+03  0.50400001928E-02 0. -1.
       -1    1    3    3    0  502 -0.54888778945E+03 -0.13089924225E+03 -0.97634533499E+03  0.11276801986E+04  0.50400001928E-02 0.  1.
</event>
<event>
 5   0  0.6658994E-03  0.1189151E+04  0.7818609E-02  0.9122406E-01
       -2   -1    0    0    0  501  0.00000000000E+00  0.00000000000E+00  0.30702789779E+03  0.30702789780E+03  0.25500000920E-02 0. -1.
        2   -1    0    0  501    0  0.00000000000E+00  0.00000000000E+00 -0.11514260369E+04  0.11514260369E+04  0.25500000920E-02 0.  1.
    10030    2    1    2    0    0  0.00000000000E+00  0.00000000000E+00 -0.84439813914E+03  0.14584539347E+04  0.11891508156E+04 0.  0.
        4    1    3    3  502    0  0.47922360102E+03 -0.27854600811E+03 -0.68603246275E+03  0.88197805599E+03  0.12699999809E+01 0.  1.
       -4    1    3    3    0  502 -0.47922360102E+03  0.27854600811E+03 -0.15836567640E+03  0.57647587874E+03  0.12699999809E+01 0. -1.
</event>
<event>
 5   0  0.3772254E-03  0.1216619E+04  0.7818609E-02  0.9098433E-01
        1   -1    0    0  501    0  0.00000000000E+00  0.00000000000E+00  0.10031817236E+04  0.10031817236E+04  0.50400001928E-02 0. -1.
       -1   -1    0    0    0  501  0.00000000000E+00  0.00000000000E+00 -0.36886671129E+03  0.36886671132E+03  0.50400001928E-02 0.  1.
    10030    2    1    2    0    0  0.00000000000E+00  0.00000000000E+00  0.63431501232E+03  0.13720484349E+04  0.12166188281E+04 0.  0.
        3    1    3    3  502    0 -0.19564443281E+03 -0.20486153207E+03  0.92425803271E+03  0.96669432224E+03  0.10100000352E+00 0. -1.
       -3    1    3    3    0  502  0.19564443281E+03  0.20486153207E+03 -0.28994302039E+03  0.40535411270E+03  0.10100000352E+00 0.  1.
</event>
<event>
 5   0  0.6493047E-03  0.1066010E+04  0.7818609E-02  0.9238969E-01
        2   -1    0    0  501    0  0.00000000000E+00  0.00000000000E+00  0.87897091510E+03  0.87897091511E+03  0.25500000920E-02 0. -1.
       -2   -1    0    0    0  501  0.00000000000E+00  0.00000000000E+00 -0.32321234707E+03  0.32321234708E+03  0.25500000920E-02 0.  1.
    10030    2    1    2    0    0  0.00000000000E+00  0.00000000000E+00  0.55575856803E+03  0.12021832622E+04  0.10660098545E+04 0.  0.
        3    1    3    3  502    0  0.27924999140E+03 -0.44840857419E+03  0.35796824864E+03  0.63811604301E+03  0.10100000352E+00 0. -1.
       -3    1    3    3    0  502 -0.27924999140E+03  0.44840857419E+03  0.19779031939E+03  0.56406721918E+03  0.10100000352E+00 0.  1.
</event>
<event>
 5   0  0.6493047E-03  0.1227864E+04  0.7818609E-02  0.9088811E-01
        2   -1    0    0  501    0  0.00000000000E+00  0.00000000000E+00  0.10698201147E+04  0.10698201147E+04  0.25500000920E-02 0.  1.
       -2   -1    0    0    0  501  0.00000000000E+00  0.00000000000E+00 -0.35231394624E+03  0.35231394625E+03  0.25500000920E-02 0. -1.
    10030    2    1    2    0    0  0.00000000000E+00  0.00000000000E+00  0.71750616846E+03  0.14221340610E+04  0.12278640745E+04 0.  0.
        3    1    3    3  502    0  0.15649822153E+03  0.63444008189E+02 -0.32488561461E+03  0.36615230205E+03  0.10100000352E+00 0. -1.
       -3    1    3    3    0  502 -0.15649822153E+03 -0.63444008189E+02  0.10423917831E+04  0.10559817589E+04  0.10100000352E+00 0.  1.
</event>
<event>
 5   0  0.3648616E-03  0.1042336E+04  0.7818609E-02  0.9263293E-01
        1   -1    0    0  501    0  0.00000000000E+00  0.00000000000E+00  0.45094376810E+03  0.45094376813E+03  0.50400001928E-02 0. -1.
       -1   -1    0    0    0  501  0.00000000000E+00  0.00000000000E+00 -0.60232780672E+03  0.60232780674E+03  0.50400001928E-02 0.  1.
    10030    2    1    2    0    0  0.00000000000E+00  0.00000000000E+00 -0.15138403862E+03  0.10532715749E+04  0.10423357824E+04 0.  0.
        2    1    3    3  502    0 -0.32374384897E+03  0.21069632892E+03 -0.42923839981E+03  0.57745010750E+03  0.25500000920E-02 0.  1.
       -2    1    3    3    0  502  0.32374384897E+03 -0.21069632892E+03  0.27785436120E+03  0.47582146737E+03  0.25500000920E-02 0. -1.
</event>
<event>
 5   0  0.3731281E-03  0.1206701E+04  0.7818609E-02  0.9107011E-01
        1   -1    0    0  501    0  0.00000000000E+00  0.00000000000E+00  0.12363235942E+04  0.12363235942E+04  0.50400001928E-02 0.  1.
       -1   -1    0    0    0  501  0.00000000000E+00  0.00000000000E+00 -0.29444722266E+03  0.29444722271E+03  0.50400001928E-02 0. -1.
    10030    2    1    2    0    0  0.00000000000E+00  0.00000000000E+00  0.94187637155E+03  0.15307708169E+04  0.12067013693E+04 0.  0.
        5    1    3    3  502    0 -0.50931077248E+03 -0.32293917291E+03  0.49372942382E+03  0.77940875432E+03  0.46999998093E+01 0. -1.
       -5    1    3    3    0  502  0.50931077248E+03  0.32293917291E+03  0.44814694773E+03  0.75136206261E+03  0.46999998093E+01 0.  1.
</event>
<event>
 5   0  0.3701879E-03  0.1197501E+04  0.7818609E-02  0.9115047E-01
        1   -1    0    0  501    0  0.00000000000E+00  0.00000000000E+00  0.97454077421E+03  0.97454077422E+03  0.50400001928E-02 0. -1.
       -1   -1    0    0    0  501  0.00000000000E+00  0.00000000000E+00 -0.36786775152E+03  0.36786775156E+03  0.50400001928E-02 0.  1.
    10030    2    1    2    0    0  0.00000000000E+00  0.00000000000E+00  0.60667302268E+03  0.13424085258E+04  0.11975009368E+04 0.  0.
        1    1    3    3  502    0 -0.51808364875E+03 -0.10550384101E+03 -0.11665624334E+02  0.52884573780E+03  0.50400001928E-02 0.  1.
       -1    1    3    3    0  502  0.51808364875E+03  0.10550384101E+03  0.61833864702E+03  0.81356278798E+03  0.50400001928E-02 0. -1.
</event>
<event>
 5   0  0.6640844E-03  0.1205770E+04  0.7818609E-02  0.9107821E-01
        2   -1    0    0  501    0  0.00000000000E+00  0.00000000000E+00  0.86604018716E+03  0.86604018717E+03  0.25500000920E-02 0.  1.
       -2   -1    0    0    0  501  0.00000000000E+00  0.00000000000E+00 -0.41969205567E+03  0.41969205567E+03  0.25500000920E-02 0. -1.
    10030    2    1    2    0    0  0.00000000000E+00  0.00000000000E+00  0.44634813149E+03  0.12857322428E+04  0.12057697731E+04 0.  0.
        5    1    3    3  502    0  0.30212090728E+03 -0.51533962571E+03  0.13657154198E+03  0.61280163880E+03  0.46999998093E+01 0. -1.
       -5    1    3    3    0  502 -0.30212090728E+03  0.51533962571E+03  0.30977658951E+03  0.67293060404E+03  0.46999998093E+01 0.  1.
</event>
<event>
 5   0  0.6493047E-03  0.1213226E+04  0.7818609E-02  0.9101358E-01
       -2   -1    0    0    0  501  0.00000000000E+00  0.00000000000E+00  0.13715057376E+03  0.13715057379E+03  0.25500000920E-02 0.  1.
        2   -1    0    0  501    0  0.00000000000E+00  0.00000000000E+00 -0.26830338464E+04  0.26830338464E+04  0.25500000920E-02 0. -1.
    10030    2    1    2    0    0  0.00000000000E+00  0.00000000000E+00 -0.25458832727E+04  0.28201844202E+04  0.12132264941E+04 0.  0.
        3    1    3    3  502    0  0.21037609415E+03  0.54453085402E+03 -0.16563674022E+04  0.17562246250E+04  0.10100000352E+00 0. -1.
       -3    1    3    3    0  502 -0.21037609415E+03 -0.54453085402E+03 -0.88951587046E+03  0.10639597953E+04  0.10100000352E+00 0.  1.
</event>
<event>
 5   0  0.6658994E-03  0.1194542E+04  0.7818609E-02  0.9117647E-01
       -2   -1    0    0    0  501  0.00000000000E+00  0.00000000000E+00  0.26579487002E+03  0.26579487003E+03  0.25500000920E-02 0.  1.
        2   -1    0    0  501    0  0.00000000000E+00  0.00000000000E+00 -0.13421350812E+04  0.13421350812E+04  0.25500000920E-02 0. -1.
    10030    2    1    2    0    0  0.00000000000E+00  0.00000000000E+00 -0.10763402112E+04  0.16079299513E+04  0.11945419532E+04 0.  0.
        4    1    3    3  502    0  0.59556989331E+03  0.40960298249E+02 -0.51299609073E+03  0.78711361686E+03  0.12699999809E+01 0. -1.
       -4    1    3    3    0  502 -0.59556989331E+03 -0.40960298249E+02 -0.56334412048E+03  0.82081633440E+03  0.12699999809E+01 0.  1.
</event>
<event>
 5   0  0.6493047E-03  0.1211166E+04  0.7818609E-02  0.9103139E-01
        2   -1    0    0  501    0  0.00000000000E+00  0.00000000000E+00  0.12081608582E+04  0.12081608582E+04  0.25500000920E-02 0. -1.
       -2   -1    0    0    0  501  0.00000000000E+00  0.00000000000E+00 -0.30354450734E+03  0.30354450735E+03  0.25500000920E-02 0.  1.
    10030    2    1    2    0    0  0.00000000000E+00  0.00000000000E+00  0.90461635082E+03  0.15117053655E+04  0.12111657071E+04 0.  0.
        3    1    3    3  502    0 -0.23193941420E+02 -0.45860450609E+03  0.94508601342E+03  0.10507348071E+04  0.10100000352E+00 0. -1.
       -3    1    3    3    0  502  0.23193941420E+02  0.45860450609E+03 -0.40469662599E+02  0.46097055840E+03  0.10100000352E+00 0.  1.
</event>
<event>
 5   0  0.3731281E-03  0.1213661E+04  0.7818609E-02  0.9100982E-01
        1   -1    0    0  501    0  0.00000000000E+00  0.00000000000E+00  0.48485966652E+03  0.48485966655E+03  0.50400001928E-02 0. -1.
       -1   -1    0    0    0  501  0.00000000000E+00  0.00000000000E+00 -0.75948428722E+03  0.75948428723E+03  0.50400001928E-02 0.  1.
    10030    2    1    2    0    0  0.00000000000E+00  0.00000000000E+00 -0.27462462069E+03  0.12443439538E+04  0.12136610701E+04 0.  0.
        5    1    3    3  502    0 -0.31624738114E+03  0.42963851978E+03  0.15916872537E+03  0.55673911026E+03  0.46999998093E+01 0. -1.
       -5    1    3    3    0  502  0.31624738114E+03 -0.42963851978E+03 -0.43379334606E+03  0.68760484353E+03  0.46999998093E+01 0.  1.
</event>
<event>
 5   0  0.3944074E-03  0.6519643E+03  0.7818609E-02  0.9803100E-01
       -1   -1    0    0    0  501  0.00000000000E+00  0.00000000000E+00  0.19918989560E+03  0.19918989566E+03  0.50400001928E-02 0.  1.
        1   -1    0    0  501    0  0.00000000000E+00  0.00000000000E+00 -0.53348268552E+03  0.53348268555E+03  0.50400001928E-02 0. -1.
    10030    2    1    2    0    0  0.00000000000E+00  0.00000000000E+00 -0.33429278992E+03  0.73267258121E+03  0.65196429493E+03 0.  0.
        4    1    3    3  502    0 -0.19712022465E+01  0.15694051737E+03  0.15392907786E+03  0.21984081864E+03  0.12699999809E+01 0.  1.
       -4    1    3    3    0  502  0.19712022465E+01 -0.15694051737E+03 -0.48822186778E+03  0.51283176258E+03  0.12699999809E+01 0. -1.
</event>
<event>
 5   0  0.3731281E-03  0.1186758E+04  0.7818609E-02  0.9124527E-01
        1   -1    0    0  501    0  0.00000000000E+00  0.00000000000E+00  0.34115813737E+03  0.34115813740E+03  0.50400001928E-02 0. -1.
       -1   -1    0    0    0  501  0.00000000000E+00  0.00000000000E+00 -0.10320688802E+04  0.10320688802E+04  0.50400001928E-02 0.  1.
    10030    2    1    2    0    0  0.00000000000E+00  0.00000000000E+00 -0.69091074278E+03  0.13732270176E+04  0.11867580997E+04 0.  0.
        5    1    3    3  502    0  0.26550787112E+03 -0.19518468517E+03 -0.91642938635E+03  0.97388726304E+03  0.46999998093E+01 0.  1.
       -5    1    3    3    0  502 -0.26550787112E+03  0.19518468517E+03  0.22551864357E+03  0.39933975453E+03  0.46999998093E+01 0. -1.
</event>
<event>
 5   0  0.3944074E-03  0.1230431E+04  0.7818609E-02  0.9086630E-01
       -1   -1    0    0    0  501  0.00000000000E+00  0.00000000000E+00  0.99234180211E+03  0.99234180213E+03  0.50400001928E-02 0.  1.
        1   -1    0    0  501    0  0.00000000000E+00  0.00000000000E+00 -0.38141079729E+03  0.38141079732E+03  0.50400001928E-02 0. -1.
    10030    2    1    2    0    0  0.00000000000E+00  0.00000000000E+00  0.61093100483E+03  0.13737525994E+04  0.12304306205E+04 0.  0.
        4    1    3    3  502    0  0.25210479118E+03 -0.28077799644E+03  0.84795949731E+03  0.92813255034E+03  0.12699999809E+01 0.  1.
       -4    1    3    3    0  502 -0.25210479118E+03  0.28077799644E+03 -0.23702849248E+03  0.44562004911E+03  0.12699999809E+01 0. -1.
</event>
<event>
 5   0  0.6493047E-03  0.1211695E+04  0.7818609E-02  0.9102681E-01
        2   -1    0    0  501    0  0.00000000000E+00  0.00000000000E+00  0.46211128633E+03  0.46211128633E+03  0.25500000920E-02 0.  1.
       -2   -1    0    0    0  501  0.00000000000E+00  0.00000000000E+00 -0.79429162495E+03  0.79429162495E+03  0.25500000920E-02 0. -1.
    10030    2    1    2    0    0  0.00000000000E+00  0.00000000000E+00 -0.33218033862E+03  0.12564029113E+04  0.12116948866E+04 0.  0.
        3    1    3    3  502    0 -0.12520805168E+03 -0.21363660061E+03 -0.73942344070E+03  0.77978502690E+03  0.10100000352E+00 0. -1.
       -3    1    3    3    0  502  0.12520805168E+03  0.21363660061E+03  0.40724310208E+03  0.47661788438E+03  0.10100000352E+00 0.  1.
</event>
<event>
 5   0  0.3772254E-03  0.1216470E+04  0.7818609E-02  0.9098562E-01
        1   -1    0    0  501    0  0.00000000000E+00  0.00000000000E+00  0.12249209249E+04  0.12249209249E+04  0.50400001928E-02 0. -1.
       -1   -1    0    0    0  501  0.00000000000E+00  0.00000000000E+00 -0.30201916274E+03  0.30201916278E+03  0.50400001928E-02 0.  1.
    10030    2    1    2    0    0  0.00000000000E+00  0.00000000000E+00  0.92290176216E+03  0.15269400877E+04  0.12164696333E+04 0.  0.
        3    1    3    3  502    0 -0.11167667837E+03  0.34214579753E+03  0.10769121697E+04  0.11354625748E+04  0.10100000352E+00 0. -1.
       -3    1    3    3    0  502  0.11167667837E+03 -0.34214579753E+03 -0.15401040757E+03  0.39147751289E+03  0.10100000352E+00 0.  1.
</event>
<event>
 5   0  0.6640844E-03  0.1167526E+04  0.7818609E-02  0.9141765E-01
        2   -1    0    0  501    0  0.00000000000E+00  0.00000000000E+00  0.27044314222E+04  0.27044314222E+04  0.25500000920E-02 0. -1.
       -2   -1    0    0    0  501  0.00000000000E+00  0.00000000000E+00 -0.12600782611E+03  0.12600782613E+03  0.25500000920E-02 0.  1.
    10030    2    1    2    0    0  0.00000000000E+00  0.00000000000E+00  0.25784235961E+04  0.28304392483E+04  0.11675264869E+04 0.  0.
        5    1    3    3  502    0 -0.19148704776E+03 -0.46239837157E+03  0.20176249826E+04  0.20787766123E+04  0.46999998093E+01 0. -1.
       -5    1    3    3    0  502  0.19148704776E+03  0.46239837157E+03  0.56079861348E+03  0.75166263600E+03  0.46999998093E+01 0.  1.
</event>
<event>
 5   0  0.6493047E-03  0.1224016E+04  0.7818609E-02  0.9092091E-01
        2   -1    0    0  501    0  0.00000000000E+00  0.00000000000E+00  0.69367969549E+03  0.69367969550E+03  0.25500000920E-02 0. -1.
       -2   -1    0    0    0  501  0.00000000000E+00  0.00000000000E+00 -0.53995198352E+03  0.53995198353E+03  0.25500000920E-02 0.  1.
    10030    2    1    2    0    0  0.00000000000E+00  0.00000000000E+00  0.15372771197E+03  0.12336316790E+04  0.12240158945E+04 0.  0.
        3    1    3    3  502    0  0.19286583871E+03 -0.25617024488E+03  0.60223943347E+03  0.68228496358E+03  0.10100000352E+00 0. -1.
       -3    1    3    3    0  502 -0.19286583871E+03  0.25617024488E+03 -0.44851172150E+03  0.55134671544E+03  0.10100000352E+00 0.  1.
</event>
<event>
 5   0  0.3772254E-03  0.1175768E+04  0.7818609E-02  0.9134336E-01
       -1   -1    0    0    0  501  0.00000000000E+00  0.00000000000E+00  0.33021578735E+03  0.33021578738E+03  0.50400001928E-02 0.  1.
        1   -1    0    0  501    0  0.00000000000E+00  0.00000000000E+00 -0.10466105581E+04  0.10466105581E+04  0.50400001928E-02 0. -1.
    10030    2    1    2    0    0  0.00000000000E+00  0.00000000000E+00 -0.71639477076E+03  0.13768263455E+04  0.11757675442E+04 0.  0.
        3    1    3    3  502    0 -0.15974907266E+03 -0.28775749431E+03  0.21221792604E+03  0.39161281910E+03  0.10100000352E+00 0.  1.
       -3    1    3    3    0  502  0.15974907266E+03  0.28775749431E+03 -0.92861269680E+03  0.98521352640E+03  0.10100000352E+00 0. -1.
</event>
<event>
 5   0  0.6658994E-03  0.1156762E+04  0.7818609E-02  0.9151568E-01
       -2   -1    0    0    0  501  0.00000000000E+00  0.00000000000E+00  0.42336867867E+03  0.42336867867E+03  0.25500000920E-02 0.  1.
        2   -1    0    0  501    0  0.00000000000E+00  0.00000000000E+00 -0.79014915325E+03  0.79014915326E+03  0.25500000920E-02 0. -1.
    10030    2    1    2    0    0  0.00000000000E+00  0.00000000000E+00 -0.36678047459E+03  0.12135178319E+04  0.11567616919E+04 0.  0.
        4    1    3    3  502    0  0.11590777863E+03  0.32294688123E+03 -0.67184616213E+03  0.75439258991E+03  0.12699999809E+01 0. -1.
       -4    1    3    3    0  502 -0.11590777863E+03 -0.32294688123E+03  0.30506568755E+03  0.45912524202E+03  0.12699999809E+01 0.  1.
</event>
<event>
 5   0  0.6640844E-03  0.1197448E+04  0.7818609E-02  0.9115093E-01
        2   -1    0    0  501    0  0.00000000000E+00  0.00000000000E+00  0.43591540981E+03  0.43591540982E+03  0.25500000920E-02 0. -1.
       -2   -1    0    0    0  501  0.00000000000E+00  0.00000000000E+00 -0.82234008963E+03  0.82234008963E+03  0.25500000920E-02 0.  1.
    10030    2    1    2    0    0  0.00000000000E+00  0.00000000000E+00 -0.38642467982E+03  0.12582554995E+04  0.11974484827E+04 0.  0.
        5    1    3    3  502    0  0.31064198532E+03  0.47957755377E+03 -0.53735960895E+01  0.57144031941E+03  0.46999998093E+01 0.  1.
       -5    1    3    3    0  502 -0.31064198532E+03 -0.47957755377E+03 -0.38105108373E+03  0.68681518004E+03  0.46999998093E+01 0. -1.
</event>
<event>
 5   0  0.3648616E-03  0.1359188E+04  0.7818609E-02  0.8983902E-01
        1   -1    0    0  501    0  0.00000000000E+00  0.00000000000E+00  0.93502727927E+03  0.93502727929E+03  0.50400001928E-02 0.  1.
       -1   -1    0    0    0  501  0.00000000000E+00  0.00000000000E+00 -0.49394040074E+03  0.49394040076E+03  0.50400001928E-02 0. -1.
    10030    2    1    2    0    0  0.00000000000E+00  0.00000000000E+00  0.44108687853E+03  0.14289676800E+04  0.13591876236E+04 0.  0.
        2    1    3    3  502    0  0.49759115551E+03 -0.38939686119E+03 -0.42545483329E+02  0.63327481531E+03  0.25500000920E-02 0.  1.
       -2    1    3    3    0  502 -0.49759115551E+03  0.38939686119E+03  0.48363236186E+03  0.79569286474E+03  0.25500000920E-02 0. -1.
</event>
<event>
 5   0  0.3944074E-03  0.1182101E+04  0.7818609E-02  0.9128669E-01
        1   -1    0    0  501    0  0.00000000000E+00  0.00000000000E+00  0.84398038436E+03  0.84398038438E+03  0.50400001928E-02 0. -1.
       -1   -1    0    0    0  501  0.00000000000E+00  0.00000000000E+00 -0.41392054844E+03  0.41392054847E+03  0.50400001928E-02 0.  1.
    10030    2    1    2    0    0  0.00000000000E+00  0.00000000000E+00  0.43005983592E+03  0.12579009328E+04  0.11821012200E+04 0.  0.
        4    1    3    3  502    0 -0.24858063992E+03 -0.17816252139E+03  0.75323312518E+03  0.81295508630E+03  0.12699999809E+01 0. -1.
       -4    1    3    3    0  502  0.24858063992E+03  0.17816252139E+03 -0.32317328925E+03  0.44494584655E+03  0.12699999809E+01 0.  1.
</event>
<event>
 5   0  0.3772254E-03  0.1188655E+04  0.7818609E-02  0.9122845E-01
       -1   -1    0    0    0  501  0.00000000000E+00  0.00000000000E+00  0.48367430216E+03  0.48367430219E+03  0.50400001928E-02 0.  1.
        1   -1    0    0  501    0  0.00000000000E+00  0.00000000000E+00 -0.73029606170E+03  0.73029606172E+03  0.50400001928E-02 0. -1.
    10030    2    1    2    0    0  0.00000000000E+00  0.00000000000E+00 -0.24662175954E+03  0.12139703639E+04  0.11886554388E+04 0.  0.
        3    1    3    3  502    0 -0.12944373585E+03  0.57917600270E+03 -0.90614933832E+02  0.60034290142E+03  0.10100000352E+00 0.  1.
       -3    1    3    3    0  502  0.12944373585E+03 -0.57917600270E+03 -0.15600682571E+03  0.61362746249E+03  0.10100000352E+00 0. -1.
</event>
<event>
 5   0  0.3731281E-03  0.1185071E+04  0.7818609E-02  0.9126025E-01
        1   -1    0    0  501    0  0.00000000000E+00  0.00000000000E+00  0.77790737843E+03  0.77790737845E+03  0.50400001928E-02 0.  1.
       -1   -1    0    0    0  501  0.00000000000E+00  0.00000000000E+00 -0.45133703472E+03  0.45133703475E+03  0.50400001928E-02 0. -1.
    10030    2    1    2    0    0  0.00000000000E+00  0.00000000000E+00  0.32657034371E+03  0.12292444132E+04  0.11850711531E+04 0.  0.
        5    1    3    3  502    0  0.44668682866E+03  0.28312402200E+03  0.44042974412E+03  0.68825052433E+03  0.46999998093E+01 0.  1.
       -5    1    3    3    0  502 -0.44668682866E+03 -0.28312402200E+03 -0.11385940041E+03  0.54099388887E+03  0.46999998093E+01 0. -1.
</event>
<event>
 5   0  0.6349142E-03  0.1269272E+04  0.7818609E-02  0.9054294E-01
        2   -1    0    0  501    0  0.00000000000E+00  0.00000000000E+00  0.65811422301E+03  0.65811422302E+03  0.25500000920E-02 0. -1.
       -2   -1    0    0    0  501  0.00000000000E+00  0.00000000000E+00 -0.61199535225E+03  0.61199535226E+03  0.25500000920E-02 0.  1.
    10030    2    1    2    0    0  0.00000000000E+00  0.00000000000E+00  0.46118870756E+02  0.12701095753E+04  0.12692719894E+04 0.  0.
        1    1    3    3  502    0  0.28902740639E+03  0.50015995829E+03 -0.23991813568E+03  0.62550582521E+03  0.50400001928E-02 0.  1.
       -1    1    3    3    0  502 -0.28902740639E+03 -0.50015995829E+03  0.28603700644E+03  0.64460375006E+03  0.50400001928E-02 0. -1.
</event>
<event>
 5   0  0.3701879E-03  0.1207503E+04  0.7818609E-02  0.9106315E-01
        1   -1    0    0  501    0  0.00000000000E+00  0.00000000000E+00  0.13701813682E+04  0.13701813682E+04  0.50400001928E-02 0. -1.
       -1   -1    0    0    0  501  0.00000000000E+00  0.00000000000E+00 -0.26603466599E+03  0.26603466604E+03  0.50400001928E-02 0.  1.
    10030    2    1    2    0    0  0.00000000000E+00  0.00000000000E+00  0.11041467022E+04  0.16362160342E+04  0.12075027829E+04 0.  0.
        1    1    3    3  502    0  0.27236826539E+03 -0.98367026603E+02 -0.16578548353E+03  0.33368453739E+03  0.50400001928E-02 0.  1.
       -1    1    3    3    0  502 -0.27236826539E+03  0.98367026603E+02  0.12699321857E+04  0.13025314969E+04  0.50400001928E-02 0. -1.
</event>
<event>
 5   0  0.6349142E-03  0.1290324E+04  0.7818609E-02  0.9037274E-01
       -2   -1    0    0    0  501  0.00000000000E+00  0.00000000000E+00  0.26947523979E+03  0.26947523980E+03  0.25500000920E-02 0. -1.
        2   -1    0    0  501    0  0.00000000000E+00  0.00000000000E+00 -0.15446098424E+04  0.15446098424E+04  0.25500000920E-02 0.  1.
    10030    2    1    2    0    0  0.00000000000E+00  0.00000000000E+00 -0.12751346026E+04  0.18140850822E+04  0.12903241572E+04 0.  0.
        1    1    3    3  502    0  0.97617746037E+02  0.62892530350E+03 -0.78607501215E+03  0.10114297734E+04  0.50400001928E-02 0.  1.
       -1    1    3    3    0  502 -0.97617746037E+02 -0.62892530350E+03 -0.48905959042E+03  0.80265530879E+03  0.50400001928E-02 0. -1.
</event>
<event>
 5   0  0.3772254E-03  0.1198004E+04  0.7818609E-02  0.9114605E-01
       -1   -1    0    0    0  501  0.00000000000E+00  0.00000000000E+00  0.11237947885E+04  0.11237947885E+04  0.50400001928E-02 0. -1.
        1   -1    0    0  501    0  0.00000000000E+00  0.00000000000E+00 -0.31927856431E+03  0.31927856435E+03  0.50400001928E-02 0.  1.
    10030    2    1    2    0    0  0.00000000000E+00  0.00000000000E+00  0.80451622419E+03  0.14430733529E+04  0.11980043183E+04 0.  0.
        3    1    3    3  502    0  0.25620048024E+03 -0.18698226570E+03 -0.20982481288E+03  0.38029924541E+03  0.10100000352E+00 0.  1.
       -3    1    3    3    0  502 -0.25620048024E+03  0.18698226570E+03  0.10143410371E+04  0.10627741074E+04  0.10100000352E+00 0. -1.
</event>
<event>
 5   0  0.3648616E-03  0.1221537E+04  0.7818609E-02  0.9094212E-01
       -1   -1    0    0    0  501  0.00000000000E+00  0.00000000000E+00  0.26114436128E+03  0.26114436133E+03  0.50400001928E-02 0.  1.
        1   -1    0    0  501    0  0.00000000000E+00  0.00000000000E+00 -0.14284741374E+04  0.14284741375E+04  0.50400001928E-02 0. -1.
    10030    2    1    2    0    0  0.00000000000E+00  0.00000000000E+00 -0.11673297762E+04  0.16896184988E+04  0.12215366819E+04 0.  0.
        2    1    3    3  502    0 -0.11854631816E+03  0.54805896763E+03 -0.91854597450E+03  0.10761731129E+04  0.25500000920E-02 0. -1.
       -2    1    3    3    0  502  0.11854631816E+03 -0.54805896763E+03 -0.24878380166E+03  0.61344538594E+03  0.25500000920E-02 0.  1.
</event>
<event>
 5   0  0.3731281E-03  0.1210862E+04  0.7818609E-02  0.9103402E-01
        1   -1    0    0  501    0  0.00000000000E+00  0.00000000000E+00  0.61442219234E+03  0.61442219236E+03  0.50400001928E-02 0.  1.
       -1   -1    0    0    0  501  0.00000000000E+00  0.00000000000E+00 -0.59657175254E+03  0.59657175256E+03  0.50400001928E-02 0. -1.
    10030    2    1    2    0    0  0.00000000000E+00  0.00000000000E+00  0.17850439798E+02  0.12109939449E+04  0.12108623772E+04 0.  0.
        5    1    3    3  502    0  0.32875025556E+03  0.25083391243E+03  0.45116152039E+03  0.61201567761E+03  0.46999998093E+01 0.  1.
       -5    1    3    3    0  502 -0.32875025556E+03 -0.25083391243E+03 -0.43331108060E+03  0.59897826732E+03  0.46999998093E+01 0. -1.
</event>
<event>
 5   0  0.6640844E-03  0.1177106E+04  0.7818609E-02  0.9133135E-01
        2   -1    0    0  501    0  0.00000000000E+00  0.00000000000E+00  0.11222592617E+04  0.11222592617E+04  0.25500000920E-02 0.  1.
       -2   -1    0    0    0  501  0.00000000000E+00  0.00000000000E+00 -0.30865830808E+03  0.30865830809E+03  0.25500000920E-02 0. -1.
    10030    2    1    2    0    0  0.00000000000E+00  0.00000000000E+00  0.81360095359E+03  0.14309175698E+04  0.11771060189E+04 0.  0.
        5    1    3    3  502    0  0.51653608559E+03  0.27613816231E+03  0.33685466097E+03  0.67568851183E+03  0.46999998093E+01 0.  1.
       -5    1    3    3    0  502 -0.51653608559E+03 -0.27613816231E+03  0.47674629262E+03  0.75522905793E+03  0.46999998093E+01 0. -1.
</event>
<event>
 5   0  0.6640844E-03  0.1215485E+04  0.7818609E-02  0.9099410E-01
        2   -1    0    0  501    0  0.00000000000E+00  0.00000000000E+00  0.70820224553E+03  0.70820224554E+03  0.25500000920E-02 0.  1.
       -2   -1    0    0    0  501  0.00000000000E+00  0.00000000000E+00 -0.52153307675E+03  0.52153307676E+03  0.25500000920E-02 0. -1.
    10030    2    1    2    0    0  0.00000000000E+00  0.00000000000E+00  0.18666916878E+03  0.12297353223E+04  0.12154849174E+04 0.  0.
        5    1    3    3  502    0  0.24571917254E+03 -0.55262270821E+03  0.15369167626E+03  0.62402963931E+03  0.46999998093E+01 0. -1.
       -5    1    3    3    0  502 -0.24571917254E+03  0.55262270821E+03  0.32977492526E+02  0.60570568298E+03  0.46999998093E+01 0.  1.
</event>
<event>
 5   0  0.6640844E-03  0.1187618E+04  0.7818609E-02  0.9123764E-01
        2   -1    0    0  501    0  0.00000000000E+00  0.00000000000E+00  0.55542440574E+03  0.55542440575E+03  0.25500000920E-02 0. -1.
       -2   -1    0    0    0  501  0.00000000000E+00  0.00000000000E+00 -0.63484673916E+03  0.63484673917E+03  0.25500000920E-02 0.  1.
    10030    2    1    2    0    0  0.00000000000E+00  0.00000000000E+00 -0.79422333416E+02  0.11902711449E+04  0.11876184115E+04 0.  0.
        5    1    3    3  502    0 -0.28489728462E+03 -0.58500309321E+02  0.47913091440E+03  0.56051518455E+03  0.46999998093E+01 0. -1.
       -5    1    3    3    0  502  0.28489728462E+03  0.58500309321E+02 -0.55855324782E+03  0.62975596037E+03  0.46999998093E+01 0.  1.
</event>
<event>
 5   0  0.3944074E-03  0.1724734E+04  0.7818609E-02  0.8747382E-01
        1   -1    0    0  501    0  0.00000000000E+00  0.00000000000E+00  0.14165432949E+04  0.14165432949E+04  0.50400001928E-02 0.  1.
       -1   -1    0    0    0  501  0.00000000000E+00  0.00000000000E+00 -0.52499426174E+03  0.52499426176E+03  0.50400001928E-02 0. -1.
    10030    2    1    2    0    0  0.00000000000E+00  0.00000000000E+00  0.89154903317E+03  0.19415375567E+04  0.17247343000E+04 0.  0.
        4    1    3    3  502    0 -0.20700340131E+03  0.46343320140E+03 -0.33903848752E+03  0.61038467317E+03  0.12699999809E+01 0. -1.
       -4    1    3    3    0  502  0.20700340131E+03 -0.46343320140E+03  0.12305875207E+04  0.13311528835E+04  0.12699999809E+01 0.  1.
</event>
<event>
 5   0  0.6585930E-03  0.1214721E+04  0.7818609E-02  0.9100068E-01
       -2   -1    0    0    0  501  0.00000000000E+00  0.00000000000E+00  0.71519707637E+03  0.71519707637E+03  0.25500000920E-02 0.  1.
        2   -1    0    0  501    0  0.00000000000E+00  0.00000000000E+00 -0.51578342604E+03  0.51578342605E+03  0.25500000920E-02 0. -1.
    10030    2    1    2    0    0  0.00000000000E+00  0.00000000000E+00  0.19941365032E+03  0.12309805024E+04  0.12147210352E+04 0.  0.
        2    1    3    3  502    0 -0.53550565330E+03  0.19996081125E+03 -0.10831176006E+03  0.58179211762E+03  0.25500000920E-02 0.  1.
       -2    1    3    3    0  502  0.53550565330E+03 -0.19996081125E+03  0.30772541038E+03  0.64918838480E+03  0.25500000920E-02 0. -1.
</event>
<event>
 5   0  0.6493047E-03  0.1222097E+04  0.7818609E-02  0.9093732E-01
       -2   -1    0    0    0  501  0.00000000000E+00  0.00000000000E+00  0.21755107926E+03  0.21755107928E+03  0.25500000920E-02 0. -1.
        2   -1    0    0  501    0  0.00000000000E+00  0.00000000000E+00 -0.17162880512E+04  0.17162880512E+04  0.25500000920E-02 0.  1.
    10030    2    1    2    0    0  0.00000000000E+00  0.00000000000E+00 -0.14987369719E+04  0.19338391305E+04  0.12220970794E+04 0.  0.
        3    1    3    3  502    0  0.33396754831E+01  0.34722622339E+03 -0.15449887551E+04  0.15835300651E+04  0.10100000352E+00 0.  1.
       -3    1    3    3    0  502 -0.33396754831E+01 -0.34722622339E+03  0.46251783118E+02  0.35030906537E+03  0.10100000352E+00 0. -1.
</event>
<event>
 5   0  0.3701879E-03  0.1102192E+04  0.7818609E-02  0.9203058E-01
       -1   -1    0    0    0  501  0.00000000000E+00  0.00000000000E+00  0.27332474765E+03  0.27332474770E+03  0.50400001928E-02 0.  1.
        1   -1    0    0  501    0  0.00000000000E+00  0.00000000000E+00 -0.11111582385E+04  0.11111582385E+04  0.50400001928E-02 0. -1.
    10030    2    1    2    0    0  0.00000000000E+00  0.00000000000E+00 -0.83783349083E+03  0.13844829862E+04  0.11021924427E+04 0.  0.
        1    1    3    3  502    0 -0.48713719710E+03  0.69958505522E+02 -0.10738394620E+03  0.50371435677E+03  0.50400001928E-02 0. -1.
       -1    1    3    3    0  502  0.48713719710E+03 -0.69958505522E+02 -0.73044954463E+03  0.88076862942E+03  0.50400001928E-02 0.  1.
</event>
<event>
 5   0  0.6493047E-03  0.1182407E+04  0.7818609E-02  0.9128396E-01
        2   -1    0    0  501    0  0.00000000000E+00  0.00000000000E+00  0.10502424638E+04  0.10502424638E+04  0.25500000920E-02 0.  1.
       -2   -1    0    0    0  501  0.00000000000E+00  0.00000000000E+00 -0.33280090656E+03  0.33280090657E+03  0.25500000920E-02 0. -1.
    10030    2    1    2    0    0  0.00000000000E+00  0.00000000000E+00  0.71744155728E+03  0.13830433704E+04  0.11824071111E+04 0.  0.
        3    1    3    3  502    0  0.60654400241E+02  0.52551080395E+03  0.49957119074E+02  0.53135325847E+03  0.10100000352E+00 0. -1.
       -3    1    3    3    0  502 -0.60654400241E+02 -0.52551080395E+03  0.66748443820E+03  0.85169011194E+03  0.10100000352E+00 0.  1.
</event>
<event>
 5   0  0.3944074E-03  0.1175738E+04  0.7818609E-02  0.9134362E-01
       -1   -1    0    0    0  501  0.00000000000E+00  0.00000000000E+00  0.77354620410E+03  0.77354620411E+03  0.50400001928E-02 0. -1.
        1   -1    0    0  501    0  0.00000000000E+00  0.00000000000E+00 -0.44676079301E+03  0.44676079304E+03  0.50400001928E-02 0.  1.
    10030    2    1    2    0    0  0.00000000000E+00  0.00000000000E+00  0.32678541108E+03  0.12203069972E+04  0.11757382627E+04 0.  0.
        4    1    3    3  502    0 -0.24497238559E+03 -0.38577165705E+03  0.54721804934E+03  0.71293789877E+03  0.12699999809E+01 0. -1.
       -4    1    3    3    0  502  0.24497238559E+03  0.38577165705E+03 -0.22043263826E+03  0.50736909838E+03  0.12699999809E+01 0.  1.
</event>
<event>
 5   0  0.6640844E-03  0.1111262E+04  0.7818609E-02  0.9194285E-01
       -2   -1    0    0    0  501  0.00000000000E+00  0.00000000000E+00  0.36190509847E+03  0.36190509848E+03  0.25500000920E-02 0.  1.
        2   -1    0    0  501    0  0.00000000000E+00  0.00000000000E+00 -0.85305682241E+03  0.85305682241E+03  0.25500000920E-02 0. -1.
    10030    2    1    2    0    0  0.00000000000E+00  0.00000000000E+00 -0.49115172393E+03  0.12149619209E+04  0.11112616493E+04 0.  0.
        5    1    3    3  502    0 -0.24795118601E+03  0.49665158295E+03 -0.21968158986E+03  0.59701312918E+03  0.46999998093E+01 0.  1.
       -5    1    3    3    0  502  0.24795118601E+03 -0.49665158295E+03 -0.27147013408E+03  0.61794879171E+03  0.46999998093E+01 0. -1.
</event>
<event>
 5   0  0.3772254E-03  0.1208395E+04  0.7818609E-02  0.9105540E-01
       -1   -1    0    0    0  501  0.00000000000E+00  0.00000000000E+00  0.34276149576E+03  0.34276149580E+03  0.50400001928E-02 0. -1.
        1   -1    0    0  501    0  0.00000000000E+00  0.00000000000E+00 -0.10650394240E+04  0.10650394241E+04  0.50400001928E-02 0.  1.
    10030    2    1    2    0    0  0.00000000000E+00  0.00000000000E+00 -0.72227792828E+03  0.14078009199E+04  0.12083948131E+04 0.  0.
        3    1    3    3  502    0 -0.49013724581E+03 -0.15006894631E+03 -0.73376113926E+03  0.89507576667E+03  0.10100000352E+00 0.  1.
       -3    1    3    3    0  502  0.49013724581E+03  0.15006894631E+03  0.11483210980E+02  0.51272515319E+03  0.10100000352E+00 0. -1.
</event>
<event>
 5   0  0.6585930E-03  0.1186792E+04  0.7818609E-02  0.9124496E-01
        2   -1    0    0  501    0  0.00000000000E+00  0.00000000000E+00  0.12019395240E+04  0.12019395240E+04  0.25500000920E-02 0.  1.
       -2   -1    0    0    0  501  0.00000000000E+00  0.00000000000E+00 -0.29295893198E+03  0.29295893199E+03  0.25500000920E-02 0. -1.
    10030    2    1    2    0    0  0.00000000000E+00  0.00000000000E+00  0.90898059205E+03  0.14948984560E+04  0.11867921794E+04 0.  0.
        2    1    3    3  502    0 -0.34892441930E+01  0.25540614592E+03 -0.22016657680E+03  0.33722069294E+03  0.25500000920E-02 0. -1.
       -2    1    3    3    0  502  0.34892441930E+01 -0.25540614592E+03  0.11291471689E+04  0.11576777631E+04  0.25500000920E-02 0.  1.
</event>
<event>
 5   0  0.3731281E-03  0.1235189E+04  0.7818609E-02  0.9082601E-01
       -1   -1    0    0    0  501  0.00000000000E+00  0.00000000000E+00  0.83874396869E+03  0.83874396870E+03  0.50400001928E-02 0.  1.
        1   -1    0    0  501    0  0.00000000000E+00  0.00000000000E+00 -0.45475498974E+03  0.45475498977E+03  0.50400001928E-02 0. -1.
    10030    2    1    2    0    0  0.00000000000E+00  0.00000000000E+00  0.38398897894E+03  0.12934989585E+04  0.12351890623E+04 0.  0.
        5    1    3    3  502    0 -0.62284499216E+02 -0.40987385876E+03 -0.28735309788E+03  0.50445002904E+03  0.46999998093E+01 0. -1.
       -5    1    3    3    0  502  0.62284499216E+02  0.40987385876E+03  0.67134207682E+03  0.78904892944E+03  0.46999998093E+01 0.  1.
</event>
<event>
 5   0  0.3648616E-03  0.1191919E+04  0.7818609E-02  0.9119959E-01
       -1   -1    0    0    0  501  0.00000000000E+00  0.00000000000E+00  0.11444712939E+04  0.11444712940E+04  0.50400001928E-02 0.  1.
        1   -1    0    0  501    0  0.00000000000E+00  0.00000000000E+00 -0.31033338939E+03  0.31033338943E+03  0.50400001928E-02 0. -1.
    10030    2    1    2    0    0  0.00000000000E+00  0.00000000000E+00  0.83413790455E+03  0.14548046834E+04  0.11919188827E+04 0.  0.
        2    1    3    3  502    0 -0.50996097302E+02 -0.33636090605E+03  0.10143047311E+04  0.10698380011E+04  0.25500000920E-02 0.  1.
       -2    1    3    3    0  502  0.50996097302E+02  0.33636090605E+03 -0.18016682657E+03  0.38496668227E+03  0.25500000920E-02 0. -1.
</event>
<event>
 5   0  0.3731281E-03  0.1238809E+04  0.7818609E-02  0.9079549E-01
       -1   -1    0    0    0  501  0.00000000000E+00  0.00000000000E+00  0.34833973563E+03  0.34833973567E+03  0.50400001928E-02 0.  1.
        1   -1    0    0  501    0  0.00000000000E+00  0.00000000000E+00 -0.11014023078E+04  0.11014023078E+04  0.50400001928E-02 0. -1.
    10030    2    1    2    0    0  0.00000000000E+00  0.00000000000E+00 -0.75306257213E+03  0.14497420434E+04  0.12388094103E+04 0.  0.
        5    1    3    3  502    0  0.55632961664E+02  0.61497927212E+03 -0.31985385246E+03  0.69543016076E+03  0.46999998093E+01 0. -1.
       -5    1    3    3    0  502 -0.55632961664E+02 -0.61497927212E+03 -0.43320871967E+03  0.75431188268E+03  0.46999998093E+01 0.  1.
</event>
<event>
 5   0  0.6640844E-03  0.1204399E+04  0.7818609E-02  0.9109015E-01
        2   -1    0    0  501    0  0.00000000000E+00  0.00000000000E+00  0.57348944124E+03  0.57348944125E+03  0.25500000920E-02 0.  1.
       -2   -1    0    0    0  501  0.00000000000E+00  0.00000000000E+00 -0.63234643633E+03  0.63234643634E+03  0.25500000920E-02 0. -1.
    10030    2    1    2    0    0  0.00000000000E+00  0.00000000000E+00 -0.58856995089E+02  0.12058358776E+04  0.12043986125E+04 0.  0.
        5    1    3    3  502    0  0.40287416505E+03  0.73955351253E+02 -0.47136767908E+03  0.62448904372E+03  0.46999998093E+01 0. -1.
       -5    1    3    3    0  502 -0.40287416505E+03 -0.73955351253E+02  0.41251068399E+03  0.58134683387E+03  0.46999998093E+01 0.  1.
</event>
<event>
 5   0  0.3731281E-03  0.1177550E+04  0.7818609E-02  0.9132737E-01
       -1   -1    0    0    0  501  0.00000000000E+00  0.00000000000E+00  0.40783909586E+03  0.40783909589E+03  0.50400001928E-02 0. -1.
        1   -1    0    0  501    0  0.00000000000E+00  0.00000000000E+00 -0.84998213330E+03  0.84998213332E+03  0.50400001928E-02 0.  1.
    10030    2    1    2    0    0  0.00000000000E+00  0.00000000000E+00 -0.44214303745E+03  0.12578212292E+04  0.11775499051E+04 0.  0.
        5    1    3    3  502    0  0.38436778379E+03 -0.44101305182E+03 -0.29194790978E+03  0.65382472966E+03  0.46999998093E+01 0. -1.
       -5    1    3    3    0  502 -0.38436778379E+03  0.44101305182E+03 -0.15019512766E+03  0.60399649954E+03  0.46999998093E+01 0.  1.
</event>
<event>
 5   0  0.6349142E-03  0.1219551E+04  0.7818609E-02  0.9095913E-01
        2   -1    0    0  501    0  0.00000000000E+00  0.00000000000E+00  0.92847619629E+03  0.92847619629E+03  0.25500000920E-02 0. -1.
       -2   -1    0    0    0  501  0.00000000000E+00  0.00000000000E+00 -0.40046955413E+03  0.40046955414E+03  0.25500000920E-02 0.  1.
    10030    2    1    2    0    0  0.00000000000E+00  0.00000000000E+00  0.52800664216E+03  0.13289457504E+04  0.12195514722E+04 0.  0.
        1    1    3    3  502    0 -0.16432309727E+03  0.58611388357E+03  0.30321563507E+03  0.68005241429E+03  0.50400001928E-02 0.  1.
       -1    1    3    3    0  502  0.16432309727E+03 -0.58611388357E+03  0.22479100708E+03  0.64889333615E+03  0.50400001928E-02 0. -1.
</event>
<event>
 5   0  0.6640844E-03  0.1206190E+04  0.7818609E-02  0.9107456E-01
        2   -1    0    0  501    0  0.00000000000E+00  0.00000000000E+00  0.52918835357E+03  0.52918835358E+03  0.25500000920E-02 0.  1.
       -2   -1    0    0    0  501  0.00000000000E+00  0.00000000000E+00 -0.68732326543E+03  0.68732326543E+03  0.25500000920E-02 0. -1.
    10030    2    1    2    0    0  0.00000000000E+00  0.00000000000E+00 -0.15813491186E+03  0.12165116190E+04  0.12061898146E+04 0.  0.
        5    1    3    3  502    0 -0.10532323812E+02 -0.49825434557E+03 -0.42158080434E+03  0.65277927917E+03  0.46999998093E+01 0. -1.
       -5    1    3    3    0  502  0.10532323812E+02  0.49825434557E+03  0.26344589249E+03  0.56373233985E+03  0.46999998093E+01 0.  1.
</event>
<event>
 5   0  0.6640844E-03  0.1127363E+04  0.7818609E-02  0.9178925E-01
        2   -1    0    0  501    0  0.00000000000E+00  0.00000000000E+00  0.15417889598E+04  0.15417889598E+04  0.25500000920E-02 0.  1.
       -2   -1    0    0    0  501  0.00000000000E+00  0.00000000000E+00 -0.20608307681E+03  0.20608307682E+03  0.25500000920E-02 0. -1.
    10030    2    1    2    0    0  0.00000000000E+00  0.00000000000E+00  0.13357058830E+04  0.17478720366E+04  0.11273626083E+04 0.  0.
        5    1    3    3  502    0 -0.54461360818E+03  0.84990639486E+02  0.48514716264E+03  0.73431413607E+03  0.46999998093E+01 0. -1.
       -5    1    3    3    0  502  0.54461360818E+03 -0.84990639486E+02  0.85055872037E+03  0.10135579006E+04  0.46999998093E+01 0.  1.
</event>
<event>
 5   0  0.3772254E-03  0.1217483E+04  0.7818609E-02  0.9097690E-01
       -1   -1    0    0    0  501  0.00000000000E+00  0.00000000000E+00  0.58296397639E+03  0.58296397641E+03  0.50400001928E-02 0. -1.
        1   -1    0    0  501    0  0.00000000000E+00  0.00000000000E+00 -0.63565891434E+03  0.63565891436E+03  0.50400001928E-02 0.  1.
    10030    2    1    2    0    0  0.00000000000E+00  0.00000000000E+00 -0.52694937945E+02  0.12186228908E+04  0.12174830567E+04 0.  0.
        3    1    3    3  502    0  0.60251490769E+03 -0.56300862697E+02  0.39837330063E+02  0.60644952321E+03  0.10100000352E+00 0. -1.
       -3    1    3    3    0  502 -0.60251490769E+03  0.56300862697E+02 -0.92532268008E+02  0.61217336756E+03  0.10100000352E+00 0.  1.
</event>
<event>
 5   0  0.3731281E-03  0.1205015E+04  0.7818609E-02  0.9108478E-01
       -1   -1    0    0    0  501  0.00000000000E+00  0.00000000000E+00  0.71618442600E+03  0.71618442602E+03  0.50400001928E-02 0.  1.
        1   -1    0    0  501    0  0.00000000000E+00  0.00000000000E+00 -0.50687399447E+03  0.50687399450E+03  0.50400001928E-02 0. -1.
    10030    2    1    2    0    0  0.00000000000E+00  0.00000000000E+00  0.20931043153E+03  0.12230584205E+04  0.12050149556E+04 0.  0.
        5    1    3    3  502    0  0.51125345692E+03 -0.27695496466E+03 -0.55533933768E+02  0.58411493515E+03  0.46999998093E+01 0. -1.
       -5    1    3    3    0  502 -0.51125345692E+03  0.27695496466E+03  0.26484436530E+03  0.63894348537E+03  0.46999998093E+01 0.  1.
</event>
<event>
 5   0  0.6640844E-03  0.1228505E+04  0.7818609E-02  0.9088266E-01
        2   -1    0    0  501    0  0.00000000000E+00  0.00000000000E+00  0.10628391176E+04  0.10628391176E+04  0.25500000920E-02 0. -1.
       -2   -1    0    0    0  501  0.00000000000E+00  0.00000000000E+00 -0.35499840109E+03  0.35499840110E+03  0.25500000920E-02 0.  1.
    10030    2    1    2    0    0  0.00000000000E+00  0.00000000000E+00  0.70784071655E+03  0.14178375187E+04  0.12285050873E+04 0.  0.
        5    1    3    3  502    0 -0.25597962169E+03 -0.55358586565E+03  0.26988976686E+03  0.66696735573E+03  0.46999998093E+01 0.  1.
       -5    1    3    3    0  502  0.25597962169E+03  0.55358586565E+03  0.43795094969E+03  0.75087016301E+03  0.46999998093E+01 0. -1.
</event>
<event>
 5   0  0.3648616E-03  0.1204450E+04  0.7818609E-02  0.9108971E-01
        1   -1    0    0  501    0  0.00000000000E+00  0.00000000000E+00  0.94078281989E+03  0.94078281990E+03  0.50400001928E-02 0. -1.
       -1   -1    0    0    0  501  0.00000000000E+00  0.00000000000E+00 -0.38550308028E+03  0.38550308031E+03  0.50400001928E-02 0.  1.
    10030    2    1    2    0    0  0.00000000000E+00  0.00000000000E+00  0.55527973961E+03  0.13262859002E+04  0.12044495423E+04 0.  0.
        2    1    3    3  502    0 -0.64540536071E+02  0.26726174545E+03  0.86763751457E+03  0.91015887518E+03  0.25500000920E-02 0. -1.
       -2    1    3    3    0  502  0.64540536071E+02 -0.26726174545E+03 -0.31235777496E+03  0.41612702503E+03  0.25500000920E-02 0.  1.
</event>
<event>
 5   0  0.6349142E-03  0.1195726E+04  0.7818609E-02  0.9116606E-01
       -2   -1    0    0    0  501  0.00000000000E+00  0.00000000000E+00  0.21338063382E+03  0.21338063384E+03  0.25500000920E-02 0.  1.
        2   -1    0    0  501    0  0.00000000000E+00  0.00000000000E+00 -0.16751284755E+04  0.16751284755E+04  0.25500000920E-02 0. -1.
    10030    2    1    2    0    0  0.00000000000E+00  0.00000000000E+00 -0.14617478417E+04  0.18885091093E+04  0.11957256807E+04 0.  0.
        1    1    3    3  502    0 -0.14327241120E+03 -0.88553430906E+02 -0.16368829353E+04  0.16455255811E+04  0.50400001928E-02 0. -1.
       -1    1    3    3    0  502  0.14327241120E+03  0.88553430906E+02  0.17513509368E+03  0.24298352825E+03  0.50400001928E-02 0.  1.
</event>
<event>
 5   0  0.3731281E-03  0.1189390E+04  0.7818609E-02  0.9122195E-01
       -1   -1    0    0    0  501  0.00000000000E+00  0.00000000000E+00  0.78957982700E+03  0.78957982702E+03  0.50400001928E-02 0.  1.
        1   -1    0    0  501    0  0.00000000000E+00  0.00000000000E+00 -0.44791162986E+03  0.44791162989E+03  0.50400001928E-02 0. -1.
    10030    2    1    2    0    0  0.00000000000E+00  0.00000000000E+00  0.34166819714E+03  0.12374914569E+04  0.11893897380E+04 0.  0.
        5    1    3    3  502    0  0.20227424319E+03 -0.35466848416E+03 -0.27901170673E+03  0.49454446271E+03  0.46999998093E+01 0. -1.
       -5    1    3    3    0  502 -0.20227424319E+03  0.35466848416E+03  0.62067990387E+03  0.74294699419E+03  0.46999998093E+01 0.  1.
</event>
<event>
 5   0  0.3701879E-03  0.1200059E+04  0.7818609E-02  0.9112805E-01
       -1   -1    0    0    0  501  0.00000000000E+00  0.00000000000E+00  0.95653362982E+03  0.95653362983E+03  0.50400001928E-02 0.  1.
        1   -1    0    0  501    0  0.00000000000E+00  0.00000000000E+00 -0.37639591294E+03  0.37639591297E+03  0.50400001928E-02 0. -1.
    10030    2    1    2    0    0  0.00000000000E+00  0.00000000000E+00  0.58013771688E+03  0.13329295428E+04  0.12000589134E+04 0.  0.
        1    1    3    3  502    0  0.35197252837E+03 -0.44618476883E+03  0.76216037427E+02  0.57338851842E+03  0.50400001928E-02 0. -1.
       -1    1    3    3    0  502 -0.35197252837E+03  0.44618476883E+03  0.50392167945E+03  0.75954102438E+03  0.50400001928E-02 0.  1.
</event>
<event>
 5   0  0.3701879E-03  0.1214331E+04  0.7818609E-02  0.9100405E-01
        1   -1    0    0  501    0  0.00000000000E+00  0.00000000000E+00  0.48224859164E+03  0.48224859166E+03  0.50400001928E-02 0. -1.
       -1   -1    0    0    0  501  0.00000000000E+00  0.00000000000E+00 -0.76443914735E+03  0.76443914737E+03  0.50400001928E-02 0.  1.
    10030    2    1    2    0    0  0.00000000000E+00  0.00000000000E+00 -0.28219055572E+03  0.12466877390E+04  0.12143306012E+04 0.  0.
        1    1    3    3  502    0  0.31741148062E+03 -0.43559276349E+03  0.14592272005E+03  0.55837670429E+03  0.50400001928E-02 0. -1.
       -1    1    3    3    0  502 -0.31741148062E+03  0.43559276349E+03 -0.42811327576E+03  0.68831103474E+03  0.50400001928E-02 0.  1.
</event>
<event>
 5   0  0.3944074E-03  0.1200029E+04  0.7818609E-02  0.9112831E-01
        1   -1    0    0  501    0  0.00000000000E+00  0.00000000000E+00  0.47551583559E+03  0.47551583562E+03  0.50400001928E-02 0.  1.
       -1   -1    0    0    0  501  0.00000000000E+00  0.00000000000E+00 -0.75710966899E+03  0.75710966900E+03  0.50400001928E-02 0. -1.
    10030    2    1    2    0    0  0.00000000000E+00  0.00000000000E+00 -0.28159383339E+03  0.12326255046E+04  0.12000293945E+04 0.  0.
        4    1    3    3  502    0  0.92178535254E+02 -0.59003465189E+03 -0.20049841583E+03  0.62995158579E+03  0.12699999809E+01 0.  1.
       -4    1    3    3    0  502 -0.92178535254E+02  0.59003465189E+03 -0.81095417557E+02  0.60267391883E+03  0.12699999809E+01 0. -1.
</event>
<event>
 5   0  0.6658994E-03  0.1207869E+04  0.7818609E-02  0.9105997E-01
       -2   -1    0    0    0  501  0.00000000000E+00  0.00000000000E+00  0.43402021661E+03  0.43402021661E+03  0.25500000920E-02 0.  1.
        2   -1    0    0  501    0  0.00000000000E+00  0.00000000000E+00 -0.84036820930E+03  0.84036820931E+03  0.25500000920E-02 0. -1.
    10030    2    1    2    0    0  0.00000000000E+00  0.00000000000E+00 -0.40634799270E+03  0.12743884259E+04  0.12078688542E+04 0.  0.
        4    1    3    3  502    0  0.52972179126E+03 -0.20017890333E+02  0.10212173562E+03  0.53984845452E+03  0.12699999809E+01 0.  1.
       -4    1    3    3    0  502 -0.52972179126E+03  0.20017890333E+02 -0.50846972832E+03  0.73453997140E+03  0.12699999809E+01 0. -1.
</event>
<event>
 5   0  0.6349142E-03  0.1200164E+04  0.7818609E-02  0.9112713E-01
        2   -1    0    0  501    0  0.00000000000E+00  0.00000000000E+00  0.10197852322E+04  0.10197852322E+04  0.25500000920E-02 0. -1.
       -2   -1    0    0    0  501  0.00000000000E+00  0.00000000000E+00 -0.35311223360E+03  0.35311223361E+03  0.25500000920E-02 0.  1.
    10030    2    1    2    0    0  0.00000000000E+00  0.00000000000E+00  0.66667299861E+03  0.13728974658E+04  0.12001643906E+04 0.  0.
        1    1    3    3  502    0  0.24030123412E+03 -0.14121228696E+03 -0.27457414174E+03  0.39124998716E+03  0.50400001928E-02 0.  1.
       -1    1    3    3    0  502 -0.24030123412E+03  0.14121228696E+03  0.94124714035E+03  0.98164747866E+03  0.50400001928E-02 0. -1.
</event>
<event>
 5   0  0.3944074E-03  0.6615663E+03  0.7818609E-02  0.9785315E-01
        1   -1    0    0  501    0  0.00000000000E+00  0.00000000000E+00  0.48882658700E+03  0.48882658702E+03  0.50400001928E-02 0. -1.
       -1   -1    0    0    0  501  0.00000000000E+00  0.00000000000E+00 -0.22383701675E+03  0.22383701681E+03  0.50400001928E-02 0.  1.
    10030    2    1    2    0    0  0.00000000000E+00  0.00000000000E+00  0.26498957025E+03  0.71266360383E+03  0.66156627777E+03 0.  0.
        4    1    3    3  502    0  0.30173360716E+03  0.13003016792E+03  0.17372436943E+03  0.37166219029E+03  0.12699999809E+01 0.  1.
       -4    1    3    3    0  502 -0.30173360716E+03 -0.13003016792E+03  0.91265200815E+02  0.34100141354E+03  0.12699999809E+01 0. -1.
</event>
<event>
 5   0  0.6640844E-03  0.1274251E+04  0.7818609E-02  0.9050237E-01
        2   -1    0    0  501    0  0.00000000000E+00  0.00000000000E+00  0.11062500884E+04  0.11062500884E+04  0.25500000920E-02 0. -1.
       -2   -1    0    0    0  501  0.00000000000E+00  0.00000000000E+00 -0.36694143506E+03  0.36694143507E+03  0.25500000920E-02 0.  1.
    10030    2    1    2    0    0  0.00000000000E+00  0.00000000000E+00  0.73930865330E+03  0.14731915234E+04  0.12742511447E+04 0.  0.
        5    1    3    3  502    0  0.17206762137E+03 -0.48436967516E+03  0.80483251733E+03  0.95498624047E+03  0.46999998093E+01 0. -1.
       -5    1    3    3    0  502 -0.17206762137E+03  0.48436967516E+03 -0.65523864025E+02  0.51820528296E+03  0.46999998093E+01 0.  1.
</event>
<event>
 5   0  0.6493047E-03  0.1220406E+04  0.7818609E-02  0.9095180E-01
       -2   -1    0    0    0  501  0.00000000000E+00  0.00000000000E+00  0.29880536729E+03  0.29880536730E+03  0.25500000920E-02 0. -1.
        2   -1    0    0  501    0  0.00000000000E+00  0.00000000000E+00 -0.12461210864E+04  0.12461210864E+04  0.25500000920E-02 0.  1.
    10030    2    1    2    0    0  0.00000000000E+00  0.00000000000E+00 -0.94731571910E+03  0.15449264537E+04  0.12204059471E+04 0.  0.
        3    1    3    3  502    0 -0.41405069609E+02 -0.29354173496E+03 -0.11488371004E+04  0.11864686357E+04  0.10100000352E+00 0.  1.
       -3    1    3    3    0  502  0.41405069609E+02  0.29354173496E+03  0.20152138133E+03  0.35845781800E+03  0.10100000352E+00 0. -1.
</event>
<event>
 5   0  0.6658994E-03  0.1203876E+04  0.7818609E-02  0.9109471E-01
       -2   -1    0    0    0  501  0.00000000000E+00  0.00000000000E+00  0.44937093941E+03  0.44937093941E+03  0.25500000920E-02 0.  1.
        2   -1    0    0  501    0  0.00000000000E+00  0.00000000000E+00 -0.80630323107E+03  0.80630323107E+03  0.25500000920E-02 0. -1.
    10030    2    1    2    0    0  0.00000000000E+00  0.00000000000E+00 -0.35693229166E+03  0.12556741705E+04  0.12038758082E+04 0.  0.
        4    1    3    3  502    0 -0.34509504628E+03 -0.29737720217E+03 -0.58884609439E+03  0.74448984352E+03  0.12699999809E+01 0. -1.
       -4    1    3    3    0  502  0.34509504628E+03  0.29737720217E+03  0.23191380273E+03  0.51118432696E+03  0.12699999809E+01 0.  1.
</event>
<event>
 5   0  0.6585930E-03  0.1221753E+04  0.7818609E-02  0.9094026E-01
        2   -1    0    0  501    0  0.00000000000E+00  0.00000000000E+00  0.10971300239E+04  0.10971300239E+04  0.25500000920E-02 0.  1.
       -2   -1    0    0    0  501  0.00000000000E+00  0.00000000000E+00 -0.34013307059E+03  0.34013307060E+03  0.25500000920E-02 0. -1.
    10030    2    1    2    0    0  0.00000000000E+00  0.00000000000E+00  0.75699695334E+03  0.14372630945E+04  0.12217531729E+04 0.  0.
        2    1    3    3  502    0 -0.37817440066E+03 -0.31310395809E+03  0.80609825575E+03  0.94384551904E+03  0.25500000920E-02 0.  1.
       -2    1    3    3    0  502  0.37817440066E+03  0.31310395809E+03 -0.49101302414E+02  0.49341757548E+03  0.25500000920E-02 0. -1.
</event>
<event>
 5   0  0.6585930E-03  0.1196522E+04  0.7818609E-02  0.9115907E-01
        2   -1    0    0  501    0  0.00000000000E+00  0.00000000000E+00  0.95314441110E+03  0.95314441111E+03  0.25500000920E-02 0. -1.
       -2   -1    0    0    0  501  0.00000000000E+00  0.00000000000E+00 -0.37551079645E+03  0.37551079646E+03  0.25500000920E-02 0.  1.
    10030    2    1    2    0    0  0.00000000000E+00  0.00000000000E+00  0.57763361465E+03  0.13286552076E+04  0.11965216537E+04 0.  0.
        2    1    3    3  502    0  0.45875608241E+03 -0.53726495565E+02  0.71103246309E+03  0.84788610264E+03  0.25500000920E-02 0. -1.
       -2    1    3    3    0  502 -0.45875608241E+03  0.53726495565E+02 -0.13339884844E+03  0.48076910492E+03  0.25500000920E-02 0.  1.
</event>
<event>
 5   0  0.6585930E-03  0.1163573E+04  0.7818609E-02  0.9145352E-01
       -2   -1    0    0    0  501  0.00000000000E+00  0.00000000000E+00  0.37265014980E+03  0.37265014981E+03  0.25500000920E-02 0. -1.
        2   -1    0    0  501    0  0.00000000000E+00  0.00000000000E+00 -0.90829374326E+03  0.90829374327E+03  0.25500000920E-02 0.  1.
    10030    2    1    2    0    0  0.00000000000E+00  0.00000000000E+00 -0.53564359346E+03  0.12809438931E+04  0.11635734605E+04 0.  0.
        2    1    3    3  502    0 -0.48001424921E+02  0.42860485486E+03 -0.69768260115E+03  0.82022391476E+03  0.25500000920E-02 0.  1.
       -2    1    3    3    0  502  0.48001424921E+02 -0.42860485486E+03  0.16203900769E+03  0.46071997832E+03  0.25500000920E-02 0. -1.
</event>
<event>
 5   0  0.6493047E-03  0.1123732E+04  0.7818609E-02  0.9182365E-01
       -2   -1    0    0    0  501  0.00000000000E+00  0.00000000000E+00  0.47490022565E+03  0.47490022566E+03  0.25500000920E-02 0.  1.
        2   -1    0    0  501    0  0.00000000000E+00  0.00000000000E+00 -0.66475746761E+03  0.66475746762E+03  0.25500000920E-02 0. -1.
    10030    2    1    2    0    0  0.00000000000E+00  0.00000000000E+00 -0.18985724196E+03  0.11396576933E+04  0.11237321236E+04 0.  0.
        3    1    3    3  502    0 -0.53759866620E+03  0.16303576872E+03 -0.84762923789E+02  0.56813532828E+03  0.10100000352E+00 0.  1.
       -3    1    3    3    0  502  0.53759866620E+03 -0.16303576872E+03 -0.10509431817E+03  0.57152236500E+03  0.10100000352E+00 0. -1.
</event>
<event>
 5   0  0.6658994E-03  0.1185352E+04  0.7818609E-02  0.9125775E-01
        2   -1    0    0  501    0  0.00000000000E+00  0.00000000000E+00  0.65634901838E+03  0.65634901838E+03  0.25500000920E-02 0.  1.
       -2   -1    0    0    0  501  0.00000000000E+00  0.00000000000E+00 -0.53518030589E+03  0.53518030590E+03  0.25500000920E-02 0. -1.
    10030    2    1    2    0    0  0.00000000000E+00  0.00000000000E+00  0.12116871248E+03  0.11915293243E+04  0.11853523838E+04 0.  0.
        4    1    3    3  502    0 -0.16123953115E+03 -0.79493891208E+02  0.62828035216E+03  0.65349466635E+03  0.12699999809E+01 0.  1.
       -4    1    3    3    0  502  0.16123953115E+03  0.79493891208E+02 -0.50711163967E+03  0.53803465793E+03  0.12699999809E+01 0. -1.
</event>
<event>
 5   0  0.6349142E-03  0.1182141E+04  0.7818609E-02  0.9128634E-01
        2   -1    0    0  501    0  0.00000000000E+00  0.00000000000E+00  0.23992939113E+03  0.23992939114E+03  0.25500000920E-02 0. -1.
       -2   -1    0    0    0  501  0.00000000000E+00  0.00000000000E+00 -0.14561127343E+04  0.14561127343E+04  0.25500000920E-02 0.  1.
    10030    2    1    2    0    0  0.00000000000E+00  0.00000000000E+00 -0.12161833432E+04  0.16960421255E+04  0.11821408406E+04 0.  0.
        1    1    3    3  502    0 -0.24170204422E+03  0.13883166920E+03 -0.13558966627E+04  0.13842506531E+04  0.50400001928E-02 0.  1.
       -1    1    3    3    0  502  0.24170204422E+03 -0.13883166920E+03  0.13971331955E+03  0.31179147236E+03  0.50400001928E-02 0. -1.
</event>
<event>
 5   0  0.3701879E-03  0.1241912E+04  0.7818609E-02  0.9076942E-01
       -1   -1    0    0    0  501  0.00000000000E+00  0.00000000000E+00  0.42740647009E+03  0.42740647012E+03  0.50400001928E-02 0. -1.
        1   -1    0    0  501    0  0.00000000000E+00  0.00000000000E+00 -0.90215318610E+03  0.90215318611E+03  0.50400001928E-02 0.  1.
    10030    2    1    2    0    0  0.00000000000E+00  0.00000000000E+00 -0.47474671601E+03  0.13295596562E+04  0.12419116052E+04 0.  0.
        1    1    3    3  502    0 -0.38354555302E+03  0.93979841115E+02  0.27566194901E+03  0.48158998322E+03  0.50400001928E-02 0. -1.
       -1    1    3    3    0  502  0.38354555302E+03 -0.93979841115E+02 -0.75040866502E+03  0.84796967301E+03  0.50400001928E-02 0.  1.
</event>
<event>
 5   0  0.3772254E-03  0.1185623E+04  0.7818609E-02  0.9125534E-01
       -1   -1    0    0    0  501  0.00000000000E+00  0.00000000000E+00  0.20443909391E+03  0.20443909397E+03  0.50400001928E-02 0. -1.
        1   -1    0    0  501    0  0.00000000000E+00  0.00000000000E+00 -0.17189746650E+04  0.17189746650E+04  0.50400001928E-02 0.  1.
    10030    2    1    2    0    0  0.00000000000E+00  0.00000000000E+00 -0.15145355711E+04  0.19234137590E+04  0.11856232505E+04 0.  0.
        3    1    3    3  502    0 -0.56826309768E+03 -0.10847255809E+03 -0.54739475706E+03  0.79644853839E+03  0.10100000352E+00 0.  1.
       -3    1    3    3    0  502  0.56826309768E+03  0.10847255809E+03 -0.96714081401E+03  0.11269652206E+04  0.10100000352E+00 0. -1.
</event>
<event>
 5   0  0.3701879E-03  0.1143936E+04  0.7818609E-02  0.9163396E-01
       -1   -1    0    0    0  501  0.00000000000E+00  0.00000000000E+00  0.62040248229E+03  0.62040248232E+03  0.50400001928E-02 0. -1.
        1   -1    0    0  501    0  0.00000000000E+00  0.00000000000E+00 -0.52731519220E+03  0.52731519223E+03  0.50400001928E-02 0.  1.
    10030    2    1    2    0    0  0.00000000000E+00  0.00000000000E+00  0.93087290093E+02  0.11477176745E+04  0.11439364567E+04 0.  0.
        1    1    3    3  502    0 -0.12564972057E+03 -0.20443971988E+03 -0.47436825426E+03  0.53160952966E+03  0.50400001928E-02 0.  1.
       -1    1    3    3    0  502  0.12564972057E+03  0.20443971988E+03  0.56745554436E+03  0.61610814488E+03  0.50400001928E-02 0. -1.
</event>
<event>
 5   0  0.6658994E-03  0.1457510E+04  0.7818609E-02  0.8913210E-01
        2   -1    0    0  501    0  0.00000000000E+00  0.00000000000E+00  0.21157712234E+04  0.21157712234E+04  0.25500000920E-02 0.  1.
       -2   -1    0    0    0  501  0.00000000000E+00  0.00000000000E+00 -0.25101208029E+03  0.25101208030E+03  0.25500000920E-02 0. -1.
    10030    2    1    2    0    0  0.00000000000E+00  0.00000000000E+00  0.18647591431E+04  0.23667833037E+04  0.14575103927E+04 0.  0.
        4    1    3    3  502    0 -0.16890681112E+03  0.57617033228E+03  0.16030541735E+04  0.17118078334E+04  0.12699999809E+01 0.  1.
       -4    1    3    3    0  502  0.16890681112E+03 -0.57617033228E+03  0.26170496968E+03  0.65497547030E+03  0.12699999809E+01 0. -1.
</event>
<event>
 5   0  0.6585930E-03  0.1236073E+04  0.7818609E-02  0.9081855E-01
       -2   -1    0    0    0  501  0.00000000000E+00  0.00000000000E+00  0.31488861607E+03  0.31488861608E+03  0.25500000920E-02 0. -1.
        2   -1    0    0  501    0  0.00000000000E+00  0.00000000000E+00 -0.12130290039E+04  0.12130290039E+04  0.25500000920E-02 0.  1.
    10030    2    1    2    0    0  0.00000000000E+00  0.00000000000E+00 -0.89814038783E+03  0.15279176200E+04  0.12360728527E+04 0.  0.
        2    1    3    3  502    0  0.56055914316E+03 -0.13962444915E+03 -0.17755558079E+03  0.60435711633E+03  0.25500000920E-02 0.  1.
       -2    1    3    3    0  502 -0.56055914316E+03  0.13962444915E+03 -0.72058480704E+03  0.92356050366E+03  0.25500000920E-02 0. -1.
</event>
<event>
 5   0  0.6585930E-03  0.1200642E+04  0.7818609E-02  0.9112295E-01
        2   -1    0    0  501    0  0.00000000000E+00  0.00000000000E+00  0.99492064335E+03  0.99492064336E+03  0.25500000920E-02 0. -1.
       -2   -1    0    0    0  501  0.00000000000E+00  0.00000000000E+00 -0.36222516652E+03  0.36222516653E+03  0.25500000920E-02 0.  1.
    10030    2    1    2    0    0  0.00000000000E+00  0.00000000000E+00  0.63269547684E+03  0.13571458099E+04  0.12006419878E+04 0.  0.
        2    1    3    3  502    0  0.40291309982E+03 -0.43956400488E+03  0.39490353654E+03  0.71519527653E+03  0.25500000920E-02 0. -1.
       -2    1    3    3    0  502 -0.40291309982E+03  0.43956400488E+03  0.23779194029E+03  0.64195053335E+03  0.25500000920E-02 0.  1.
</event>
<event>
 5   0  0.6349142E-03  0.1231591E+04  0.7818609E-02  0.9085646E-01
       -2   -1    0    0    0  501  0.00000000000E+00  0.00000000000E+00  0.20104325821E+03  0.20104325823E+03  0.25500000920E-02 0. -1.
        2   -1    0    0  501    0  0.00000000000E+00  0.00000000000E+00 -0.18861807986E+04  0.18861807986E+04  0.25500000920E-02 0.  1.
    10030    2    1    2    0    0  0.00000000000E+00  0.00000000000E+00 -0.16851375404E+04  0.20872240568E+04  0.12315907329E+04 0.  0.
        1    1    3    3  502    0  0.27631091316E+03 -0.36416966677E+03 -0.15418135171E+04  0.16081530364E+04  0.50400001928E-02 0.  1.
       -1    1    3    3    0  502 -0.27631091316E+03  0.36416966677E+03 -0.14332402326E+03  0.47907102041E+03  0.50400001928E-02 0. -1.
</event>
<event>
 5   0  0.6640844E-03  0.1181692E+04  0.7818609E-02  0.9129034E-01
       -2   -1    0    0    0  501  0.00000000000E+00  0.00000000000E+00  0.26096965116E+03  0.26096965117E+03  0.25500000920E-02 0. -1.
        2   -1    0    0  501    0  0.00000000000E+00  0.00000000000E+00 -0.13376995788E+04  0.13376995788E+04  0.25500000920E-02 0.  1.
    10030    2    1    2    0    0  0.00000000000E+00  0.00000000000E+00 -0.10767299277E+04  0.15986692300E+04  0.11816919945E+04 0.  0.
        5    1    3    3  502    0 -0.36789302531E+03 -0.25499157524E+03 -0.16659056550E+02  0.44795713598E+03  0.46999998093E+01 0. -1.
       -5    1    3    3    0  502  0.36789302531E+03  0.25499157524E+03 -0.10600708711E+04  0.11507120940E+04  0.46999998093E+01 0.  1.
</event>
<event>
 5   0  0.3648616E-03  0.1212997E+04  0.7818609E-02  0.9101556E-01
       -1   -1    0    0    0  501  0.00000000000E+00  0.00000000000E+00  0.48828274128E+03  0.48828274130E+03  0.50400001928E-02 0. -1.
        1   -1    0    0  501    0  0.00000000000E+00  0.00000000000E+00 -0.75333512476E+03  0.75333512478E+03  0.50400001928E-02 0.  1.
    10030    2    1    2    0    0  0.00000000000E+00  0.00000000000E+00 -0.26505238348E+03  0.12416178661E+04  0.12129971803E+04 0.  0.
        2    1    3    3  502    0 -0.93562269981E+02 -0.82708160038E+02 -0.74003306798E+03  0.75049548953E+03  0.25500000920E-02 0.  1.
       -2    1    3    3    0  502  0.93562269981E+02  0.82708160038E+02  0.47498068449E+03  0.49112237655E+03  0.25500000920E-02 0. -1.
</event>
<event>
 5   0  0.3772254E-03  0.1198607E+04  0.7818609E-02  0.9114076E-01
        1   -1    0    0  501    0  0.00000000000E+00  0.00000000000E+00  0.13878699879E+04  0.13878699879E+04  0.50400001928E-02 0. -1.
       -1   -1    0    0    0  501  0.00000000000E+00  0.00000000000E+00 -0.25878862508E+03  0.25878862513E+03  0.50400001928E-02 0.  1.
    10030    2    1    2    0    0  0.00000000000E+00  0.00000000000E+00  0.11290813628E+04  0.16466586131E+04  0.11986074687E+04 0.  0.
        3    1    3    3  502    0  0.11451712985E+03  0.58715818856E+03  0.61399867918E+03  0.85724168100E+03  0.10100000352E+00 0. -1.
       -3    1    3    3    0  502 -0.11451712985E+03 -0.58715818856E+03  0.51508268365E+03  0.78941693206E+03  0.10100000352E+00 0.  1.
</event>
<event>
 5   0  0.3701879E-03  0.1207694E+04  0.7818609E-02  0.9106149E-01
       -1   -1    0    0    0  501  0.00000000000E+00  0.00000000000E+00  0.44619375679E+03  0.44619375681E+03  0.50400001928E-02 0.  1.
        1   -1    0    0  501    0  0.00000000000E+00  0.00000000000E+00 -0.81720322108E+03  0.81720322110E+03  0.50400001928E-02 0. -1.
    10030    2    1    2    0    0  0.00000000000E+00  0.00000000000E+00 -0.37100946430E+03  0.12633969779E+04  0.12076936289E+04 0.  0.
        1    1    3    3  502    0  0.12305125386E+02  0.13189300721E+03  0.43080670395E+03  0.45071232250E+03  0.50400001928E-02 0.  1.
       -1    1    3    3    0  502 -0.12305125386E+02 -0.13189300721E+03 -0.80181616824E+03  0.81268465541E+03  0.50400001928E-02 0. -1.
</event>
<event>
 5   0  0.3648616E-03  0.1233342E+04  0.7818609E-02  0.9084163E-01
       -1   -1    0    0    0  501  0.00000000000E+00  0.00000000000E+00  0.48853929162E+03  0.48853929165E+03  0.50400001928E-02 0. -1.
        1   -1    0    0  501    0  0.00000000000E+00  0.00000000000E+00 -0.77840828716E+03  0.77840828718E+03  0.50400001928E-02 0.  1.
    10030    2    1    2    0    0  0.00000000000E+00  0.00000000000E+00 -0.28986899554E+03  0.12669475788E+04  0.12333418557E+04 0.  0.
        2    1    3    3  502    0  0.54053932718E+03  0.17699287502E+03 -0.38969938920E+03  0.68947433309E+03  0.25500000920E-02 0.  1.
       -2    1    3    3    0  502 -0.54053932718E+03 -0.17699287502E+03  0.99830393659E+02  0.57747324574E+03  0.25500000920E-02 0. -1.
</event>
<event>
 5   0  0.6493047E-03  0.1206366E+04  0.7818609E-02  0.9107303E-01
        2   -1    0    0  501    0  0.00000000000E+00  0.00000000000E+00  0.97966967680E+03  0.97966967680E+03  0.25500000920E-02 0.  1.
       -2   -1    0    0    0  501  0.00000000000E+00  0.00000000000E+00 -0.37137970156E+03  0.37137970157E+03  0.25500000920E-02 0. -1.
    10030    2    1    2    0    0  0.00000000000E+00  0.00000000000E+00  0.60828997524E+03  0.13510493784E+04  0.12063655038E+04 0.  0.
        3    1    3    3  502    0  0.47555931435E+03 -0.18225905140E+03 -0.57810927832E+02  0.51255939837E+03  0.10100000352E+00 0. -1.
       -3    1    3    3    0  502 -0.47555931435E+03  0.18225905140E+03  0.66610090307E+03  0.83848998000E+03  0.10100000352E+00 0.  1.
</event>
<event>
 5   0  0.3648616E-03  0.1169277E+04  0.7818609E-02  0.9140182E-01
       -1   -1    0    0    0  501  0.00000000000E+00  0.00000000000E+00  0.30832084085E+03  0.30832084089E+03  0.50400001928E-02 0.  1.
        1   -1    0    0  501    0  0.00000000000E+00  0.00000000000E+00 -0.11085919340E+04  0.11085919340E+04  0.50400001928E-02 0. -1.
    10030    2    1    2    0    0  0.00000000000E+00  0.00000000000E+00 -0.80027109313E+03  0.14169127749E+04  0.11692766949E+04 0.  0.
        2    1    3    3  502    0 -0.81968881160E+02 -0.20190076808E+03  0.25727263452E+03  0.33715282308E+03  0.25500000920E-02 0.  1.
       -2    1    3    3    0  502  0.81968881160E+02  0.20190076808E+03 -0.10575437277E+04  0.10797599518E+04  0.25500000920E-02 0. -1.
</event>
<event>
 5   0  0.6640844E-03  0.1221528E+04  0.7818609E-02  0.9094219E-01
        2   -1    0    0  501    0  0.00000000000E+00  0.00000000000E+00  0.86824729140E+03  0.86824729140E+03  0.25500000920E-02 0.  1.
       -2   -1    0    0    0  501  0.00000000000E+00  0.00000000000E+00 -0.42963854890E+03  0.42963854890E+03  0.25500000920E-02 0. -1.
    10030    2    1    2    0    0  0.00000000000E+00  0.00000000000E+00  0.43860874250E+03  0.12978858403E+04  0.12215277424E+04 0.  0.
        5    1    3    3  502    0  0.50184950804E+03  0.34423498246E+03  0.27410111504E+03  0.66746098248E+03  0.46999998093E+01 0. -1.
       -5    1    3    3    0  502 -0.50184950804E+03 -0.34423498246E+03  0.16450762746E+03  0.63042485782E+03  0.46999998093E+01 0.  1.
</event>
<event>
 5   0  0.6349142E-03  0.1091039E+04  0.7818609E-02  0.9213970E-01
       -2   -1    0    0    0  501  0.00000000000E+00  0.00000000000E+00  0.70425186024E+03  0.70425186025E+03  0.25500000920E-02 0. -1.
        2   -1    0    0  501    0  0.00000000000E+00  0.00000000000E+00 -0.42256415442E+03  0.42256415443E+03  0.25500000920E-02 0.  1.
    10030    2    1    2    0    0  0.00000000000E+00  0.00000000000E+00  0.28168770582E+03  0.11268160147E+04  0.10910391227E+04 0.  0.
        1    1    3    3  502    0  0.28952565714E+03 -0.29999881348E+03 -0.22249803255E+03  0.47257779121E+03  0.50400001928E-02 0.  1.
       -1    1    3    3    0  502 -0.28952565714E+03  0.29999881348E+03  0.50418573837E+03  0.65423822346E+03  0.50400001928E-02 0. -1.
</event>
<event>
 5   0  0.3731281E-03  0.9756480E+03  0.7818609E-02  0.9335664E-01
       -1   -1    0    0    0  501  0.00000000000E+00  0.00000000000E+00  0.32680212270E+03  0.32680212274E+03  0.50400001928E-02 0. -1.
        1   -1    0    0  501    0  0.00000000000E+00  0.00000000000E+00 -0.72818455508E+03  0.72818455510E+03  0.50400001928E-02 0.  1.
    10030    2    1    2    0    0  0.00000000000E+00  0.00000000000E+00 -0.40138243238E+03  0.10549866778E+04  0.97564800692E+03 0.  0.
        5    1    3    3  502    0 -0.41896536351E+02 -0.37356883325E+02  0.32327371851E+03  0.32814454676E+03  0.46999998093E+01 0. -1.
       -5    1    3    3    0  502  0.41896536351E+02  0.37356883325E+02 -0.72465615089E+03  0.72684213108E+03  0.46999998093E+01 0.  1.
</event>
<event>
 5   0  0.3772254E-03  0.1213585E+04  0.7818609E-02  0.9101048E-01
       -1   -1    0    0    0  501  0.00000000000E+00  0.00000000000E+00  0.41142833033E+03  0.41142833037E+03  0.50400001928E-02 0. -1.
        1   -1    0    0  501    0  0.00000000000E+00  0.00000000000E+00 -0.89492371034E+03  0.89492371036E+03  0.50400001928E-02 0.  1.
    10030    2    1    2    0    0  0.00000000000E+00  0.00000000000E+00 -0.48349538001E+03  0.13063520407E+04  0.12135847197E+04 0.  0.
        3    1    3    3  502    0  0.11346987092E+02 -0.54497526405E+03 -0.52871590145E+03  0.75938613840E+03  0.10100000352E+00 0. -1.
       -3    1    3    3    0  502 -0.11346987092E+02  0.54497526405E+03  0.45220521440E+02  0.54696590233E+03  0.10100000352E+00 0.  1.
</event>
<event>
 5   0  0.3944074E-03  0.1140342E+04  0.7818609E-02  0.9166740E-01
       -1   -1    0    0    0  501  0.00000000000E+00  0.00000000000E+00  0.45495921955E+03  0.45495921958E+03  0.50400001928E-02 0. -1.
        1   -1    0    0  501    0  0.00000000000E+00  0.00000000000E+00 -0.71455843256E+03  0.71455843258E+03  0.50400001928E-02 0.  1.
    10030    2    1    2    0    0  0.00000000000E+00  0.00000000000E+00 -0.25959921301E+03  0.11695176522E+04  0.11403419607E+04 0.  0.
        4    1    3    3  502    0 -0.34019396258E+03 -0.45626144256E+03 -0.94466783686E+02  0.57691595771E+03  0.12699999809E+01 0. -1.
       -4    1    3    3    0  502  0.34019396258E+03  0.45626144256E+03 -0.16513242933E+03  0.59260169444E+03  0.12699999809E+01 0.  1.
</event>
<event>
 5   0  0.3731281E-03  0.1196127E+04  0.7818609E-02  0.9116254E-01
       -1   -1    0    0    0  501  0.00000000000E+00  0.00000000000E+00  0.29691299278E+03  0.29691299282E+03  0.50400001928E-02 0.  1.
        1   -1    0    0  501    0  0.00000000000E+00  0.00000000000E+00 -0.12046619685E+04  0.12046619685E+04  0.50400001928E-02 0. -1.
    10030    2    1    2    0    0  0.00000000000E+00  0.00000000000E+00 -0.90774897575E+03  0.15015749614E+04  0.11961267331E+04 0.  0.
        5    1    3    3  502    0 -0.80420364000E+02  0.55068680751E+03 -0.17902619700E+03  0.58463310214E+03  0.46999998093E+01 0.  1.
       -5    1    3    3    0  502  0.80420364000E+02 -0.55068680751E+03 -0.72872277875E+03  0.91694185921E+03  0.46999998093E+01 0. -1.
</event>
<event>
 5   0  0.6585930E-03  0.1235882E+04  0.7818609E-02  0.9082016E-01
        2   -1    0    0  501    0  0.00000000000E+00  0.00000000000E+00  0.13093832776E+04  0.13093832776E+04  0.25500000920E-02 0. -1.
       -2   -1    0    0    0  501  0.00000000000E+00  0.00000000000E+00 -0.29162686025E+03  0.29162686026E+03  0.25500000920E-02 0.  1.
    10030    2    1    2    0    0  0.00000000000E+00  0.00000000000E+00  0.10177564173E+04  0.16010101379E+04  0.12358824121E+04 0.  0.
        2    1    3    3  502    0  0.20327413071E+03 -0.57515224455E+03  0.63666691875E+03  0.88173989479E+03  0.25500000920E-02 0. -1.
       -2    1    3    3    0  502 -0.20327413071E+03  0.57515224455E+03  0.38108949860E+03  0.71927024308E+03  0.25500000920E-02 0.  1.
</event>
<event>
 5   0  0.3648616E-03  0.1085747E+04  0.7818609E-02  0.9219196E-01
        1   -1    0    0  501    0  0.00000000000E+00  0.00000000000E+00  0.89700503776E+03  0.89700503777E+03  0.50400001928E-02 0. -1.
       -1   -1    0    0    0  501  0.00000000000E+00  0.00000000000E+00 -0.32855077463E+03  0.32855077467E+03  0.50400001928E-02 0.  1.
    10030    2    1    2    0    0  0.00000000000E+00  0.00000000000E+00  0.56845426312E+03  0.12255558124E+04  0.10857471161E+04 0.  0.
        2    1    3    3  502    0  0.80975265983E+02 -0.65382290937E+01  0.89010494779E+03  0.89380454252E+03  0.25500000920E-02 0. -1.
       -2    1    3    3    0  502 -0.80975265983E+02  0.65382290937E+01 -0.32165068467E+03  0.33175126992E+03  0.25500000920E-02 0.  1.
</event>
<event>
 5   0  0.6640844E-03  0.1254667E+04  0.7818609E-02  0.9066308E-01
        2   -1    0    0  501    0  0.00000000000E+00  0.00000000000E+00  0.14122005351E+04  0.14122005352E+04  0.25500000920E-02 0. -1.
       -2   -1    0    0    0  501  0.00000000000E+00  0.00000000000E+00 -0.27867659180E+03  0.27867659181E+03  0.25500000920E-02 0.  1.
    10030    2    1    2    0    0  0.00000000000E+00  0.00000000000E+00  0.11335239434E+04  0.16908771270E+04  0.12546668595E+04 0.  0.
        5    1    3    3  502    0 -0.14438920264E+03  0.59753964784E+03  0.73521141681E+03  0.95836307837E+03  0.46999998093E+01 0. -1.
       -5    1    3    3    0  502  0.14438920264E+03 -0.59753964784E+03  0.39831252654E+03  0.73251404859E+03  0.46999998093E+01 0.  1.
</event>
<event>
 5   0  0.3701879E-03  0.1152987E+04  0.7818609E-02  0.9155032E-01
        1   -1    0    0  501    0  0.00000000000E+00  0.00000000000E+00  0.10733304749E+04  0.10733304749E+04  0.50400001928E-02 0. -1.
       -1   -1    0    0    0  501  0.00000000000E+00  0.00000000000E+00 -0.30963881369E+03  0.30963881373E+03  0.50400001928E-02 0.  1.
    10030    2    1    2    0    0  0.00000000000E+00  0.00000000000E+00  0.76369166117E+03  0.13829692886E+04  0.11529870337E+04 0.  0.
        1    1    3    3  502    0  0.56783241373E+03 -0.44721299815E+02  0.27515984378E+03  0.63257140656E+03  0.50400001928E-02 0.  1.
       -1    1    3    3    0  502 -0.56783241373E+03  0.44721299815E+02  0.48853181739E+03  0.75039788204E+03  0.50400001928E-02 0. -1.
</event>
<event>
 5   0  0.6493047E-03  0.1115962E+04  0.7818609E-02  0.9189773E-01
        2   -1    0    0  501    0  0.00000000000E+00  0.00000000000E+00  0.13808281778E+04  0.13808281778E+04  0.25500000920E-02 0.  1.
       -2   -1    0    0    0  501  0.00000000000E+00  0.00000000000E+00 -0.22547535501E+03  0.22547535503E+03  0.25500000920E-02 0. -1.
    10030    2    1    2    0    0  0.00000000000E+00  0.00000000000E+00  0.11553528228E+04  0.16063035328E+04  0.11159618696E+04 0.  0.
        3    1    3    3  502    0 -0.19416184603E+03 -0.42885956179E+03  0.14652378038E+03  0.49304013489E+03  0.10100000352E+00 0. -1.
       -3    1    3    3    0  502  0.19416184603E+03  0.42885956179E+03  0.10088290424E+04  0.11132633980E+04  0.10100000352E+00 0.  1.
</event>
<event>
 5   0  0.6640844E-03  0.1175449E+04  0.7818609E-02  0.9134622E-01
       -2   -1    0    0    0  501  0.00000000000E+00  0.00000000000E+00  0.23216503104E+03  0.23216503106E+03  0.25500000920E-02 0.  1.
        2   -1    0    0  501    0  0.00000000000E+00  0.00000000000E+00 -0.14878210200E+04  0.14878210200E+04  0.25500000920E-02 0. -1.
    10030    2    1    2    0    0  0.00000000000E+00  0.00000000000E+00 -0.12556559890E+04  0.17199860511E+04  0.11754488731E+04 0.  0.
        5    1    3    3  502    0  0.43748498355E+03  0.33660446935E+03 -0.92303751273E+03  0.10755073312E+04  0.46999998093E+01 0.  1.
       -5    1    3    3    0  502 -0.43748498355E+03 -0.33660446935E+03 -0.33261847626E+03  0.64447871987E+03  0.46999998093E+01 0. -1.
</event>
<event>
 5   0  0.6640844E-03  0.1160837E+04  0.7818609E-02  0.9147844E-01
        2   -1    0    0  501    0  0.00000000000E+00  0.00000000000E+00  0.17776914164E+04  0.17776914164E+04  0.25500000920E-02 0.  1.
       -2   -1    0    0    0  501  0.00000000000E+00  0.00000000000E+00 -0.18950732519E+03  0.18950732521E+03  0.25500000920E-02 0. -1.
    10030    2    1    2    0    0  0.00000000000E+00  0.00000000000E+00  0.15881840912E+04  0.19671987416E+04  0.11608368453E+04 0.  0.
        5    1    3    3  502    0  0.29122536815E+03 -0.24180373332E+03  0.48485420225E+02  0.38164667753E+03  0.46999998093E+01 0. -1.
       -5    1    3    3    0  502 -0.29122536815E+03  0.24180373332E+03  0.15396986710E+04  0.15855520641E+04  0.46999998093E+01 0.  1.
</event>
<event>
 5   0  0.6493047E-03  0.1255966E+04  0.7818609E-02  0.9065232E-01
       -2   -1    0    0    0  501  0.00000000000E+00  0.00000000000E+00  0.26572868851E+03  0.26572868852E+03  0.25500000920E-02 0.  1.
        2   -1    0    0  501    0  0.00000000000E+00  0.00000000000E+00 -0.14840809982E+04  0.14840809982E+04  0.25500000920E-02 0. -1.
    10030    2    1    2    0    0  0.00000000000E+00  0.00000000000E+00 -0.12183523097E+04  0.17498096868E+04  0.12559663965E+04 0.  0.
        3    1    3    3  502    0  0.12617479917E+03  0.11174580215E+03  0.23362873029E+03  0.28807915243E+03  0.10100000352E+00 0.  1.
       -3    1    3    3    0  502 -0.12617479917E+03 -0.11174580215E+03 -0.14519810400E+04  0.14617305343E+04  0.10100000352E+00 0. -1.
</event>
<event>
 5   0  0.3701879E-03  0.1214524E+04  0.7818609E-02  0.9100238E-01
        1   -1    0    0  501    0  0.00000000000E+00  0.00000000000E+00  0.69482004830E+03  0.69482004832E+03  0.50400001928E-02 0. -1.
       -1   -1    0    0    0  501  0.00000000000E+00  0.00000000000E+00 -0.53073722389E+03  0.53073722391E+03  0.50400001928E-02 0.  1.
    10030    2    1    2    0    0  0.00000000000E+00  0.00000000000E+00  0.16408282441E+03  0.12255572722E+04  0.12145235503E+04 0.  0.
        1    1    3    3  502    0  0.24014858674E+03 -0.22062841906E+03 -0.43488056281E+03  0.54357092173E+03  0.50400001928E-02 0.  1.
       -1    1    3    3    0  502 -0.24014858674E+03  0.22062841906E+03  0.59896338723E+03  0.68198635050E+03  0.50400001928E-02 0. -1.
</event>
<event>
 5   0  0.3648616E-03  0.1232182E+04  0.7818609E-02  0.9085145E-01
       -1   -1    0    0    0  501  0.00000000000E+00  0.00000000000E+00  0.60067775695E+03  0.60067775697E+03  0.50400001928E-02 0. -1.
        1   -1    0    0  501    0  0.00000000000E+00  0.00000000000E+00 -0.63189975334E+03  0.63189975336E+03  0.50400001928E-02 0.  1.
    10030    2    1    2    0    0  0.00000000000E+00  0.00000000000E+00 -0.31221996391E+02  0.12325775103E+04  0.12321820101E+04 0.  0.
        2    1    3    3  502    0 -0.44535822684E+03  0.16718739891E+03  0.37601504687E+03  0.60636861070E+03  0.25500000920E-02 0.  1.
       -2    1    3    3    0  502  0.44535822684E+03 -0.16718739891E+03 -0.40723704326E+03  0.62620889963E+03  0.25500000920E-02 0. -1.
</event>
<event>
 5   0  0.3731281E-03  0.1236771E+04  0.7818609E-02  0.9081266E-01
        1   -1    0    0  501    0  0.00000000000E+00  0.00000000000E+00  0.54050192547E+03  0.54050192550E+03  0.50400001928E-02 0.  1.
       -1   -1    0    0    0  501  0.00000000000E+00  0.00000000000E+00 -0.70749181762E+03  0.70749181763E+03  0.50400001928E-02 0. -1.
    10030    2    1    2    0    0  0.00000000000E+00  0.00000000000E+00 -0.16698989214E+03  0.12479937431E+04  0.12367711020E+04 0.  0.
        5    1    3    3  502    0 -0.97373924636E+02  0.31102468888E+03 -0.61377330959E+03  0.69495165577E+03  0.46999998093E+01 0. -1.
       -5    1    3    3    0  502  0.97373924636E+02 -0.31102468888E+03  0.44678341745E+03  0.55304208736E+03  0.46999998093E+01 0.  1.
</event>
<event>
 5   0  0.6585930E-03  0.1202169E+04  0.7818609E-02  0.9110960E-01
        2   -1    0    0  501    0  0.00000000000E+00  0.00000000000E+00  0.54422715724E+03  0.54422715724E+03  0.25500000920E-02 0.  1.
       -2   -1    0    0    0  501  0.00000000000E+00  0.00000000000E+00 -0.66388207755E+03  0.66388207755E+03  0.25500000920E-02 0. -1.
    10030    2    1    2    0    0  0.00000000000E+00  0.00000000000E+00 -0.11965492031E+03  0.12081092348E+04  0.12021691325E+04 0.  0.
        2    1    3    3  502    0 -0.38640397500E+02  0.12051116589E+03 -0.65034189105E+03  0.66254101510E+03  0.25500000920E-02 0. -1.
       -2    1    3    3    0  502  0.38640397500E+02 -0.12051116589E+03  0.53068697074E+03  0.54556821970E+03  0.25500000920E-02 0.  1.
</event>
<event>
 5   0  0.3772254E-03  0.1164914E+04  0.7818609E-02  0.9144134E-01
       -1   -1    0    0    0  501  0.00000000000E+00  0.00000000000E+00  0.42564965937E+03  0.42564965940E+03  0.50400001928E-02 0.  1.
        1   -1    0    0  501    0  0.00000000000E+00  0.00000000000E+00 -0.79703096558E+03  0.79703096559E+03  0.50400001928E-02 0. -1.
    10030    2    1    2    0    0  0.00000000000E+00  0.00000000000E+00 -0.37138130620E+03  0.12226806250E+04  0.11649136604E+04 0.  0.
        3    1    3    3  502    0 -0.57951641107E+03  0.28820550271E+02 -0.23906567774E+03  0.62755262990E+03  0.10100000352E+00 0. -1.
       -3    1    3    3    0  502  0.57951641107E+03 -0.28820550271E+02 -0.13231562846E+03  0.59512799510E+03  0.10100000352E+00 0.  1.
</event>
<event>
 5   0  0.3944074E-03  0.1219750E+04  0.7818609E-02  0.9095743E-01
       -1   -1    0    0    0  501  0.00000000000E+00  0.00000000000E+00  0.30416358924E+03  0.30416358928E+03  0.50400001928E-02 0. -1.
        1   -1    0    0  501    0  0.00000000000E+00  0.00000000000E+00 -0.12228534947E+04  0.12228534947E+04  0.50400001928E-02 0.  1.
    10030    2    1    2    0    0  0.00000000000E+00  0.00000000000E+00 -0.91868990547E+03  0.15270170840E+04  0.12197499877E+04 0.  0.
        4    1    3    3  502    0  0.22707687501E+03 -0.50309665775E+03 -0.13462997707E+03  0.56815226641E+03  0.12699999809E+01 0. -1.
       -4    1    3    3    0  502 -0.22707687501E+03  0.50309665775E+03 -0.78405992840E+03  0.95886481760E+03  0.12699999809E+01 0.  1.
</event>
<event>
 5   0  0.6658994E-03  0.1205088E+04  0.7818609E-02  0.9108415E-01
       -2   -1    0    0    0  501  0.00000000000E+00  0.00000000000E+00  0.21041481025E+03  0.21041481026E+03  0.25500000920E-02 0. -1.
        2   -1    0    0  501    0  0.00000000000E+00  0.00000000000E+00 -0.17254454209E+04  0.17254454209E+04  0.25500000920E-02 0.  1.
    10030    2    1    2    0    0  0.00000000000E+00  0.00000000000E+00 -0.15150306107E+04  0.19358602312E+04  0.12050879982E+04 0.  0.
        4    1    3    3  502    0 -0.12105691567E+03 -0.21604190520E+03 -0.16399114514E+04  0.16585053702E+04  0.12699999809E+01 0.  1.
       -4    1    3    3    0  502  0.12105691567E+03  0.21604190520E+03  0.12488084072E+03  0.27735486099E+03  0.12699999809E+01 0. -1.
</event>
<event>
 5   0  0.2537625E-03  0.1159132E+04  0.7818609E-02  0.9149400E-01
       -3   -1    0    0    0  501  0.00000000000E+00  0.00000000000E+00  0.35201730535E+03  0.35201731984E+03  0.10100000352E+00 0.  1.
        3   -1    0    0  501    0  0.00000000000E+00  0.00000000000E+00 -0.95420585984E+03  0.95420586519E+03  0.10100000352E+00 0. -1.
    10030    2    1    2    0    0  0.00000000000E+00  0.00000000000E+00 -0.60218855449E+03  0.13062231850E+04  0.11591324143E+04 0.  0.
        3    1    3    3  502    0  0.45528171465E+03  0.21566284355E+03  0.21806687339E+02  0.50424938632E+03  0.10100000352E+00 0.  1.
       -3    1    3    3    0  502 -0.45528171465E+03 -0.21566284355E+03 -0.62399524183E+03  0.80197379871E+03  0.10100000352E+00 0. -1.
</event>
<event>
 5   0  0.3944074E-03  0.1236309E+04  0.7818609E-02  0.9081656E-01
        1   -1    0    0  501    0  0.00000000000E+00  0.00000000000E+00  0.96796821111E+03  0.96796821112E+03  0.50400001928E-02 0.  1.
       -1   -1    0    0    0  501  0.00000000000E+00  0.00000000000E+00 -0.39475962093E+03  0.39475962097E+03  0.50400001928E-02 0. -1.
    10030    2    1    2    0    0  0.00000000000E+00  0.00000000000E+00  0.57320859018E+03  0.13627278321E+04  0.12363086413E+04 0.  0.
        4    1    3    3  502    0  0.31986342039E+03 -0.46154447334E+03  0.57144133401E+03  0.80117583569E+03  0.12699999809E+01 0.  1.
       -4    1    3    3    0  502 -0.31986342039E+03  0.46154447334E+03  0.17672561683E+01  0.56155199640E+03  0.12699999809E+01 0. -1.
</event>
<event>
 5   0  0.3944074E-03  0.1203122E+04  0.7818609E-02  0.9110128E-01
        1   -1    0    0  501    0  0.00000000000E+00  0.00000000000E+00  0.89823229740E+03  0.89823229742E+03  0.50400001928E-02 0. -1.
       -1   -1    0    0    0  501  0.00000000000E+00  0.00000000000E+00 -0.40287565871E+03  0.40287565874E+03  0.50400001928E-02 0.  1.
    10030    2    1    2    0    0  0.00000000000E+00  0.00000000000E+00  0.49535663869E+03  0.13011079562E+04  0.12031224851E+04 0.  0.
        4    1    3    3  502    0  0.53732282555E+03 -0.26398480105E+03  0.31138733048E+03  0.67480921490E+03  0.12699999809E+01 0.  1.
       -4    1    3    3    0  502 -0.53732282555E+03  0.26398480105E+03  0.18396930821E+03  0.62629874126E+03  0.12699999809E+01 0. -1.
</event>
<event>
 5   0  0.3701879E-03  0.1204265E+04  0.7818609E-02  0.9109132E-01
        1   -1    0    0  501    0  0.00000000000E+00  0.00000000000E+00  0.14343770810E+04  0.14343770810E+04  0.50400001928E-02 0.  1.
       -1   -1    0    0    0  501  0.00000000000E+00  0.00000000000E+00 -0.25276721848E+03  0.25276721853E+03  0.50400001928E-02 0. -1.
    10030    2    1    2    0    0  0.00000000000E+00  0.00000000000E+00  0.11816098625E+04  0.16871442995E+04  0.12042649294E+04 0.  0.
        1    1    3    3  502    0  0.34582313649E+03 -0.16323018908E+03 -0.60799932968E+02  0.38721359511E+03  0.50400001928E-02 0. -1.
       -1    1    3    3    0  502 -0.34582313649E+03  0.16323018908E+03  0.12424097955E+04  0.12999307044E+04  0.50400001928E-02 0.  1.
</event>
<event>
 5   0  0.6349142E-03  0.9411437E+03  0.7818609E-02  0.9375563E-01
        2   -1    0    0  501    0  0.00000000000E+00  0.00000000000E+00  0.33182294049E+03  0.33182294050E+03  0.25500000920E-02 0.  1.
       -2   -1    0    0    0  501  0.00000000000E+00  0.00000000000E+00 -0.66733743538E+03  0.66733743538E+03  0.25500000920E-02 0. -1.
    10030    2    1    2    0    0  0.00000000000E+00  0.00000000000E+00 -0.33551449489E+03  0.99916037589E+03  0.94114370872E+03 0.  0.
        1    1    3    3  502    0  0.13075742601E+03  0.24834886795E+03  0.23323432766E+03  0.36492864548E+03  0.50400001928E-02 0.  1.
       -1    1    3    3    0  502 -0.13075742601E+03 -0.24834886795E+03 -0.56874882255E+03  0.63423173040E+03  0.50400001928E-02 0. -1.
</event>
<event>
 5   0  0.3772254E-03  0.1194548E+04  0.7818609E-02  0.9117642E-01
        1   -1    0    0  501    0  0.00000000000E+00  0.00000000000E+00  0.67328232889E+03  0.67328232890E+03  0.50400001928E-02 0.  1.
       -1   -1    0    0    0  501  0.00000000000E+00  0.00000000000E+00 -0.52984657825E+03  0.52984657828E+03  0.50400001928E-02 0. -1.
    10030    2    1    2    0    0  0.00000000000E+00  0.00000000000E+00  0.14343575063E+03  0.12031289072E+04  0.11945481793E+04 0.  0.
        3    1    3    3  502    0  0.26532010372E+03  0.48937584731E+03  0.28972791830E+03  0.62755537940E+03  0.10100000352E+00 0.  1.
       -3    1    3    3    0  502 -0.26532010372E+03 -0.48937584731E+03 -0.14629216767E+03  0.57557352779E+03  0.10100000352E+00 0. -1.
</event>
<event>
 5   0  0.6585930E-03  0.1172027E+04  0.7818609E-02  0.9137700E-01
        2   -1    0    0  501    0  0.00000000000E+00  0.00000000000E+00  0.23754503404E+04  0.23754503404E+04  0.25500000920E-02 0. -1.
       -2   -1    0    0    0  501  0.00000000000E+00  0.00000000000E+00 -0.14456710503E+03  0.14456710505E+03  0.25500000920E-02 0.  1.
    10030    2    1    2    0    0  0.00000000000E+00  0.00000000000E+00  0.22308832354E+04  0.25200174455E+04  0.11720272674E+04 0.  0.
        2    1    3    3  502    0  0.29713266936E+03 -0.36131824199E+03  0.18743306700E+04  0.19318266371E+04  0.25500000920E-02 0.  1.
       -2    1    3    3    0  502 -0.29713266936E+03  0.36131824199E+03  0.35655256541E+03  0.58819080841E+03  0.25500000920E-02 0. -1.
</event>
<event>
 5   0  0.6493047E-03  0.1189153E+04  0.7818609E-02  0.9122404E-01
        2   -1    0    0  501    0  0.00000000000E+00  0.00000000000E+00  0.85599391153E+03  0.85599391153E+03  0.25500000920E-02 0.  1.
       -2   -1    0    0    0  501  0.00000000000E+00  0.00000000000E+00 -0.41299507299E+03  0.41299507299E+03  0.25500000920E-02 0. -1.
    10030    2    1    2    0    0  0.00000000000E+00  0.00000000000E+00  0.44299883854E+03  0.12689889845E+04  0.11891530902E+04 0.  0.
        3    1    3    3  502    0  0.58714910186E+03  0.52394097487E+02  0.13861889378E+03  0.60556124148E+03  0.10100000352E+00 0.  1.
       -3    1    3    3    0  502 -0.58714910186E+03 -0.52394097487E+02  0.30437994476E+03  0.66342774305E+03  0.10100000352E+00 0. -1.
</event>
<event>
 5   0  0.2537625E-03  0.1222150E+04  0.7818609E-02  0.9093687E-01
       -3   -1    0    0    0  501  0.00000000000E+00  0.00000000000E+00  0.48466700467E+03  0.48466701520E+03  0.10100000352E+00 0.  1.
        3   -1    0    0  501    0  0.00000000000E+00  0.00000000000E+00 -0.77045181098E+03  0.77045181760E+03  0.10100000352E+00 0. -1.
    10030    2    1    2    0    0  0.00000000000E+00  0.00000000000E+00 -0.28578480631E+03  0.12551188328E+04  0.12221498799E+04 0.  0.
        2    1    3    3  502    0  0.34830470074E+03  0.12606885463E+03  0.35622548829E+03  0.51391255986E+03  0.25500000920E-02 0.  1.
       -2    1    3    3    0  502 -0.34830470074E+03 -0.12606885463E+03 -0.64201029460E+03  0.74120627294E+03  0.25500000920E-02 0. -1.
</event>
<event>
 5   0  0.3731281E-03  0.1070698E+04  0.7818609E-02  0.9234231E-01
        1   -1    0    0  501    0  0.00000000000E+00  0.00000000000E+00  0.10720439227E+04  0.10720439228E+04  0.50400001928E-02 0. -1.
       -1   -1    0    0    0  501  0.00000000000E+00  0.00000000000E+00 -0.26733858992E+03  0.26733858997E+03  0.50400001928E-02 0.  1.
    10030    2    1    2    0    0  0.00000000000E+00  0.00000000000E+00  0.80470533281E+03  0.13393825127E+04  0.10706982968E+04 0.  0.
        5    1    3    3  502    0  0.21499609250E+03 -0.26149065132E+03  0.92111849216E+03  0.98136743736E+03  0.46999998093E+01 0. -1.
       -5    1    3    3    0  502 -0.21499609250E+03  0.26149065132E+03 -0.11641315934E+03  0.35801507536E+03  0.46999998093E+01 0.  1.
</event>
<event>
 5   0  0.6658994E-03  0.1187498E+04  0.7818609E-02  0.9123870E-01
        2   -1    0    0  501    0  0.00000000000E+00  0.00000000000E+00  0.14385054783E+04  0.14385054783E+04  0.25500000920E-02 0.  1.
       -2   -1    0    0    0  501  0.00000000000E+00  0.00000000000E+00 -0.24507244180E+03  0.24507244181E+03  0.25500000920E-02 0. -1.
    10030    2    1    2    0    0  0.00000000000E+00  0.00000000000E+00  0.11934330365E+04  0.16835779201E+04  0.11874982950E+04 0.  0.
        4    1    3    3  502    0 -0.49736341298E+03  0.29023393911E+03  0.80182720950E+03  0.98718518566E+03  0.12699999809E+01 0.  1.
       -4    1    3    3    0  502  0.49736341298E+03 -0.29023393911E+03  0.39160582703E+03  0.69639273449E+03  0.12699999809E+01 0. -1.
</event>
<event>
 5   0  0.6658994E-03  0.1122918E+04  0.7818609E-02  0.9183138E-01
       -2   -1    0    0    0  501  0.00000000000E+00  0.00000000000E+00  0.53216387003E+03  0.53216387004E+03  0.25500000920E-02 0.  1.
        2   -1    0    0  501    0  0.00000000000E+00  0.00000000000E+00 -0.59236696844E+03  0.59236696844E+03  0.25500000920E-02 0. -1.
    10030    2    1    2    0    0  0.00000000000E+00  0.00000000000E+00 -0.60203098404E+02  0.11245308385E+04  0.11229181598E+04 0.  0.
        4    1    3    3  502    0 -0.13833381083E+03 -0.19898648831E+03  0.47708687904E+03  0.53511248238E+03  0.12699999809E+01 0.  1.
       -4    1    3    3    0  502  0.13833381083E+03  0.19898648831E+03 -0.53728997744E+03  0.58941835610E+03  0.12699999809E+01 0. -1.
</event>
<event>
 5   0  0.6585930E-03  0.1197954E+04  0.7818609E-02  0.9114649E-01
       -2   -1    0    0    0  501  0.00000000000E+00  0.00000000000E+00  0.60011829457E+03  0.60011829457E+03  0.25500000920E-02 0.  1.
        2   -1    0    0  501    0  0.00000000000E+00  0.00000000000E+00 -0.59783768919E+03  0.59783768919E+03  0.25500000920E-02 0. -1.
    10030    2    1    2    0    0  0.00000000000E+00  0.00000000000E+00  0.22806053813E+01  0.11979559838E+04  0.11979538129E+04 0.  0.
        2    1    3    3  502    0  0.56121570088E+02  0.23812523080E+03 -0.54559652766E+03  0.59793714316E+03  0.25500000920E-02 0. -1.
       -2    1    3    3    0  502 -0.56121570088E+02 -0.23812523080E+03  0.54787713304E+03  0.60001884061E+03  0.25500000920E-02 0.  1.
</event>
<event>
 5   0  0.3772254E-03  0.1289016E+04  0.7818609E-02  0.9038321E-01
        1   -1    0    0  501    0  0.00000000000E+00  0.00000000000E+00  0.67341335121E+03  0.67341335123E+03  0.50400001928E-02 0. -1.
       -1   -1    0    0    0  501  0.00000000000E+00  0.00000000000E+00 -0.61684335708E+03  0.61684335710E+03  0.50400001928E-02 0.  1.
    10030    2    1    2    0    0  0.00000000000E+00  0.00000000000E+00  0.56569994132E+02  0.12902567083E+04  0.12890159848E+04 0.  0.
        3    1    3    3  502    0  0.25698387937E+03 -0.37647467414E+02 -0.56214079256E+03  0.61924173545E+03  0.10100000352E+00 0.  1.
       -3    1    3    3    0  502 -0.25698387937E+03  0.37647467414E+02  0.61871078669E+03  0.67101497288E+03  0.10100000352E+00 0. -1.
</event>
<event>
 5   0  0.6493047E-03  0.1178535E+04  0.7818609E-02  0.9131855E-01
        2   -1    0    0  501    0  0.00000000000E+00  0.00000000000E+00  0.15763740513E+04  0.15763740513E+04  0.25500000920E-02 0. -1.
       -2   -1    0    0    0  501  0.00000000000E+00  0.00000000000E+00 -0.22027539108E+03  0.22027539109E+03  0.25500000920E-02 0.  1.
    10030    2    1    2    0    0  0.00000000000E+00  0.00000000000E+00  0.13560986602E+04  0.17966494424E+04  0.11785353803E+04 0.  0.
        3    1    3    3  502    0  0.63873662115E+02  0.24030772047E+03 -0.13638180459E+03  0.28359769402E+03  0.10100000352E+00 0.  1.
       -3    1    3    3    0  502 -0.63873662115E+02 -0.24030772047E+03  0.14924804648E+04  0.15130517483E+04  0.10100000352E+00 0. -1.
</event>
<event>
 5   0  0.3731281E-03  0.1195732E+04  0.7818609E-02  0.9116601E-01
        1   -1    0    0  501    0  0.00000000000E+00  0.00000000000E+00  0.94382961218E+03  0.94382961219E+03  0.50400001928E-02 0. -1.
       -1   -1    0    0    0  501  0.00000000000E+00  0.00000000000E+00 -0.37871638362E+03  0.37871638366E+03  0.50400001928E-02 0.  1.
    10030    2    1    2    0    0  0.00000000000E+00  0.00000000000E+00  0.56511322856E+03  0.13225459958E+04  0.11957319725E+04 0.  0.
        5    1    3    3  502    0 -0.22188365100E+03 -0.69068486890E+02 -0.32669713823E+03  0.40094378732E+03  0.46999998093E+01 0.  1.
       -5    1    3    3    0  502  0.22188365100E+03  0.69068486890E+02  0.89181036679E+03  0.92160220853E+03  0.46999998093E+01 0. -1.
</event>
<event>
 5   0  0.3772254E-03  0.1186651E+04  0.7818609E-02  0.9124621E-01
        1   -1    0    0  501    0  0.00000000000E+00  0.00000000000E+00  0.10521776286E+04  0.10521776286E+04  0.50400001928E-02 0. -1.
       -1   -1    0    0    0  501  0.00000000000E+00  0.00000000000E+00 -0.33457789537E+03  0.33457789540E+03  0.50400001928E-02 0.  1.
    10030    2    1    2    0    0  0.00000000000E+00  0.00000000000E+00  0.71759973322E+03  0.13867555240E+04  0.11866513836E+04 0.  0.
        3    1    3    3  502    0 -0.13829408711E+03 -0.25562416912E+03  0.96329462446E+03  0.10061836383E+04  0.10100000352E+00 0. -1.
       -3    1    3    3    0  502  0.13829408711E+03  0.25562416912E+03 -0.24569489124E+03  0.38057188565E+03  0.10100000352E+00 0.  1.
</event>
<event>
 5   0  0.3731281E-03  0.1189804E+04  0.7818609E-02  0.9121828E-01
       -1   -1    0    0    0  501  0.00000000000E+00  0.00000000000E+00  0.39757282826E+03  0.39757282829E+03  0.50400001928E-02 0. -1.
        1   -1    0    0  501    0  0.00000000000E+00  0.00000000000E+00 -0.89017302466E+03  0.89017302467E+03  0.50400001928E-02 0.  1.
    10030    2    1    2    0    0  0.00000000000E+00  0.00000000000E+00 -0.49260019640E+03  0.12877458530E+04  0.11898043656E+04 0.  0.
        5    1    3    3  502    0 -0.50315010319E+03  0.31076065983E+03 -0.17654054520E+03  0.61718787102E+03  0.46999998093E+01 0. -1.
       -5    1    3    3    0  502  0.50315010319E+03 -0.31076065983E+03 -0.31605965120E+03  0.67055798194E+03  0.46999998093E+01 0.  1.
</event>
<event>
 5   0  0.6658994E-03  0.1205652E+04  0.7818609E-02  0.9107924E-01
        2   -1    0    0  501    0  0.00000000000E+00  0.00000000000E+00  0.76992262094E+03  0.76992262094E+03  0.25500000920E-02 0.  1.
       -2   -1    0    0    0  501  0.00000000000E+00  0.00000000000E+00 -0.47199438723E+03  0.47199438724E+03  0.25500000920E-02 0. -1.
    10030    2    1    2    0    0  0.00000000000E+00  0.00000000000E+00  0.29792823370E+03  0.12419170082E+04  0.12056519493E+04 0.  0.
        4    1    3    3  502    0  0.18478952034E+03 -0.45542876320E+03 -0.21058372593E+03  0.53470519326E+03  0.12699999809E+01 0. -1.
       -4    1    3    3    0  502 -0.18478952034E+03  0.45542876320E+03  0.50851195963E+03  0.70721181492E+03  0.12699999809E+01 0.  1.
</event>
<event>
 5   0  0.3944074E-03  0.1188939E+04  0.7818609E-02  0.9122594E-01
        1   -1    0    0  501    0  0.00000000000E+00  0.00000000000E+00  0.66598891695E+03  0.66598891697E+03  0.50400001928E-02 0.  1.
       -1   -1    0    0    0  501  0.00000000000E+00  0.00000000000E+00 -0.53063027592E+03  0.53063027594E+03  0.50400001928E-02 0. -1.
    10030    2    1    2    0    0  0.00000000000E+00  0.00000000000E+00  0.13535864103E+03  0.11966191929E+04  0.11889388257E+04 0.  0.
        4    1    3    3  502    0  0.36042347235E+03  0.24143558677E+02  0.54285659003E+03  0.65206048883E+03  0.12699999809E+01 0.  1.
       -4    1    3    3    0  502 -0.36042347235E+03 -0.24143558677E+02 -0.40749794900E+03  0.54455870408E+03  0.12699999809E+01 0. -1.
</event>
<event>
 5   0  0.3772254E-03  0.1180820E+04  0.7818609E-02  0.9129813E-01
        1   -1    0    0  501    0  0.00000000000E+00  0.00000000000E+00  0.13896947436E+04  0.13896947437E+04  0.50400001928E-02 0. -1.
       -1   -1    0    0    0  501  0.00000000000E+00  0.00000000000E+00 -0.25083481812E+03  0.25083481817E+03  0.50400001928E-02 0.  1.
    10030    2    1    2    0    0  0.00000000000E+00  0.00000000000E+00  0.11388599255E+04  0.16405295618E+04  0.11808197632E+04 0.  0.
        3    1    3    3  502    0  0.12211945060E+03 -0.48871612497E+03  0.99725571950E+03  0.11172625436E+04  0.10100000352E+00 0. -1.
       -3    1    3    3    0  502 -0.12211945060E+03  0.48871612497E+03  0.14160420602E+03  0.52326701824E+03  0.10100000352E+00 0.  1.
</event>
<event>
 5   0  0.6585930E-03  0.1196535E+04  0.7818609E-02  0.9115895E-01
       -2   -1    0    0    0  501  0.00000000000E+00  0.00000000000E+00  0.59378844436E+03  0.59378844436E+03  0.25500000920E-02 0.  1.
        2   -1    0    0  501    0  0.00000000000E+00  0.00000000000E+00 -0.60278068997E+03  0.60278068997E+03  0.25500000920E-02 0. -1.
    10030    2    1    2    0    0  0.00000000000E+00  0.00000000000E+00 -0.89922456081E+01  0.11965691343E+04  0.11965353454E+04 0.  0.
        2    1    3    3  502    0 -0.39060602403E+03  0.31841206027E+03  0.31794887074E+03  0.59586138534E+03  0.25500000920E-02 0.  1.
       -2    1    3    3    0  502  0.39060602403E+03 -0.31841206027E+03 -0.32694111635E+03  0.60070774899E+03  0.25500000920E-02 0. -1.
</event>
<event>
 5   0  0.3772254E-03  0.1122277E+04  0.7818609E-02  0.9183747E-01
       -1   -1    0    0    0  501  0.00000000000E+00  0.00000000000E+00  0.48010086813E+03  0.48010086815E+03  0.50400001928E-02 0. -1.
        1   -1    0    0  501    0  0.00000000000E+00  0.00000000000E+00 -0.65585485577E+03  0.65585485579E+03  0.50400001928E-02 0.  1.
    10030    2    1    2    0    0  0.00000000000E+00  0.00000000000E+00 -0.17575398765E+03  0.11359557239E+04  0.11222771238E+04 0.  0.
        3    1    3    3  502    0  0.51155485973E+03 -0.19283703337E+03  0.40163738247E+02  0.54816752186E+03  0.10100000352E+00 0.  1.
       -3    1    3    3    0  502 -0.51155485973E+03  0.19283703337E+03 -0.21591772589E+03  0.58778820208E+03  0.10100000352E+00 0. -1.
</event>
<event>
 5   0  0.6658994E-03  0.1199701E+04  0.7818609E-02  0.9113118E-01
        2   -1    0    0  501    0  0.00000000000E+00  0.00000000000E+00  0.18366704632E+04  0.18366704632E+04  0.25500000920E-02 0. -1.
       -2   -1    0    0    0  501  0.00000000000E+00  0.00000000000E+00 -0.19590911952E+03  0.19590911954E+03  0.25500000920E-02 0.  1.
    10030    2    1    2    0    0  0.00000000000E+00  0.00000000000E+00  0.16407613436E+04  0.20325795827E+04  0.11997007849E+04 0.  0.
        4    1    3    3  502    0  0.20227160826E+03  0.31478117720E+03  0.16147201196E+04  0.16575052550E+04  0.12699999809E+01 0. -1.
       -4    1    3    3    0  502 -0.20227160826E+03 -0.31478117720E+03  0.26041224072E+02  0.37507432767E+03  0.12699999809E+01 0.  1.
</event>
<event>
 5   0  0.6349142E-03  0.6028142E+03  0.7818609E-02  0.9899585E-01
       -2   -1    0    0    0  501  0.00000000000E+00  0.00000000000E+00  0.12052938754E+03  0.12052938757E+03  0.25500000920E-02 0. -1.
        2   -1    0    0  501    0  0.00000000000E+00  0.00000000000E+00 -0.75372693455E+03  0.75372693455E+03  0.25500000920E-02 0.  1.
    10030    2    1    2    0    0  0.00000000000E+00  0.00000000000E+00 -0.63319754701E+03  0.87425632212E+03  0.60281421950E+03 0.  0.
        1    1    3    3  502    0 -0.10918631644E+02 -0.95992847221E+02  0.97464909182E+02  0.13723429521E+03  0.50400001928E-02 0. -1.
       -1    1    3    3    0  502  0.10918631644E+02  0.95992847221E+02 -0.73066245619E+03  0.73702202691E+03  0.50400001928E-02 0.  1.
</event>
<event>
 5   0  0.6349142E-03  0.1223432E+04  0.7818609E-02  0.9092591E-01
        2   -1    0    0  501    0  0.00000000000E+00  0.00000000000E+00  0.24680917084E+04  0.24680917084E+04  0.25500000920E-02 0.  1.
       -2   -1    0    0    0  501  0.00000000000E+00  0.00000000000E+00 -0.15161359936E+03  0.15161359938E+03  0.25500000920E-02 0. -1.
    10030    2    1    2    0    0  0.00000000000E+00  0.00000000000E+00  0.23164781090E+04  0.26197053078E+04  0.12234316777E+04 0.  0.
        1    1    3    3  502    0 -0.79962390954E+02  0.23894061580E+03  0.23518151176E+04  0.23652739692E+04  0.50400001928E-02 0.  1.
       -1    1    3    3    0  502  0.79962390954E+02 -0.23894061580E+03 -0.35337008590E+02  0.25443133857E+03  0.50400001928E-02 0. -1.
</event>
<event>
 5   0  0.6493047E-03  0.1214301E+04  0.7818609E-02  0.9100430E-01
       -2   -1    0    0    0  501  0.00000000000E+00  0.00000000000E+00  0.30049992449E+03  0.30049992450E+03  0.25500000920E-02 0. -1.
        2   -1    0    0  501    0  0.00000000000E+00  0.00000000000E+00 -0.12267286625E+04  0.12267286625E+04  0.25500000920E-02 0.  1.
    10030    2    1    2    0    0  0.00000000000E+00  0.00000000000E+00 -0.92622873801E+03  0.15272285870E+04  0.12143012319E+04 0.  0.
        3    1    3    3  502    0  0.14527463909E+03 -0.15849662393E+03  0.25101869253E+03  0.33050914474E+03  0.10100000352E+00 0. -1.
       -3    1    3    3    0  502 -0.14527463909E+03  0.15849662393E+03 -0.11772474305E+04  0.11967194423E+04  0.10100000352E+00 0.  1.
</event>
<event>
 5   0  0.6640844E-03  0.1218690E+04  0.7818609E-02  0.9096652E-01
       -2   -1    0    0    0  501  0.00000000000E+00  0.00000000000E+00  0.18754001205E+03  0.18754001207E+03  0.25500000920E-02 0. -1.
        2   -1    0    0  501    0  0.00000000000E+00  0.00000000000E+00 -0.19798521719E+04  0.19798521719E+04  0.25500000920E-02 0.  1.
    10030    2    1    2    0    0  0.00000000000E+00  0.00000000000E+00 -0.17923121598E+04  0.21673921840E+04  0.12186902809E+04 0.  0.
        5    1    3    3  502    0  0.50265221288E+02 -0.18880802545E+03 -0.19225978231E+04  0.19325060264E+04  0.46999998093E+01 0.  1.
       -5    1    3    3    0  502 -0.50265221288E+02  0.18880802545E+03  0.13028566324E+03  0.23488615751E+03  0.46999998093E+01 0. -1.
</event>
<event>
 5   0  0.3772254E-03  0.1211375E+04  0.7818609E-02  0.9102958E-01
       -1   -1    0    0    0  501  0.00000000000E+00  0.00000000000E+00  0.61439100920E+03  0.61439100922E+03  0.50400001928E-02 0. -1.
        1   -1    0    0  501    0  0.00000000000E+00  0.00000000000E+00 -0.59710744543E+03  0.59710744545E+03  0.50400001928E-02 0.  1.
    10030    2    1    2    0    0  0.00000000000E+00  0.00000000000E+00  0.17283563775E+02  0.12114984547E+04  0.12113751624E+04 0.  0.
        3    1    3    3  502    0 -0.17811010653E+03  0.40450435205E+03 -0.40553857613E+03  0.59984041862E+03  0.10100000352E+00 0.  1.
       -3    1    3    3    0  502  0.17811010653E+03 -0.40450435205E+03  0.42282213991E+03  0.61165803605E+03  0.10100000352E+00 0. -1.
</event>
<event>
 5   0  0.3944074E-03  0.1240082E+04  0.7818609E-02  0.9078479E-01
       -1   -1    0    0    0  501  0.00000000000E+00  0.00000000000E+00  0.43712494621E+03  0.43712494624E+03  0.50400001928E-02 0.  1.
        1   -1    0    0  501    0  0.00000000000E+00  0.00000000000E+00 -0.87949818849E+03  0.87949818850E+03  0.50400001928E-02 0. -1.
    10030    2    1    2    0    0  0.00000000000E+00  0.00000000000E+00 -0.44237324228E+03  0.13166231347E+04  0.12400816076E+04 0.  0.
        4    1    3    3  502    0  0.48675834735E+03 -0.15600822922E+03 -0.59381467602E+03  0.78351116052E+03  0.12699999809E+01 0. -1.
       -4    1    3    3    0  502 -0.48675834735E+03  0.15600822922E+03  0.15144143374E+03  0.53311197422E+03  0.12699999809E+01 0.  1.
</event>
<event>
 5   0  0.6658994E-03  0.1210940E+04  0.7818609E-02  0.9103334E-01
       -2   -1    0    0    0  501  0.00000000000E+00  0.00000000000E+00  0.31584637704E+03  0.31584637705E+03  0.25500000920E-02 0. -1.
        2   -1    0    0  501    0  0.00000000000E+00  0.00000000000E+00 -0.11606721754E+04  0.11606721754E+04  0.25500000920E-02 0.  1.
    10030    2    1    2    0    0  0.00000000000E+00  0.00000000000E+00 -0.84482579832E+03  0.14765185524E+04  0.12109402983E+04 0.  0.
        4    1    3    3  502    0 -0.17726463947E+03 -0.17929235802E+03  0.24879132318E+03  0.35421354779E+03  0.12699999809E+01 0. -1.
       -4    1    3    3    0  502  0.17726463947E+03  0.17929235802E+03 -0.10936171215E+04  0.11223050046E+04  0.12699999809E+01 0.  1.
</event>
<event>
 5   0  0.3772254E-03  0.1195628E+04  0.7818609E-02  0.9116692E-01
        1   -1    0    0  501    0  0.00000000000E+00  0.00000000000E+00  0.14471786294E+04  0.14471786294E+04  0.50400001928E-02 0.  1.
       -1   -1    0    0    0  501  0.00000000000E+00  0.00000000000E+00 -0.24695043706E+03  0.24695043711E+03  0.50400001928E-02 0. -1.
    10030    2    1    2    0    0  0.00000000000E+00  0.00000000000E+00  0.12002281923E+04  0.16941290665E+04  0.11956276930E+04 0.  0.
        3    1    3    3  502    0 -0.39666836261E+03  0.13741222393E+03  0.12031926209E+04  0.12743235077E+04  0.10100000352E+00 0.  1.
       -3    1    3    3    0  502  0.39666836261E+03 -0.13741222393E+03 -0.29644285057E+01  0.41980555882E+03  0.10100000352E+00 0. -1.
</event>
<event>
 5   0  0.3648616E-03  0.1052963E+04  0.7818609E-02  0.9252290E-01
       -1   -1    0    0    0  501  0.00000000000E+00  0.00000000000E+00  0.27478847421E+03  0.27478847426E+03  0.50400001928E-02 0. -1.
        1   -1    0    0  501    0  0.00000000000E+00  0.00000000000E+00 -0.10087140232E+04  0.10087140232E+04  0.50400001928E-02 0.  1.
    10030    2    1    2    0    0  0.00000000000E+00  0.00000000000E+00 -0.73392554901E+03  0.12835024975E+04  0.10529634132E+04 0.  0.
        2    1    3    3  502    0 -0.34440665237E+03  0.21157017660E+03  0.44247833676E+02  0.40661499311E+03  0.25500000920E-02 0. -1.
       -2    1    3    3    0  502  0.34440665237E+03 -0.21157017660E+03 -0.77817338268E+03  0.87688750439E+03  0.25500000920E-02 0.  1.
</event>
<event>
 5   0  0.3772254E-03  0.1208137E+04  0.7818609E-02  0.9105764E-01
       -1   -1    0    0    0  501  0.00000000000E+00  0.00000000000E+00  0.30377973762E+03  0.30377973766E+03  0.50400001928E-02 0. -1.
        1   -1    0    0  501    0  0.00000000000E+00  0.00000000000E+00 -0.12011960883E+04  0.12011960883E+04  0.50400001928E-02 0.  1.
    10030    2    1    2    0    0  0.00000000000E+00  0.00000000000E+00 -0.89741635071E+03  0.15049758260E+04  0.12081374633E+04 0.  0.
        3    1    3    3  502    0 -0.33695315156E+03 -0.16713917187E+02  0.17548809663E+03  0.38027998059E+03  0.10100000352E+00 0. -1.
       -3    1    3    3    0  502  0.33695315156E+03  0.16713917187E+02 -0.10729044473E+04  0.11246958454E+04  0.10100000352E+00 0.  1.
</event>
<event>
 5   0  0.3772254E-03  0.1611963E+04  0.7818609E-02  0.8813232E-01
       -1   -1    0    0    0  501  0.00000000000E+00  0.00000000000E+00  0.28902076714E+03  0.28902076718E+03  0.50400001928E-02 0.  1.
        1   -1    0    0  501    0  0.00000000000E+00  0.00000000000E+00 -0.22476105674E+04  0.22476105674E+04  0.50400001928E-02 0. -1.
    10030    2    1    2    0    0  0.00000000000E+00  0.00000000000E+00 -0.19585898002E+04  0.25366313345E+04  0.16119629406E+04 0.  0.
        3    1    3    3  502    0 -0.70536499584E+03  0.81882755394E+02 -0.37932828718E+03  0.80506802361E+03  0.10100000352E+00 0.  1.
       -3    1    3    3    0  502  0.70536499584E+03 -0.81882755394E+02 -0.15792615130E+04  0.17315633109E+04  0.10100000352E+00 0. -1.
</event>
<event>
 5   0  0.3731281E-03  0.1201881E+04  0.7818609E-02  0.9111212E-01
        1   -1    0    0  501    0  0.00000000000E+00  0.00000000000E+00  0.15066607167E+04  0.15066607167E+04  0.50400001928E-02 0. -1.
       -1   -1    0    0    0  501  0.00000000000E+00  0.00000000000E+00 -0.23968866617E+03  0.23968866622E+03  0.50400001928E-02 0.  1.
    10030    2    1    2    0    0  0.00000000000E+00  0.00000000000E+00  0.12669720505E+04  0.17463493829E+04  0.12018810217E+04 0.  0.
        5    1    3    3  502    0  0.10569661720E+02 -0.57183943976E+03  0.36558191050E+03  0.67881093530E+03  0.46999998093E+01 0.  1.
       -5    1    3    3    0  502 -0.10569661720E+02  0.57183943976E+03  0.90139014003E+03  0.10675384476E+04  0.46999998093E+01 0. -1.
</event>
<event>
 5   0  0.3648616E-03  0.1326252E+04  0.7818609E-02  0.9009002E-01
       -1   -1    0    0    0  501  0.00000000000E+00  0.00000000000E+00  0.55472829269E+03  0.55472829272E+03  0.50400001928E-02 0.  1.
        1   -1    0    0  501    0  0.00000000000E+00  0.00000000000E+00 -0.79270521058E+03  0.79270521059E+03  0.50400001928E-02 0. -1.
    10030    2    1    2    0    0  0.00000000000E+00  0.00000000000E+00 -0.23797691788E+03  0.13474335033E+04  0.13262518737E+04 0.  0.
        2    1    3    3  502    0  0.10974917721E+03  0.65344251345E+03 -0.92031551399E+02  0.66895575844E+03  0.25500000920E-02 0.  1.
       -2    1    3    3    0  502 -0.10974917721E+03 -0.65344251345E+03 -0.14594536648E+03  0.67847774488E+03  0.25500000920E-02 0. -1.
</event>
<event>
 5   0  0.2537625E-03  0.1184617E+04  0.7818609E-02  0.9126429E-01
       -3   -1    0    0    0  501  0.00000000000E+00  0.00000000000E+00  0.38665921454E+03  0.38665922773E+03  0.10100000352E+00 0. -1.
        3   -1    0    0  501    0  0.00000000000E+00  0.00000000000E+00 -0.90733525075E+03  0.90733525637E+03  0.10100000352E+00 0.  1.
    10030    2    1    2    0    0  0.00000000000E+00  0.00000000000E+00 -0.52067603621E+03  0.12939944841E+04  0.11846173180E+04 0.  0.
        4    1    3    3  502    0 -0.95862361864E+02 -0.49474518889E+03 -0.60030676959E+03  0.78379348356E+03  0.12699999809E+01 0. -1.
       -4    1    3    3    0  502  0.95862361864E+02  0.49474518889E+03  0.79630733387E+02  0.51020100054E+03  0.12699999809E+01 0.  1.
</event>
<event>
 5   0  0.2537625E-03  0.1196763E+04  0.7818609E-02  0.9115694E-01
        4   -1    0    0  501    0  0.00000000000E+00  0.00000000000E+00  0.97486208211E+03  0.97486290935E+03  0.12699999809E+01 0. -1.
       -4   -1    0    0    0  501  0.00000000000E+00  0.00000000000E+00 -0.36729156793E+03  0.36729376359E+03  0.12699999809E+01 0.  1.
    10030    2    1    2    0    0  0.00000000000E+00  0.00000000000E+00  0.60757051417E+03  0.13421566729E+04  0.11967633872E+04 0.  0.
        1    1    3    3  502    0 -0.36700611821E+03  0.38713685472E+03 -0.24414997707E+00  0.53344961779E+03  0.50400001928E-02 0. -1.
       -1    1    3    3    0  502  0.36700611821E+03 -0.38713685472E+03  0.60781466415E+03  0.80870705516E+03  0.50400001928E-02 0.  1.
</event>
<event>
 5   0  0.6640844E-03  0.7692768E+03  0.7818609E-02  0.9605584E-01
       -2   -1    0    0    0  501  0.00000000000E+00  0.00000000000E+00  0.62664284264E+03  0.62664284264E+03  0.25500000920E-02 0.  1.
        2   -1    0    0  501    0  0.00000000000E+00  0.00000000000E+00 -0.23609416034E+03  0.23609416036E+03  0.25500000920E-02 0. -1.
    10030    2    1    2    0    0  0.00000000000E+00  0.00000000000E+00  0.39054868230E+03  0.86273700300E+03  0.76927684425E+03 0.  0.
        5    1    3    3  502    0  0.19084333411E+03 -0.26519406106E+03  0.42284460330E+03  0.53438629917E+03  0.46999998093E+01 0.  1.
       -5    1    3    3    0  502 -0.19084333411E+03  0.26519406106E+03 -0.32295921005E+02  0.32835070383E+03  0.46999998093E+01 0. -1.
</event>
<event>
 5   0  0.3701879E-03  0.1202144E+04  0.7818609E-02  0.9110982E-01
       -1   -1    0    0    0  501  0.00000000000E+00  0.00000000000E+00  0.22336486911E+03  0.22336486917E+03  0.50400001928E-02 0.  1.
        1   -1    0    0  501    0  0.00000000000E+00  0.00000000000E+00 -0.16174761259E+04  0.16174761260E+04  0.50400001928E-02 0. -1.
    10030    2    1    2    0    0  0.00000000000E+00  0.00000000000E+00 -0.13941112568E+04  0.18408409951E+04  0.12021436573E+04 0.  0.
        1    1    3    3  502    0  0.18120946063E+03 -0.27500791379E+03  0.72901572739E+02  0.33731418677E+03  0.50400001928E-02 0.  1.
       -1    1    3    3    0  502 -0.18120946063E+03  0.27500791379E+03 -0.14670128296E+04  0.15035268083E+04  0.50400001928E-02 0. -1.
</event>
<event>
 5   0  0.6640844E-03  0.9196977E+03  0.7818609E-02  0.9401288E-01
       -2   -1    0    0    0  501  0.00000000000E+00  0.00000000000E+00  0.13879019295E+03  0.13879019297E+03  0.25500000920E-02 0.  1.
        2   -1    0    0  501    0  0.00000000000E+00  0.00000000000E+00 -0.15236016132E+04  0.15236016132E+04  0.25500000920E-02 0. -1.
    10030    2    1    2    0    0  0.00000000000E+00  0.00000000000E+00 -0.13848114203E+04  0.16623918062E+04  0.91969769359E+03 0.  0.
        5    1    3    3  502    0  0.10677955326E+03  0.41822745535E+03 -0.97890415256E+03  0.10698558348E+04  0.46999998093E+01 0.  1.
       -5    1    3    3    0  502 -0.10677955326E+03 -0.41822745535E+03 -0.40590726773E+03  0.59253597140E+03  0.46999998093E+01 0. -1.
</event>
<event>
 5   0  0.3772254E-03  0.1210583E+04  0.7818609E-02  0.9103644E-01
       -1   -1    0    0    0  501  0.00000000000E+00  0.00000000000E+00  0.83868602013E+03  0.83868602014E+03  0.50400001928E-02 0. -1.
        1   -1    0    0  501    0  0.00000000000E+00  0.00000000000E+00 -0.43684707706E+03  0.43684707709E+03  0.50400001928E-02 0.  1.
    10030    2    1    2    0    0  0.00000000000E+00  0.00000000000E+00  0.40183894307E+03  0.12755330972E+04  0.12105825647E+04 0.  0.
        3    1    3    3  502    0 -0.37967296049E+03  0.10952964234E+03  0.68402706510E+03  0.78996286967E+03  0.10100000352E+00 0. -1.
       -3    1    3    3    0  502  0.37967296049E+03 -0.10952964234E+03 -0.28218812203E+03  0.48557022756E+03  0.10100000352E+00 0.  1.
</event>
<event>
 5   0  0.6658994E-03  0.1179964E+04  0.7818609E-02  0.9130577E-01
       -2   -1    0    0    0  501  0.00000000000E+00  0.00000000000E+00  0.38322823254E+03  0.38322823255E+03  0.25500000920E-02 0. -1.
        2   -1    0    0  501    0  0.00000000000E+00  0.00000000000E+00 -0.90828070762E+03  0.90828070763E+03  0.25500000920E-02 0.  1.
    10030    2    1    2    0    0  0.00000000000E+00  0.00000000000E+00 -0.52505247508E+03  0.12915089402E+04  0.11799640846E+04 0.  0.
        4    1    3    3  502    0 -0.47325943025E+02  0.37025866897E+03 -0.76260415660E+03  0.84905708842E+03  0.12699999809E+01 0.  1.
       -4    1    3    3    0  502  0.47325943025E+02 -0.37025866897E+03  0.23755168152E+03  0.44245185176E+03  0.12699999809E+01 0. -1.
</event>
<event>
 5   0  0.3944074E-03  0.9089945E+03  0.7818609E-02  0.9414407E-01
        1   -1    0    0  501    0  0.00000000000E+00  0.00000000000E+00  0.47455569067E+03  0.47455569069E+03  0.50400001928E-02 0. -1.
       -1   -1    0    0    0  501  0.00000000000E+00  0.00000000000E+00 -0.43528667730E+03  0.43528667733E+03  0.50400001928E-02 0.  1.
    10030    2    1    2    0    0  0.00000000000E+00  0.00000000000E+00  0.39269013370E+02  0.90984236802E+03  0.90899454302E+03 0.  0.
        4    1    3    3  502    0  0.25704837714E+03 -0.42384505851E+02 -0.35313175793E+03  0.43883250322E+03  0.12699999809E+01 0.  1.
       -4    1    3    3    0  502 -0.25704837714E+03  0.42384505851E+02  0.39240077130E+03  0.47100986480E+03  0.12699999809E+01 0. -1.
</event>
<event>
 5   0  0.6658994E-03  0.1194560E+04  0.7818609E-02  0.9117631E-01
        2   -1    0    0  501    0  0.00000000000E+00  0.00000000000E+00  0.36867315617E+03  0.36867315618E+03  0.25500000920E-02 0. -1.
       -2   -1    0    0    0  501  0.00000000000E+00  0.00000000000E+00 -0.96764179750E+03  0.96764179750E+03  0.25500000920E-02 0.  1.
    10030    2    1    2    0    0  0.00000000000E+00  0.00000000000E+00 -0.59896864133E+03  0.13363149537E+04  0.11945602631E+04 0.  0.
        4    1    3    3  502    0 -0.71818709549E+00  0.18405651774E+03  0.33615535345E+03  0.38324842083E+03  0.12699999809E+01 0. -1.
       -4    1    3    3    0  502  0.71818709549E+00 -0.18405651774E+03 -0.93512399478E+03  0.95306653284E+03  0.12699999809E+01 0.  1.
</event>
<event>
 5   0  0.6585930E-03  0.1096811E+04  0.7818609E-02  0.9208305E-01
        2   -1    0    0  501    0  0.00000000000E+00  0.00000000000E+00  0.12815350825E+04  0.12815350825E+04  0.25500000920E-02 0.  1.
       -2   -1    0    0    0  501  0.00000000000E+00  0.00000000000E+00 -0.23467851624E+03  0.23467851626E+03  0.25500000920E-02 0. -1.
    10030    2    1    2    0    0  0.00000000000E+00  0.00000000000E+00  0.10468565663E+04  0.15162135988E+04  0.10968112904E+04 0.  0.
        2    1    3    3  502    0  0.36111765718E+03  0.41241695591E+03  0.54550507129E+03  0.77334952684E+03  0.25500000920E-02 0.  1.
       -2    1    3    3    0  502 -0.36111765718E+03 -0.41241695591E+03  0.50135149500E+03  0.74286407195E+03  0.25500000920E-02 0. -1.
</event>
<event>
 5   0  0.3701879E-03  0.1215654E+04  0.7818609E-02  0.9099264E-01
        1   -1    0    0  501    0  0.00000000000E+00  0.00000000000E+00  0.33583581588E+03  0.33583581591E+03  0.50400001928E-02 0. -1.
       -1   -1    0    0    0  501  0.00000000000E+00  0.00000000000E+00 -0.11001021679E+04  0.11001021679E+04  0.50400001928E-02 0.  1.
    10030    2    1    2    0    0  0.00000000000E+00  0.00000000000E+00 -0.76426635206E+03  0.14359379839E+04  0.12156540777E+04 0.  0.
        1    1    3    3  502    0 -0.21415411243E+03  0.54206892790E+03 -0.58588010577E+03  0.82641164369E+03  0.50400001928E-02 0.  1.
       -1    1    3    3    0  502  0.21415411243E+03 -0.54206892790E+03 -0.17838624629E+03  0.60952634017E+03  0.50400001928E-02 0. -1.
</event>
<event>
 5   0  0.3731281E-03  0.1226875E+04  0.7818609E-02  0.9089653E-01
        1   -1    0    0  501    0  0.00000000000E+00  0.00000000000E+00  0.19143501263E+04  0.19143501263E+04  0.50400001928E-02 0. -1.
       -1   -1    0    0    0  501  0.00000000000E+00  0.00000000000E+00 -0.19657095629E+03  0.19657095636E+03  0.50400001928E-02 0.  1.
    10030    2    1    2    0    0  0.00000000000E+00  0.00000000000E+00  0.17177791700E+04  0.21109210827E+04  0.12268751120E+04 0.  0.
        5    1    3    3  502    0 -0.20029436781E+03  0.48252263420E+03  0.14119860283E+04  0.15055472628E+04  0.46999998093E+01 0. -1.
       -5    1    3    3    0  502  0.20029436781E+03 -0.48252263420E+03  0.30579314167E+03  0.60537381987E+03  0.46999998093E+01 0.  1.
</event>
<event>
 5   0  0.3701879E-03  0.1090251E+04  0.7818609E-02  0.9214746E-01
        1   -1    0    0  501    0  0.00000000000E+00  0.00000000000E+00  0.15486269521E+04  0.15486269521E+04  0.50400001928E-02 0.  1.
       -1   -1    0    0    0  501  0.00000000000E+00  0.00000000000E+00 -0.19188732226E+03  0.19188732233E+03  0.50400001928E-02 0. -1.
    10030    2    1    2    0    0  0.00000000000E+00  0.00000000000E+00  0.13567396298E+04  0.17405142744E+04  0.10902511253E+04 0.  0.
        1    1    3    3  502    0 -0.49949156918E+03 -0.12303255665E+03  0.39042227095E+03  0.64580057863E+03  0.50400001928E-02 0.  1.
       -1    1    3    3    0  502  0.49949156918E+03  0.12303255665E+03  0.96631735886E+03  0.10947136958E+04  0.50400001928E-02 0. -1.
</event>
<event>
 5   0  0.6640844E-03  0.1211056E+04  0.7818609E-02  0.9103234E-01
        2   -1    0    0  501    0  0.00000000000E+00  0.00000000000E+00  0.15599988894E+04  0.15599988894E+04  0.25500000920E-02 0. -1.
       -2   -1    0    0    0  501  0.00000000000E+00  0.00000000000E+00 -0.23504121015E+03  0.23504121016E+03  0.25500000920E-02 0.  1.
    10030    2    1    2    0    0  0.00000000000E+00  0.00000000000E+00  0.13249576793E+04  0.17950400996E+04  0.12110557821E+04 0.  0.
        5    1    3    3  502    0 -0.49896959482E+03 -0.27894251440E+03  0.36654714739E+03  0.67908650713E+03  0.46999998093E+01 0.  1.
       -5    1    3    3    0  502  0.49896959482E+03  0.27894251440E+03  0.95841053187E+03  0.11159535924E+04  0.46999998093E+01 0. -1.
</event>
<event>
 5   0  0.6493047E-03  0.1190237E+04  0.7818609E-02  0.9121445E-01
       -2   -1    0    0    0  501  0.00000000000E+00  0.00000000000E+00  0.22392229376E+03  0.22392229377E+03  0.25500000920E-02 0. -1.
        2   -1    0    0  501    0  0.00000000000E+00  0.00000000000E+00 -0.15816480408E+04  0.15816480408E+04  0.25500000920E-02 0.  1.
    10030    2    1    2    0    0  0.00000000000E+00  0.00000000000E+00 -0.13577257471E+04  0.18055703346E+04  0.11902373834E+04 0.  0.
        3    1    3    3  502    0  0.22229906076E+03  0.17895177249E+03 -0.14710792341E+04  0.14985041650E+04  0.10100000352E+00 0.  1.
       -3    1    3    3    0  502 -0.22229906076E+03 -0.17895177249E+03  0.11335348703E+03  0.30706616961E+03  0.10100000352E+00 0. -1.
</event>
<event>
 5   0  0.6493047E-03  0.1221966E+04  0.7818609E-02  0.9093844E-01
       -2   -1    0    0    0  501  0.00000000000E+00  0.00000000000E+00  0.11378377425E+04  0.11378377425E+04  0.25500000920E-02 0. -1.
        2   -1    0    0  501    0  0.00000000000E+00  0.00000000000E+00 -0.32807878485E+03  0.32807878486E+03  0.25500000920E-02 0.  1.
    10030    2    1    2    0    0  0.00000000000E+00  0.00000000000E+00  0.80975895770E+03  0.14659165274E+04  0.12219663235E+04 0.  0.
        3    1    3    3  502    0  0.39762366550E+03 -0.31189487359E+02  0.96012249343E+03  0.10396694552E+04  0.10100000352E+00 0. -1.
       -3    1    3    3    0  502 -0.39762366550E+03  0.31189487359E+02 -0.15036353573E+03  0.42624707221E+03  0.10100000352E+00 0.  1.
</event>
<event>
 5   0  0.3648616E-03  0.1159904E+04  0.7818609E-02  0.9148695E-01
       -1   -1    0    0    0  501  0.00000000000E+00  0.00000000000E+00  0.85349657470E+03  0.85349657471E+03  0.50400001928E-02 0. -1.
        1   -1    0    0  501    0  0.00000000000E+00  0.00000000000E+00 -0.39407832235E+03  0.39407832238E+03  0.50400001928E-02 0.  1.
    10030    2    1    2    0    0  0.00000000000E+00  0.00000000000E+00  0.45941825235E+03  0.12475748971E+04  0.11599043035E+04 0.  0.
        2    1    3    3  502    0 -0.63533660168E+02  0.30936159458E+03  0.75289370750E+03  0.81644966592E+03  0.25500000920E-02 0. -1.
       -2    1    3    3    0  502  0.63533660168E+02 -0.30936159458E+03 -0.29347545515E+03  0.43112523118E+03  0.25500000920E-02 0.  1.
</event>
<event>
 5   0  0.6658994E-03  0.1209552E+04  0.7818609E-02  0.9104537E-01
       -2   -1    0    0    0  501  0.00000000000E+00  0.00000000000E+00  0.25069169634E+03  0.25069169635E+03  0.25500000920E-02 0.  1.
        2   -1    0    0  501    0  0.00000000000E+00  0.00000000000E+00 -0.14589781544E+04  0.14589781544E+04  0.25500000920E-02 0. -1.
    10030    2    1    2    0    0  0.00000000000E+00  0.00000000000E+00 -0.12082864580E+04  0.17096698507E+04  0.12095515011E+04 0.  0.
        4    1    3    3  502    0 -0.30881320059E+03  0.18175131281E+03 -0.12927720849E+04  0.13415142225E+04  0.12699999809E+01 0. -1.
       -4    1    3    3    0  502  0.30881320059E+03 -0.18175131281E+03  0.84485626906E+02  0.36815562826E+03  0.12699999809E+01 0.  1.
</event>
<event>
 5   0  0.3701879E-03  0.1180868E+04  0.7818609E-02  0.9129769E-01
        1   -1    0    0  501    0  0.00000000000E+00  0.00000000000E+00  0.38216646698E+03  0.38216646701E+03  0.50400001928E-02 0. -1.
       -1   -1    0    0    0  501  0.00000000000E+00  0.00000000000E+00 -0.91220049000E+03  0.91220049001E+03  0.50400001928E-02 0.  1.
    10030    2    1    2    0    0  0.00000000000E+00  0.00000000000E+00 -0.53003402302E+03  0.12943669570E+04  0.11808682204E+04 0.  0.
        1    1    3    3  502    0 -0.45823857153E+03  0.32774623520E+03 -0.71366540321E+02  0.56788499384E+03  0.50400001928E-02 0.  1.
       -1    1    3    3    0  502  0.45823857153E+03 -0.32774623520E+03 -0.45866748270E+03  0.72648196319E+03  0.50400001928E-02 0. -1.
</event>
<event>
 5   0  0.6493047E-03  0.6481938E+03  0.7818609E-02  0.9810174E-01
        2   -1    0    0  501    0  0.00000000000E+00  0.00000000000E+00  0.66124824222E+03  0.66124824223E+03  0.25500000920E-02 0.  1.
       -2   -1    0    0    0  501  0.00000000000E+00  0.00000000000E+00 -0.15884925071E+03  0.15884925073E+03  0.25500000920E-02 0. -1.
    10030    2    1    2    0    0  0.00000000000E+00  0.00000000000E+00  0.50239899151E+03  0.82009749296E+03  0.64819376061E+03 0.  0.
        3    1    3    3  502    0  0.57808755286E+02  0.30437146402E+03  0.13080590645E+03  0.33629456680E+03  0.10100000352E+00 0. -1.
       -3    1    3    3    0  502 -0.57808755286E+02 -0.30437146402E+03  0.37159308506E+03  0.48380292616E+03  0.10100000352E+00 0.  1.
</event>
<event>
 5   0  0.3701879E-03  0.1171202E+04  0.7818609E-02  0.9138444E-01
        1   -1    0    0  501    0  0.00000000000E+00  0.00000000000E+00  0.12014078300E+04  0.12014078300E+04  0.50400001928E-02 0.  1.
       -1   -1    0    0    0  501  0.00000000000E+00  0.00000000000E+00 -0.28543895585E+03  0.28543895589E+03  0.50400001928E-02 0. -1.
    10030    2    1    2    0    0  0.00000000000E+00  0.00000000000E+00  0.91596887417E+03  0.14868467859E+04  0.11712021117E+04 0.  0.
        1    1    3    3  502    0  0.39810290885E+02 -0.58424435562E+03  0.45989723292E+03  0.74460176686E+03  0.50400001928E-02 0. -1.
       -1    1    3    3    0  502 -0.39810290885E+02  0.58424435562E+03  0.45607164124E+03  0.74224501905E+03  0.50400001928E-02 0.  1.
</event>
<event>
 5   0  0.6640844E-03  0.1162781E+04  0.7818609E-02  0.9146073E-01
       -2   -1    0    0    0  501  0.00000000000E+00  0.00000000000E+00  0.43186509506E+03  0.43186509507E+03  0.25500000920E-02 0.  1.
        2   -1    0    0  501    0  0.00000000000E+00  0.00000000000E+00 -0.78268657216E+03  0.78268657217E+03  0.25500000920E-02 0. -1.
    10030    2    1    2    0    0  0.00000000000E+00  0.00000000000E+00 -0.35082147710E+03  0.12145516672E+04  0.11627811675E+04 0.  0.
        5    1    3    3  502    0  0.47227603450E+03 -0.16758739958E+03 -0.48325761160E+03  0.69619695376E+03  0.46999998093E+01 0. -1.
       -5    1    3    3    0  502 -0.47227603450E+03  0.16758739958E+03  0.13243613450E+03  0.51835471347E+03  0.46999998093E+01 0.  1.
</event>
<event>
 5   0  0.2537625E-03  0.1313315E+04  0.7818609E-02  0.9019072E-01
        3   -1    0    0  501    0  0.00000000000E+00  0.00000000000E+00  0.64238179562E+03  0.64238180356E+03  0.10100000352E+00 0. -1.
       -3   -1    0    0    0  501  0.00000000000E+00  0.00000000000E+00 -0.67125092367E+03  0.67125093127E+03  0.10100000352E+00 0.  1.
    10030    2    1    2    0    0  0.00000000000E+00  0.00000000000E+00 -0.28869128052E+02  0.13136327348E+04  0.13133154745E+04 0.  0.
        2    1    3    3  502    0  0.20962623636E+02  0.65173340246E+02  0.63880236072E+03  0.64246046722E+03  0.25500000920E-02 0. -1.
       -2    1    3    3    0  502 -0.20962623636E+02 -0.65173340246E+02 -0.66767148877E+03  0.67117226760E+03  0.25500000920E-02 0.  1.
</event>
<event>
 5   0  0.3944074E-03  0.1194236E+04  0.7818609E-02  0.9117917E-01
        1   -1    0    0  501    0  0.00000000000E+00  0.00000000000E+00  0.11110390765E+04  0.11110390765E+04  0.50400001928E-02 0. -1.
       -1   -1    0    0    0  501  0.00000000000E+00  0.00000000000E+00 -0.32091565635E+03  0.32091565639E+03  0.50400001928E-02 0.  1.
    10030    2    1    2    0    0  0.00000000000E+00  0.00000000000E+00  0.79012342010E+03  0.14319547329E+04  0.11942358804E+04 0.  0.
        4    1    3    3  502    0 -0.38788656997E+03  0.28166825386E+03  0.82195773369E+03  0.95152988669E+03  0.12699999809E+01 0. -1.
       -4    1    3    3    0  502  0.38788656997E+03 -0.28166825386E+03 -0.31834313585E+02  0.48042484617E+03  0.12699999809E+01 0.  1.
</event>
<event>
 5   0  0.6585930E-03  0.1217093E+04  0.7818609E-02  0.9098026E-01
        2   -1    0    0  501    0  0.00000000000E+00  0.00000000000E+00  0.52314658422E+03  0.52314658423E+03  0.25500000920E-02 0.  1.
       -2   -1    0    0    0  501  0.00000000000E+00  0.00000000000E+00 -0.70788688717E+03  0.70788688718E+03  0.25500000920E-02 0. -1.
    10030    2    1    2    0    0  0.00000000000E+00  0.00000000000E+00 -0.18474030295E+03  0.12310334714E+04  0.12170926128E+04 0.  0.
        2    1    3    3  502    0  0.27016269587E+03 -0.97205570341E+01  0.45907765886E+03  0.53276136153E+03  0.25500000920E-02 0.  1.
       -2    1    3    3    0  502 -0.27016269587E+03  0.97205570341E+01 -0.64381796181E+03  0.69827210987E+03  0.25500000920E-02 0. -1.
</event>
<event>
 5   0  0.6493047E-03  0.1187733E+04  0.7818609E-02  0.9123662E-01
       -2   -1    0    0    0  501  0.00000000000E+00  0.00000000000E+00  0.91225494235E+03  0.91225494235E+03  0.25500000920E-02 0.  1.
        2   -1    0    0  501    0  0.00000000000E+00  0.00000000000E+00 -0.38659965747E+03  0.38659965748E+03  0.25500000920E-02 0. -1.
    10030    2    1    2    0    0  0.00000000000E+00  0.00000000000E+00  0.52565528488E+03  0.12988545998E+04  0.11877330479E+04 0.  0.
        3    1    3    3  502    0 -0.43635243517E+03 -0.34169754362E+03  0.29520810113E+02  0.55500643909E+03  0.10100000352E+00 0. -1.
       -3    1    3    3    0  502  0.43635243517E+03  0.34169754362E+03  0.49613447476E+03  0.74384816075E+03  0.10100000352E+00 0.  1.
</event>
<event>
 5   0  0.3772254E-03  0.1117557E+04  0.7818609E-02  0.9188247E-01
       -1   -1    0    0    0  501  0.00000000000E+00  0.00000000000E+00  0.26923460757E+03  0.26923460762E+03  0.50400001928E-02 0.  1.
        1   -1    0    0  501    0  0.00000000000E+00  0.00000000000E+00 -0.11597076452E+04  0.11597076452E+04  0.50400001928E-02 0. -1.
    10030    2    1    2    0    0  0.00000000000E+00  0.00000000000E+00 -0.89047303765E+03  0.14289422528E+04  0.11175570371E+04 0.  0.
        3    1    3    3  502    0 -0.13974534399E+03  0.21504880037E+03 -0.10800074570E+04  0.11100409295E+04  0.10100000352E+00 0. -1.
       -3    1    3    3    0  502  0.13974534399E+03 -0.21504880037E+03  0.18953441938E+03  0.31890132336E+03  0.10100000352E+00 0.  1.
</event>
<event>
 5   0  0.6640844E-03  0.1397813E+04  0.7818609E-02  0.8955403E-01
       -2   -1    0    0    0  501  0.00000000000E+00  0.00000000000E+00  0.31892977813E+03  0.31892977815E+03  0.25500000920E-02 0.  1.
        2   -1    0    0  501    0  0.00000000000E+00  0.00000000000E+00 -0.15315926748E+04  0.15315926748E+04  0.25500000920E-02 0. -1.
    10030    2    1    2    0    0  0.00000000000E+00  0.00000000000E+00 -0.12126628967E+04  0.18505224530E+04  0.13978133094E+04 0.  0.
        5    1    3    3  502    0 -0.66211498851E+03 -0.19576784630E+03 -0.46296723127E+03  0.83131345164E+03  0.46999998093E+01 0.  1.
       -5    1    3    3    0  502  0.66211498851E+03  0.19576784630E+03 -0.74969566543E+03  0.10192090013E+04  0.46999998093E+01 0. -1.
</event>
<event>
 5   0  0.6658994E-03  0.1164735E+04  0.7818609E-02  0.9144297E-01
        2   -1    0    0  501    0  0.00000000000E+00  0.00000000000E+00  0.13374166591E+04  0.13374166591E+04  0.25500000920E-02 0.  1.
       -2   -1    0    0    0  501  0.00000000000E+00  0.00000000000E+00 -0.25358713208E+03  0.25358713210E+03  0.25500000920E-02 0. -1.
    10030    2    1    2    0    0  0.00000000000E+00  0.00000000000E+00  0.10838295270E+04  0.15910037912E+04  0.11647345706E+04 0.  0.
        4    1    3    3  502    0 -0.17160809927E+03 -0.28989437514E+03  0.11908082583E+04  0.12375435384E+04  0.12699999809E+01 0.  1.
       -4    1    3    3    0  502  0.17160809927E+03  0.28989437514E+03 -0.10697873128E+03  0.35346025281E+03  0.12699999809E+01 0. -1.
</event>
<event>
 5   0  0.6585930E-03  0.1155013E+04  0.7818609E-02  0.9153171E-01
        2   -1    0    0  501    0  0.00000000000E+00  0.00000000000E+00  0.41117604038E+03  0.41117604039E+03  0.25500000920E-02 0.  1.
       -2   -1    0    0    0  501  0.00000000000E+00  0.00000000000E+00 -0.81112139715E+03  0.81112139715E+03  0.25500000920E-02 0. -1.
    10030    2    1    2    0    0  0.00000000000E+00  0.00000000000E+00 -0.39994535677E+03  0.12222974375E+04  0.11550128733E+04 0.  0.
        2    1    3    3  502    0  0.49728565263E+03  0.86576213520E+02  0.96952500744E+02  0.51399245954E+03  0.25500000920E-02 0.  1.
       -2    1    3    3    0  502 -0.49728565263E+03 -0.86576213520E+02 -0.49689785751E+03  0.70830497800E+03  0.25500000920E-02 0. -1.
</event>
<event>
 5   0  0.2537625E-03  0.1276620E+04  0.7818609E-02  0.9048314E-01
       -4   -1    0    0    0  501  0.00000000000E+00  0.00000000000E+00  0.64730013813E+03  0.64730138399E+03  0.12699999809E+01 0.  1.
        4   -1    0    0  501    0  0.00000000000E+00  0.00000000000E+00 -0.62944189611E+03  0.62944317732E+03  0.12699999809E+01 0. -1.
    10030    2    1    2    0    0  0.00000000000E+00  0.00000000000E+00  0.17858242020E+02  0.12767445613E+04  0.12766196607E+04 0.  0.
        5    1    3    3  502    0  0.26507449641E+03 -0.15341016696E+03  0.56900014460E+03  0.64620617648E+03  0.46999998093E+01 0.  1.
       -5    1    3    3    0  502 -0.26507449641E+03  0.15341016696E+03 -0.55114190258E+03  0.63053838483E+03  0.46999998093E+01 0. -1.
</event>
<event>
 5   0  0.6585930E-03  0.1208122E+04  0.7818609E-02  0.9105777E-01
        2   -1    0    0  501    0  0.00000000000E+00  0.00000000000E+00  0.84226027400E+03  0.84226027400E+03  0.25500000920E-02 0. -1.
       -2   -1    0    0    0  501  0.00000000000E+00  0.00000000000E+00 -0.43322654102E+03  0.43322654102E+03  0.25500000920E-02 0.  1.
    10030    2    1    2    0    0  0.00000000000E+00  0.00000000000E+00  0.40903373298E+03  0.12754868150E+04  0.12081216911E+04 0.  0.
        2    1    3    3  502    0  0.18326654847E+03  0.50620793665E+03  0.49375740614E+03  0.73049947231E+03  0.25500000920E-02 0. -1.
       -2    1    3    3    0  502 -0.18326654847E+03 -0.50620793665E+03 -0.84723673159E+02  0.54498734272E+03  0.25500000920E-02 0.  1.
</event>
<event>
 5   0  0.6640844E-03  0.1228304E+04  0.7818609E-02  0.9088437E-01
       -2   -1    0    0    0  501  0.00000000000E+00  0.00000000000E+00  0.30859595240E+03  0.30859595241E+03  0.25500000920E-02 0.  1.
        2   -1    0    0  501    0  0.00000000000E+00  0.00000000000E+00 -0.12222541307E+04  0.12222541307E+04  0.25500000920E-02 0. -1.
    10030    2    1    2    0    0  0.00000000000E+00  0.00000000000E+00 -0.91365817834E+03  0.15308500831E+04  0.12283039975E+04 0.  0.
        5    1    3    3  502    0  0.57706341014E+03 -0.22723006303E+02 -0.71719221905E+03  0.92081772540E+03  0.46999998093E+01 0. -1.
       -5    1    3    3    0  502 -0.57706341014E+03  0.22723006303E+02 -0.19646595929E+03  0.61003235775E+03  0.46999998093E+01 0.  1.
</event>
<event>
 5   0  0.6658994E-03  0.1191359E+04  0.7818609E-02  0.9120454E-01
       -2   -1    0    0    0  501  0.00000000000E+00  0.00000000000E+00  0.47559020395E+03  0.47559020395E+03  0.25500000920E-02 0.  1.
        2   -1    0    0  501    0  0.00000000000E+00  0.00000000000E+00 -0.74609148631E+03  0.74609148631E+03  0.25500000920E-02 0. -1.
    10030    2    1    2    0    0  0.00000000000E+00  0.00000000000E+00 -0.27050128236E+03  0.12216816903E+04  0.11913585558E+04 0.  0.
        4    1    3    3  502    0 -0.57282262403E+03 -0.66901970730E+02 -0.28814474888E+03  0.64469422325E+03  0.12699999809E+01 0. -1.
       -4    1    3    3    0  502  0.57282262403E+03  0.66901970730E+02  0.17643466518E+02  0.57698746702E+03  0.12699999809E+01 0.  1.
</event>
<event>
 5   0  0.6585930E-03  0.1202738E+04  0.7818609E-02  0.9110464E-01
       -2   -1    0    0    0  501  0.00000000000E+00  0.00000000000E+00  0.61621362044E+03  0.61621362045E+03  0.25500000920E-02 0.  1.
        2   -1    0    0  501    0  0.00000000000E+00  0.00000000000E+00 -0.58688171411E+03  0.58688171412E+03  0.25500000920E-02 0. -1.
    10030    2    1    2    0    0  0.00000000000E+00  0.00000000000E+00  0.29331906330E+02  0.12030953346E+04  0.12027377201E+04 0.  0.
        2    1    3    3  502    0 -0.33074764843E+03  0.31502632725E+03 -0.37661388911E+03  0.59200812096E+03  0.25500000920E-02 0. -1.
       -2    1    3    3    0  502  0.33074764843E+03 -0.31502632725E+03  0.40594579544E+03  0.61108721361E+03  0.25500000920E-02 0.  1.
</event>
<event>
 5   0  0.6640844E-03  0.1189940E+04  0.7818609E-02  0.9121708E-01
       -2   -1    0    0    0  501  0.00000000000E+00  0.00000000000E+00  0.16056930483E+03  0.16056930485E+03  0.25500000920E-02 0. -1.
        2   -1    0    0  501    0  0.00000000000E+00  0.00000000000E+00 -0.22045881049E+04  0.22045881049E+04  0.25500000920E-02 0.  1.
    10030    2    1    2    0    0  0.00000000000E+00  0.00000000000E+00 -0.20440188001E+04  0.23651574098E+04  0.11899397959E+04 0.  0.
        5    1    3    3  502    0 -0.21654913582E+03 -0.35872707063E+03 -0.18615050050E+04  0.19080884710E+04  0.46999998093E+01 0.  1.
       -5    1    3    3    0  502  0.21654913582E+03  0.35872707063E+03 -0.18251379510E+03  0.45706893881E+03  0.46999998093E+01 0. -1.
</event>
<event>
 5   0  0.3701879E-03  0.1228944E+04  0.7818609E-02  0.9087893E-01
       -1   -1    0    0    0  501  0.00000000000E+00  0.00000000000E+00  0.49780937854E+03  0.49780937856E+03  0.50400001928E-02 0. -1.
        1   -1    0    0  501    0  0.00000000000E+00  0.00000000000E+00 -0.75847451964E+03  0.75847451965E+03  0.50400001928E-02 0.  1.
    10030    2    1    2    0    0  0.00000000000E+00  0.00000000000E+00 -0.26066514110E+03  0.12562838982E+04  0.12289438218E+04 0.  0.
        1    1    3    3  502    0  0.18400207843E+03 -0.12226260569E+02 -0.72952049657E+03  0.75246687718E+03  0.50400001928E-02 0.  1.
       -1    1    3    3    0  502 -0.18400207843E+03  0.12226260569E+02  0.46885535547E+03  0.50381702104E+03  0.50400001928E-02 0. -1.
</event>
<event>
 5   0  0.6493047E-03  0.1210912E+04  0.7818609E-02  0.9103359E-01
       -2   -1    0    0    0  501  0.00000000000E+00  0.00000000000E+00  0.34409595288E+03  0.34409595289E+03  0.25500000920E-02 0. -1.
        2   -1    0    0  501    0  0.00000000000E+00  0.00000000000E+00 -0.10653335322E+04  0.10653335322E+04  0.25500000920E-02 0.  1.
    10030    2    1    2    0    0  0.00000000000E+00  0.00000000000E+00 -0.72123757928E+03  0.14094294851E+04  0.12109119818E+04 0.  0.
        3    1    3    3  502    0  0.28466497904E+03 -0.53090255157E+02 -0.97950710656E+03  0.10214141704E+04  0.10100000352E+00 0.  1.
       -3    1    3    3    0  502 -0.28466497904E+03  0.53090255157E+02  0.25826952728E+03  0.38801531466E+03  0.10100000352E+00 0. -1.
</event>
<event>
 5   0  0.3701879E-03  0.1062189E+04  0.7818609E-02  0.9242849E-01
        1   -1    0    0  501    0  0.00000000000E+00  0.00000000000E+00  0.54365123797E+03  0.54365123799E+03  0.50400001928E-02 0. -1.
       -1   -1    0    0    0  501  0.00000000000E+00  0.00000000000E+00 -0.51882805892E+03  0.51882805895E+03  0.50400001928E-02 0.  1.
    10030    2    1    2    0    0  0.00000000000E+00  0.00000000000E+00  0.24823179041E+02  0.10624792969E+04  0.10621892798E+04 0.  0.
        1    1    3    3  502    0  0.43132467981E+03  0.27426697580E+03 -0.13184346929E+03  0.52786935301E+03  0.50400001928E-02 0.  1.
       -1    1    3    3    0  502 -0.43132467981E+03 -0.27426697580E+03  0.15666664833E+03  0.53460994393E+03  0.50400001928E-02 0. -1.
</event>
<event>
 5   0  0.6585930E-03  0.1249955E+04  0.7818609E-02  0.9070221E-01
       -2   -1    0    0    0  501  0.00000000000E+00  0.00000000000E+00  0.71868538481E+03  0.71868538481E+03  0.25500000920E-02 0.  1.
        2   -1    0    0  501    0  0.00000000000E+00  0.00000000000E+00 -0.54348812341E+03  0.54348812341E+03  0.25500000920E-02 0. -1.
    10030    2    1    2    0    0  0.00000000000E+00  0.00000000000E+00  0.17519726140E+03  0.12621735082E+04  0.12499551530E+04 0.  0.
        2    1    3    3  502    0 -0.25245859953E+03  0.17132270216E+03 -0.46317803022E+03  0.55463564656E+03  0.25500000920E-02 0. -1.
       -2    1    3    3    0  502  0.25245859953E+03 -0.17132270216E+03  0.63837529162E+03  0.70753786167E+03  0.25500000920E-02 0.  1.
</event>
<event>
 5   0  0.6640844E-03  0.1212112E+04  0.7818609E-02  0.9102320E-01
       -2   -1    0    0    0  501  0.00000000000E+00  0.00000000000E+00  0.42699089698E+03  0.42699089698E+03  0.25500000920E-02 0. -1.
        2   -1    0    0  501    0  0.00000000000E+00  0.00000000000E+00 -0.86021515200E+03  0.86021515201E+03  0.25500000920E-02 0.  1.
    10030    2    1    2    0    0  0.00000000000E+00  0.00000000000E+00 -0.43322425502E+03  0.12872060490E+04  0.12121122710E+04 0.  0.
        5    1    3    3  502    0  0.33553551098E+03  0.45640574240E+03  0.12118973491E+02  0.56662089649E+03  0.46999998093E+01 0. -1.
       -5    1    3    3    0  502 -0.33553551098E+03 -0.45640574240E+03 -0.44534322852E+03  0.72058515250E+03  0.46999998093E+01 0.  1.
</event>
<event>
 5   0  0.3701879E-03  0.1217301E+04  0.7818609E-02  0.9097846E-01
       -1   -1    0    0    0  501  0.00000000000E+00  0.00000000000E+00  0.21992706810E+03  0.21992706816E+03  0.50400001928E-02 0. -1.
        1   -1    0    0  501    0  0.00000000000E+00  0.00000000000E+00 -0.16844464241E+04  0.16844464241E+04  0.50400001928E-02 0.  1.
    10030    2    1    2    0    0  0.00000000000E+00  0.00000000000E+00 -0.14645193560E+04  0.19043734922E+04  0.12173008888E+04 0.  0.
        1    1    3    3  502    0 -0.50271993982E+03 -0.25597811969E+03 -0.37481991204E+03  0.67730502888E+03  0.50400001928E-02 0.  1.
       -1    1    3    3    0  502  0.50271993982E+03  0.25597811969E+03 -0.10896994439E+04  0.12270684634E+04  0.50400001928E-02 0. -1.
</event>
<event>
 5   0  0.3944074E-03  0.1186940E+04  0.7818609E-02  0.9124365E-01
       -1   -1    0    0    0  501  0.00000000000E+00  0.00000000000E+00  0.22832216621E+03  0.22832216627E+03  0.50400001928E-02 0. -1.
        1   -1    0    0  501    0  0.00000000000E+00  0.00000000000E+00 -0.15425861692E+04  0.15425861692E+04  0.50400001928E-02 0.  1.
    10030    2    1    2    0    0  0.00000000000E+00  0.00000000000E+00 -0.13142640030E+04  0.17709083355E+04  0.11869399577E+04 0.  0.
        4    1    3    3  502    0  0.16395543855E+03 -0.28592439266E+03 -0.13934747181E+04  0.14319244208E+04  0.12699999809E+01 0.  1.
       -4    1    3    3    0  502 -0.16395543855E+03  0.28592439266E+03  0.79210715036E+02  0.33898391470E+03  0.12699999809E+01 0. -1.
</event>
<event>
 5   0  0.3772254E-03  0.1202092E+04  0.7818609E-02  0.9111027E-01
        1   -1    0    0  501    0  0.00000000000E+00  0.00000000000E+00  0.24677250744E+04  0.24677250744E+04  0.50400001928E-02 0. -1.
       -1   -1    0    0    0  501  0.00000000000E+00  0.00000000000E+00 -0.14639244709E+03  0.14639244717E+03  0.50400001928E-02 0.  1.
    10030    2    1    2    0    0  0.00000000000E+00  0.00000000000E+00  0.23213326273E+04  0.26141175216E+04  0.12020920306E+04 0.  0.
        3    1    3    3  502    0 -0.14754632430E+03 -0.28568215011E+02 -0.10487378069E+03  0.18326096366E+03  0.10100000352E+00 0.  1.
       -3    1    3    3    0  502  0.14754632430E+03  0.28568215011E+02  0.24262064080E+04  0.24308565579E+04  0.10100000352E+00 0. -1.
</event>
<event>
 5   0  0.2537625E-03  0.1038616E+04  0.7818609E-02  0.9267177E-01
       -3   -1    0    0    0  501  0.00000000000E+00  0.00000000000E+00  0.12032835514E+04  0.12032835556E+04  0.10100000352E+00 0.  1.
        3   -1    0    0  501    0  0.00000000000E+00  0.00000000000E+00 -0.22412065816E+03  0.22412068092E+03  0.10100000352E+00 0. -1.
    10030    2    1    2    0    0  0.00000000000E+00  0.00000000000E+00  0.97916289322E+03  0.14274042365E+04  0.10386158496E+04 0.  0.
        2    1    3    3  502    0  0.39261082211E+03 -0.15019203770E+03  0.90865125580E+03  0.10011733169E+04  0.25500000920E-02 0.  1.
       -2    1    3    3    0  502 -0.39261082211E+03  0.15019203770E+03  0.70511637416E+02  0.42623091962E+03  0.25500000920E-02 0. -1.
</event>
<event>
 5   0  0.3731281E-03  0.1223981E+04  0.7818609E-02  0.9092122E-01
        1   -1    0    0  501    0  0.00000000000E+00  0.00000000000E+00  0.13729265720E+04  0.13729265720E+04  0.50400001928E-02 0.  1.
       -1   -1    0    0    0  501  0.00000000000E+00  0.00000000000E+00 -0.27279833574E+03  0.27279833579E+03  0.50400001928E-02 0. -1.
    10030    2    1    2    0    0  0.00000000000E+00  0.00000000000E+00  0.11001282363E+04  0.16457249078E+04  0.12239805292E+04 0.  0.
        5    1    3    3  502    0 -0.19646589037E+03  0.79240239566E+02 -0.22190069080E+03  0.30682220946E+03  0.46999998093E+01 0. -1.
       -5    1    3    3    0  502  0.19646589037E+03 -0.79240239566E+02  0.13220289271E+04  0.13389026983E+04  0.46999998093E+01 0.  1.
</event>
<event>
 5   0  0.3772254E-03  0.1205361E+04  0.7818609E-02  0.9108177E-01
        1   -1    0    0  501    0  0.00000000000E+00  0.00000000000E+00  0.11834769583E+04  0.11834769583E+04  0.50400001928E-02 0.  1.
       -1   -1    0    0    0  501  0.00000000000E+00  0.00000000000E+00 -0.30691260393E+03  0.30691260397E+03  0.50400001928E-02 0. -1.
    10030    2    1    2    0    0  0.00000000000E+00  0.00000000000E+00  0.87656435434E+03  0.14903895622E+04  0.12053613483E+04 0.  0.
        3    1    3    3  502    0  0.66925481471E+02 -0.27335437626E+03 -0.22067743491E+03  0.35763134031E+03  0.10100000352E+00 0. -1.
       -3    1    3    3    0  502 -0.66925481471E+02  0.27335437626E+03  0.10972417892E+04  0.11327582219E+04  0.10100000352E+00 0.  1.
</event>
<event>
 5   0  0.6640844E-03  0.1178285E+04  0.7818609E-02  0.9132079E-01
        2   -1    0    0  501    0  0.00000000000E+00  0.00000000000E+00  0.13538799105E+04  0.13538799105E+04  0.25500000920E-02 0. -1.
       -2   -1    0    0    0  501  0.00000000000E+00  0.00000000000E+00 -0.25636600902E+03  0.25636600904E+03  0.25500000920E-02 0.  1.
    10030    2    1    2    0    0  0.00000000000E+00  0.00000000000E+00  0.10975139015E+04  0.16102459196E+04  0.11782848372E+04 0.  0.
        5    1    3    3  502    0  0.56845645048E+03 -0.12277614698E+03  0.67731908928E+03  0.89274854078E+03  0.46999998093E+01 0. -1.
       -5    1    3    3    0  502 -0.56845645048E+03  0.12277614698E+03  0.42019481224E+03  0.71749737880E+03  0.46999998093E+01 0.  1.
</event>
<event>
 5   0  0.3731281E-03  0.1238002E+04  0.7818609E-02  0.9080229E-01
       -1   -1    0    0    0  501  0.00000000000E+00  0.00000000000E+00  0.32014024426E+03  0.32014024430E+03  0.50400001928E-02 0.  1.
        1   -1    0    0  501    0  0.00000000000E+00  0.00000000000E+00 -0.11968574930E+04  0.11968574931E+04  0.50400001928E-02 0. -1.
    10030    2    1    2    0    0  0.00000000000E+00  0.00000000000E+00 -0.87671724879E+03  0.15169977374E+04  0.12380020197E+04 0.  0.
        5    1    3    3  502    0 -0.15663200321E+00 -0.54849661990E+03 -0.86845685039E+02  0.55534928611E+03  0.46999998093E+01 0.  1.
       -5    1    3    3    0  502  0.15663200321E+00  0.54849661990E+03 -0.78987156375E+03  0.96164845125E+03  0.46999998093E+01 0. -1.
</event>
<event>
 5   0  0.6640844E-03  0.1114869E+04  0.7818609E-02  0.9190819E-01
       -2   -1    0    0    0  501  0.00000000000E+00  0.00000000000E+00  0.77377235538E+03  0.77377235539E+03  0.25500000920E-02 0.  1.
        2   -1    0    0  501    0  0.00000000000E+00  0.00000000000E+00 -0.40158256625E+03  0.40158256626E+03  0.25500000920E-02 0. -1.
    10030    2    1    2    0    0  0.00000000000E+00  0.00000000000E+00  0.37218978913E+03  0.11753549216E+04  0.11148694779E+04 0.  0.
        5    1    3    3  502    0 -0.39808917031E+03 -0.12449351959E+03 -0.20374767198E+03  0.46422928363E+03  0.46999998093E+01 0. -1.
       -5    1    3    3    0  502  0.39808917031E+03  0.12449351959E+03  0.57593746111E+03  0.71112563802E+03  0.46999998093E+01 0.  1.
</event>
<event>
 5   0  0.3944074E-03  0.1133214E+04  0.7818609E-02  0.9173410E-01
       -1   -1    0    0    0  501  0.00000000000E+00  0.00000000000E+00  0.58423602586E+03  0.58423602588E+03  0.50400001928E-02 0. -1.
        1   -1    0    0  501    0  0.00000000000E+00  0.00000000000E+00 -0.54951024729E+03  0.54951024731E+03  0.50400001928E-02 0.  1.
    10030    2    1    2    0    0  0.00000000000E+00  0.00000000000E+00  0.34725778574E+02  0.11337462732E+04  0.11332143364E+04 0.  0.
        4    1    3    3  502    0 -0.37174384530E+03 -0.96505620200E+02  0.43413405416E+03  0.57963851764E+03  0.12699999809E+01 0. -1.
       -4    1    3    3    0  502  0.37174384530E+03  0.96505620200E+02 -0.39940827559E+03  0.55410775555E+03  0.12699999809E+01 0.  1.
</event>
<event>
 5   0  0.3731281E-03  0.1214632E+04  0.7818609E-02  0.9100145E-01
        1   -1    0    0  501    0  0.00000000000E+00  0.00000000000E+00  0.16011505932E+04  0.16011505932E+04  0.50400001928E-02 0.  1.
       -1   -1    0    0    0  501  0.00000000000E+00  0.00000000000E+00 -0.23035471476E+03  0.23035471481E+03  0.50400001928E-02 0. -1.
    10030    2    1    2    0    0  0.00000000000E+00  0.00000000000E+00  0.13707958785E+04  0.18315053081E+04  0.12146317767E+04 0.  0.
        5    1    3    3  502    0  0.19101850007E+03 -0.30955720098E+03 -0.47892714914E+02  0.36691896951E+03  0.46999998093E+01 0.  1.
       -5    1    3    3    0  502 -0.19101850007E+03  0.30955720098E+03  0.14186885934E+04  0.14645863386E+04  0.46999998093E+01 0. -1.
</event>
<event>
 5   0  0.6493047E-03  0.7341075E+03  0.7818609E-02  0.9660618E-01
        2   -1    0    0  501    0  0.00000000000E+00  0.00000000000E+00  0.11632483696E+04  0.11632483696E+04  0.25500000920E-02 0. -1.
       -2   -1    0    0    0  501  0.00000000000E+00  0.00000000000E+00 -0.11582088480E+03  0.11582088483E+03  0.25500000920E-02 0.  1.
    10030    2    1    2    0    0  0.00000000000E+00  0.00000000000E+00  0.10474274848E+04  0.12790692544E+04  0.73410750012E+03 0.  0.
        3    1    3    3  502    0  0.40147001216E+00  0.29836589193E+03  0.15121794300E+03  0.33449849496E+03  0.10100000352E+00 0.  1.
       -3    1    3    3    0  502 -0.40147001216E+00 -0.29836589193E+03  0.89620954181E+03  0.94457075949E+03  0.10100000352E+00 0. -1.
</event>
<event>
 5   0  0.6640844E-03  0.1207725E+04  0.7818609E-02  0.9106122E-01
       -2   -1    0    0    0  501  0.00000000000E+00  0.00000000000E+00  0.35544996100E+03  0.35544996101E+03  0.25500000920E-02 0. -1.
        2   -1    0    0  501    0  0.00000000000E+00  0.00000000000E+00 -0.10258826983E+04  0.10258826983E+04  0.25500000920E-02 0.  1.
    10030    2    1    2    0    0  0.00000000000E+00  0.00000000000E+00 -0.67043273735E+03  0.13813326594E+04  0.12077250765E+04 0.  0.
        5    1    3    3  502    0  0.10058483330E+03  0.28902864175E+03 -0.93059496055E+03  0.97963459261E+03  0.46999998093E+01 0.  1.
       -5    1    3    3    0  502 -0.10058483330E+03 -0.28902864175E+03  0.26016222320E+03  0.40169806674E+03  0.46999998093E+01 0. -1.
</event>
<event>
 5   0  0.3731281E-03  0.9863429E+03  0.7818609E-02  0.9323652E-01
       -1   -1    0    0    0  501  0.00000000000E+00  0.00000000000E+00  0.37243448954E+03  0.37243448958E+03  0.50400001928E-02 0.  1.
        1   -1    0    0  501    0  0.00000000000E+00  0.00000000000E+00 -0.65304931662E+03  0.65304931664E+03  0.50400001928E-02 0. -1.
    10030    2    1    2    0    0  0.00000000000E+00  0.00000000000E+00 -0.28061482708E+03  0.10254838062E+04  0.98634291990E+03 0.  0.
        5    1    3    3  502    0  0.36414155571E+03  0.21364145124E+03 -0.40528228100E+03  0.58524999750E+03  0.46999998093E+01 0. -1.
       -5    1    3    3    0  502 -0.36414155571E+03 -0.21364145124E+03  0.12466745392E+03  0.44023380872E+03  0.46999998093E+01 0.  1.
</event>
<event>
 5   0  0.6658994E-03  0.1222217E+04  0.7818609E-02  0.9093629E-01
        2   -1    0    0  501    0  0.00000000000E+00  0.00000000000E+00  0.53819828047E+03  0.53819828047E+03  0.25500000920E-02 0. -1.
       -2   -1    0    0    0  501  0.00000000000E+00  0.00000000000E+00 -0.69389575279E+03  0.69389575280E+03  0.25500000920E-02 0.  1.
    10030    2    1    2    0    0  0.00000000000E+00  0.00000000000E+00 -0.15569747233E+03  0.12320940333E+04  0.12222168400E+04 0.  0.
        4    1    3    3  502    0 -0.48362944099E+03 -0.23032580118E+03 -0.37434203630E+03  0.65351433337E+03  0.12699999809E+01 0.  1.
       -4    1    3    3    0  502  0.48362944099E+03  0.23032580118E+03  0.21864456398E+03  0.57857969990E+03  0.12699999809E+01 0. -1.
</event>
<event>
 5   0  0.3701879E-03  0.1225477E+04  0.7818609E-02  0.9090845E-01
       -1   -1    0    0    0  501  0.00000000000E+00  0.00000000000E+00  0.49596793466E+03  0.49596793469E+03  0.50400001928E-02 0.  1.
        1   -1    0    0  501    0  0.00000000000E+00  0.00000000000E+00 -0.75700103564E+03  0.75700103566E+03  0.50400001928E-02 0. -1.
    10030    2    1    2    0    0  0.00000000000E+00  0.00000000000E+00 -0.26103310098E+03  0.12529689703E+04  0.12254766260E+04 0.  0.
        1    1    3    3  502    0  0.37569544000E+03  0.37405707225E+03 -0.44462598685E+03  0.69192342433E+03  0.50400001928E-02 0. -1.
       -1    1    3    3    0  502 -0.37569544000E+03 -0.37405707225E+03  0.18359288587E+03  0.56104554601E+03  0.50400001928E-02 0.  1.
</event>
<event>
 5   0  0.3648616E-03  0.1100241E+04  0.7818609E-02  0.9204957E-01
        1   -1    0    0  501    0  0.00000000000E+00  0.00000000000E+00  0.34725650357E+03  0.34725650360E+03  0.50400001928E-02 0.  1.
       -1   -1    0    0    0  501  0.00000000000E+00  0.00000000000E+00 -0.87149549965E+03  0.87149549967E+03  0.50400001928E-02 0. -1.
    10030    2    1    2    0    0  0.00000000000E+00  0.00000000000E+00 -0.52423899609E+03  0.12187520033E+04  0.11002408466E+04 0.  0.
        2    1    3    3  502    0 -0.52417279125E+03  0.32086726480E+02 -0.44361497660E+03  0.68744521278E+03  0.25500000920E-02 0.  1.
       -2    1    3    3    0  502  0.52417279125E+03 -0.32086726480E+02 -0.80624019485E+02  0.53130679049E+03  0.25500000920E-02 0. -1.
</event>
<event>
 5   0  0.3944074E-03  0.1145107E+04  0.7818609E-02  0.9162309E-01
        1   -1    0    0  501    0  0.00000000000E+00  0.00000000000E+00  0.92256634857E+03  0.92256634858E+03  0.50400001928E-02 0. -1.
       -1   -1    0    0    0  501  0.00000000000E+00  0.00000000000E+00 -0.35533229931E+03  0.35533229935E+03  0.50400001928E-02 0.  1.
    10030    2    1    2    0    0  0.00000000000E+00  0.00000000000E+00  0.56723404926E+03  0.12778986479E+04  0.11451071949E+04 0.  0.
        4    1    3    3  502    0 -0.22113937663E+03 -0.19343226225E+03 -0.26479434193E+03  0.39552031603E+03  0.12699999809E+01 0.  1.
       -4    1    3    3    0  502  0.22113937663E+03  0.19343226225E+03  0.83202839118E+03  0.88237833190E+03  0.12699999809E+01 0. -1.
</event>
<event>
 5   0  0.3944074E-03  0.1153537E+04  0.7818609E-02  0.9154527E-01
        1   -1    0    0  501    0  0.00000000000E+00  0.00000000000E+00  0.22634811341E+04  0.22634811341E+04  0.50400001928E-02 0. -1.
       -1   -1    0    0    0  501  0.00000000000E+00  0.00000000000E+00 -0.14696920301E+03  0.14696920310E+03  0.50400001928E-02 0.  1.
    10030    2    1    2    0    0  0.00000000000E+00  0.00000000000E+00  0.21165119311E+04  0.24104503372E+04  0.11535372008E+04 0.  0.
        4    1    3    3  502    0  0.39653374849E+03 -0.40916808368E+03  0.12451904804E+04  0.13693642612E+04  0.12699999809E+01 0. -1.
       -4    1    3    3    0  502 -0.39653374849E+03  0.40916808368E+03  0.87132145069E+03  0.10410860760E+04  0.12699999809E+01 0.  1.
</event>
<event>
 5   0  0.3701879E-03  0.1209124E+04  0.7818609E-02  0.9104908E-01
        1   -1    0    0  501    0  0.00000000000E+00  0.00000000000E+00  0.14930853371E+04  0.14930853371E+04  0.50400001928E-02 0. -1.
       -1   -1    0    0    0  501  0.00000000000E+00  0.00000000000E+00 -0.24479183413E+03  0.24479183418E+03  0.50400001928E-02 0.  1.
    10030    2    1    2    0    0  0.00000000000E+00  0.00000000000E+00  0.12482935030E+04  0.17378771713E+04  0.12091238121E+04 0.  0.
        1    1    3    3  502    0 -0.22490974384E+03 -0.50917393707E+03  0.28507542798E+03  0.62538827198E+03  0.50400001928E-02 0.  1.
       -1    1    3    3    0  502  0.22490974384E+03  0.50917393707E+03  0.96321807498E+03  0.11124888993E+04  0.50400001928E-02 0. -1.
</event>
<event>
 5   0  0.3731281E-03  0.1259734E+04  0.7818609E-02  0.9062121E-01
       -1   -1    0    0    0  501  0.00000000000E+00  0.00000000000E+00  0.27922541874E+03  0.27922541878E+03  0.50400001928E-02 0.  1.
        1   -1    0    0  501    0  0.00000000000E+00  0.00000000000E+00 -0.14208314510E+04  0.14208314510E+04  0.50400001928E-02 0. -1.
    10030    2    1    2    0    0  0.00000000000E+00  0.00000000000E+00 -0.11416060323E+04  0.17000568698E+04  0.12597337130E+04 0.  0.
        5    1    3    3  502    0  0.32153671393E+03 -0.54113767126E+03 -0.54079807011E+03  0.82987979871E+03  0.46999998093E+01 0. -1.
       -5    1    3    3    0  502 -0.32153671393E+03  0.54113767126E+03 -0.60080796215E+03  0.87017707109E+03  0.46999998093E+01 0.  1.
</event>
<event>
 5   0  0.6658994E-03  0.8682858E+03  0.7818609E-02  0.9466118E-01
        2   -1    0    0  501    0  0.00000000000E+00  0.00000000000E+00  0.16849764933E+04  0.16849764933E+04  0.25500000920E-02 0.  1.
       -2   -1    0    0    0  501  0.00000000000E+00  0.00000000000E+00 -0.11185915037E+03  0.11185915040E+03  0.25500000920E-02 0. -1.
    10030    2    1    2    0    0  0.00000000000E+00  0.00000000000E+00  0.15731173429E+04  0.17968356437E+04  0.86828575701E+03 0.  0.
        4    1    3    3  502    0 -0.26954010876E+03  0.17154179776E+03  0.17828017135E+03  0.36587414640E+03  0.12699999809E+01 0.  1.
       -4    1    3    3    0  502  0.26954010876E+03 -0.17154179776E+03  0.13948371716E+04  0.14309614973E+04  0.12699999809E+01 0. -1.
</event>
<event>
 5   0  0.3731281E-03  0.1161060E+04  0.7818609E-02  0.9147640E-01
        1   -1    0    0  501    0  0.00000000000E+00  0.00000000000E+00  0.13496493372E+04  0.13496493372E+04  0.50400001928E-02 0.  1.
       -1   -1    0    0    0  501  0.00000000000E+00  0.00000000000E+00 -0.24970580667E+03  0.24970580672E+03  0.50400001928E-02 0. -1.
    10030    2    1    2    0    0  0.00000000000E+00  0.00000000000E+00  0.10999435305E+04  0.15993551439E+04  0.11610603370E+04 0.  0.
        5    1    3    3  502    0  0.67265822102E+02 -0.52510941967E+03  0.22188317422E+03  0.57403730405E+03  0.46999998093E+01 0. -1.
       -5    1    3    3    0  502 -0.67265822102E+02  0.52510941967E+03  0.87806035633E+03  0.10253178399E+04  0.46999998093E+01 0.  1.
</event>
<event>
 5   0  0.6658994E-03  0.1096570E+04  0.7818609E-02  0.9208542E-01
        2   -1    0    0  501    0  0.00000000000E+00  0.00000000000E+00  0.31164301926E+03  0.31164301927E+03  0.25500000920E-02 0. -1.
       -2   -1    0    0    0  501  0.00000000000E+00  0.00000000000E+00 -0.96461712548E+03  0.96461712548E+03  0.25500000920E-02 0.  1.
    10030    2    1    2    0    0  0.00000000000E+00  0.00000000000E+00 -0.65297410622E+03  0.12762601448E+04  0.10965695480E+04 0.  0.
        4    1    3    3  502    0  0.32037871817E+03 -0.27486399790E+03  0.80736114258E+02  0.42978212323E+03  0.12699999809E+01 0. -1.
       -4    1    3    3    0  502 -0.32037871817E+03  0.27486399790E+03 -0.73371022047E+03  0.84647802153E+03  0.12699999809E+01 0.  1.
</event>
<event>
 5   0  0.3701879E-03  0.1187333E+04  0.7818609E-02  0.9124016E-01
       -1   -1    0    0    0  501  0.00000000000E+00  0.00000000000E+00  0.58871134324E+03  0.58871134326E+03  0.50400001928E-02 0.  1.
        1   -1    0    0  501    0  0.00000000000E+00  0.00000000000E+00 -0.59866383543E+03  0.59866383545E+03  0.50400001928E-02 0. -1.
    10030    2    1    2    0    0  0.00000000000E+00  0.00000000000E+00 -0.99524921913E+01  0.11873751787E+04  0.11873334674E+04 0.  0.
        1    1    3    3  502    0 -0.32132837157E+03 -0.46214006482E+03 -0.19370179066E+03  0.59526947311E+03  0.50400001928E-02 0. -1.
       -1    1    3    3    0  502  0.32132837157E+03  0.46214006482E+03  0.18374929847E+03  0.59210570560E+03  0.50400001928E-02 0.  1.
</event>
<event>
 5   0  0.2537625E-03  0.1161310E+04  0.7818609E-02  0.9147413E-01
        3   -1    0    0  501    0  0.00000000000E+00  0.00000000000E+00  0.83596754016E+03  0.83596754626E+03  0.10100000352E+00 0.  1.
       -3   -1    0    0    0  501  0.00000000000E+00  0.00000000000E+00 -0.40331709398E+03  0.40331710663E+03  0.10100000352E+00 0. -1.
    10030    2    1    2    0    0  0.00000000000E+00  0.00000000000E+00  0.43265044618E+03  0.12392846529E+04  0.11613096238E+04 0.  0.
        3    1    3    3  502    0 -0.31975302891E+03  0.62416225840E+02  0.72924555989E+03  0.79870951012E+03  0.10100000352E+00 0.  1.
       -3    1    3    3    0  502  0.31975302891E+03 -0.62416225840E+02 -0.29659511371E+03  0.44057514277E+03  0.10100000352E+00 0. -1.
</event>
<event>
 5   0  0.6349142E-03  0.1232470E+04  0.7818609E-02  0.9084901E-01
       -2   -1    0    0    0  501  0.00000000000E+00  0.00000000000E+00  0.81717893829E+03  0.81717893829E+03  0.25500000920E-02 0.  1.
        2   -1    0    0  501    0  0.00000000000E+00  0.00000000000E+00 -0.46470287198E+03  0.46470287199E+03  0.25500000920E-02 0. -1.
    10030    2    1    2    0    0  0.00000000000E+00  0.00000000000E+00  0.35247606631E+03  0.12818818103E+04  0.12324697149E+04 0.  0.
        1    1    3    3  502    0  0.17581978646E+03  0.53047958831E+03  0.44631009342E+03  0.71520199275E+03  0.50400001928E-02 0.  1.
       -1    1    3    3    0  502 -0.17581978646E+03 -0.53047958831E+03 -0.93834027108E+02  0.56667981753E+03  0.50400001928E-02 0. -1.
</event>
<event>
 5   0  0.3772254E-03  0.1188468E+04  0.7818609E-02  0.9123011E-01
       -1   -1    0    0    0  501  0.00000000000E+00  0.00000000000E+00  0.27409434247E+03  0.27409434252E+03  0.50400001928E-02 0.  1.
        1   -1    0    0  501    0  0.00000000000E+00  0.00000000000E+00 -0.12882935919E+04  0.12882935919E+04  0.50400001928E-02 0. -1.
    10030    2    1    2    0    0  0.00000000000E+00  0.00000000000E+00 -0.10141992494E+04  0.15623879344E+04  0.11884678961E+04 0.  0.
        3    1    3    3  502    0  0.58158706093E+03  0.11398579448E+03 -0.56406552855E+03  0.81817247661E+03  0.10100000352E+00 0.  1.
       -3    1    3    3    0  502 -0.58158706093E+03 -0.11398579448E+03 -0.45013372086E+03  0.74421545781E+03  0.10100000352E+00 0. -1.
</event>
<event>
 5   0  0.6585930E-03  0.1220915E+04  0.7818609E-02  0.9094744E-01
        2   -1    0    0  501    0  0.00000000000E+00  0.00000000000E+00  0.12001231027E+04  0.12001231027E+04  0.25500000920E-02 0. -1.
       -2   -1    0    0    0  501  0.00000000000E+00  0.00000000000E+00 -0.31051680615E+03  0.31051680616E+03  0.25500000920E-02 0.  1.
    10030    2    1    2    0    0  0.00000000000E+00  0.00000000000E+00  0.88960629650E+03  0.15106399088E+04  0.12209150549E+04 0.  0.
        2    1    3    3  502    0 -0.21753389053E+03  0.98598303524E+02 -0.25030896230E+03  0.34597282495E+03  0.25500000920E-02 0.  1.
       -2    1    3    3    0  502  0.21753389053E+03 -0.98598303524E+02  0.11399152588E+04  0.11646670839E+04  0.25500000920E-02 0. -1.
</event>
<event>
 5   0  0.3701879E-03  0.1219258E+04  0.7818609E-02  0.9096165E-01
       -1   -1    0    0    0  501  0.00000000000E+00  0.00000000000E+00  0.24537724550E+03  0.24537724555E+03  0.50400001928E-02 0.  1.
        1   -1    0    0  501    0  0.00000000000E+00  0.00000000000E+00 -0.15145967065E+04  0.15145967065E+04  0.50400001928E-02 0. -1.
    10030    2    1    2    0    0  0.00000000000E+00  0.00000000000E+00 -0.12692194610E+04  0.17599739520E+04  0.12192580825E+04 0.  0.
        1    1    3    3  502    0  0.44639920652E+03 -0.29384331283E+03 -0.10579983227E+04  0.11853170863E+04  0.50400001928E-02 0. -1.
       -1    1    3    3    0  502 -0.44639920652E+03  0.29384331283E+03 -0.21122113821E+03  0.57465686573E+03  0.50400001928E-02 0.  1.
</event>
<event>
 5   0  0.3772254E-03  0.1030270E+04  0.7818609E-02  0.9275954E-01
       -1   -1    0    0    0  501  0.00000000000E+00  0.00000000000E+00  0.16409076249E+03  0.16409076257E+03  0.50400001928E-02 0.  1.
        1   -1    0    0  501    0  0.00000000000E+00  0.00000000000E+00 -0.16171786305E+04  0.16171786305E+04  0.50400001928E-02 0. -1.
    10030    2    1    2    0    0  0.00000000000E+00  0.00000000000E+00 -0.14530878680E+04  0.17812693931E+04  0.10302700125E+04 0.  0.
        3    1    3    3  502    0 -0.26423241927E+03  0.23441798003E+03 -0.78266098507E+02  0.36179573399E+03  0.10100000352E+00 0.  1.
       -3    1    3    3    0  502  0.26423241927E+03 -0.23441798003E+03 -0.13748217695E+04  0.14194736591E+04  0.10100000352E+00 0. -1.
</event>
<event>
 5   0  0.3701879E-03  0.1128465E+04  0.7818609E-02  0.9177884E-01
       -1   -1    0    0    0  501  0.00000000000E+00  0.00000000000E+00  0.38264710239E+03  0.38264710243E+03  0.50400001928E-02 0. -1.
        1   -1    0    0  501    0  0.00000000000E+00  0.00000000000E+00 -0.83198864922E+03  0.83198864924E+03  0.50400001928E-02 0.  1.
    10030    2    1    2    0    0  0.00000000000E+00  0.00000000000E+00 -0.44934154683E+03  0.12146357517E+04  0.11284645247E+04 0.  0.
        1    1    3    3  502    0  0.24624893713E+01  0.52822165879E+03 -0.43814302932E+03  0.68628966103E+03  0.50400001928E-02 0. -1.
       -1    1    3    3    0  502 -0.24624893713E+01 -0.52822165879E+03 -0.11198517511E+02  0.52834609063E+03  0.50400001928E-02 0.  1.
</event>
<event>
 5   0  0.6640844E-03  0.1192054E+04  0.7818609E-02  0.9119841E-01
        2   -1    0    0  501    0  0.00000000000E+00  0.00000000000E+00  0.97786392073E+03  0.97786392073E+03  0.25500000920E-02 0. -1.
       -2   -1    0    0    0  501  0.00000000000E+00  0.00000000000E+00 -0.36328972498E+03  0.36328972499E+03  0.25500000920E-02 0.  1.
    10030    2    1    2    0    0  0.00000000000E+00  0.00000000000E+00  0.61457419574E+03  0.13411536457E+04  0.11920535472E+04 0.  0.
        5    1    3    3  502    0 -0.32900631711E+03  0.23726227963E+03 -0.18400935742E+03  0.44544368853E+03  0.46999998093E+01 0.  1.
       -5    1    3    3    0  502  0.32900631711E+03 -0.23726227963E+03  0.79858355316E+03  0.89570995719E+03  0.46999998093E+01 0. -1.
</event>
<event>
 5   0  0.6493047E-03  0.1105611E+04  0.7818609E-02  0.9199740E-01
        2   -1    0    0  501    0  0.00000000000E+00  0.00000000000E+00  0.19994550541E+04  0.19994550541E+04  0.25500000920E-02 0. -1.
       -2   -1    0    0    0  501  0.00000000000E+00  0.00000000000E+00 -0.15283856534E+03  0.15283856537E+03  0.25500000920E-02 0.  1.
    10030    2    1    2    0    0  0.00000000000E+00  0.00000000000E+00  0.18466164887E+04  0.21522936194E+04  0.11056108573E+04 0.  0.
        3    1    3    3  502    0  0.27634941830E+03 -0.13695140263E+03  0.30221916733E+02  0.30990008410E+03  0.10100000352E+00 0.  1.
       -3    1    3    3    0  502 -0.27634941830E+03  0.13695140263E+03  0.18163945720E+04  0.18423935353E+04  0.10100000352E+00 0. -1.
</event>
<event>
 5   0  0.6349142E-03  0.1189169E+04  0.7818609E-02  0.9122390E-01
        2   -1    0    0  501    0  0.00000000000E+00  0.00000000000E+00  0.73473568046E+03  0.73473568046E+03  0.25500000920E-02 0.  1.
       -2   -1    0    0    0  501  0.00000000000E+00  0.00000000000E+00 -0.48116743069E+03  0.48116743070E+03  0.25500000920E-02 0. -1.
    10030    2    1    2    0    0  0.00000000000E+00  0.00000000000E+00  0.25356824977E+03  0.12159031112E+04  0.11891692556E+04 0.  0.
        1    1    3    3  502    0  0.35033450192E+02  0.56490071320E+03  0.31306301500E+03  0.64679873978E+03  0.50400001928E-02 0. -1.
       -1    1    3    3    0  502 -0.35033450192E+02 -0.56490071320E+03 -0.59494765227E+02  0.56910437137E+03  0.50400001928E-02 0.  1.
</event>
<event>
 5   0  0.3648616E-03  0.1289557E+04  0.7818609E-02  0.9037888E-01
        1   -1    0    0  501    0  0.00000000000E+00  0.00000000000E+00  0.95536048536E+03  0.95536048538E+03  0.50400001928E-02 0. -1.
       -1   -1    0    0    0  501  0.00000000000E+00  0.00000000000E+00 -0.43516459815E+03  0.43516459818E+03  0.50400001928E-02 0.  1.
    10030    2    1    2    0    0  0.00000000000E+00  0.00000000000E+00  0.52019588721E+03  0.13905250836E+04  0.12895566087E+04 0.  0.
        2    1    3    3  502    0  0.28492890172E+03 -0.49306340389E+03 -0.65974274004E+02  0.57327881884E+03  0.25500000920E-02 0.  1.
       -2    1    3    3    0  502 -0.28492890172E+03  0.49306340389E+03  0.58617016122E+03  0.81724626472E+03  0.25500000920E-02 0. -1.
</event>
<event>
 5   0  0.3701879E-03  0.1215552E+04  0.7818609E-02  0.9099352E-01
        1   -1    0    0  501    0  0.00000000000E+00  0.00000000000E+00  0.67269072638E+03  0.67269072639E+03  0.50400001928E-02 0.  1.
       -1   -1    0    0    0  501  0.00000000000E+00  0.00000000000E+00 -0.54912547553E+03  0.54912547555E+03  0.50400001928E-02 0. -1.
    10030    2    1    2    0    0  0.00000000000E+00  0.00000000000E+00  0.12356525085E+03  0.12218162019E+04  0.12155519158E+04 0.  0.
        1    1    3    3  502    0  0.24536426053E+02 -0.56634387354E+03 -0.15853682080E+03  0.58862665832E+03  0.50400001928E-02 0. -1.
       -1    1    3    3    0  502 -0.24536426053E+02  0.56634387354E+03  0.28210207165E+03  0.63318954363E+03  0.50400001928E-02 0.  1.
</event>
<event>
 5   0  0.6640844E-03  0.1203727E+04  0.7818609E-02  0.9109600E-01
       -2   -1    0    0    0  501  0.00000000000E+00  0.00000000000E+00  0.23926029852E+03  0.23926029853E+03  0.25500000920E-02 0. -1.
        2   -1    0    0  501    0  0.00000000000E+00  0.00000000000E+00 -0.15139992812E+04  0.15139992812E+04  0.25500000920E-02 0.  1.
    10030    2    1    2    0    0  0.00000000000E+00  0.00000000000E+00 -0.12747389827E+04  0.17532595798E+04  0.12037274110E+04 0.  0.
        5    1    3    3  502    0 -0.27495741489E+03  0.29050451525E+03 -0.12923581033E+04  0.13528510674E+04  0.46999998093E+01 0.  1.
       -5    1    3    3    0  502  0.27495741489E+03 -0.29050451525E+03  0.17619120571E+02  0.40040851239E+03  0.46999998093E+01 0. -1.
</event>
<event>
 5   0  0.3772254E-03  0.1179435E+04  0.7818609E-02  0.9131050E-01
       -1   -1    0    0    0  501  0.00000000000E+00  0.00000000000E+00  0.21955219673E+03  0.21955219679E+03  0.50400001928E-02 0. -1.
        1   -1    0    0  501    0  0.00000000000E+00  0.00000000000E+00 -0.15839823983E+04  0.15839823983E+04  0.50400001928E-02 0.  1.
    10030    2    1    2    0    0  0.00000000000E+00  0.00000000000E+00 -0.13644302016E+04  0.18035345951E+04  0.11794351448E+04 0.  0.
        3    1    3    3  502    0  0.31415591480E+02  0.31342045102E+03  0.80136120442E+02  0.32502480906E+03  0.10100000352E+00 0. -1.
       -3    1    3    3    0  502 -0.31415591480E+02 -0.31342045102E+03 -0.14445663220E+04  0.14785097861E+04  0.10100000352E+00 0.  1.
</event>
<event>
 5   0  0.3944074E-03  0.1063238E+04  0.7818609E-02  0.9241782E-01
        1   -1    0    0  501    0  0.00000000000E+00  0.00000000000E+00  0.73996129558E+03  0.73996129560E+03  0.50400001928E-02 0.  1.
       -1   -1    0    0    0  501  0.00000000000E+00  0.00000000000E+00 -0.38193736935E+03  0.38193736938E+03  0.50400001928E-02 0. -1.
    10030    2    1    2    0    0  0.00000000000E+00  0.00000000000E+00  0.35802392623E+03  0.11218986650E+04  0.10632382060E+04 0.  0.
        4    1    3    3  502    0 -0.27902782013E+03  0.45250467781E+03  0.17848444238E+03  0.56078098837E+03  0.12699999809E+01 0. -1.
       -4    1    3    3    0  502  0.27902782013E+03 -0.45250467781E+03  0.17953948385E+03  0.56111767661E+03  0.12699999809E+01 0.  1.
</event>
<event>
 5   0  0.6493047E-03  0.1168029E+04  0.7818609E-02  0.9141310E-01
        2   -1    0    0  501    0  0.00000000000E+00  0.00000000000E+00  0.17401824522E+04  0.17401824522E+04  0.25500000920E-02 0.  1.
       -2   -1    0    0    0  501  0.00000000000E+00  0.00000000000E+00 -0.19599847026E+03  0.19599847028E+03  0.25500000920E-02 0. -1.
    10030    2    1    2    0    0  0.00000000000E+00  0.00000000000E+00  0.15441839820E+04  0.19361809225E+04  0.11680292781E+04 0.  0.
        3    1    3    3  502    0  0.46530464987E+03  0.32374069266E+03  0.10050881156E+04  0.11539144611E+04  0.10100000352E+00 0.  1.
       -3    1    3    3    0  502 -0.46530464987E+03 -0.32374069266E+03  0.53909586641E+03  0.78226646141E+03  0.10100000352E+00 0. -1.
</event>
<event>
 5   0  0.3731281E-03  0.1115932E+04  0.7818609E-02  0.9189801E-01
       -1   -1    0    0    0  501  0.00000000000E+00  0.00000000000E+00  0.34479497790E+03  0.34479497793E+03  0.50400001928E-02 0.  1.
        1   -1    0    0  501    0  0.00000000000E+00  0.00000000000E+00 -0.90293030163E+03  0.90293030164E+03  0.50400001928E-02 0. -1.
    10030    2    1    2    0    0  0.00000000000E+00  0.00000000000E+00 -0.55813532373E+03  0.12477252796E+04  0.11159315990E+04 0.  0.
        5    1    3    3  502    0 -0.25908363224E+03  0.49170502461E+03 -0.33390692820E+03  0.64839346574E+03  0.46999998093E+01 0. -1.
       -5    1    3    3    0  502  0.25908363224E+03 -0.49170502461E+03 -0.22422839553E+03  0.59933181384E+03  0.46999998093E+01 0.  1.
</event>
<event>
 5   0  0.6640844E-03  0.1189046E+04  0.7818609E-02  0.9122499E-01
        2   -1    0    0  501    0  0.00000000000E+00  0.00000000000E+00  0.21501760944E+04  0.21501760944E+04  0.25500000920E-02 0.  1.
       -2   -1    0    0    0  501  0.00000000000E+00  0.00000000000E+00 -0.16438532114E+03  0.16438532116E+03  0.25500000920E-02 0. -1.
    10030    2    1    2    0    0  0.00000000000E+00  0.00000000000E+00  0.19857907733E+04  0.23145614156E+04  0.11890456473E+04 0.  0.
        5    1    3    3  502    0 -0.14134452705E+03  0.57244430018E+03  0.84510277482E+03  0.10304812187E+04  0.46999998093E+01 0. -1.
       -5    1    3    3    0  502  0.14134452705E+03 -0.57244430018E+03  0.11406879985E+04  0.12840801969E+04  0.46999998093E+01 0.  1.
</event>
<event>
 5   0  0.6658994E-03  0.1224744E+04  0.7818609E-02  0.9091469E-01
        2   -1    0    0  501    0  0.00000000000E+00  0.00000000000E+00  0.24505912153E+03  0.24505912155E+03  0.25500000920E-02 0. -1.
       -2   -1    0    0    0  501  0.00000000000E+00  0.00000000000E+00 -0.15302417047E+04  0.15302417047E+04  0.25500000920E-02 0.  1.
    10030    2    1    2    0    0  0.00000000000E+00  0.00000000000E+00 -0.12851825831E+04  0.17753008262E+04  0.12247443617E+04 0.  0.
        4    1    3    3  502    0 -0.22192217228E+02  0.21356262804E+03  0.18870566028E+03  0.28585473535E+03  0.12699999809E+01 0. -1.
       -4    1    3    3    0  502  0.22192217228E+02 -0.21356262804E+03 -0.14738882434E+04  0.14894460909E+04  0.12699999809E+01 0.  1.
</event>
<event>
 5   0  0.6349142E-03  0.1188298E+04  0.7818609E-02  0.9123162E-01
       -2   -1    0    0    0  501  0.00000000000E+00  0.00000000000E+00  0.40105849545E+03  0.40105849546E+03  0.25500000920E-02 0. -1.
        2   -1    0    0  501    0  0.00000000000E+00  0.00000000000E+00 -0.88020272847E+03  0.88020272848E+03  0.25500000920E-02 0.  1.
    10030    2    1    2    0    0  0.00000000000E+00  0.00000000000E+00 -0.47914423302E+03  0.12812612239E+04  0.11882975755E+04 0.  0.
        1    1    3    3  502    0 -0.49580308020E+03  0.80801975431E+02  0.10252363714E+03  0.51269947315E+03  0.50400001928E-02 0. -1.
       -1    1    3    3    0  502  0.49580308020E+03 -0.80801975431E+02 -0.58166787016E+03  0.76856175079E+03  0.50400001928E-02 0.  1.
</event>
<event>
 5   0  0.6349142E-03  0.1184011E+04  0.7818609E-02  0.9126968E-01
        2   -1    0    0  501    0  0.00000000000E+00  0.00000000000E+00  0.49057045079E+03  0.49057045079E+03  0.25500000920E-02 0.  1.
       -2   -1    0    0    0  501  0.00000000000E+00  0.00000000000E+00 -0.71441474339E+03  0.71441474340E+03  0.25500000920E-02 0. -1.
    10030    2    1    2    0    0  0.00000000000E+00  0.00000000000E+00 -0.22384429260E+03  0.12049851942E+04  0.11840114235E+04 0.  0.
        1    1    3    3  502    0 -0.53023254914E+03  0.20679969034E+03 -0.27777550657E+03  0.63330237657E+03  0.50400001928E-02 0.  1.
       -1    1    3    3    0  502  0.53023254914E+03 -0.20679969034E+03  0.53931213965E+02  0.57168281762E+03  0.50400001928E-02 0. -1.
</event>
<event>
 5   0  0.3648616E-03  0.1208254E+04  0.7818609E-02  0.9105662E-01
       -1   -1    0    0    0  501  0.00000000000E+00  0.00000000000E+00  0.26425898999E+03  0.26425899004E+03  0.50400001928E-02 0. -1.
        1   -1    0    0  501    0  0.00000000000E+00  0.00000000000E+00 -0.13811047730E+04  0.13811047730E+04  0.50400001928E-02 0.  1.
    10030    2    1    2    0    0  0.00000000000E+00  0.00000000000E+00 -0.11168457830E+04  0.16453637630E+04  0.12082538681E+04 0.  0.
        2    1    3    3  502    0 -0.16349137033E+03 -0.55281830849E+03 -0.31242888312E+03  0.65570520616E+03  0.25500000920E-02 0.  1.
       -2    1    3    3    0  502  0.16349137033E+03  0.55281830849E+03 -0.80441689986E+03  0.98965855686E+03  0.25500000920E-02 0. -1.
</event>
<event>
 5   0  0.6349142E-03  0.1224688E+04  0.7818609E-02  0.9091518E-01
       -2   -1    0    0    0  501  0.00000000000E+00  0.00000000000E+00  0.50795742542E+03  0.50795742543E+03  0.25500000920E-02 0.  1.
        2   -1    0    0  501    0  0.00000000000E+00  0.00000000000E+00 -0.73818211167E+03  0.73818211167E+03  0.25500000920E-02 0. -1.
    10030    2    1    2    0    0  0.00000000000E+00  0.00000000000E+00 -0.23022468625E+03  0.12461395371E+04  0.12246878540E+04 0.  0.
        1    1    3    3  502    0 -0.66417375226E+02  0.19334142547E+03 -0.70243412263E+03  0.73157765903E+03  0.50400001928E-02 0. -1.
       -1    1    3    3    0  502  0.66417375226E+02 -0.19334142547E+03  0.47220943638E+03  0.51456187807E+03  0.50400001928E-02 0.  1.
</event>
<event>
 5   0  0.3731281E-03  0.1181805E+04  0.7818609E-02  0.9128934E-01
       -1   -1    0    0    0  501  0.00000000000E+00  0.00000000000E+00  0.58270188338E+03  0.58270188340E+03  0.50400001928E-02 0. -1.
        1   -1    0    0  501    0  0.00000000000E+00  0.00000000000E+00 -0.59921816181E+03  0.59921816183E+03  0.50400001928E-02 0.  1.
    10030    2    1    2    0    0  0.00000000000E+00  0.00000000000E+00 -0.16516278429E+02  0.11819200452E+04  0.11818046395E+04 0.  0.
        5    1    3    3  502    0 -0.53826555441E+03 -0.13108609425E+03 -0.21377781811E+03  0.59383197681E+03  0.46999998093E+01 0.  1.
       -5    1    3    3    0  502  0.53826555441E+03  0.13108609425E+03  0.19726153968E+03  0.58808806841E+03  0.46999998093E+01 0. -1.
</event>
<event>
 5   0  0.3772254E-03  0.9617122E+03  0.7818609E-02  0.9351565E-01
       -1   -1    0    0    0  501  0.00000000000E+00  0.00000000000E+00  0.38417666052E+03  0.38417666056E+03  0.50400001928E-02 0.  1.
        1   -1    0    0  501    0  0.00000000000E+00  0.00000000000E+00 -0.60186524136E+03  0.60186524138E+03  0.50400001928E-02 0. -1.
    10030    2    1    2    0    0  0.00000000000E+00  0.00000000000E+00 -0.21768858084E+03  0.98604190194E+03  0.96171217844E+03 0.  0.
        3    1    3    3  502    0  0.76994330941E+02  0.38291776957E+03  0.17873027850E+03  0.42953308126E+03  0.10100000352E+00 0.  1.
       -3    1    3    3    0  502 -0.76994330941E+02 -0.38291776957E+03 -0.39641885934E+03  0.55650882068E+03  0.10100000352E+00 0. -1.
</event>
<event>
 5   0  0.6658994E-03  0.1043193E+04  0.7818609E-02  0.9262400E-01
        2   -1    0    0  501    0  0.00000000000E+00  0.00000000000E+00  0.16120806967E+04  0.16120806967E+04  0.25500000920E-02 0. -1.
       -2   -1    0    0    0  501  0.00000000000E+00  0.00000000000E+00 -0.16876517879E+03  0.16876517881E+03  0.25500000920E-02 0.  1.
    10030    2    1    2    0    0  0.00000000000E+00  0.00000000000E+00  0.14433155179E+04  0.17808458755E+04  0.10431933416E+04 0.  0.
        4    1    3    3  502    0 -0.45349152847E+03 -0.41726406880E+02  0.11557668741E+04  0.12422537340E+04  0.12699999809E+01 0. -1.
       -4    1    3    3    0  502  0.45349152847E+03  0.41726406880E+02  0.28754864375E+03  0.53859214147E+03  0.12699999809E+01 0.  1.
</event>
<event>
 5   0  0.3944074E-03  0.1182469E+04  0.7818609E-02  0.9128341E-01
       -1   -1    0    0    0  501  0.00000000000E+00  0.00000000000E+00  0.74436013482E+03  0.74436013484E+03  0.50400001928E-02 0. -1.
        1   -1    0    0  501    0  0.00000000000E+00  0.00000000000E+00 -0.46960936659E+03  0.46960936661E+03  0.50400001928E-02 0.  1.
    10030    2    1    2    0    0  0.00000000000E+00  0.00000000000E+00  0.27475076823E+03  0.12139695014E+04  0.11824694355E+04 0.  0.
        4    1    3    3  502    0 -0.48591927460E+03 -0.13009253208E+03 -0.18156966689E+03  0.53479974304E+03  0.12699999809E+01 0.  1.
       -4    1    3    3    0  502  0.48591927460E+03  0.13009253208E+03  0.45632043512E+03  0.67916975841E+03  0.12699999809E+01 0. -1.
</event>
<event>
 5   0  0.6493047E-03  0.1144091E+04  0.7818609E-02  0.9163252E-01
        2   -1    0    0  501    0  0.00000000000E+00  0.00000000000E+00  0.13377783720E+04  0.13377783720E+04  0.25500000920E-02 0.  1.
       -2   -1    0    0    0  501  0.00000000000E+00  0.00000000000E+00 -0.24461154299E+03  0.24461154300E+03  0.25500000920E-02 0. -1.
    10030    2    1    2    0    0  0.00000000000E+00  0.00000000000E+00  0.10931668290E+04  0.15823899150E+04  0.11440909610E+04 0.  0.
        3    1    3    3  502    0 -0.73393026390E+02 -0.54104179881E+03  0.31055030671E+03  0.62813554873E+03  0.10100000352E+00 0.  1.
       -3    1    3    3    0  502  0.73393026390E+02  0.54104179881E+03  0.78261652232E+03  0.95425436629E+03  0.10100000352E+00 0. -1.
</event>
<event>
 5   0  0.6493047E-03  0.1159058E+04  0.7818609E-02  0.9149468E-01
       -2   -1    0    0    0  501  0.00000000000E+00  0.00000000000E+00  0.33228161435E+03  0.33228161436E+03  0.25500000920E-02 0. -1.
        2   -1    0    0  501    0  0.00000000000E+00  0.00000000000E+00 -0.10107499958E+04  0.10107499958E+04  0.25500000920E-02 0.  1.
    10030    2    1    2    0    0  0.00000000000E+00  0.00000000000E+00 -0.67846838144E+03  0.13430316101E+04  0.11590576177E+04 0.  0.
        3    1    3    3  502    0  0.44550917345E+03 -0.17616437771E+03  0.38626948192E+02  0.48062913242E+03  0.10100000352E+00 0. -1.
       -3    1    3    3    0  502 -0.44550917345E+03  0.17616437771E+03 -0.71709532963E+03  0.86240247772E+03  0.10100000352E+00 0.  1.
</event>
<event>
 5   0  0.6493047E-03  0.1201924E+04  0.7818609E-02  0.9111174E-01
        2   -1    0    0  501    0  0.00000000000E+00  0.00000000000E+00  0.85572399511E+03  0.85572399511E+03  0.25500000920E-02 0. -1.
       -2   -1    0    0    0  501  0.00000000000E+00  0.00000000000E+00 -0.42204655330E+03  0.42204655331E+03  0.25500000920E-02 0.  1.
    10030    2    1    2    0    0  0.00000000000E+00  0.00000000000E+00  0.43367744180E+03  0.12777705484E+04  0.12019240620E+04 0.  0.
        3    1    3    3  502    0 -0.54464264304E+03 -0.24458215868E+03  0.14396130518E+03  0.61415055853E+03  0.10100000352E+00 0. -1.
       -3    1    3    3    0  502  0.54464264304E+03  0.24458215868E+03  0.28971613663E+03  0.66361998989E+03  0.10100000352E+00 0.  1.
</event>
<event>
 5   0  0.3648616E-03  0.1226560E+04  0.7818609E-02  0.9089921E-01
       -1   -1    0    0    0  501  0.00000000000E+00  0.00000000000E+00  0.70415274939E+03  0.70415274940E+03  0.50400001928E-02 0. -1.
        1   -1    0    0  501    0  0.00000000000E+00  0.00000000000E+00 -0.53413502166E+03  0.53413502168E+03  0.50400001928E-02 0.  1.
    10030    2    1    2    0    0  0.00000000000E+00  0.00000000000E+00  0.17001772773E+03  0.12382877711E+04  0.12265604658E+04 0.  0.
        2    1    3    3  502    0 -0.28286966131E+03 -0.27321435872E+03 -0.39007660951E+03  0.55391433669E+03  0.25500000920E-02 0.  1.
       -2    1    3    3    0  502  0.28286966131E+03  0.27321435872E+03  0.56009433723E+03  0.68437343440E+03  0.25500000920E-02 0. -1.
</event>
<event>
 5   0  0.6640844E-03  0.1218890E+04  0.7818609E-02  0.9096481E-01
       -2   -1    0    0    0  501  0.00000000000E+00  0.00000000000E+00  0.22633314938E+03  0.22633314939E+03  0.25500000920E-02 0.  1.
        2   -1    0    0  501    0  0.00000000000E+00  0.00000000000E+00 -0.16410453797E+04  0.16410453797E+04  0.25500000920E-02 0. -1.
    10030    2    1    2    0    0  0.00000000000E+00  0.00000000000E+00 -0.14147122303E+04  0.18673785291E+04  0.12188896079E+04 0.  0.
        5    1    3    3  502    0 -0.40043797663E+03 -0.37305305279E+03 -0.11181057957E+04  0.12448701996E+04  0.46999998093E+01 0. -1.
       -5    1    3    3    0  502  0.40043797663E+03  0.37305305279E+03 -0.29660643463E+03  0.62250832957E+03  0.46999998093E+01 0.  1.
</event>
<event>
 5   0  0.6640844E-03  0.1193337E+04  0.7818609E-02  0.9118709E-01
        2   -1    0    0  501    0  0.00000000000E+00  0.00000000000E+00  0.83953576482E+03  0.83953576482E+03  0.25500000920E-02 0. -1.
       -2   -1    0    0    0  501  0.00000000000E+00  0.00000000000E+00 -0.42405951271E+03  0.42405951272E+03  0.25500000920E-02 0.  1.
    10030    2    1    2    0    0  0.00000000000E+00  0.00000000000E+00  0.41547625211E+03  0.12635952775E+04  0.11933367125E+04 0.  0.
        5    1    3    3  502    0 -0.38801358498E+03  0.29455541703E+03 -0.15703434375E+03  0.51185868259E+03  0.46999998093E+01 0.  1.
       -5    1    3    3    0  502  0.38801358498E+03 -0.29455541703E+03  0.57251059585E+03  0.75173659495E+03  0.46999998093E+01 0. -1.
</event>
<event>
 5   0  0.6658994E-03  0.1198059E+04  0.7818609E-02  0.9114557E-01
       -2   -1    0    0    0  501  0.00000000000E+00  0.00000000000E+00  0.28477505890E+03  0.28477505891E+03  0.25500000920E-02 0.  1.
        2   -1    0    0  501    0  0.00000000000E+00  0.00000000000E+00 -0.12600700276E+04  0.12600700276E+04  0.25500000920E-02 0. -1.
    10030    2    1    2    0    0  0.00000000000E+00  0.00000000000E+00 -0.97529496865E+03  0.15448450865E+04  0.11980592912E+04 0.  0.
        4    1    3    3  502    0  0.62779485486E+02 -0.72603622431E+02 -0.12500884459E+04  0.12537684336E+04  0.12699999809E+01 0. -1.
       -4    1    3    3    0  502 -0.62779485486E+02  0.72603622431E+02  0.27479347723E+03  0.29107665282E+03  0.12699999809E+01 0.  1.
</event>
<event>
 5   0  0.6658994E-03  0.1221713E+04  0.7818609E-02  0.9094060E-01
        2   -1    0    0  501    0  0.00000000000E+00  0.00000000000E+00  0.88210662784E+03  0.88210662784E+03  0.25500000920E-02 0.  1.
       -2   -1    0    0    0  501  0.00000000000E+00  0.00000000000E+00 -0.42301683525E+03  0.42301683526E+03  0.25500000920E-02 0. -1.
    10030    2    1    2    0    0  0.00000000000E+00  0.00000000000E+00  0.45908979259E+03  0.13051234631E+04  0.12217134755E+04 0.  0.
        4    1    3    3  502    0  0.37298367497E+03  0.31925747097E+03 -0.15872814392E+03  0.51598293687E+03  0.12699999809E+01 0. -1.
       -4    1    3    3    0  502 -0.37298367497E+03 -0.31925747097E+03  0.61781793651E+03  0.78914052623E+03  0.12699999809E+01 0.  1.
</event>
<event>
 5   0  0.3648616E-03  0.1204775E+04  0.7818609E-02  0.9108687E-01
       -1   -1    0    0    0  501  0.00000000000E+00  0.00000000000E+00  0.29667547955E+03  0.29667547959E+03  0.50400001928E-02 0. -1.
        1   -1    0    0  501    0  0.00000000000E+00  0.00000000000E+00 -0.12231242808E+04  0.12231242808E+04  0.50400001928E-02 0.  1.
    10030    2    1    2    0    0  0.00000000000E+00  0.00000000000E+00 -0.92644880122E+03  0.15197997604E+04  0.12047754688E+04 0.  0.
        2    1    3    3  502    0  0.41268423207E+03  0.43821807897E+03 -0.49220063087E+03  0.77756338723E+03  0.25500000920E-02 0. -1.
       -2    1    3    3    0  502 -0.41268423207E+03 -0.43821807897E+03 -0.43424817035E+03  0.74223637313E+03  0.25500000920E-02 0.  1.
</event>
<event>
 5   0  0.6493047E-03  0.1196106E+04  0.7818609E-02  0.9116272E-01
        2   -1    0    0  501    0  0.00000000000E+00  0.00000000000E+00  0.68630812578E+03  0.68630812579E+03  0.25500000920E-02 0. -1.
       -2   -1    0    0    0  501  0.00000000000E+00  0.00000000000E+00 -0.52114707565E+03  0.52114707566E+03  0.25500000920E-02 0.  1.
    10030    2    1    2    0    0  0.00000000000E+00  0.00000000000E+00  0.16516105013E+03  0.12074552014E+04  0.11961061370E+04 0.  0.
        3    1    3    3  502    0 -0.21778184593E+03 -0.54175417183E+03  0.21319500469E+03  0.62159362556E+03  0.10100000352E+00 0. -1.
       -3    1    3    3    0  502  0.21778184593E+03  0.54175417183E+03 -0.48033954562E+02  0.58586157589E+03  0.10100000352E+00 0.  1.
</event>
<event>
 5   0  0.3944074E-03  0.1255926E+04  0.7818609E-02  0.9065266E-01
       -1   -1    0    0    0  501  0.00000000000E+00  0.00000000000E+00  0.78800012493E+03  0.78800012495E+03  0.50400001928E-02 0.  1.
        1   -1    0    0  501    0  0.00000000000E+00  0.00000000000E+00 -0.50042819146E+03  0.50042819148E+03  0.50400001928E-02 0. -1.
    10030    2    1    2    0    0  0.00000000000E+00  0.00000000000E+00  0.28757193347E+03  0.12884283164E+04  0.12559259173E+04 0.  0.
        4    1    3    3  502    0 -0.90150654529E+02 -0.48249481692E+01  0.78130651673E+03  0.78650613896E+03  0.12699999809E+01 0.  1.
       -4    1    3    3    0  502  0.90150654529E+02  0.48249481692E+01 -0.49373458325E+03  0.50192217747E+03  0.12699999809E+01 0. -1.
</event>
<event>
 5   0  0.6349142E-03  0.1217368E+04  0.7818609E-02  0.9097789E-01
       -2   -1    0    0    0  501  0.00000000000E+00  0.00000000000E+00  0.47907761064E+03  0.47907761065E+03  0.25500000920E-02 0. -1.
        2   -1    0    0  501    0  0.00000000000E+00  0.00000000000E+00 -0.77335314847E+03  0.77335314847E+03  0.25500000920E-02 0.  1.
    10030    2    1    2    0    0  0.00000000000E+00  0.00000000000E+00 -0.29427553782E+03  0.12524307591E+04  0.12173679453E+04 0.  0.
        1    1    3    3  502    0 -0.57667300172E+03 -0.19372223125E+03 -0.16812444372E+03  0.63114648251E+03  0.50400001928E-02 0.  1.
       -1    1    3    3    0  502  0.57667300172E+03  0.19372223125E+03 -0.12615109411E+03  0.62128427661E+03  0.50400001928E-02 0. -1.
</event>
<event>
 5   0  0.6585930E-03  0.1206498E+04  0.7818609E-02  0.9107188E-01
        2   -1    0    0  501    0  0.00000000000E+00  0.00000000000E+00  0.11578561362E+04  0.11578561362E+04  0.25500000920E-02 0. -1.
       -2   -1    0    0    0  501  0.00000000000E+00  0.00000000000E+00 -0.31429586417E+03  0.31429586418E+03  0.25500000920E-02 0.  1.
    10030    2    1    2    0    0  0.00000000000E+00  0.00000000000E+00  0.84356027202E+03  0.14721520004E+04  0.12064980645E+04 0.  0.
        2    1    3    3  502    0 -0.43881866894E+03  0.73058576557E+02 -0.75376417224E+02  0.45119949479E+03  0.25500000920E-02 0.  1.
       -2    1    3    3    0  502  0.43881866894E+03 -0.73058576557E+02  0.91893668924E+03  0.10209525056E+04  0.25500000920E-02 0. -1.
</event>
<event>
 5   0  0.3944074E-03  0.1258708E+04  0.7818609E-02  0.9062967E-01
       -1   -1    0    0    0  501  0.00000000000E+00  0.00000000000E+00  0.53537243324E+03  0.53537243326E+03  0.50400001928E-02 0.  1.
        1   -1    0    0  501    0  0.00000000000E+00  0.00000000000E+00 -0.73983363128E+03  0.73983363130E+03  0.50400001928E-02 0. -1.
    10030    2    1    2    0    0  0.00000000000E+00  0.00000000000E+00 -0.20446119804E+03  0.12752060646E+04  0.12587081177E+04 0.  0.
        4    1    3    3  502    0  0.13340158630E+03  0.30379462752E+03 -0.64402766877E+03  0.72447250464E+03  0.12699999809E+01 0. -1.
       -4    1    3    3    0  502 -0.13340158630E+03 -0.30379462752E+03  0.43956647072E+03  0.55073355992E+03  0.12699999809E+01 0.  1.
</event>
<event>
 5   0  0.3648616E-03  0.8056447E+03  0.7818609E-02  0.9551882E-01
       -1   -1    0    0    0  501  0.00000000000E+00  0.00000000000E+00  0.41497110461E+03  0.41497110464E+03  0.50400001928E-02 0.  1.
        1   -1    0    0  501    0  0.00000000000E+00  0.00000000000E+00 -0.39102925985E+03  0.39102925989E+03  0.50400001928E-02 0. -1.
    10030    2    1    2    0    0  0.00000000000E+00  0.00000000000E+00  0.23941844754E+02  0.80600036453E+03  0.80564469568E+03 0.  0.
        2    1    3    3  502    0 -0.34558354811E+03 -0.12490767342E+03 -0.15313504775E+03  0.39809579055E+03  0.25500000920E-02 0. -1.
       -2    1    3    3    0  502  0.34558354811E+03  0.12490767342E+03  0.17707689250E+03  0.40790457397E+03  0.25500000920E-02 0.  1.
</event>
<event>
 5   0  0.6658994E-03  0.1232489E+04  0.7818609E-02  0.9084885E-01
        2   -1    0    0  501    0  0.00000000000E+00  0.00000000000E+00  0.96148655141E+03  0.96148655141E+03  0.25500000920E-02 0.  1.
       -2   -1    0    0    0  501  0.00000000000E+00  0.00000000000E+00 -0.39496883185E+03  0.39496883186E+03  0.25500000920E-02 0. -1.
    10030    2    1    2    0    0  0.00000000000E+00  0.00000000000E+00  0.56651771956E+03  0.13564553833E+04  0.12324888966E+04 0.  0.
        4    1    3    3  502    0  0.12804039419E+03 -0.59971076860E+03  0.35027933557E+03  0.70621850326E+03  0.12699999809E+01 0.  1.
       -4    1    3    3    0  502 -0.12804039419E+03  0.59971076860E+03  0.21623838399E+03  0.65023688001E+03  0.12699999809E+01 0. -1.
</event>
<event>
 5   0  0.6658994E-03  0.1205425E+04  0.7818609E-02  0.9108122E-01
        2   -1    0    0  501    0  0.00000000000E+00  0.00000000000E+00  0.58162621233E+03  0.58162621233E+03  0.25500000920E-02 0. -1.
       -2   -1    0    0    0  501  0.00000000000E+00  0.00000000000E+00 -0.62456286628E+03  0.62456286628E+03  0.25500000920E-02 0.  1.
    10030    2    1    2    0    0  0.00000000000E+00  0.00000000000E+00 -0.42936653951E+02  0.12061890786E+04  0.12054246294E+04 0.  0.
        4    1    3    3  502    0 -0.33139359544E+03  0.50272281842E+03  0.51676096465E+01  0.60214638117E+03  0.12699999809E+01 0.  1.
       -4    1    3    3    0  502  0.33139359544E+03 -0.50272281842E+03 -0.48104263597E+02  0.60404269745E+03  0.12699999809E+01 0. -1.
</event>
<event>
 5   0  0.3944074E-03  0.1241406E+04  0.7818609E-02  0.9077366E-01
        1   -1    0    0  501    0  0.00000000000E+00  0.00000000000E+00  0.71515327976E+03  0.71515327978E+03  0.50400001928E-02 0.  1.
       -1   -1    0    0    0  501  0.00000000000E+00  0.00000000000E+00 -0.53872709539E+03  0.53872709541E+03  0.50400001928E-02 0. -1.
    10030    2    1    2    0    0  0.00000000000E+00  0.00000000000E+00  0.17642618437E+03  0.12538803752E+04  0.12414063786E+04 0.  0.
        4    1    3    3  502    0  0.17262898149E+03 -0.46452881177E+03 -0.28928433290E+03  0.57382472966E+03  0.12699999809E+01 0. -1.
       -4    1    3    3    0  502 -0.17262898149E+03  0.46452881177E+03  0.46571051727E+03  0.68005564553E+03  0.12699999809E+01 0.  1.
</event>
<event>
 5   0  0.3648616E-03  0.1191742E+04  0.7818609E-02  0.9120115E-01
        1   -1    0    0  501    0  0.00000000000E+00  0.00000000000E+00  0.12910671498E+04  0.12910671498E+04  0.50400001928E-02 0.  1.
       -1   -1    0    0    0  501  0.00000000000E+00  0.00000000000E+00 -0.27501474441E+03  0.27501474446E+03  0.50400001928E-02 0. -1.
    10030    2    1    2    0    0  0.00000000000E+00  0.00000000000E+00  0.10160524054E+04  0.15660818943E+04  0.11917424256E+04 0.  0.
        2    1    3    3  502    0  0.21552822015E+03  0.47026246445E+03  0.89666397284E+03  0.10351837901E+04  0.25500000920E-02 0.  1.
       -2    1    3    3    0  502 -0.21552822015E+03 -0.47026246445E+03  0.11938843257E+03  0.53089810415E+03  0.25500000920E-02 0. -1.
</event>
<event>
 5   0  0.6640844E-03  0.1214449E+04  0.7818609E-02  0.9100303E-01
       -2   -1    0    0    0  501  0.00000000000E+00  0.00000000000E+00  0.20812177060E+03  0.20812177061E+03  0.25500000920E-02 0.  1.
        2   -1    0    0  501    0  0.00000000000E+00  0.00000000000E+00 -0.17716614312E+04  0.17716614312E+04  0.25500000920E-02 0. -1.
    10030    2    1    2    0    0  0.00000000000E+00  0.00000000000E+00 -0.15635396606E+04  0.19797832018E+04  0.12144485398E+04 0.  0.
        5    1    3    3  502    0 -0.58248594840E+03 -0.14181906946E+03 -0.62458782688E+03  0.86575664712E+03  0.46999998093E+01 0.  1.
       -5    1    3    3    0  502  0.58248594840E+03  0.14181906946E+03 -0.93895183375E+03  0.11140265547E+04  0.46999998093E+01 0. -1.
</event>
<event>
 5   0  0.6640844E-03  0.6032874E+03  0.7818609E-02  0.9898609E-01
       -2   -1    0    0    0  501  0.00000000000E+00  0.00000000000E+00  0.97744108678E+02  0.97744108711E+02  0.25500000920E-02 0.  1.
        2   -1    0    0  501    0  0.00000000000E+00  0.00000000000E+00 -0.93088903960E+03  0.93088903960E+03  0.25500000920E-02 0. -1.
    10030    2    1    2    0    0  0.00000000000E+00  0.00000000000E+00 -0.83314493092E+03  0.10286331483E+04  0.60328739245E+03 0.  0.
        5    1    3    3  502    0 -0.19332390841E+03 -0.65696803770E+02 -0.79506450297E+03  0.82087749236E+03  0.46999998093E+01 0. -1.
       -5    1    3    3    0  502  0.19332390841E+03  0.65696803770E+02 -0.38080427952E+02  0.20775565595E+03  0.46999998093E+01 0.  1.
</event>
<event>
 5   0  0.3731281E-03  0.1190941E+04  0.7818609E-02  0.9120823E-01
       -1   -1    0    0    0  501  0.00000000000E+00  0.00000000000E+00  0.50680795859E+03  0.50680795861E+03  0.50400001928E-02 0.  1.
        1   -1    0    0  501    0  0.00000000000E+00  0.00000000000E+00 -0.69964422339E+03  0.69964422341E+03  0.50400001928E-02 0. -1.
    10030    2    1    2    0    0  0.00000000000E+00  0.00000000000E+00 -0.19283626480E+03  0.12064521820E+04  0.11909412422E+04 0.  0.
        5    1    3    3  502    0 -0.36622856573E+03  0.60220129461E+02 -0.56811477197E+03  0.67862088862E+03  0.46999998093E+01 0. -1.
       -5    1    3    3    0  502  0.36622856573E+03 -0.60220129461E+02  0.37527850717E+03  0.52783129340E+03  0.46999998093E+01 0.  1.
</event>
<event>
 5   0  0.6585930E-03  0.1209844E+04  0.7818609E-02  0.9104283E-01
       -2   -1    0    0    0  501  0.00000000000E+00  0.00000000000E+00  0.64590101837E+03  0.64590101837E+03  0.25500000920E-02 0.  1.
        2   -1    0    0  501    0  0.00000000000E+00  0.00000000000E+00 -0.56654301100E+03  0.56654301100E+03  0.25500000920E-02 0. -1.
    10030    2    1    2    0    0  0.00000000000E+00  0.00000000000E+00  0.79358007372E+02  0.12124440294E+04  0.12098441350E+04 0.  0.
        2    1    3    3  502    0  0.25707717957E+03  0.16183075812E+03 -0.48456352930E+03  0.57190880782E+03  0.25500000920E-02 0. -1.
       -2    1    3    3    0  502 -0.25707717957E+03 -0.16183075812E+03  0.56392153667E+03  0.64053522156E+03  0.25500000920E-02 0.  1.
</event>
<event>
 5   0  0.3944074E-03  0.1195094E+04  0.7818609E-02  0.9117161E-01
       -1   -1    0    0    0  501  0.00000000000E+00  0.00000000000E+00  0.25174321964E+03  0.25174321969E+03  0.50400001928E-02 0.  1.
        1   -1    0    0  501    0  0.00000000000E+00  0.00000000000E+00 -0.14183607242E+04  0.14183607242E+04  0.50400001928E-02 0. -1.
    10030    2    1    2    0    0  0.00000000000E+00  0.00000000000E+00 -0.11666175046E+04  0.16701039439E+04  0.11950944655E+04 0.  0.
        4    1    3    3  502    0  0.27706918168E+03  0.11742152930E+03  0.13812209700E+03  0.33111096865E+03  0.12699999809E+01 0.  1.
       -4    1    3    3    0  502 -0.27706918168E+03 -0.11742152930E+03 -0.13047396016E+04  0.13389929753E+04  0.12699999809E+01 0. -1.
</event>
<event>
 5   0  0.6493047E-03  0.1064858E+04  0.7818609E-02  0.9240137E-01
       -2   -1    0    0    0  501  0.00000000000E+00  0.00000000000E+00  0.11101592404E+04  0.11101592404E+04  0.25500000920E-02 0. -1.
        2   -1    0    0  501    0  0.00000000000E+00  0.00000000000E+00 -0.25535136497E+03  0.25535136499E+03  0.25500000920E-02 0.  1.
    10030    2    1    2    0    0  0.00000000000E+00  0.00000000000E+00  0.85480787543E+03  0.13655106054E+04  0.10648580701E+04 0.  0.
        3    1    3    3  502    0 -0.50892649195E+03  0.68642932735E+02  0.60767492575E+03  0.79560470839E+03  0.10100000352E+00 0. -1.
       -3    1    3    3    0  502  0.50892649195E+03 -0.68642932735E+02  0.24713294967E+03  0.56990589700E+03  0.10100000352E+00 0.  1.
</event>
<event>
 5   0  0.6640844E-03  0.1197184E+04  0.7818609E-02  0.9115325E-01
       -2   -1    0    0    0  501  0.00000000000E+00  0.00000000000E+00  0.32432188961E+03  0.32432188962E+03  0.25500000920E-02 0. -1.
        2   -1    0    0  501    0  0.00000000000E+00  0.00000000000E+00 -0.11048048717E+04  0.11048048717E+04  0.25500000920E-02 0.  1.
    10030    2    1    2    0    0  0.00000000000E+00  0.00000000000E+00 -0.78048298213E+03  0.14291267614E+04  0.11971840354E+04 0.  0.
        5    1    3    3  502    0  0.21399553197E+03  0.35574910133E+03  0.12450672499E+03  0.43344610433E+03  0.46999998093E+01 0. -1.
       -5    1    3    3    0  502 -0.21399553197E+03 -0.35574910133E+03 -0.90498970712E+03  0.99568065703E+03  0.46999998093E+01 0.  1.
</event>
<event>
 5   0  0.6585930E-03  0.1217160E+04  0.7818609E-02  0.9097968E-01
        2   -1    0    0  501    0  0.00000000000E+00  0.00000000000E+00  0.88829614088E+03  0.88829614089E+03  0.25500000920E-02 0. -1.
       -2   -1    0    0    0  501  0.00000000000E+00  0.00000000000E+00 -0.41694367508E+03  0.41694367509E+03  0.25500000920E-02 0.  1.
    10030    2    1    2    0    0  0.00000000000E+00  0.00000000000E+00  0.47135246580E+03  0.13052398160E+04  0.12171597390E+04 0.  0.
        2    1    3    3  502    0 -0.90893387243E+02 -0.26609419840E+03 -0.34310476578E+03  0.44360862320E+03  0.25500000920E-02 0.  1.
       -2    1    3    3    0  502  0.90893387243E+02  0.26609419840E+03  0.81445723159E+03  0.86163119277E+03  0.25500000920E-02 0. -1.
</event>
<event>
 5   0  0.3772254E-03  0.1189741E+04  0.7818609E-02  0.9121884E-01
       -1   -1    0    0    0  501  0.00000000000E+00  0.00000000000E+00  0.67855422985E+03  0.67855422987E+03  0.50400001928E-02 0.  1.
        1   -1    0    0  501    0  0.00000000000E+00  0.00000000000E+00 -0.52150715387E+03  0.52150715389E+03  0.50400001928E-02 0. -1.
    10030    2    1    2    0    0  0.00000000000E+00  0.00000000000E+00  0.15704707599E+03  0.12000613838E+04  0.11897409553E+04 0.  0.
        3    1    3    3  502    0  0.47025334626E+02  0.18910771767E+03 -0.48839978633E+03  0.52583977832E+03  0.10100000352E+00 0. -1.
       -3    1    3    3    0  502 -0.47025334626E+02 -0.18910771767E+03  0.64544686231E+03  0.67422160545E+03  0.10100000352E+00 0.  1.
</event>
<event>
 5   0  0.6585930E-03  0.1330345E+04  0.7818609E-02  0.9005842E-01
       -2   -1    0    0    0  501  0.00000000000E+00  0.00000000000E+00  0.79105338097E+03  0.79105338098E+03  0.25500000920E-02 0.  1.
        2   -1    0    0  501    0  0.00000000000E+00  0.00000000000E+00 -0.55932293412E+03  0.55932293412E+03  0.25500000920E-02 0. -1.
    10030    2    1    2    0    0  0.00000000000E+00  0.00000000000E+00  0.23173044686E+03  0.13503763151E+04  0.13303447645E+04 0.  0.
        2    1    3    3  502    0 -0.36651593656E+03  0.54587549331E+03  0.13649838345E+02  0.65764755306E+03  0.25500000920E-02 0. -1.
       -2    1    3    3    0  502  0.36651593656E+03 -0.54587549331E+03  0.21808060851E+03  0.69272876204E+03  0.25500000920E-02 0.  1.
</event>
<event>
 5   0  0.3731281E-03  0.1211645E+04  0.7818609E-02  0.9102724E-01
        1   -1    0    0  501    0  0.00000000000E+00  0.00000000000E+00  0.67734784405E+03  0.67734784407E+03  0.50400001928E-02 0. -1.
       -1   -1    0    0    0  501  0.00000000000E+00  0.00000000000E+00 -0.54184990713E+03  0.54184990715E+03  0.50400001928E-02 0.  1.
    10030    2    1    2    0    0  0.00000000000E+00  0.00000000000E+00  0.13549793692E+03  0.12191977512E+04  0.12116449421E+04 0.  0.
        5    1    3    3  502    0 -0.44756619784E+03 -0.14017352308E+03 -0.31809226536E+03  0.56671765219E+03  0.46999998093E+01 0.  1.
       -5    1    3    3    0  502  0.44756619784E+03  0.14017352308E+03  0.45359020228E+03  0.65248009903E+03  0.46999998093E+01 0. -1.
</event>
<event>
 5   0  0.3944074E-03  0.1467237E+04  0.7818609E-02  0.8906537E-01
        1   -1    0    0  501    0  0.00000000000E+00  0.00000000000E+00  0.77485154454E+03  0.77485154456E+03  0.50400001928E-02 0.  1.
       -1   -1    0    0    0  501  0.00000000000E+00  0.00000000000E+00 -0.69457993802E+03  0.69457993804E+03  0.50400001928E-02 0. -1.
    10030    2    1    2    0    0  0.00000000000E+00  0.00000000000E+00  0.80271606519E+02  0.14694314826E+04  0.14672373193E+04 0.  0.
        4    1    3    3  502    0  0.17094773573E+03 -0.55889786182E+03 -0.40392864817E+03  0.71045753849E+03  0.12699999809E+01 0. -1.
       -4    1    3    3    0  502 -0.17094773573E+03  0.55889786182E+03  0.48420025469E+03  0.75897394411E+03  0.12699999809E+01 0.  1.
</event>
<event>
 5   0  0.6493047E-03  0.1152866E+04  0.7818609E-02  0.9155143E-01
        2   -1    0    0  501    0  0.00000000000E+00  0.00000000000E+00  0.28035716711E+04  0.28035716711E+04  0.25500000920E-02 0. -1.
       -2   -1    0    0    0  501  0.00000000000E+00  0.00000000000E+00 -0.11851855468E+03  0.11851855471E+03  0.25500000920E-02 0.  1.
    10030    2    1    2    0    0  0.00000000000E+00  0.00000000000E+00  0.26850531164E+04  0.29220902258E+04  0.11528664493E+04 0.  0.
        3    1    3    3  502    0  0.17309348201E+03  0.24273240471E+03  0.25929880982E+04  0.26100704322E+04  0.10100000352E+00 0. -1.
       -3    1    3    3    0  502 -0.17309348201E+03 -0.24273240471E+03  0.92065018285E+02  0.31201979361E+03  0.10100000352E+00 0.  1.
</event>
<event>
 5   0  0.3701879E-03  0.1237893E+04  0.7818609E-02  0.9080320E-01
       -1   -1    0    0    0  501  0.00000000000E+00  0.00000000000E+00  0.49383058297E+03  0.49383058300E+03  0.50400001928E-02 0. -1.
        1   -1    0    0  501    0  0.00000000000E+00  0.00000000000E+00 -0.77576168869E+03  0.77576168870E+03  0.50400001928E-02 0.  1.
    10030    2    1    2    0    0  0.00000000000E+00  0.00000000000E+00 -0.28193110572E+03  0.12695922717E+04  0.12378931246E+04 0.  0.
        1    1    3    3  502    0  0.13364355982E+03  0.49134474385E+03  0.21991794934E+03  0.55465679736E+03  0.50400001928E-02 0. -1.
       -1    1    3    3    0  502 -0.13364355982E+03 -0.49134474385E+03 -0.50184905505E+03  0.71493547434E+03  0.50400001928E-02 0.  1.
</event>
<event>
 5   0  0.3648616E-03  0.6233205E+03  0.7818609E-02  0.9858171E-01
        1   -1    0    0  501    0  0.00000000000E+00  0.00000000000E+00  0.64736919324E+03  0.64736919326E+03  0.50400001928E-02 0. -1.
       -1   -1    0    0    0  501  0.00000000000E+00  0.00000000000E+00 -0.15004130594E+03  0.15004130603E+03  0.50400001928E-02 0.  1.
    10030    2    1    2    0    0  0.00000000000E+00  0.00000000000E+00  0.49732788729E+03  0.79741049928E+03  0.62332052500E+03 0.  0.
        2    1    3    3  502    0  0.26668501729E+03 -0.89836246469E+02  0.77311680109E+02  0.29183650477E+03  0.25500000920E-02 0.  1.
       -2    1    3    3    0  502 -0.26668501729E+03  0.89836246469E+02  0.42001620718E+03  0.50557399452E+03  0.25500000920E-02 0. -1.
</event>
<event>
 5   0  0.3648616E-03  0.1174088E+04  0.7818609E-02  0.9135844E-01
       -1   -1    0    0    0  501  0.00000000000E+00  0.00000000000E+00  0.15885076129E+04  0.15885076129E+04  0.50400001928E-02 0.  1.
        1   -1    0    0  501    0  0.00000000000E+00  0.00000000000E+00 -0.21694623818E+03  0.21694623824E+03  0.50400001928E-02 0. -1.
    10030    2    1    2    0    0  0.00000000000E+00  0.00000000000E+00  0.13715613748E+04  0.18054538512E+04  0.11740881585E+04 0.  0.
        2    1    3    3  502    0  0.86046227201E+02  0.19777232969E+03 -0.15381227003E+03  0.26490764810E+03  0.25500000920E-02 0. -1.
       -2    1    3    3    0  502 -0.86046227201E+02 -0.19777232969E+03  0.15253736448E+04  0.15405462031E+04  0.25500000920E-02 0.  1.
</event>
<event>
 5   0  0.6658994E-03  0.1187798E+04  0.7818609E-02  0.9123604E-01
        2   -1    0    0  501    0  0.00000000000E+00  0.00000000000E+00  0.30476746641E+03  0.30476746642E+03  0.25500000920E-02 0. -1.
       -2   -1    0    0    0  501  0.00000000000E+00  0.00000000000E+00 -0.11573290281E+04  0.11573290281E+04  0.25500000920E-02 0.  1.
    10030    2    1    2    0    0  0.00000000000E+00  0.00000000000E+00 -0.85256156173E+03  0.14620964946E+04  0.11877983595E+04 0.  0.
        4    1    3    3  502    0 -0.22592981485E+03 -0.35783299201E+03  0.86628501728E+02  0.43196625056E+03  0.12699999809E+01 0. -1.
       -4    1    3    3    0  502  0.22592981485E+03  0.35783299201E+03 -0.93919006346E+03  0.10301302440E+04  0.12699999809E+01 0.  1.
</event>
<event>
 5   0  0.3944074E-03  0.1177349E+04  0.7818609E-02  0.9132917E-01
       -1   -1    0    0    0  501  0.00000000000E+00  0.00000000000E+00  0.16787638960E+03  0.16787638968E+03  0.50400001928E-02 0.  1.
        1   -1    0    0  501    0  0.00000000000E+00  0.00000000000E+00 -0.20642433233E+04  0.20642433233E+04  0.50400001928E-02 0. -1.
    10030    2    1    2    0    0  0.00000000000E+00  0.00000000000E+00 -0.18963669337E+04  0.22321197130E+04  0.11773490841E+04 0.  0.
        4    1    3    3  502    0  0.53709691883E+03  0.20957676887E+03 -0.72273573816E+03  0.92452370569E+03  0.12699999809E+01 0.  1.
       -4    1    3    3    0  502 -0.53709691883E+03 -0.20957676887E+03 -0.11736311956E+04  0.13075960073E+04  0.12699999809E+01 0. -1.
</event>
<event>
 5   0  0.3701879E-03  0.1205591E+04  0.7818609E-02  0.9107977E-01
       -1   -1    0    0    0  501  0.00000000000E+00  0.00000000000E+00  0.29238053261E+03  0.29238053266E+03  0.50400001928E-02 0. -1.
        1   -1    0    0  501    0  0.00000000000E+00  0.00000000000E+00 -0.12427713430E+04  0.12427713430E+04  0.50400001928E-02 0.  1.
    10030    2    1    2    0    0  0.00000000000E+00  0.00000000000E+00 -0.95039081042E+03  0.15351518757E+04  0.12055905561E+04 0.  0.
        1    1    3    3  502    0 -0.25316403036E+02  0.59847161719E+03 -0.38927467325E+03  0.71438362811E+03  0.50400001928E-02 0. -1.
       -1    1    3    3    0  502  0.25316403036E+02 -0.59847161719E+03 -0.56111613717E+03  0.82076824760E+03  0.50400001928E-02 0.  1.
</event>
<event>
 5   0  0.6640844E-03  0.1204284E+04  0.7818609E-02  0.9109115E-01
       -2   -1    0    0    0  501  0.00000000000E+00  0.00000000000E+00  0.43558801445E+03  0.43558801446E+03  0.25500000920E-02 0. -1.
        2   -1    0    0  501    0  0.00000000000E+00  0.00000000000E+00 -0.83238100262E+03  0.83238100263E+03  0.25500000920E-02 0.  1.
    10030    2    1    2    0    0  0.00000000000E+00  0.00000000000E+00 -0.39679298817E+03  0.12679690171E+04  0.12042843322E+04 0.  0.
        5    1    3    3  502    0  0.38915177783E+03 -0.11852815990E+03 -0.66579188831E+03  0.78024929312E+03  0.46999998093E+01 0.  1.
       -5    1    3    3    0  502 -0.38915177783E+03  0.11852815990E+03  0.26899890014E+03  0.48771972397E+03  0.46999998093E+01 0. -1.
</event>
<event>
 5   0  0.6349142E-03  0.1178751E+04  0.7818609E-02  0.9131662E-01
       -2   -1    0    0    0  501  0.00000000000E+00  0.00000000000E+00  0.29126653133E+03  0.29126653134E+03  0.25500000920E-02 0. -1.
        2   -1    0    0  501    0  0.00000000000E+00  0.00000000000E+00 -0.11925962621E+04  0.11925962621E+04  0.25500000920E-02 0.  1.
    10030    2    1    2    0    0  0.00000000000E+00  0.00000000000E+00 -0.90132973076E+03  0.14838627934E+04  0.11787508245E+04 0.  0.
        1    1    3    3  502    0  0.46551887484E+02 -0.31219025850E+03  0.17589726275E+03  0.36134427185E+03  0.50400001928E-02 0. -1.
       -1    1    3    3    0  502 -0.46551887484E+02  0.31219025850E+03 -0.10772269935E+04  0.11225185216E+04  0.50400001928E-02 0.  1.
</event>
<event>
 5   0  0.6349142E-03  0.1220203E+04  0.7818609E-02  0.9095355E-01
        2   -1    0    0  501    0  0.00000000000E+00  0.00000000000E+00  0.38148297884E+03  0.38148297885E+03  0.25500000920E-02 0. -1.
       -2   -1    0    0    0  501  0.00000000000E+00  0.00000000000E+00 -0.97572784792E+03  0.97572784793E+03  0.25500000920E-02 0.  1.
    10030    2    1    2    0    0  0.00000000000E+00  0.00000000000E+00 -0.59424486908E+03  0.13572108268E+04  0.12202025504E+04 0.  0.
        1    1    3    3  502    0 -0.30049271927E+03 -0.18653547188E+02 -0.88734537633E+03  0.93703022688E+03  0.50400001928E-02 0.  1.
       -1    1    3    3    0  502  0.30049271927E+03  0.18653547188E+02  0.29310050725E+03  0.42018059990E+03  0.50400001928E-02 0. -1.
</event>
<event>
 5   0  0.3772254E-03  0.1344073E+04  0.7818609E-02  0.8995327E-01
        1   -1    0    0  501    0  0.00000000000E+00  0.00000000000E+00  0.16777658842E+04  0.16777658842E+04  0.50400001928E-02 0. -1.
       -1   -1    0    0    0  501  0.00000000000E+00  0.00000000000E+00 -0.26918702060E+03  0.26918702065E+03  0.50400001928E-02 0.  1.
    10030    2    1    2    0    0  0.00000000000E+00  0.00000000000E+00  0.14085788636E+04  0.19469529048E+04  0.13440726166E+04 0.  0.
        3    1    3    3  502    0 -0.31304187943E+03  0.58941797096E+03  0.59000990388E+03  0.89079765359E+03  0.10100000352E+00 0. -1.
       -3    1    3    3    0  502  0.31304187943E+03 -0.58941797096E+03  0.81856895970E+03  0.10561552513E+04  0.10100000352E+00 0.  1.
</event>
<event>
 5   0  0.6640844E-03  0.1179709E+04  0.7818609E-02  0.9130805E-01
       -2   -1    0    0    0  501  0.00000000000E+00  0.00000000000E+00  0.34330791611E+03  0.34330791612E+03  0.25500000920E-02 0. -1.
        2   -1    0    0  501    0  0.00000000000E+00  0.00000000000E+00 -0.10134583151E+04  0.10134583151E+04  0.25500000920E-02 0.  1.
    10030    2    1    2    0    0  0.00000000000E+00  0.00000000000E+00 -0.67015039900E+03  0.13567662312E+04  0.11797088831E+04 0.  0.
        5    1    3    3  502    0 -0.46088223750E+03  0.29490957436E+03 -0.81737470206E+02  0.55325147801E+03  0.46999998093E+01 0. -1.
       -5    1    3    3    0  502  0.46088223750E+03 -0.29490957436E+03 -0.58841292880E+03  0.80351475323E+03  0.46999998093E+01 0.  1.
</event>
<event>
 5   0  0.6585930E-03  0.1220906E+04  0.7818609E-02  0.9094752E-01
        2   -1    0    0  501    0  0.00000000000E+00  0.00000000000E+00  0.12650935482E+04  0.12650935483E+04  0.25500000920E-02 0.  1.
       -2   -1    0    0    0  501  0.00000000000E+00  0.00000000000E+00 -0.29456539070E+03  0.29456539071E+03  0.25500000920E-02 0. -1.
    10030    2    1    2    0    0  0.00000000000E+00  0.00000000000E+00  0.97052815755E+03  0.15596589390E+04  0.12209058528E+04 0.  0.
        2    1    3    3  502    0  0.43206045104E+02 -0.58071545839E+03  0.71927157463E+03  0.92544519234E+03  0.25500000920E-02 0.  1.
       -2    1    3    3    0  502 -0.43206045104E+02  0.58071545839E+03  0.25125658292E+03  0.63421374663E+03  0.25500000920E-02 0. -1.
</event>
<event>
 5   0  0.3731281E-03  0.1217935E+04  0.7818609E-02  0.9097301E-01
       -1   -1    0    0    0  501  0.00000000000E+00  0.00000000000E+00  0.55088931233E+03  0.55088931235E+03  0.50400001928E-02 0. -1.
        1   -1    0    0  501    0  0.00000000000E+00  0.00000000000E+00 -0.67316881945E+03  0.67316881947E+03  0.50400001928E-02 0.  1.
    10030    2    1    2    0    0  0.00000000000E+00  0.00000000000E+00 -0.12227950712E+03  0.12240581318E+04  0.12179351511E+04 0.  0.
        5    1    3    3  502    0  0.28324785697E+03  0.53903027873E+03 -0.55073834064E+02  0.61142309988E+03  0.46999998093E+01 0.  1.
       -5    1    3    3    0  502 -0.28324785697E+03 -0.53903027873E+03 -0.67205673056E+02  0.61263503194E+03  0.46999998093E+01 0. -1.
</event>
<event>
 5   0  0.6349142E-03  0.1554117E+04  0.7818609E-02  0.8849242E-01
        2   -1    0    0  501    0  0.00000000000E+00  0.00000000000E+00  0.12515452813E+04  0.12515452813E+04  0.25500000920E-02 0. -1.
       -2   -1    0    0    0  501  0.00000000000E+00  0.00000000000E+00 -0.48245969609E+03  0.48245969610E+03  0.25500000920E-02 0.  1.
    10030    2    1    2    0    0  0.00000000000E+00  0.00000000000E+00  0.76908558520E+03  0.17340049774E+04  0.15541173135E+04 0.  0.
        1    1    3    3  502    0  0.74146028432E+02 -0.74365652764E+03  0.14707560067E+03  0.76167834219E+03  0.50400001928E-02 0. -1.
       -1    1    3    3    0  502 -0.74146028432E+02  0.74365652764E+03  0.62200998454E+03  0.97232663520E+03  0.50400001928E-02 0.  1.
</event>
<event>
 5   0  0.6658994E-03  0.1208112E+04  0.7818609E-02  0.9105786E-01
        2   -1    0    0  501    0  0.00000000000E+00  0.00000000000E+00  0.70591194074E+03  0.70591194074E+03  0.25500000920E-02 0.  1.
       -2   -1    0    0    0  501  0.00000000000E+00  0.00000000000E+00 -0.51689654097E+03  0.51689654098E+03  0.25500000920E-02 0. -1.
    10030    2    1    2    0    0  0.00000000000E+00  0.00000000000E+00  0.18901539976E+03  0.12228084817E+04  0.12081116511E+04 0.  0.
        4    1    3    3  502    0 -0.59669814523E+03  0.14830358037E+02  0.18844410251E+03  0.62592444330E+03  0.12699999809E+01 0.  1.
       -4    1    3    3    0  502  0.59669814523E+03 -0.14830358037E+02  0.57129725515E+00  0.59688403842E+03  0.12699999809E+01 0. -1.
</event>
<event>
 5   0  0.6349142E-03  0.1224511E+04  0.7818609E-02  0.9091668E-01
       -2   -1    0    0    0  501  0.00000000000E+00  0.00000000000E+00  0.89060562525E+03  0.89060562525E+03  0.25500000920E-02 0. -1.
        2   -1    0    0  501    0  0.00000000000E+00  0.00000000000E+00 -0.42090124493E+03  0.42090124493E+03  0.25500000920E-02 0.  1.
    10030    2    1    2    0    0  0.00000000000E+00  0.00000000000E+00  0.46970438032E+03  0.13115068702E+04  0.12245113579E+04 0.  0.
        1    1    3    3  502    0  0.28624583961E+03  0.35785590992E+03 -0.20002308797E+03  0.50000676866E+03  0.50400001928E-02 0.  1.
       -1    1    3    3    0  502 -0.28624583961E+03 -0.35785590992E+03  0.66972746830E+03  0.81150010153E+03  0.50400001928E-02 0. -1.
</event>
<event>
 5   0  0.6585930E-03  0.1182130E+04  0.7818609E-02  0.9128643E-01
        2   -1    0    0  501    0  0.00000000000E+00  0.00000000000E+00  0.19393726258E+04  0.19393726258E+04  0.25500000920E-02 0. -1.
       -2   -1    0    0    0  501  0.00000000000E+00  0.00000000000E+00 -0.18013967817E+03  0.18013967818E+03  0.25500000920E-02 0.  1.
    10030    2    1    2    0    0  0.00000000000E+00  0.00000000000E+00  0.17592329477E+04  0.21195123040E+04  0.11821302139E+04 0.  0.
        2    1    3    3  502    0  0.50243278854E+03  0.20774380861E+03  0.46389029051E+03  0.71469601835E+03  0.25500000920E-02 0. -1.
       -2    1    3    3    0  502 -0.50243278854E+03 -0.20774380861E+03  0.12953426572E+04  0.14048162857E+04  0.25500000920E-02 0.  1.
</event>
<event>
 5   0  0.3648616E-03  0.1211363E+04  0.7818609E-02  0.9102969E-01
       -1   -1    0    0    0  501  0.00000000000E+00  0.00000000000E+00  0.26408998811E+03  0.26408998816E+03  0.50400001928E-02 0. -1.
        1   -1    0    0  501    0  0.00000000000E+00  0.00000000000E+00 -0.13891092630E+04  0.13891092630E+04  0.50400001928E-02 0.  1.
    10030    2    1    2    0    0  0.00000000000E+00  0.00000000000E+00 -0.11250192749E+04  0.16531992512E+04  0.12113626192E+04 0.  0.
        2    1    3    3  502    0  0.31939353222E+03  0.33987406952E+03 -0.35140475975E+02  0.46771942937E+03  0.25500000920E-02 0. -1.
       -2    1    3    3    0  502 -0.31939353222E+03 -0.33987406952E+03 -0.10898787989E+04  0.11854798218E+04  0.25500000920E-02 0.  1.
</event>
<event>
 5   0  0.3648616E-03  0.1276130E+04  0.7818609E-02  0.9048711E-01
       -1   -1    0    0    0  501  0.00000000000E+00  0.00000000000E+00  0.39036605848E+03  0.39036605852E+03  0.50400001928E-02 0.  1.
        1   -1    0    0  501    0  0.00000000000E+00  0.00000000000E+00 -0.10429366717E+04  0.10429366717E+04  0.50400001928E-02 0. -1.
    10030    2    1    2    0    0  0.00000000000E+00  0.00000000000E+00 -0.65257061322E+03  0.14333027302E+04  0.12761302094E+04 0.  0.
        2    1    3    3  502    0 -0.53986752824E+03 -0.31662105933E+03 -0.18680833483E+03  0.65314867927E+03  0.25500000920E-02 0. -1.
       -2    1    3    3    0  502  0.53986752824E+03  0.31662105933E+03 -0.46576227839E+03  0.78015405097E+03  0.25500000920E-02 0.  1.
</event>
<event>
 5   0  0.6349142E-03  0.1199239E+04  0.7818609E-02  0.9113523E-01
        2   -1    0    0  501    0  0.00000000000E+00  0.00000000000E+00  0.16614399801E+04  0.16614399801E+04  0.25500000920E-02 0. -1.
       -2   -1    0    0    0  501  0.00000000000E+00  0.00000000000E+00 -0.21640471006E+03  0.21640471007E+03  0.25500000920E-02 0.  1.
    10030    2    1    2    0    0  0.00000000000E+00  0.00000000000E+00  0.14450352701E+04  0.18778446902E+04  0.11992388206E+04 0.  0.
        1    1    3    3  502    0 -0.28018919824E+03 -0.41182012048E+03  0.12452480097E+04  0.13411727719E+04  0.50400001928E-02 0. -1.
       -1    1    3    3    0  502  0.28018919824E+03  0.41182012048E+03  0.19978726037E+03  0.53667191828E+03  0.50400001928E-02 0.  1.
</event>
<event>
 5   0  0.3701879E-03  0.1195853E+04  0.7818609E-02  0.9116494E-01
       -1   -1    0    0    0  501  0.00000000000E+00  0.00000000000E+00  0.40866752951E+03  0.40866752954E+03  0.50400001928E-02 0. -1.
        1   -1    0    0  501    0  0.00000000000E+00  0.00000000000E+00 -0.87483382715E+03  0.87483382717E+03  0.50400001928E-02 0.  1.
    10030    2    1    2    0    0  0.00000000000E+00  0.00000000000E+00 -0.46616629764E+03  0.12835013567E+04  0.11958531330E+04 0.  0.
        1    1    3    3  502    0 -0.72463317514E+02  0.40310232554E+02 -0.86863270624E+03  0.87258158679E+03  0.50400001928E-02 0.  1.
       -1    1    3    3    0  502  0.72463317514E+02 -0.40310232554E+02  0.40246640860E+03  0.41091976992E+03  0.50400001928E-02 0. -1.
</event>
<event>
 5   0  0.3731281E-03  0.1204509E+04  0.7818609E-02  0.9108919E-01
        1   -1    0    0  501    0  0.00000000000E+00  0.00000000000E+00  0.50126232132E+03  0.50126232134E+03  0.50400001928E-02 0.  1.
       -1   -1    0    0    0  501  0.00000000000E+00  0.00000000000E+00 -0.72359470134E+03  0.72359470136E+03  0.50400001928E-02 0. -1.
    10030    2    1    2    0    0  0.00000000000E+00  0.00000000000E+00 -0.22233238003E+03  0.12248570227E+04  0.12045094598E+04 0.  0.
        5    1    3    3  502    0 -0.20643193064E+03 -0.10226904301E+03  0.45466460242E+03  0.50972059978E+03  0.46999998093E+01 0.  1.
       -5    1    3    3    0  502  0.20643193064E+03  0.10226904301E+03 -0.67699698245E+03  0.71513642292E+03  0.46999998093E+01 0. -1.
</event>
<event>
 5   0  0.6349142E-03  0.1164524E+04  0.7818609E-02  0.9144488E-01
       -2   -1    0    0    0  501  0.00000000000E+00  0.00000000000E+00  0.54883526715E+03  0.54883526716E+03  0.25500000920E-02 0.  1.
        2   -1    0    0  501    0  0.00000000000E+00  0.00000000000E+00 -0.61772501946E+03  0.61772501946E+03  0.25500000920E-02 0. -1.
    10030    2    1    2    0    0  0.00000000000E+00  0.00000000000E+00 -0.68889752309E+02  0.11665602866E+04  0.11645244112E+04 0.  0.
        1    1    3    3  502    0 -0.21675021108E+03 -0.53123787332E+02 -0.57318288992E+03  0.61509463996E+03  0.50400001928E-02 0. -1.
       -1    1    3    3    0  502  0.21675021108E+03  0.53123787332E+02  0.50429313761E+03  0.55146564666E+03  0.50400001928E-02 0.  1.
</event>
<event>
 5   0  0.3944074E-03  0.1203209E+04  0.7818609E-02  0.9110053E-01
        1   -1    0    0  501    0  0.00000000000E+00  0.00000000000E+00  0.89618505773E+03  0.89618505775E+03  0.50400001928E-02 0.  1.
       -1   -1    0    0    0  501  0.00000000000E+00  0.00000000000E+00 -0.40385390981E+03  0.40385390984E+03  0.50400001928E-02 0. -1.
    10030    2    1    2    0    0  0.00000000000E+00  0.00000000000E+00  0.49233114792E+03  0.13000389676E+04  0.12032087757E+04 0.  0.
        4    1    3    3  502    0 -0.50469018542E+02 -0.28130273624E+02  0.89317875700E+03  0.89504655688E+03  0.12699999809E+01 0.  1.
       -4    1    3    3    0  502  0.50469018542E+02  0.28130273624E+02 -0.40084760908E+03  0.40499241071E+03  0.12699999809E+01 0. -1.
</event>
<event>
 5   0  0.6585930E-03  0.1187701E+04  0.7818609E-02  0.9123691E-01
        2   -1    0    0  501    0  0.00000000000E+00  0.00000000000E+00  0.12555664312E+04  0.12555664312E+04  0.25500000920E-02 0. -1.
       -2   -1    0    0    0  501  0.00000000000E+00  0.00000000000E+00 -0.28087577519E+03  0.28087577520E+03  0.25500000920E-02 0.  1.
    10030    2    1    2    0    0  0.00000000000E+00  0.00000000000E+00  0.97469065597E+03  0.15364422064E+04  0.11877006267E+04 0.  0.
        2    1    3    3  502    0  0.34611695838E+03 -0.23573159524E+03  0.10320406460E+04  0.11137657873E+04  0.25500000920E-02 0. -1.
       -2    1    3    3    0  502 -0.34611695838E+03  0.23573159524E+03 -0.57349990061E+02  0.42267641907E+03  0.25500000920E-02 0.  1.
</event>
<event>
 5   0  0.3944074E-03  0.1165311E+04  0.7818609E-02  0.9143774E-01
       -1   -1    0    0    0  501  0.00000000000E+00  0.00000000000E+00  0.72283923501E+03  0.72283923503E+03  0.50400001928E-02 0.  1.
        1   -1    0    0  501    0  0.00000000000E+00  0.00000000000E+00 -0.46965791997E+03  0.46965792000E+03  0.50400001928E-02 0. -1.
    10030    2    1    2    0    0  0.00000000000E+00  0.00000000000E+00  0.25318131504E+03  0.11924971550E+04  0.11653105537E+04 0.  0.
        4    1    3    3  502    0  0.37899341857E+03  0.42629172643E+03  0.49696665608E+01  0.57042699605E+03  0.12699999809E+01 0. -1.
       -4    1    3    3    0  502 -0.37899341857E+03 -0.42629172643E+03  0.24821164848E+03  0.62207015897E+03  0.12699999809E+01 0.  1.
</event>
<event>
 5   0  0.3701879E-03  0.1142334E+04  0.7818609E-02  0.9164885E-01
        1   -1    0    0  501    0  0.00000000000E+00  0.00000000000E+00  0.75093866311E+03  0.75093866313E+03  0.50400001928E-02 0.  1.
       -1   -1    0    0    0  501  0.00000000000E+00  0.00000000000E+00 -0.43443212984E+03  0.43443212987E+03  0.50400001928E-02 0. -1.
    10030    2    1    2    0    0  0.00000000000E+00  0.00000000000E+00  0.31650653327E+03  0.11853707930E+04  0.11423342467E+04 0.  0.
        1    1    3    3  502    0  0.28739302021E+03 -0.28720356488E+03 -0.25830701715E+03  0.48145939692E+03  0.50400001928E-02 0. -1.
       -1    1    3    3    0  502 -0.28739302021E+03  0.28720356488E+03  0.57481355042E+03  0.70391139607E+03  0.50400001928E-02 0.  1.
</event>
<event>
 5   0  0.6640844E-03  0.1182493E+04  0.7818609E-02  0.9128320E-01
        2   -1    0    0  501    0  0.00000000000E+00  0.00000000000E+00  0.67256528810E+03  0.67256528810E+03  0.25500000920E-02 0. -1.
       -2   -1    0    0    0  501  0.00000000000E+00  0.00000000000E+00 -0.51976005356E+03  0.51976005357E+03  0.25500000920E-02 0.  1.
    10030    2    1    2    0    0  0.00000000000E+00  0.00000000000E+00  0.15280523453E+03  0.11923253417E+04  0.11824932476E+04 0.  0.
        5    1    3    3  502    0  0.55552103620E+03  0.24115740970E+02 -0.12617905002E+03  0.57020034486E+03  0.46999998093E+01 0.  1.
       -5    1    3    3    0  502 -0.55552103620E+03 -0.24115740970E+02  0.27898428455E+03  0.62212499680E+03  0.46999998093E+01 0. -1.
</event>
<event>
 5   0  0.3772254E-03  0.1197947E+04  0.7818609E-02  0.9114655E-01
       -1   -1    0    0    0  501  0.00000000000E+00  0.00000000000E+00  0.63836472806E+03  0.63836472808E+03  0.50400001928E-02 0.  1.
        1   -1    0    0  501    0  0.00000000000E+00  0.00000000000E+00 -0.56201331383E+03  0.56201331385E+03  0.50400001928E-02 0. -1.
    10030    2    1    2    0    0  0.00000000000E+00  0.00000000000E+00  0.76351414236E+02  0.12003780419E+04  0.11979473716E+04 0.  0.
        3    1    3    3  502    0  0.38981094856E+03  0.44335151286E+03  0.13965471723E+03  0.60664370913E+03  0.10100000352E+00 0. -1.
       -3    1    3    3    0  502 -0.38981094856E+03 -0.44335151286E+03 -0.63303302999E+02  0.59373433280E+03  0.10100000352E+00 0.  1.
</event>
<event>
 5   0  0.3772254E-03  0.1174739E+04  0.7818609E-02  0.9135259E-01
        1   -1    0    0  501    0  0.00000000000E+00  0.00000000000E+00  0.10564644206E+04  0.10564644207E+04  0.50400001928E-02 0. -1.
       -1   -1    0    0    0  501  0.00000000000E+00  0.00000000000E+00 -0.32656367126E+03  0.32656367129E+03  0.50400001928E-02 0.  1.
    10030    2    1    2    0    0  0.00000000000E+00  0.00000000000E+00  0.72990074938E+03  0.13830280919E+04  0.11747389494E+04 0.  0.
        3    1    3    3  502    0  0.31421647533E+03  0.48526372440E+03  0.48724310395E+03  0.75605471239E+03  0.10100000352E+00 0.  1.
       -3    1    3    3    0  502 -0.31421647533E+03 -0.48526372440E+03  0.24265764543E+03  0.62697337955E+03  0.10100000352E+00 0. -1.
</event>
<event>
 5   0  0.6585930E-03  0.1191287E+04  0.7818609E-02  0.9120518E-01
       -2   -1    0    0    0  501  0.00000000000E+00  0.00000000000E+00  0.32174533568E+03  0.32174533569E+03  0.25500000920E-02 0. -1.
        2   -1    0    0  501    0  0.00000000000E+00  0.00000000000E+00 -0.11027076827E+04  0.11027076827E+04  0.25500000920E-02 0.  1.
    10030    2    1    2    0    0  0.00000000000E+00  0.00000000000E+00 -0.78096234698E+03  0.14244530184E+04  0.11912867892E+04 0.  0.
        2    1    3    3  502    0  0.25107054900E+03 -0.60097478920E+02  0.25137213638E+03  0.36032773763E+03  0.25500000920E-02 0. -1.
       -2    1    3    3    0  502 -0.25107054900E+03  0.60097478920E+02 -0.10323344834E+04  0.10641252807E+04  0.25500000920E-02 0.  1.
</event>
<event>
 5   0  0.6658994E-03  0.1196500E+04  0.7818609E-02  0.9115925E-01
       -2   -1    0    0    0  501  0.00000000000E+00  0.00000000000E+00  0.16047764710E+03  0.16047764712E+03  0.25500000920E-02 0.  1.
        2   -1    0    0  501    0  0.00000000000E+00  0.00000000000E+00 -0.22302372916E+04  0.22302372916E+04  0.25500000920E-02 0. -1.
    10030    2    1    2    0    0  0.00000000000E+00  0.00000000000E+00 -0.20697596445E+04  0.23907149387E+04  0.11965002851E+04 0.  0.
        4    1    3    3  502    0 -0.35635016583E+03 -0.10560747190E+03 -0.19715625562E+04  0.20062898357E+04  0.12699999809E+01 0. -1.
       -4    1    3    3    0  502  0.35635016583E+03  0.10560747190E+03 -0.98197088293E+02  0.38442510305E+03  0.12699999809E+01 0.  1.
</event>
<event>
 5   0  0.3772254E-03  0.1199030E+04  0.7818609E-02  0.9113706E-01
        1   -1    0    0  501    0  0.00000000000E+00  0.00000000000E+00  0.44540494274E+03  0.44540494277E+03  0.50400001928E-02 0.  1.
       -1   -1    0    0    0  501  0.00000000000E+00  0.00000000000E+00 -0.80694752695E+03  0.80694752696E+03  0.50400001928E-02 0. -1.
    10030    2    1    2    0    0  0.00000000000E+00  0.00000000000E+00 -0.36154258420E+03  0.12523524697E+04  0.11990303033E+04 0.  0.
        3    1    3    3  502    0  0.21113142820E+03  0.36165792841E+03  0.26731224012E+03  0.49681866015E+03  0.10100000352E+00 0.  1.
       -3    1    3    3    0  502 -0.21113142820E+03 -0.36165792841E+03 -0.62885482432E+03  0.75553380959E+03  0.10100000352E+00 0. -1.
</event>
<event>
 5   0  0.6585930E-03  0.1238561E+04  0.7818609E-02  0.9079758E-01
        2   -1    0    0  501    0  0.00000000000E+00  0.00000000000E+00  0.57442757782E+03  0.57442757783E+03  0.25500000920E-02 0.  1.
       -2   -1    0    0    0  501  0.00000000000E+00  0.00000000000E+00 -0.66763589671E+03  0.66763589671E+03  0.25500000920E-02 0. -1.
    10030    2    1    2    0    0  0.00000000000E+00  0.00000000000E+00 -0.93208318888E+02  0.12420634745E+04  0.12385612153E+04 0.  0.
        2    1    3    3  502    0  0.30478477540E+03  0.50211430078E+03 -0.24336278602E+03  0.63579711858E+03  0.25500000920E-02 0.  1.
       -2    1    3    3    0  502 -0.30478477540E+03 -0.50211430078E+03  0.15015446713E+03  0.60626635596E+03  0.25500000920E-02 0. -1.
</event>
<event>
 5   0  0.6658994E-03  0.1243038E+04  0.7818609E-02  0.9075998E-01
        2   -1    0    0  501    0  0.00000000000E+00  0.00000000000E+00  0.11052092924E+04  0.11052092924E+04  0.25500000920E-02 0. -1.
       -2   -1    0    0    0  501  0.00000000000E+00  0.00000000000E+00 -0.34951375146E+03  0.34951375147E+03  0.25500000920E-02 0.  1.
    10030    2    1    2    0    0  0.00000000000E+00  0.00000000000E+00  0.75569554095E+03  0.14547230439E+04  0.12430379655E+04 0.  0.
        4    1    3    3  502    0 -0.44822499114E+03  0.41724984167E+03  0.25354729087E+03  0.66279024937E+03  0.12699999809E+01 0.  1.
       -4    1    3    3    0  502  0.44822499114E+03 -0.41724984167E+03  0.50214825008E+03  0.79193279450E+03  0.12699999809E+01 0. -1.
</event>
<event>
 5   0  0.6493047E-03  0.1234698E+04  0.7818609E-02  0.9083016E-01
       -2   -1    0    0    0  501  0.00000000000E+00  0.00000000000E+00  0.26654512116E+03  0.26654512117E+03  0.25500000920E-02 0. -1.
        2   -1    0    0  501    0  0.00000000000E+00  0.00000000000E+00 -0.14298502963E+04  0.14298502963E+04  0.25500000920E-02 0.  1.
    10030    2    1    2    0    0  0.00000000000E+00  0.00000000000E+00 -0.11633051752E+04  0.16963954175E+04  0.12346977290E+04 0.  0.
        3    1    3    3  502    0  0.58415325139E+03 -0.17930207608E+03 -0.46081374478E+03  0.76533232858E+03  0.10100000352E+00 0.  1.
       -3    1    3    3    0  502 -0.58415325139E+03  0.17930207608E+03 -0.70249143041E+03  0.93106308894E+03  0.10100000352E+00 0. -1.
</event>
<event>
 5   0  0.3772254E-03  0.1170556E+04  0.7818609E-02  0.9139027E-01
       -1   -1    0    0    0  501  0.00000000000E+00  0.00000000000E+00  0.46109973079E+03  0.46109973081E+03  0.50400001928E-02 0. -1.
        1   -1    0    0  501    0  0.00000000000E+00  0.00000000000E+00 -0.74289848872E+03  0.74289848874E+03  0.50400001928E-02 0.  1.
    10030    2    1    2    0    0  0.00000000000E+00  0.00000000000E+00 -0.28179875793E+03  0.12039982195E+04  0.11705559246E+04 0.  0.
        3    1    3    3  502    0 -0.19090992060E+02  0.48942214663E+03  0.18864728396E+03  0.52486789913E+03  0.10100000352E+00 0. -1.
       -3    1    3    3    0  502  0.19090992060E+02 -0.48942214663E+03 -0.47044604189E+03  0.67913032042E+03  0.10100000352E+00 0.  1.
</event>
<event>
 5   0  0.6585930E-03  0.1247201E+04  0.7818609E-02  0.9072516E-01
       -2   -1    0    0    0  501  0.00000000000E+00  0.00000000000E+00  0.16804355196E+03  0.16804355198E+03  0.25500000920E-02 0. -1.
        2   -1    0    0  501    0  0.00000000000E+00  0.00000000000E+00 -0.23141487026E+04  0.23141487026E+04  0.25500000920E-02 0.  1.
    10030    2    1    2    0    0  0.00000000000E+00  0.00000000000E+00 -0.21461051506E+04  0.24821922545E+04  0.12472012953E+04 0.  0.
        2    1    3    3  502    0  0.95956018036E+02  0.16262534810E+03 -0.22558856972E+04  0.22637744676E+04  0.25500000920E-02 0.  1.
       -2    1    3    3    0  502 -0.95956018036E+02 -0.16262534810E+03  0.10978054660E+03  0.21841778696E+03  0.25500000920E-02 0. -1.
</event>
<event>
 5   0  0.3731281E-03  0.1195149E+04  0.7818609E-02  0.9117113E-01
        1   -1    0    0  501    0  0.00000000000E+00  0.00000000000E+00  0.13150903223E+04  0.13150903223E+04  0.50400001928E-02 0. -1.
       -1   -1    0    0    0  501  0.00000000000E+00  0.00000000000E+00 -0.27153658678E+03  0.27153658682E+03  0.50400001928E-02 0.  1.
    10030    2    1    2    0    0  0.00000000000E+00  0.00000000000E+00  0.10435537355E+04  0.15866269091E+04  0.11951487564E+04 0.  0.
        5    1    3    3  502    0  0.38907906168E+03  0.39796793613E+03  0.23301572705E+03  0.60338993484E+03  0.46999998093E+01 0.  1.
       -5    1    3    3    0  502 -0.38907906168E+03 -0.39796793613E+03  0.81053800843E+03  0.98323697425E+03  0.46999998093E+01 0. -1.
</event>
<event>
 5   0  0.3944074E-03  0.1133747E+04  0.7818609E-02  0.9172910E-01
       -1   -1    0    0    0  501  0.00000000000E+00  0.00000000000E+00  0.27576586102E+03  0.27576586107E+03  0.50400001928E-02 0.  1.
        1   -1    0    0  501    0  0.00000000000E+00  0.00000000000E+00 -0.11652848941E+04  0.11652848941E+04  0.50400001928E-02 0. -1.
    10030    2    1    2    0    0  0.00000000000E+00  0.00000000000E+00 -0.88951903308E+03  0.14410507552E+04  0.11337474008E+04 0.  0.
        4    1    3    3  502    0  0.26344952824E+03 -0.26399883957E+03 -0.98737048124E+03  0.10554634628E+04  0.12699999809E+01 0. -1.
       -4    1    3    3    0  502 -0.26344952824E+03  0.26399883957E+03  0.97851448164E+02  0.38558729236E+03  0.12699999809E+01 0.  1.
</event>
<event>
 5   0  0.6585930E-03  0.1178797E+04  0.7818609E-02  0.9131621E-01
        2   -1    0    0  501    0  0.00000000000E+00  0.00000000000E+00  0.13722112184E+04  0.13722112184E+04  0.25500000920E-02 0. -1.
       -2   -1    0    0    0  501  0.00000000000E+00  0.00000000000E+00 -0.25316101665E+03  0.25316101667E+03  0.25500000920E-02 0.  1.
    10030    2    1    2    0    0  0.00000000000E+00  0.00000000000E+00  0.11190502018E+04  0.16253722351E+04  0.11787966528E+04 0.  0.
        2    1    3    3  502    0 -0.16823637481E+03  0.20600456797E+03  0.12847597026E+04  0.13120018496E+04  0.25500000920E-02 0. -1.
       -2    1    3    3    0  502  0.16823637481E+03 -0.20600456797E+03 -0.16570950085E+03  0.31337038550E+03  0.25500000920E-02 0.  1.
</event>
<event>
 5   0  0.3731281E-03  0.1200496E+04  0.7818609E-02  0.9112423E-01
       -1   -1    0    0    0  501  0.00000000000E+00  0.00000000000E+00  0.52366053584E+03  0.52366053586E+03  0.50400001928E-02 0. -1.
        1   -1    0    0  501    0  0.00000000000E+00  0.00000000000E+00 -0.68803651809E+03  0.68803651810E+03  0.50400001928E-02 0.  1.
    10030    2    1    2    0    0  0.00000000000E+00  0.00000000000E+00 -0.16437598225E+03  0.12116970540E+04  0.12004958505E+04 0.  0.
        5    1    3    3  502    0  0.15549290103E+03 -0.49519571560E+03  0.22208563131E+03  0.56457148055E+03  0.46999998093E+01 0.  1.
       -5    1    3    3    0  502 -0.15549290103E+03  0.49519571560E+03 -0.38646161356E+03  0.64712557342E+03  0.46999998093E+01 0. -1.
</event>
<event>
 5   0  0.3772254E-03  0.1202123E+04  0.7818609E-02  0.9111000E-01
        1   -1    0    0  501    0  0.00000000000E+00  0.00000000000E+00  0.90244963569E+03  0.90244963571E+03  0.50400001928E-02 0.  1.
       -1   -1    0    0    0  501  0.00000000000E+00  0.00000000000E+00 -0.40032725306E+03  0.40032725309E+03  0.50400001928E-02 0. -1.
    10030    2    1    2    0    0  0.00000000000E+00  0.00000000000E+00  0.50212238263E+03  0.13027768888E+04  0.12021234275E+04 0.  0.
        3    1    3    3  502    0 -0.42579669329E+02  0.14807872509E+02 -0.39849251420E+03  0.40103440675E+03  0.10100000352E+00 0. -1.
       -3    1    3    3    0  502  0.42579669329E+02 -0.14807872509E+02  0.90061489683E+03  0.90174248204E+03  0.10100000352E+00 0.  1.
</event>
<event>
 5   0  0.3772254E-03  0.1196300E+04  0.7818609E-02  0.9116102E-01
        1   -1    0    0  501    0  0.00000000000E+00  0.00000000000E+00  0.18253851453E+04  0.18253851453E+04  0.50400001928E-02 0.  1.
       -1   -1    0    0    0  501  0.00000000000E+00  0.00000000000E+00 -0.19600421669E+03  0.19600421675E+03  0.50400001928E-02 0. -1.
    10030    2    1    2    0    0  0.00000000000E+00  0.00000000000E+00  0.16293809286E+04  0.20213893621E+04  0.11962996040E+04 0.  0.
        3    1    3    3  502    0  0.26524044936E+03  0.28663510675E+03  0.15802409046E+04  0.16277817751E+04  0.10100000352E+00 0. -1.
       -3    1    3    3    0  502 -0.26524044936E+03 -0.28663510675E+03  0.49140024011E+02  0.39360758701E+03  0.10100000352E+00 0.  1.
</event>
<event>
 5   0  0.3648616E-03  0.1236628E+04  0.7818609E-02  0.9081387E-01
       -1   -1    0    0    0  501  0.00000000000E+00  0.00000000000E+00  0.33231468966E+03  0.33231468970E+03  0.50400001928E-02 0.  1.
        1   -1    0    0  501    0  0.00000000000E+00  0.00000000000E+00 -0.11504514626E+04  0.11504514626E+04  0.50400001928E-02 0. -1.
    10030    2    1    2    0    0  0.00000000000E+00  0.00000000000E+00 -0.81813677290E+03  0.14827661523E+04  0.12366275442E+04 0.  0.
        2    1    3    3  502    0  0.33011998825E+01 -0.53633984818E+03 -0.77793764931E+03  0.94491180376E+03  0.25500000920E-02 0. -1.
       -2    1    3    3    0  502 -0.33011998825E+01  0.53633984818E+03 -0.40199123593E+02  0.53785434851E+03  0.25500000920E-02 0.  1.
</event>
<event>
 5   0  0.6640844E-03  0.1228053E+04  0.7818609E-02  0.9088650E-01
       -2   -1    0    0    0  501  0.00000000000E+00  0.00000000000E+00  0.11019774715E+04  0.11019774715E+04  0.25500000920E-02 0.  1.
        2   -1    0    0  501    0  0.00000000000E+00  0.00000000000E+00 -0.34213820571E+03  0.34213820572E+03  0.25500000920E-02 0. -1.
    10030    2    1    2    0    0  0.00000000000E+00  0.00000000000E+00  0.75983926579E+03  0.14441156772E+04  0.12280530849E+04 0.  0.
        5    1    3    3  502    0 -0.45159089404E+03  0.15046713742E+03  0.83601397257E+03  0.96203749790E+03  0.46999998093E+01 0.  1.
       -5    1    3    3    0  502  0.45159089404E+03 -0.15046713742E+03 -0.76174706782E+02  0.48207817932E+03  0.46999998093E+01 0. -1.
</event>
<event>
 5   0  0.3944074E-03  0.1186403E+04  0.7818609E-02  0.9124842E-01
        1   -1    0    0  501    0  0.00000000000E+00  0.00000000000E+00  0.71512246327E+03  0.71512246328E+03  0.50400001928E-02 0.  1.
       -1   -1    0    0    0  501  0.00000000000E+00  0.00000000000E+00 -0.49206705980E+03  0.49206705983E+03  0.50400001928E-02 0. -1.
    10030    2    1    2    0    0  0.00000000000E+00  0.00000000000E+00  0.22305540346E+03  0.12071895231E+04  0.11864033175E+04 0.  0.
        4    1    3    3  502    0  0.45904181869E+03  0.36035487671E+03  0.21974694252E+03  0.62359069919E+03  0.12699999809E+01 0.  1.
       -4    1    3    3    0  502 -0.45904181869E+03 -0.36035487671E+03  0.33084609469E+01  0.58359882392E+03  0.12699999809E+01 0. -1.
</event>
<event>
 5   0  0.3772254E-03  0.1201522E+04  0.7818609E-02  0.9111525E-01
        1   -1    0    0  501    0  0.00000000000E+00  0.00000000000E+00  0.95027946645E+03  0.95027946646E+03  0.50400001928E-02 0.  1.
       -1   -1    0    0    0  501  0.00000000000E+00  0.00000000000E+00 -0.37979763960E+03  0.37979763963E+03  0.50400001928E-02 0. -1.
    10030    2    1    2    0    0  0.00000000000E+00  0.00000000000E+00  0.57048182685E+03  0.13300771061E+04  0.12015221985E+04 0.  0.
        3    1    3    3  502    0  0.48336551853E+03 -0.34029248184E+03  0.16667013879E+03  0.61418249981E+03  0.10100000352E+00 0.  1.
       -3    1    3    3    0  502 -0.48336551853E+03  0.34029248184E+03  0.40381168806E+03  0.71589460629E+03  0.10100000352E+00 0. -1.
</event>
<event>
 5   0  0.6585930E-03  0.1209937E+04  0.7818609E-02  0.9104203E-01
       -2   -1    0    0    0  501  0.00000000000E+00  0.00000000000E+00  0.79372259364E+03  0.79372259364E+03  0.25500000920E-02 0.  1.
        2   -1    0    0  501    0  0.00000000000E+00  0.00000000000E+00 -0.46110192115E+03  0.46110192116E+03  0.25500000920E-02 0. -1.
    10030    2    1    2    0    0  0.00000000000E+00  0.00000000000E+00  0.33262067248E+03  0.12548245148E+04  0.12099372096E+04 0.  0.
        2    1    3    3  502    0 -0.52023724257E+03 -0.86088604929E+02 -0.14121873051E+03  0.54589446445E+03  0.25500000920E-02 0. -1.
       -2    1    3    3    0  502  0.52023724257E+03  0.86088604929E+02  0.47383940299E+03  0.70893005035E+03  0.25500000920E-02 0.  1.
</event>
<event>
 5   0  0.2537625E-03  0.1190783E+04  0.7818609E-02  0.9120962E-01
       -4   -1    0    0    0  501  0.00000000000E+00  0.00000000000E+00  0.21110871901E+03  0.21111253905E+03  0.12699999809E+01 0.  1.
        4   -1    0    0  501    0  0.00000000000E+00  0.00000000000E+00 -0.16791690992E+04  0.16791695794E+04  0.12699999809E+01 0. -1.
    10030    2    1    2    0    0  0.00000000000E+00  0.00000000000E+00 -0.14680603801E+04  0.18902821185E+04  0.11907834428E+04 0.  0.
        3    1    3    3  502    0 -0.35300448230E+03 -0.26965450119E+03 -0.10470871121E+03  0.45638759727E+03  0.10100000352E+00 0.  1.
       -3    1    3    3    0  502  0.35300448230E+03  0.26965450119E+03 -0.13633516689E+04  0.14338945212E+04  0.10100000352E+00 0. -1.
</event>
<event>
 5   0  0.6640844E-03  0.1219670E+04  0.7818609E-02  0.9095812E-01
       -2   -1    0    0    0  501  0.00000000000E+00  0.00000000000E+00  0.28211855375E+03  0.28211855377E+03  0.25500000920E-02 0. -1.
        2   -1    0    0  501    0  0.00000000000E+00  0.00000000000E+00 -0.13182356292E+04  0.13182356292E+04  0.25500000920E-02 0.  1.
    10030    2    1    2    0    0  0.00000000000E+00  0.00000000000E+00 -0.10361170754E+04  0.16003541830E+04  0.12196700033E+04 0.  0.
        5    1    3    3  502    0 -0.23408394148E+03  0.11402519552E+03  0.20548956793E+03  0.33173044689E+03  0.46999998093E+01 0. -1.
       -5    1    3    3    0  502  0.23408394148E+03 -0.11402519552E+03 -0.12416066434E+04  0.12686237361E+04  0.46999998093E+01 0.  1.
</event>
<event>
 5   0  0.3701879E-03  0.1205408E+04  0.7818609E-02  0.9108136E-01
       -1   -1    0    0    0  501  0.00000000000E+00  0.00000000000E+00  0.33463140695E+03  0.33463140699E+03  0.50400001928E-02 0. -1.
        1   -1    0    0  501    0  0.00000000000E+00  0.00000000000E+00 -0.10855289728E+04  0.10855289728E+04  0.50400001928E-02 0.  1.
    10030    2    1    2    0    0  0.00000000000E+00  0.00000000000E+00 -0.75089756581E+03  0.14201603798E+04  0.12054079600E+04 0.  0.
        1    1    3    3  502    0 -0.52331088646E+03 -0.28583669646E+03 -0.47879936161E+03  0.76472591799E+03  0.50400001928E-02 0.  1.
       -1    1    3    3    0  502  0.52331088646E+03  0.28583669646E+03 -0.27209820420E+03  0.65543446178E+03  0.50400001928E-02 0. -1.
</event>
<event>
 5   0  0.6493047E-03  0.1179563E+04  0.7818609E-02  0.9130936E-01
        2   -1    0    0  501    0  0.00000000000E+00  0.00000000000E+00  0.37756671690E+03  0.37756671691E+03  0.25500000920E-02 0.  1.
       -2   -1    0    0    0  501  0.00000000000E+00  0.00000000000E+00 -0.92127279811E+03  0.92127279811E+03  0.25500000920E-02 0. -1.
    10030    2    1    2    0    0  0.00000000000E+00  0.00000000000E+00 -0.54370608121E+03  0.12988395150E+04  0.11795625388E+04 0.  0.
        3    1    3    3  502    0 -0.53934950494E+03 -0.23420175643E+03 -0.22147053585E+03  0.62832918096E+03  0.10100000352E+00 0.  1.
       -3    1    3    3    0  502  0.53934950494E+03  0.23420175643E+03 -0.32223554536E+03  0.67051033406E+03  0.10100000352E+00 0. -1.
</event>
<event>
 5   0  0.6640844E-03  0.1184612E+04  0.7818609E-02  0.9126433E-01
        2   -1    0    0  501    0  0.00000000000E+00  0.00000000000E+00  0.55486194161E+03  0.55486194162E+03  0.25500000920E-02 0. -1.
       -2   -1    0    0    0  501  0.00000000000E+00  0.00000000000E+00 -0.63227689825E+03  0.63227689826E+03  0.25500000920E-02 0.  1.
    10030    2    1    2    0    0  0.00000000000E+00  0.00000000000E+00 -0.77414956640E+02  0.11871388399E+04  0.11846119827E+04 0.  0.
        5    1    3    3  502    0 -0.35296260333E+03  0.34490610203E+03 -0.36691405777E+03  0.61497222243E+03  0.46999998093E+01 0.  1.
       -5    1    3    3    0  502  0.35296260333E+03 -0.34490610203E+03  0.28949910113E+03  0.57216661745E+03  0.46999998093E+01 0. -1.
</event>
<event>
 5   0  0.3701879E-03  0.1229456E+04  0.7818609E-02  0.9087458E-01
       -1   -1    0    0    0  501  0.00000000000E+00  0.00000000000E+00  0.30282317094E+03  0.30282317098E+03  0.50400001928E-02 0. -1.
        1   -1    0    0  501    0  0.00000000000E+00  0.00000000000E+00 -0.12478907427E+04  0.12478907427E+04  0.50400001928E-02 0.  1.
    10030    2    1    2    0    0  0.00000000000E+00  0.00000000000E+00 -0.94506757174E+03  0.15507139137E+04  0.12294555408E+04 0.  0.
        1    1    3    3  502    0 -0.52437336130E+03 -0.13326875353E+03 -0.10445361999E+03  0.55103406561E+03  0.50400001928E-02 0. -1.
       -1    1    3    3    0  502  0.52437336130E+03  0.13326875353E+03 -0.84061395175E+03  0.99967984806E+03  0.50400001928E-02 0.  1.
</event>
<event>
 5   0  0.6585930E-03  0.1117283E+04  0.7818609E-02  0.9188509E-01
        2   -1    0    0  501    0  0.00000000000E+00  0.00000000000E+00  0.14415056076E+04  0.14415056076E+04  0.25500000920E-02 0. -1.
       -2   -1    0    0    0  501  0.00000000000E+00  0.00000000000E+00 -0.21649609477E+03  0.21649609479E+03  0.25500000920E-02 0.  1.
    10030    2    1    2    0    0  0.00000000000E+00  0.00000000000E+00  0.12250095128E+04  0.16580017024E+04  0.11172830163E+04 0.  0.
        2    1    3    3  502    0 -0.19999784339E+03  0.23592471833E+03  0.13028577276E+04  0.13390660433E+04  0.25500000920E-02 0. -1.
       -2    1    3    3    0  502  0.19999784339E+03 -0.23592471833E+03 -0.77848214736E+02  0.31893565907E+03  0.25500000920E-02 0.  1.
</event>
<event>
 5   0  0.6640844E-03  0.1210622E+04  0.7818609E-02  0.9103610E-01
        2   -1    0    0  501    0  0.00000000000E+00  0.00000000000E+00  0.61235312661E+03  0.61235312662E+03  0.25500000920E-02 0. -1.
       -2   -1    0    0    0  501  0.00000000000E+00  0.00000000000E+00 -0.59834959204E+03  0.59834959205E+03  0.25500000920E-02 0.  1.
    10030    2    1    2    0    0  0.00000000000E+00  0.00000000000E+00  0.14003534570E+02  0.12107027187E+04  0.12106217304E+04 0.  0.
        5    1    3    3  502    0  0.16500068870E+03 -0.31951774647E+03  0.49392481566E+03  0.61098333128E+03  0.46999998093E+01 0. -1.
       -5    1    3    3    0  502 -0.16500068870E+03  0.31951774647E+03 -0.47992128109E+03  0.59971938739E+03  0.46999998093E+01 0.  1.
</event>
<event>
 5   0  0.3648616E-03  0.1193374E+04  0.7818609E-02  0.9118676E-01
       -1   -1    0    0    0  501  0.00000000000E+00  0.00000000000E+00  0.35879267614E+03  0.35879267618E+03  0.50400001928E-02 0. -1.
        1   -1    0    0  501    0  0.00000000000E+00  0.00000000000E+00 -0.99231556331E+03  0.99231556332E+03  0.50400001928E-02 0.  1.
    10030    2    1    2    0    0  0.00000000000E+00  0.00000000000E+00 -0.63352288716E+03  0.13511082395E+04  0.11933743027E+04 0.  0.
        2    1    3    3  502    0 -0.43959759886E+02 -0.53610189269E+03 -0.60915607872E+03  0.81265541780E+03  0.25500000920E-02 0.  1.
       -2    1    3    3    0  502  0.43959759886E+02  0.53610189269E+03 -0.24366808441E+02  0.53845282170E+03  0.25500000920E-02 0. -1.
</event>
<event>
 5   0  0.6640844E-03  0.1209982E+04  0.7818609E-02  0.9104164E-01
       -2   -1    0    0    0  501  0.00000000000E+00  0.00000000000E+00  0.22133598699E+03  0.22133598700E+03  0.25500000920E-02 0. -1.
        2   -1    0    0  501    0  0.00000000000E+00  0.00000000000E+00 -0.16536595287E+04  0.16536595287E+04  0.25500000920E-02 0.  1.
    10030    2    1    2    0    0  0.00000000000E+00  0.00000000000E+00 -0.14323235417E+04  0.18749955157E+04  0.12099824196E+04 0.  0.
        5    1    3    3  502    0 -0.29871723096E+03 -0.46232666760E+03 -0.32716958522E+03  0.64034362582E+03  0.46999998093E+01 0. -1.
       -5    1    3    3    0  502  0.29871723096E+03  0.46232666760E+03 -0.11051539565E+04  0.12346518899E+04  0.46999998093E+01 0.  1.
</event>
<event>
 5   0  0.3944074E-03  0.1220272E+04  0.7818609E-02  0.9095295E-01
        1   -1    0    0  501    0  0.00000000000E+00  0.00000000000E+00  0.20265741162E+03  0.20265741169E+03  0.50400001928E-02 0.  1.
       -1   -1    0    0    0  501  0.00000000000E+00  0.00000000000E+00 -0.18369229714E+04  0.18369229714E+04  0.50400001928E-02 0. -1.
    10030    2    1    2    0    0  0.00000000000E+00  0.00000000000E+00 -0.16342655597E+04  0.20395803831E+04  0.12202721906E+04 0.  0.
        4    1    3    3  502    0  0.13076835998E+03 -0.50651434280E+03 -0.29227862141E+03  0.59923747285E+03  0.12699999809E+01 0.  1.
       -4    1    3    3    0  502 -0.13076835998E+03  0.50651434280E+03 -0.13419869383E+04  0.14403429102E+04  0.12699999809E+01 0. -1.
</event>
<event>
 5   0  0.3731281E-03  0.1197208E+04  0.7818609E-02  0.9115304E-01
        1   -1    0    0  501    0  0.00000000000E+00  0.00000000000E+00  0.45088166366E+03  0.45088166369E+03  0.50400001928E-02 0.  1.
       -1   -1    0    0    0  501  0.00000000000E+00  0.00000000000E+00 -0.79472498035E+03  0.79472498037E+03  0.50400001928E-02 0. -1.
    10030    2    1    2    0    0  0.00000000000E+00  0.00000000000E+00 -0.34384331670E+03  0.12456066441E+04  0.11972082882E+04 0.  0.
        5    1    3    3  502    0 -0.47432439628E+02 -0.58777242223E+03 -0.27893176061E+03  0.65234291116E+03  0.46999998093E+01 0.  1.
       -5    1    3    3    0  502  0.47432439628E+02  0.58777242223E+03 -0.64911556085E+02  0.59326373290E+03  0.46999998093E+01 0. -1.
</event>
<event>
 5   0  0.3731281E-03  0.1202452E+04  0.7818609E-02  0.9110713E-01
       -1   -1    0    0    0  501  0.00000000000E+00  0.00000000000E+00  0.63874195686E+03  0.63874195688E+03  0.50400001928E-02 0.  1.
        1   -1    0    0  501    0  0.00000000000E+00  0.00000000000E+00 -0.56591339495E+03  0.56591339498E+03  0.50400001928E-02 0. -1.
    10030    2    1    2    0    0  0.00000000000E+00  0.00000000000E+00  0.72828561904E+02  0.12046553519E+04  0.12024518773E+04 0.  0.
        5    1    3    3  502    0  0.14527526496E+03 -0.10606423260E+02 -0.54794966983E+03  0.56699940872E+03  0.46999998093E+01 0. -1.
       -5    1    3    3    0  502 -0.14527526496E+03  0.10606423260E+02  0.62077823173E+03  0.63765594314E+03  0.46999998093E+01 0.  1.
</event>
<event>
 5   0  0.3731281E-03  0.1158547E+04  0.7818609E-02  0.9149934E-01
        1   -1    0    0  501    0  0.00000000000E+00  0.00000000000E+00  0.15172197615E+04  0.15172197615E+04  0.50400001928E-02 0. -1.
       -1   -1    0    0    0  501  0.00000000000E+00  0.00000000000E+00 -0.22116642034E+03  0.22116642040E+03  0.50400001928E-02 0.  1.
    10030    2    1    2    0    0  0.00000000000E+00  0.00000000000E+00  0.12960533412E+04  0.17383861819E+04  0.11585474761E+04 0.  0.
        5    1    3    3  502    0  0.34033952937E+03 -0.33266772711E+03  0.15255401120E+03  0.49979358564E+03  0.46999998093E+01 0.  1.
       -5    1    3    3    0  502 -0.34033952937E+03  0.33266772711E+03  0.11434993300E+04  0.12385925963E+04  0.46999998093E+01 0. -1.
</event>
<event>
 5   0  0.6493047E-03  0.1186204E+04  0.7818609E-02  0.9125019E-01
        2   -1    0    0  501    0  0.00000000000E+00  0.00000000000E+00  0.21257879362E+04  0.21257879362E+04  0.25500000920E-02 0.  1.
       -2   -1    0    0    0  501  0.00000000000E+00  0.00000000000E+00 -0.16547744781E+03  0.16547744783E+03  0.25500000920E-02 0. -1.
    10030    2    1    2    0    0  0.00000000000E+00  0.00000000000E+00  0.19603104884E+04  0.22912653840E+04  0.11862039661E+04 0.  0.
        3    1    3    3  502    0 -0.46162878020E+03  0.21167527751E+02  0.26202592854E+03  0.53123139250E+03  0.10100000352E+00 0. -1.
       -3    1    3    3    0  502  0.46162878020E+03 -0.21167527751E+02  0.16982845599E+04  0.17600339915E+04  0.10100000352E+00 0.  1.
</event>
<event>
 5   0  0.3731281E-03  0.1197636E+04  0.7818609E-02  0.9114928E-01
       -1   -1    0    0    0  501  0.00000000000E+00  0.00000000000E+00  0.87139686251E+03  0.87139686253E+03  0.50400001928E-02 0.  1.
        1   -1    0    0  501    0  0.00000000000E+00  0.00000000000E+00 -0.41150352409E+03  0.41150352412E+03  0.50400001928E-02 0. -1.
    10030    2    1    2    0    0  0.00000000000E+00  0.00000000000E+00  0.45989333842E+03  0.12829003867E+04  0.11976358041E+04 0.  0.
        5    1    3    3  502    0 -0.28035775779E+03 -0.12391893565E+03  0.78096583887E+03  0.83897920501E+03  0.46999998093E+01 0.  1.
       -5    1    3    3    0  502  0.28035775779E+03  0.12391893565E+03 -0.32107250045E+03  0.44392118164E+03  0.46999998093E+01 0. -1.
</event>
<event>
 5   0  0.3731281E-03  0.1204472E+04  0.7818609E-02  0.9108951E-01
       -1   -1    0    0    0  501  0.00000000000E+00  0.00000000000E+00  0.32024465282E+03  0.32024465286E+03  0.50400001928E-02 0.  1.
        1   -1    0    0  501    0  0.00000000000E+00  0.00000000000E+00 -0.11325349612E+04  0.11325349612E+04  0.50400001928E-02 0. -1.
    10030    2    1    2    0    0  0.00000000000E+00  0.00000000000E+00 -0.81229030841E+03  0.14527796141E+04  0.12044721093E+04 0.  0.
        5    1    3    3  502    0  0.15511439263E+03 -0.12799252853E+03  0.27852543211E+03  0.34357105304E+03  0.46999998093E+01 0.  1.
       -5    1    3    3    0  502 -0.15511439263E+03  0.12799252853E+03 -0.10908157405E+04  0.11092085611E+04  0.46999998093E+01 0. -1.
</event>
<event>
 5   0  0.6493047E-03  0.1369177E+04  0.7818609E-02  0.8976437E-01
        2   -1    0    0  501    0  0.00000000000E+00  0.00000000000E+00  0.56771708088E+03  0.56771708089E+03  0.25500000920E-02 0.  1.
       -2   -1    0    0    0  501  0.00000000000E+00  0.00000000000E+00 -0.82551937720E+03  0.82551937720E+03  0.25500000920E-02 0. -1.
    10030    2    1    2    0    0  0.00000000000E+00  0.00000000000E+00 -0.25780229632E+03  0.13932364581E+04  0.13691770536E+04 0.  0.
        3    1    3    3  502    0  0.42980835054E+03 -0.15288923006E+03  0.39051049304E+03  0.60050711089E+03  0.10100000352E+00 0.  1.
       -3    1    3    3    0  502 -0.42980835054E+03  0.15288923006E+03 -0.64831278935E+03  0.79272934719E+03  0.10100000352E+00 0. -1.
</event>
<event>
 5   0  0.6349142E-03  0.1109377E+04  0.7818609E-02  0.9196101E-01
       -2   -1    0    0    0  501  0.00000000000E+00  0.00000000000E+00  0.62986772010E+03  0.62986772011E+03  0.25500000920E-02 0. -1.
        2   -1    0    0  501    0  0.00000000000E+00  0.00000000000E+00 -0.48848204840E+03  0.48848204841E+03  0.25500000920E-02 0.  1.
    10030    2    1    2    0    0  0.00000000000E+00  0.00000000000E+00  0.14138567170E+03  0.11183497685E+04  0.11093765351E+04 0.  0.
        1    1    3    3  502    0  0.38943773869E+03 -0.14377150388E+03  0.44156404156E+03  0.60606171341E+03  0.50400001928E-02 0. -1.
       -1    1    3    3    0  502 -0.38943773869E+03  0.14377150388E+03 -0.30017836986E+03  0.51228805510E+03  0.50400001928E-02 0.  1.
</event>
<event>
 5   0  0.6658994E-03  0.1238595E+04  0.7818609E-02  0.9079729E-01
       -2   -1    0    0    0  501  0.00000000000E+00  0.00000000000E+00  0.72990942294E+03  0.72990942294E+03  0.25500000920E-02 0. -1.
        2   -1    0    0  501    0  0.00000000000E+00  0.00000000000E+00 -0.52544779554E+03  0.52544779554E+03  0.25500000920E-02 0.  1.
    10030    2    1    2    0    0  0.00000000000E+00  0.00000000000E+00  0.20446162740E+03  0.12553572185E+04  0.12385948445E+04 0.  0.
        4    1    3    3  502    0 -0.17084382668E+03  0.48298525153E+03  0.45488409553E+03  0.68511569794E+03  0.12699999809E+01 0. -1.
       -4    1    3    3    0  502  0.17084382668E+03 -0.48298525153E+03 -0.25042246813E+03  0.57024152054E+03  0.12699999809E+01 0.  1.
</event>
<event>
 5   0  0.3648616E-03  0.1196676E+04  0.7818609E-02  0.9115771E-01
       -1   -1    0    0    0  501  0.00000000000E+00  0.00000000000E+00  0.96671742905E+03  0.96671742907E+03  0.50400001928E-02 0. -1.
        1   -1    0    0  501    0  0.00000000000E+00  0.00000000000E+00 -0.37033381317E+03  0.37033381320E+03  0.50400001928E-02 0.  1.
    10030    2    1    2    0    0  0.00000000000E+00  0.00000000000E+00  0.59638361588E+03  0.13370512423E+04  0.11966756483E+04 0.  0.
        2    1    3    3  502    0 -0.30028035124E+03 -0.60304641987E+02 -0.27611061093E+03  0.41236150240E+03  0.25500000920E-02 0.  1.
       -2    1    3    3    0  502  0.30028035124E+03  0.60304641987E+02  0.87249422682E+03  0.92468973987E+03  0.25500000920E-02 0. -1.
</event>
<event>
 5   0  0.6640844E-03  0.1176466E+04  0.7818609E-02  0.9133709E-01
       -2   -1    0    0    0  501  0.00000000000E+00  0.00000000000E+00  0.60351456881E+03  0.60351456881E+03  0.25500000920E-02 0.  1.
        2   -1    0    0  501    0  0.00000000000E+00  0.00000000000E+00 -0.57333848261E+03  0.57333848262E+03  0.25500000920E-02 0. -1.
    10030    2    1    2    0    0  0.00000000000E+00  0.00000000000E+00  0.30176086193E+02  0.11768530514E+04  0.11764661102E+04 0.  0.
        5    1    3    3  502    0 -0.29976898421E+03 -0.27001233418E+03  0.44328014980E+03  0.59940594401E+03  0.46999998093E+01 0.  1.
       -5    1    3    3    0  502  0.29976898421E+03  0.27001233418E+03 -0.41310406361E+03  0.57744710742E+03  0.46999998093E+01 0. -1.
</event>
<event>
 5   0  0.3944074E-03  0.1188645E+04  0.7818609E-02  0.9122854E-01
        1   -1    0    0  501    0  0.00000000000E+00  0.00000000000E+00  0.18228556320E+04  0.18228556320E+04  0.50400001928E-02 0.  1.
       -1   -1    0    0    0  501  0.00000000000E+00  0.00000000000E+00 -0.19377247160E+03  0.19377247167E+03  0.50400001928E-02 0. -1.
    10030    2    1    2    0    0  0.00000000000E+00  0.00000000000E+00  0.16290831604E+04  0.20166281037E+04  0.11886450122E+04 0.  0.
        4    1    3    3  502    0  0.29903070827E+03  0.26342820164E+03  0.15625837300E+04  0.16126014102E+04  0.12699999809E+01 0.  1.
       -4    1    3    3    0  502 -0.29903070827E+03 -0.26342820164E+03  0.66499430361E+02  0.40402669348E+03  0.12699999809E+01 0. -1.
</event>
<event>
 5   0  0.6349142E-03  0.1144294E+04  0.7818609E-02  0.9163064E-01
       -2   -1    0    0    0  501  0.00000000000E+00  0.00000000000E+00  0.60101771807E+03  0.60101771807E+03  0.25500000920E-02 0.  1.
        2   -1    0    0  501    0  0.00000000000E+00  0.00000000000E+00 -0.54466334587E+03  0.54466334587E+03  0.25500000920E-02 0. -1.
    10030    2    1    2    0    0  0.00000000000E+00  0.00000000000E+00  0.56354372198E+02  0.11456810639E+04  0.11442942301E+04 0.  0.
        1    1    3    3  502    0 -0.29554645936E+03 -0.19086875188E+02  0.51830117206E+03  0.59694901242E+03  0.50400001928E-02 0.  1.
       -1    1    3    3    0  502  0.29554645936E+03  0.19086875188E+02 -0.46194679986E+03  0.54873205153E+03  0.50400001928E-02 0. -1.
</event>
<event>
 5   0  0.6640844E-03  0.1251775E+04  0.7818609E-02  0.9068707E-01
        2   -1    0    0  501    0  0.00000000000E+00  0.00000000000E+00  0.68845770652E+03  0.68845770652E+03  0.25500000920E-02 0. -1.
       -2   -1    0    0    0  501  0.00000000000E+00  0.00000000000E+00 -0.56900414536E+03  0.56900414536E+03  0.25500000920E-02 0.  1.
    10030    2    1    2    0    0  0.00000000000E+00  0.00000000000E+00  0.11945356116E+03  0.12574618519E+04  0.12517752017E+04 0.  0.
        5    1    3    3  502    0  0.59823680273E+03 -0.14821944100E+03 -0.49657394158E+02  0.61833989166E+03  0.46999998093E+01 0.  1.
       -5    1    3    3    0  502 -0.59823680273E+03  0.14821944100E+03  0.16911095532E+03  0.63912196022E+03  0.46999998093E+01 0. -1.
</event>
<event>
 5   0  0.6585930E-03  0.1198120E+04  0.7818609E-02  0.9114503E-01
       -2   -1    0    0    0  501  0.00000000000E+00  0.00000000000E+00  0.30782279408E+03  0.30782279409E+03  0.25500000920E-02 0.  1.
        2   -1    0    0  501    0  0.00000000000E+00  0.00000000000E+00 -0.11658430293E+04  0.11658430293E+04  0.25500000920E-02 0. -1.
    10030    2    1    2    0    0  0.00000000000E+00  0.00000000000E+00 -0.85802023518E+03  0.14736658233E+04  0.11981202923E+04 0.  0.
        2    1    3    3  502    0 -0.39403292323E+03 -0.32012143887E+03 -0.82016237928E+03  0.96457555878E+03  0.25500000920E-02 0. -1.
       -2    1    3    3    0  502  0.39403292323E+03  0.32012143887E+03 -0.37857855894E+02  0.50909026456E+03  0.25500000920E-02 0.  1.
</event>
<event>
 5   0  0.3701879E-03  0.1132756E+04  0.7818609E-02  0.9173841E-01
       -1   -1    0    0    0  501  0.00000000000E+00  0.00000000000E+00  0.34195332704E+03  0.34195332707E+03  0.50400001928E-02 0.  1.
        1   -1    0    0  501    0  0.00000000000E+00  0.00000000000E+00 -0.93809229391E+03  0.93809229393E+03  0.50400001928E-02 0. -1.
    10030    2    1    2    0    0  0.00000000000E+00  0.00000000000E+00 -0.59613896688E+03  0.12800456210E+04  0.11327555447E+04 0.  0.
        1    1    3    3  502    0 -0.37205638413E+03 -0.42636631449E+03 -0.27110004474E+03  0.62746268526E+03  0.50400001928E-02 0.  1.
       -1    1    3    3    0  502  0.37205638413E+03  0.42636631449E+03 -0.32503892213E+03  0.65258293575E+03  0.50400001928E-02 0. -1.
</event>
<event>
 5   0  0.3944074E-03  0.1205299E+04  0.7818609E-02  0.9108231E-01
       -1   -1    0    0    0  501  0.00000000000E+00  0.00000000000E+00  0.61599386345E+03  0.61599386348E+03  0.50400001928E-02 0. -1.
        1   -1    0    0  501    0  0.00000000000E+00  0.00000000000E+00 -0.58959413880E+03  0.58959413882E+03  0.50400001928E-02 0.  1.
    10030    2    1    2    0    0  0.00000000000E+00  0.00000000000E+00  0.26399724659E+02  0.12055880023E+04  0.12052989197E+04 0.  0.
        4    1    3    3  502    0 -0.58855153342E+03 -0.86162533967E+02 -0.83611102840E+02  0.60067405402E+03  0.12699999809E+01 0.  1.
       -4    1    3    3    0  502  0.58855153342E+03  0.86162533967E+02  0.11001082750E+03  0.60491394828E+03  0.12699999809E+01 0. -1.
</event>
<event>
 5   0  0.6585930E-03  0.6435141E+03  0.7818609E-02  0.9819026E-01
       -2   -1    0    0    0  501  0.00000000000E+00  0.00000000000E+00  0.18146493527E+03  0.18146493529E+03  0.25500000920E-02 0. -1.
        2   -1    0    0  501    0  0.00000000000E+00  0.00000000000E+00 -0.57051021030E+03  0.57051021030E+03  0.25500000920E-02 0.  1.
    10030    2    1    2    0    0  0.00000000000E+00  0.00000000000E+00 -0.38904527503E+03  0.75197514559E+03  0.64351409741E+03 0.  0.
        2    1    3    3  502    0  0.52772972813E+02 -0.31565731318E+03 -0.23333297523E+03  0.39606666530E+03  0.25500000920E-02 0.  1.
       -2    1    3    3    0  502 -0.52772972813E+02  0.31565731318E+03 -0.15571229980E+03  0.35590848029E+03  0.25500000920E-02 0. -1.
</event>
<event>
 5   0  0.6640844E-03  0.1263708E+04  0.7818609E-02  0.9058851E-01
       -2   -1    0    0    0  501  0.00000000000E+00  0.00000000000E+00  0.46406859842E+03  0.46406859842E+03  0.25500000920E-02 0.  1.
        2   -1    0    0  501    0  0.00000000000E+00  0.00000000000E+00 -0.86030260739E+03  0.86030260740E+03  0.25500000920E-02 0. -1.
    10030    2    1    2    0    0  0.00000000000E+00  0.00000000000E+00 -0.39623400898E+03  0.13243712058E+04  0.12637079176E+04 0.  0.
        5    1    3    3  502    0 -0.40968177654E+03 -0.25859051556E+03  0.22695060851E+03  0.53501110406E+03  0.46999998093E+01 0.  1.
       -5    1    3    3    0  502  0.40968177654E+03  0.25859051556E+03 -0.62318461749E+03  0.78936010175E+03  0.46999998093E+01 0. -1.
</event>
<event>
 5   0  0.3944074E-03  0.1125914E+04  0.7818609E-02  0.9180296E-01
        1   -1    0    0  501    0  0.00000000000E+00  0.00000000000E+00  0.77013670582E+03  0.77013670583E+03  0.50400001928E-02 0.  1.
       -1   -1    0    0    0  501  0.00000000000E+00  0.00000000000E+00 -0.41151193782E+03  0.41151193785E+03  0.50400001928E-02 0. -1.
    10030    2    1    2    0    0  0.00000000000E+00  0.00000000000E+00  0.35862476800E+03  0.11816486437E+04  0.11259137591E+04 0.  0.
        4    1    3    3  502    0 -0.17249386400E+02  0.46567029168E+03 -0.15219148682E+03  0.49021446679E+03  0.12699999809E+01 0. -1.
       -4    1    3    3    0  502  0.17249386400E+02 -0.46567029168E+03  0.51081625482E+03  0.69143417689E+03  0.12699999809E+01 0.  1.
</event>
<event>
 5   0  0.3648616E-03  0.1168245E+04  0.7818609E-02  0.9141115E-01
       -1   -1    0    0    0  501  0.00000000000E+00  0.00000000000E+00  0.27326069422E+03  0.27326069427E+03  0.50400001928E-02 0. -1.
        1   -1    0    0  501    0  0.00000000000E+00  0.00000000000E+00 -0.12486211892E+04  0.12486211892E+04  0.50400001928E-02 0.  1.
    10030    2    1    2    0    0  0.00000000000E+00  0.00000000000E+00 -0.97536049495E+03  0.15218818834E+04  0.11682449966E+04 0.  0.
        2    1    3    3  502    0  0.54867721404E+03 -0.10198269711E+03 -0.71238105981E+03  0.90494968374E+03  0.25500000920E-02 0. -1.
       -2    1    3    3    0  502 -0.54867721404E+03  0.10198269711E+03 -0.26297943514E+03  0.61693219970E+03  0.25500000920E-02 0.  1.
</event>
<event>
 5   0  0.2537625E-03  0.1190692E+04  0.7818609E-02  0.9121043E-01
       -3   -1    0    0    0  501  0.00000000000E+00  0.00000000000E+00  0.77483371784E+03  0.77483372443E+03  0.10100000352E+00 0.  1.
        3   -1    0    0  501    0  0.00000000000E+00  0.00000000000E+00 -0.45743571940E+03  0.45743573055E+03  0.10100000352E+00 0. -1.
    10030    2    1    2    0    0  0.00000000000E+00  0.00000000000E+00  0.31739799844E+03  0.12322694550E+04  0.11906916143E+04 0.  0.
        5    1    3    3  502    0 -0.17102105086E+03 -0.20235021581E+03 -0.39304073846E+03  0.47402206885E+03  0.46999998093E+01 0. -1.
       -5    1    3    3    0  502  0.17102105086E+03  0.20235021581E+03  0.71043873690E+03  0.75824738612E+03  0.46999998093E+01 0.  1.
</event>
<event>
 5   0  0.6658994E-03  0.1735738E+04  0.7818609E-02  0.8741240E-01
        2   -1    0    0  501    0  0.00000000000E+00  0.00000000000E+00  0.11006097994E+04  0.11006097994E+04  0.25500000920E-02 0.  1.
       -2   -1    0    0    0  501  0.00000000000E+00  0.00000000000E+00 -0.68434482819E+03  0.68434482820E+03  0.25500000920E-02 0. -1.
    10030    2    1    2    0    0  0.00000000000E+00  0.00000000000E+00  0.41626497120E+03  0.17849546276E+04  0.17357380264E+04 0.  0.
        4    1    3    3  502    0 -0.76591800160E+03 -0.80875681407E+02 -0.20323998501E+03  0.79654213036E+03  0.12699999809E+01 0. -1.
       -4    1    3    3    0  502  0.76591800160E+03  0.80875681407E+02  0.61950495621E+03  0.98841249723E+03  0.12699999809E+01 0.  1.
</event>
<event>
 5   0  0.3731281E-03  0.1102916E+04  0.7818609E-02  0.9202354E-01
       -1   -1    0    0    0  501  0.00000000000E+00  0.00000000000E+00  0.30450058615E+03  0.30450058619E+03  0.50400001928E-02 0.  1.
        1   -1    0    0  501    0  0.00000000000E+00  0.00000000000E+00 -0.99870385494E+03  0.99870385495E+03  0.50400001928E-02 0. -1.
    10030    2    1    2    0    0  0.00000000000E+00  0.00000000000E+00 -0.69420326879E+03  0.13032044411E+04  0.11029159701E+04 0.  0.
        5    1    3    3  502    0 -0.10932707319E+02  0.44045676081E+03 -0.73892624596E+03  0.86032306095E+03  0.46999998093E+01 0. -1.
       -5    1    3    3    0  502  0.10932707319E+02 -0.44045676081E+03  0.44722977174E+02  0.44288138019E+03  0.46999998093E+01 0.  1.
</event>
<event>
 5   0  0.6658994E-03  0.1159989E+04  0.7818609E-02  0.9148618E-01
       -2   -1    0    0    0  501  0.00000000000E+00  0.00000000000E+00  0.72342915539E+03  0.72342915540E+03  0.25500000920E-02 0. -1.
        2   -1    0    0  501    0  0.00000000000E+00  0.00000000000E+00 -0.46499857977E+03  0.46499857977E+03  0.25500000920E-02 0.  1.
    10030    2    1    2    0    0  0.00000000000E+00  0.00000000000E+00  0.25843057562E+03  0.11884277352E+04  0.11599888445E+04 0.  0.
        4    1    3    3  502    0 -0.50579691949E+03 -0.27240877853E+03  0.47543580106E+02  0.57645387612E+03  0.12699999809E+01 0.  1.
       -4    1    3    3    0  502  0.50579691949E+03  0.27240877853E+03  0.21088699552E+03  0.61197385905E+03  0.12699999809E+01 0. -1.
</event>
<event>
 5   0  0.6658994E-03  0.1191147E+04  0.7818609E-02  0.9120641E-01
        2   -1    0    0  501    0  0.00000000000E+00  0.00000000000E+00  0.66578594373E+03  0.66578594373E+03  0.25500000920E-02 0. -1.
       -2   -1    0    0    0  501  0.00000000000E+00  0.00000000000E+00 -0.53276577814E+03  0.53276577815E+03  0.25500000920E-02 0.  1.
    10030    2    1    2    0    0  0.00000000000E+00  0.00000000000E+00  0.13302016559E+03  0.11985517219E+04  0.11911472896E+04 0.  0.
        4    1    3    3  502    0 -0.49822264391E+03 -0.27151793905E+03 -0.11560826870E+03  0.57906362243E+03  0.12699999809E+01 0.  1.
       -4    1    3    3    0  502  0.49822264391E+03  0.27151793905E+03  0.24862843429E+03  0.61948809945E+03  0.12699999809E+01 0. -1.
</event>
<event>
 5   0  0.6493047E-03  0.1136780E+04  0.7818609E-02  0.9170066E-01
       -2   -1    0    0    0  501  0.00000000000E+00  0.00000000000E+00  0.35795893962E+03  0.35795893963E+03  0.25500000920E-02 0.  1.
        2   -1    0    0  501    0  0.00000000000E+00  0.00000000000E+00 -0.90252661568E+03  0.90252661568E+03  0.25500000920E-02 0. -1.
    10030    2    1    2    0    0  0.00000000000E+00  0.00000000000E+00 -0.54456767606E+03  0.12604855553E+04  0.11367804895E+04 0.  0.
        3    1    3    3  502    0  0.36552103464E+03 -0.13891743123E+03 -0.72968243174E+03  0.82785272896E+03  0.10100000352E+00 0. -1.
       -3    1    3    3    0  502 -0.36552103464E+03  0.13891743123E+03  0.18511475568E+03  0.43263282635E+03  0.10100000352E+00 0.  1.
</event>
<event>
 5   0  0.3648616E-03  0.1074625E+04  0.7818609E-02  0.9230283E-01
       -1   -1    0    0    0  501  0.00000000000E+00  0.00000000000E+00  0.11732018907E+03  0.11732018918E+03  0.50400001928E-02 0. -1.
        1   -1    0    0  501    0  0.00000000000E+00  0.00000000000E+00 -0.24608257091E+04  0.24608257091E+04  0.50400001928E-02 0.  1.
    10030    2    1    2    0    0  0.00000000000E+00  0.00000000000E+00 -0.23435055200E+04  0.25781458983E+04  0.10746246556E+04 0.  0.
        2    1    3    3  502    0 -0.32042953902E+03  0.38610620096E+03 -0.71057704387E+03  0.86986942881E+03  0.25500000920E-02 0. -1.
       -2    1    3    3    0  502  0.32042953902E+03 -0.38610620096E+03 -0.16329284762E+04  0.17082764695E+04  0.25500000920E-02 0.  1.
</event>
<event>
 5   0  0.3944074E-03  0.1189036E+04  0.7818609E-02  0.9122507E-01
       -1   -1    0    0    0  501  0.00000000000E+00  0.00000000000E+00  0.84049737672E+03  0.84049737674E+03  0.50400001928E-02 0.  1.
        1   -1    0    0  501    0  0.00000000000E+00  0.00000000000E+00 -0.42052704908E+03  0.42052704911E+03  0.50400001928E-02 0. -1.
    10030    2    1    2    0    0  0.00000000000E+00  0.00000000000E+00  0.41997032765E+03  0.12610244258E+04  0.11890363857E+04 0.  0.
        4    1    3    3  502    0 -0.39863850599E+03 -0.42626444644E+03  0.33014162595E+03  0.67052900223E+03  0.12699999809E+01 0.  1.
       -4    1    3    3    0  502  0.39863850599E+03  0.42626444644E+03  0.89828701695E+02  0.59049542361E+03  0.12699999809E+01 0. -1.
</event>
<event>
 5   0  0.3731281E-03  0.1212343E+04  0.7818609E-02  0.9102121E-01
        1   -1    0    0  501    0  0.00000000000E+00  0.00000000000E+00  0.16000316858E+04  0.16000316858E+04  0.50400001928E-02 0. -1.
       -1   -1    0    0    0  501  0.00000000000E+00  0.00000000000E+00 -0.22964797281E+03  0.22964797286E+03  0.50400001928E-02 0.  1.
    10030    2    1    2    0    0  0.00000000000E+00  0.00000000000E+00  0.13703837130E+04  0.18296796586E+04  0.12123432404E+04 0.  0.
        5    1    3    3  502    0  0.51423778553E+03  0.32023731679E+03  0.71646943111E+03  0.93826594036E+03  0.46999998093E+01 0.  1.
       -5    1    3    3    0  502 -0.51423778553E+03 -0.32023731679E+03  0.65391428184E+03  0.89141371827E+03  0.46999998093E+01 0. -1.
</event>
<event>
 5   0  0.6349142E-03  0.1202159E+04  0.7818609E-02  0.9110969E-01
       -2   -1    0    0    0  501  0.00000000000E+00  0.00000000000E+00  0.47161343996E+03  0.47161343997E+03  0.25500000920E-02 0.  1.
        2   -1    0    0  501    0  0.00000000000E+00  0.00000000000E+00 -0.76608560385E+03  0.76608560385E+03  0.25500000920E-02 0. -1.
    10030    2    1    2    0    0  0.00000000000E+00  0.00000000000E+00 -0.29447216389E+03  0.12376990438E+04  0.12021585036E+04 0.  0.
        1    1    3    3  502    0 -0.31135604886E+03  0.38582695422E+03  0.20265094749E+03  0.53560473701E+03  0.50400001928E-02 0.  1.
       -1    1    3    3    0  502  0.31135604886E+03 -0.38582695422E+03 -0.49712311137E+03  0.70209430681E+03  0.50400001928E-02 0. -1.
</event>
<event>
 5   0  0.6640844E-03  0.1212897E+04  0.7818609E-02  0.9101642E-01
        2   -1    0    0  501    0  0.00000000000E+00  0.00000000000E+00  0.99714452669E+03  0.99714452669E+03  0.25500000920E-02 0.  1.
       -2   -1    0    0    0  501  0.00000000000E+00  0.00000000000E+00 -0.36883273784E+03  0.36883273785E+03  0.25500000920E-02 0. -1.
    10030    2    1    2    0    0  0.00000000000E+00  0.00000000000E+00  0.62831178885E+03  0.13659772645E+04  0.12128966086E+04 0.  0.
        5    1    3    3  502    0  0.17902245490E+03 -0.28264989227E+03  0.88377529983E+03  0.94499781563E+03  0.46999998093E+01 0.  1.
       -5    1    3    3    0  502 -0.17902245490E+03  0.28264989227E+03 -0.25546351098E+03  0.42097944890E+03  0.46999998093E+01 0. -1.
</event>
<event>
 5   0  0.6658994E-03  0.1254628E+04  0.7818609E-02  0.9066341E-01
        2   -1    0    0  501    0  0.00000000000E+00  0.00000000000E+00  0.92514597212E+03  0.92514597213E+03  0.25500000920E-02 0. -1.
       -2   -1    0    0    0  501  0.00000000000E+00  0.00000000000E+00 -0.42536267070E+03  0.42536267071E+03  0.25500000920E-02 0.  1.
    10030    2    1    2    0    0  0.00000000000E+00  0.00000000000E+00  0.49978330142E+03  0.13505086428E+04  0.12546275328E+04 0.  0.
        4    1    3    3  502    0  0.57824243395E+03  0.19111864689E+03  0.87961507514E+02  0.61532876523E+03  0.12699999809E+01 0.  1.
       -4    1    3    3    0  502 -0.57824243395E+03 -0.19111864689E+03  0.41182179391E+03  0.73517987761E+03  0.12699999809E+01 0. -1.
</event>
<event>
 5   0  0.3731281E-03  0.1352797E+04  0.7818609E-02  0.8988713E-01
        1   -1    0    0  501    0  0.00000000000E+00  0.00000000000E+00  0.14562810622E+04  0.14562810622E+04  0.50400001928E-02 0.  1.
       -1   -1    0    0    0  501  0.00000000000E+00  0.00000000000E+00 -0.31416674529E+03  0.31416674533E+03  0.50400001928E-02 0. -1.
    10030    2    1    2    0    0  0.00000000000E+00  0.00000000000E+00  0.11421143169E+04  0.17704478075E+04  0.13527972229E+04 0.  0.
        5    1    3    3  502    0 -0.57308288296E+03 -0.30080812840E+02  0.10395831609E+04  0.11874696141E+04  0.46999998093E+01 0. -1.
       -5    1    3    3    0  502  0.57308288296E+03  0.30080812840E+02  0.10253115601E+03  0.58297819341E+03  0.46999998093E+01 0.  1.
</event>
<event>
 5   0  0.3701879E-03  0.8699194E+03  0.7818609E-02  0.9463985E-01
       -1   -1    0    0    0  501  0.00000000000E+00  0.00000000000E+00  0.23156394081E+03  0.23156394086E+03  0.50400001928E-02 0. -1.
        1   -1    0    0  501    0  0.00000000000E+00  0.00000000000E+00 -0.81700957817E+03  0.81700957818E+03  0.50400001928E-02 0.  1.
    10030    2    1    2    0    0  0.00000000000E+00  0.00000000000E+00 -0.58544563736E+03  0.10485735190E+04  0.86991943911E+03 0.  0.
        1    1    3    3  502    0 -0.10304845045E+03  0.41443427966E+03 -0.39223110027E+03  0.57984479936E+03  0.50400001928E-02 0.  1.
       -1    1    3    3    0  502  0.10304845045E+03 -0.41443427966E+03 -0.19321453708E+03  0.46872871969E+03  0.50400001928E-02 0. -1.
</event>
<event>
 5   0  0.2537625E-03  0.1147442E+04  0.7818609E-02  0.9160147E-01
        4   -1    0    0  501    0  0.00000000000E+00  0.00000000000E+00  0.70065553392E+03  0.70065668491E+03  0.12699999809E+01 0.  1.
       -4   -1    0    0    0  501  0.00000000000E+00  0.00000000000E+00 -0.46977988317E+03  0.46978159982E+03  0.12699999809E+01 0. -1.
    10030    2    1    2    0    0  0.00000000000E+00  0.00000000000E+00  0.23087565075E+03  0.11704382847E+04  0.11474415943E+04 0.  0.
        5    1    3    3  502    0  0.27161207053E+03  0.12003948024E+03 -0.38526746373E+03  0.48645215827E+03  0.46999998093E+01 0. -1.
       -5    1    3    3    0  502 -0.27161207053E+03 -0.12003948024E+03  0.61614311448E+03  0.68398612647E+03  0.46999998093E+01 0.  1.
</event>
<event>
 5   0  0.3648616E-03  0.1181178E+04  0.7818609E-02  0.9129493E-01
       -1   -1    0    0    0  501  0.00000000000E+00  0.00000000000E+00  0.36572772608E+03  0.36572772612E+03  0.50400001928E-02 0.  1.
        1   -1    0    0  501    0  0.00000000000E+00  0.00000000000E+00 -0.95370204687E+03  0.95370204688E+03  0.50400001928E-02 0. -1.
    10030    2    1    2    0    0  0.00000000000E+00  0.00000000000E+00 -0.58797432079E+03  0.13194297730E+04  0.11811778545E+04 0.  0.
        2    1    3    3  502    0 -0.32748906845E+03 -0.38841796682E+03  0.42385871468E+02  0.50981778020E+03  0.25500000920E-02 0.  1.
       -2    1    3    3    0  502  0.32748906845E+03  0.38841796682E+03 -0.63036019226E+03  0.80961199280E+03  0.25500000920E-02 0. -1.
</event>
<event>
 5   0  0.3772254E-03  0.1192319E+04  0.7818609E-02  0.9119606E-01
       -1   -1    0    0    0  501  0.00000000000E+00  0.00000000000E+00  0.62290113613E+03  0.62290113615E+03  0.50400001928E-02 0. -1.
        1   -1    0    0  501    0  0.00000000000E+00  0.00000000000E+00 -0.57056594224E+03  0.57056594227E+03  0.50400001928E-02 0.  1.
    10030    2    1    2    0    0  0.00000000000E+00  0.00000000000E+00  0.52335193886E+02  0.11934670784E+04  0.11923190407E+04 0.  0.
        3    1    3    3  502    0  0.44971721343E+03 -0.10433463438E+03  0.40372420106E+03  0.61328992223E+03  0.10100000352E+00 0. -1.
       -3    1    3    3    0  502 -0.44971721343E+03  0.10433463438E+03 -0.35138900718E+03  0.58017715618E+03  0.10100000352E+00 0.  1.
</event>
<event>
 5   0  0.6349142E-03  0.1172792E+04  0.7818609E-02  0.9137011E-01
        2   -1    0    0  501    0  0.00000000000E+00  0.00000000000E+00  0.59780399267E+03  0.59780399267E+03  0.25500000920E-02 0. -1.
       -2   -1    0    0    0  501  0.00000000000E+00  0.00000000000E+00 -0.57520525813E+03  0.57520525814E+03  0.25500000920E-02 0.  1.
    10030    2    1    2    0    0  0.00000000000E+00  0.00000000000E+00  0.22598734532E+02  0.11730092508E+04  0.11727915414E+04 0.  0.
        1    1    3    3  502    0  0.46573692767E+03 -0.22109182657E+03 -0.26815815169E+03  0.58112070684E+03  0.50400001928E-02 0.  1.
       -1    1    3    3    0  502 -0.46573692767E+03  0.22109182657E+03  0.29075688622E+03  0.59188854397E+03  0.50400001928E-02 0. -1.
</event>
<event>
 5   0  0.3648616E-03  0.1199928E+04  0.7818609E-02  0.9112920E-01
       -1   -1    0    0    0  501  0.00000000000E+00  0.00000000000E+00  0.19781653860E+04  0.19781653860E+04  0.50400001928E-02 0.  1.
        1   -1    0    0  501    0  0.00000000000E+00  0.00000000000E+00 -0.18196485796E+03  0.18196485803E+03  0.50400001928E-02 0. -1.
    10030    2    1    2    0    0  0.00000000000E+00  0.00000000000E+00  0.17962005280E+04  0.21601302440E+04  0.11999276371E+04 0.  0.
        2    1    3    3  502    0  0.34859277423E+03  0.58861306826E+02  0.17707414725E+04  0.18056873866E+04  0.25500000920E-02 0.  1.
       -2    1    3    3    0  502 -0.34859277423E+03 -0.58861306826E+02  0.25459055550E+02  0.35444285745E+03  0.25500000920E-02 0. -1.
</event>
<event>
 5   0  0.3944074E-03  0.1228366E+04  0.7818609E-02  0.9088384E-01
       -1   -1    0    0    0  501  0.00000000000E+00  0.00000000000E+00  0.33402253298E+03  0.33402253301E+03  0.50400001928E-02 0.  1.
        1   -1    0    0  501    0  0.00000000000E+00  0.00000000000E+00 -0.11293264123E+04  0.11293264123E+04  0.50400001928E-02 0. -1.
    10030    2    1    2    0    0  0.00000000000E+00  0.00000000000E+00 -0.79530387934E+03  0.14633489453E+04  0.12283655300E+04 0.  0.
        4    1    3    3  502    0 -0.30040020950E+03  0.20156279571E+03 -0.98893774203E+03  0.10530276905E+04  0.12699999809E+01 0. -1.
       -4    1    3    3    0  502  0.30040020950E+03 -0.20156279571E+03  0.19363386269E+03  0.41032125483E+03  0.12699999809E+01 0.  1.
</event>
<event>
 5   0  0.6658994E-03  0.1176674E+04  0.7818609E-02  0.9133522E-01
       -2   -1    0    0    0  501  0.00000000000E+00  0.00000000000E+00  0.65479575908E+03  0.65479575908E+03  0.25500000920E-02 0.  1.
        2   -1    0    0  501    0  0.00000000000E+00  0.00000000000E+00 -0.52862354003E+03  0.52862354003E+03  0.25500000920E-02 0. -1.
    10030    2    1    2    0    0  0.00000000000E+00  0.00000000000E+00  0.12617221905E+03  0.11834192991E+04  0.11766740452E+04 0.  0.
        4    1    3    3  502    0  0.28155027811E+03 -0.49220415459E+03 -0.94667606797E+02  0.57489047442E+03  0.12699999809E+01 0. -1.
       -4    1    3    3    0  502 -0.28155027811E+03  0.49220415459E+03  0.22083982585E+03  0.60852882469E+03  0.12699999809E+01 0.  1.
</event>
<event>
 5   0  0.3731281E-03  0.1171550E+04  0.7818609E-02  0.9138130E-01
        1   -1    0    0  501    0  0.00000000000E+00  0.00000000000E+00  0.27647225430E+03  0.27647225434E+03  0.50400001928E-02 0.  1.
       -1   -1    0    0    0  501  0.00000000000E+00  0.00000000000E+00 -0.12411090201E+04  0.12411090201E+04  0.50400001928E-02 0. -1.
    10030    2    1    2    0    0  0.00000000000E+00  0.00000000000E+00 -0.96463676577E+03  0.15175812744E+04  0.11715497576E+04 0.  0.
        5    1    3    3  502    0 -0.22458647564E+03 -0.12287031398E+03 -0.11647836437E+04  0.11925934872E+04  0.46999998093E+01 0. -1.
       -5    1    3    3    0  502  0.22458647564E+03  0.12287031398E+03  0.20014687793E+03  0.32498778722E+03  0.46999998093E+01 0.  1.
</event>
<event>
 5   0  0.3731281E-03  0.1297138E+04  0.7818609E-02  0.9031837E-01
        1   -1    0    0  501    0  0.00000000000E+00  0.00000000000E+00  0.70856948304E+03  0.70856948306E+03  0.50400001928E-02 0. -1.
       -1   -1    0    0    0  501  0.00000000000E+00  0.00000000000E+00 -0.59364967912E+03  0.59364967914E+03  0.50400001928E-02 0.  1.
    10030    2    1    2    0    0  0.00000000000E+00  0.00000000000E+00  0.11491980392E+03  0.13022191622E+04  0.12971384602E+04 0.  0.
        5    1    3    3  502    0 -0.32965853275E+03 -0.53698938898E+03  0.21164402713E+03  0.66471620734E+03  0.46999998093E+01 0. -1.
       -5    1    3    3    0  502  0.32965853275E+03  0.53698938898E+03 -0.96724223202E+02  0.63750295485E+03  0.46999998093E+01 0.  1.
</event>
<event>
 5   0  0.3648616E-03  0.1178839E+04  0.7818609E-02  0.9131583E-01
        1   -1    0    0  501    0  0.00000000000E+00  0.00000000000E+00  0.18203611452E+04  0.18203611452E+04  0.50400001928E-02 0. -1.
       -1   -1    0    0    0  501  0.00000000000E+00  0.00000000000E+00 -0.19084983733E+03  0.19084983740E+03  0.50400001928E-02 0.  1.
    10030    2    1    2    0    0  0.00000000000E+00  0.00000000000E+00  0.16295113079E+04  0.20112109826E+04  0.11788394777E+04 0.  0.
        2    1    3    3  502    0  0.21602916651E+03 -0.29043993442E+03  0.21116232016E+02  0.36258771566E+03  0.25500000920E-02 0.  1.
       -2    1    3    3    0  502 -0.21602916651E+03  0.29043993442E+03  0.16083950759E+04  0.16486232670E+04  0.25500000920E-02 0. -1.
</event>
<event>
 5   0  0.6349142E-03  0.1191722E+04  0.7818609E-02  0.9120133E-01
        2   -1    0    0  501    0  0.00000000000E+00  0.00000000000E+00  0.13585461413E+04  0.13585461413E+04  0.25500000920E-02 0.  1.
       -2   -1    0    0    0  501  0.00000000000E+00  0.00000000000E+00 -0.26134575673E+03  0.26134575675E+03  0.25500000920E-02 0. -1.
    10030    2    1    2    0    0  0.00000000000E+00  0.00000000000E+00  0.10972003845E+04  0.16198918980E+04  0.11917218960E+04 0.  0.
        1    1    3    3  502    0  0.42930988699E+03 -0.39560754004E+03  0.38640608648E+03  0.70008711493E+03  0.50400001928E-02 0.  1.
       -1    1    3    3    0  502 -0.42930988699E+03  0.39560754004E+03  0.71079429804E+03  0.91980478307E+03  0.50400001928E-02 0. -1.
</event>
<event>
 5   0  0.3648616E-03  0.1259703E+04  0.7818609E-02  0.9062146E-01
       -1   -1    0    0    0  501  0.00000000000E+00  0.00000000000E+00  0.12923367889E+04  0.12923367889E+04  0.50400001928E-02 0.  1.
        1   -1    0    0  501    0  0.00000000000E+00  0.00000000000E+00 -0.30697331017E+03  0.30697331021E+03  0.50400001928E-02 0. -1.
    10030    2    1    2    0    0  0.00000000000E+00  0.00000000000E+00  0.98536347875E+03  0.15993100991E+04  0.12597029840E+04 0.  0.
        2    1    3    3  502    0 -0.35249858601E+03  0.32274072404E+03 -0.28154883033E+02  0.47875831642E+03  0.25500000920E-02 0. -1.
       -2    1    3    3    0  502  0.35249858601E+03 -0.32274072404E+03  0.10135183618E+04  0.11205517827E+04  0.25500000920E-02 0.  1.
</event>
<event>
 5   0  0.6349142E-03  0.1682240E+04  0.7818609E-02  0.8771559E-01
       -2   -1    0    0    0  501  0.00000000000E+00  0.00000000000E+00  0.30574576197E+03  0.30574576198E+03  0.25500000920E-02 0.  1.
        2   -1    0    0  501    0  0.00000000000E+00  0.00000000000E+00 -0.23139590010E+04  0.23139590010E+04  0.25500000920E-02 0. -1.
    10030    2    1    2    0    0  0.00000000000E+00  0.00000000000E+00 -0.20082132390E+04  0.26197047630E+04  0.16822403609E+04 0.  0.
        1    1    3    3  502    0  0.14500668056E+03 -0.82207429140E+03 -0.11648158177E+04  0.14330488363E+04  0.50400001928E-02 0. -1.
       -1    1    3    3    0  502 -0.14500668056E+03  0.82207429140E+03 -0.84339742127E+03  0.11866559266E+04  0.50400001928E-02 0.  1.
</event>
<event>
 5   0  0.6493047E-03  0.1195710E+04  0.7818609E-02  0.9116620E-01
        2   -1    0    0  501    0  0.00000000000E+00  0.00000000000E+00  0.40524033765E+03  0.40524033766E+03  0.25500000920E-02 0. -1.
       -2   -1    0    0    0  501  0.00000000000E+00  0.00000000000E+00 -0.88202100020E+03  0.88202100020E+03  0.25500000920E-02 0.  1.
    10030    2    1    2    0    0  0.00000000000E+00  0.00000000000E+00 -0.47678066255E+03  0.12872613379E+04  0.11957098109E+04 0.  0.
        3    1    3    3  502    0  0.55458785262E+03  0.15029578485E+03 -0.41618351237E+03  0.70948237145E+03  0.10100000352E+00 0.  1.
       -3    1    3    3    0  502 -0.55458785262E+03 -0.15029578485E+03 -0.60597150176E+02  0.57777896641E+03  0.10100000352E+00 0. -1.
</event>
<event>
 5   0  0.6493047E-03  0.1188756E+04  0.7818609E-02  0.9122756E-01
        2   -1    0    0  501    0  0.00000000000E+00  0.00000000000E+00  0.10437697739E+04  0.10437697739E+04  0.25500000920E-02 0.  1.
       -2   -1    0    0    0  501  0.00000000000E+00  0.00000000000E+00 -0.33847049147E+03  0.33847049148E+03  0.25500000920E-02 0. -1.
    10030    2    1    2    0    0  0.00000000000E+00  0.00000000000E+00  0.70529928244E+03  0.13822402654E+04  0.11887561034E+04 0.  0.
        3    1    3    3  502    0 -0.55387630112E+03 -0.18873594861E+03  0.23133705730E+03  0.62921940492E+03  0.10100000352E+00 0. -1.
       -3    1    3    3    0  502  0.55387630112E+03  0.18873594861E+03  0.47396222514E+03  0.75302086047E+03  0.10100000352E+00 0.  1.
</event>
<event>
 5   0  0.3701879E-03  0.1021752E+04  0.7818609E-02  0.9285004E-01
        1   -1    0    0  501    0  0.00000000000E+00  0.00000000000E+00  0.71258982984E+03  0.71258982986E+03  0.50400001928E-02 0. -1.
       -1   -1    0    0    0  501  0.00000000000E+00  0.00000000000E+00 -0.36626149662E+03  0.36626149665E+03  0.50400001928E-02 0.  1.
    10030    2    1    2    0    0  0.00000000000E+00  0.00000000000E+00  0.34632833323E+03  0.10788513265E+04  0.10217518634E+04 0.  0.
        1    1    3    3  502    0  0.37839779886E+03 -0.29896452142E+03 -0.48690608129E+01  0.48227418242E+03  0.50400001928E-02 0.  1.
       -1    1    3    3    0  502 -0.37839779886E+03  0.29896452142E+03  0.35119739404E+03  0.59657714409E+03  0.50400001928E-02 0. -1.
</event>
<event>
 5   0  0.3731281E-03  0.1192120E+04  0.7818609E-02  0.9119782E-01
        1   -1    0    0  501    0  0.00000000000E+00  0.00000000000E+00  0.56955020999E+03  0.56955021002E+03  0.50400001928E-02 0.  1.
       -1   -1    0    0    0  501  0.00000000000E+00  0.00000000000E+00 -0.62380318646E+03  0.62380318648E+03  0.50400001928E-02 0. -1.
    10030    2    1    2    0    0  0.00000000000E+00  0.00000000000E+00 -0.54252976466E+02  0.11933533965E+04  0.11921195173E+04 0.  0.
        5    1    3    3  502    0 -0.41975274477E+02  0.44986235896E+03  0.36202654613E+03  0.57898478027E+03  0.46999998093E+01 0. -1.
       -5    1    3    3    0  502  0.41975274477E+02 -0.44986235896E+03 -0.41627952260E+03  0.61436861623E+03  0.46999998093E+01 0.  1.
</event>
<event>
 5   0  0.6493047E-03  0.9586223E+03  0.7818609E-02  0.9355129E-01
        2   -1    0    0  501    0  0.00000000000E+00  0.00000000000E+00  0.38598257660E+03  0.38598257661E+03  0.25500000920E-02 0. -1.
       -2   -1    0    0    0  501  0.00000000000E+00  0.00000000000E+00 -0.59520604533E+03  0.59520604533E+03  0.25500000920E-02 0.  1.
    10030    2    1    2    0    0  0.00000000000E+00  0.00000000000E+00 -0.20922346872E+03  0.98118862195E+03  0.95862226762E+03 0.  0.
        3    1    3    3  502    0  0.29163385937E+02  0.37472532521E+03 -0.40905191723E+03  0.55551152429E+03  0.10100000352E+00 0.  1.
       -3    1    3    3    0  502 -0.29163385937E+02 -0.37472532521E+03  0.19982844851E+03  0.42567709765E+03  0.10100000352E+00 0. -1.
</event>
<event>
 5   0  0.3731281E-03  0.1188902E+04  0.7818609E-02  0.9122627E-01
       -1   -1    0    0    0  501  0.00000000000E+00  0.00000000000E+00  0.77266105900E+03  0.77266105902E+03  0.50400001928E-02 0. -1.
        1   -1    0    0  501    0  0.00000000000E+00  0.00000000000E+00 -0.45734400397E+03  0.45734400400E+03  0.50400001928E-02 0.  1.
    10030    2    1    2    0    0  0.00000000000E+00  0.00000000000E+00  0.31531705503E+03  0.12300050630E+04  0.11889018504E+04 0.  0.
        5    1    3    3  502    0 -0.44563286145E+03 -0.11150523336E+03 -0.23264788385E+03  0.51494581476E+03  0.46999998093E+01 0.  1.
       -5    1    3    3    0  502  0.44563286145E+03  0.11150523336E+03  0.54796493888E+03  0.71505924826E+03  0.46999998093E+01 0. -1.
</event>
<event>
 5   0  0.6585930E-03  0.1199368E+04  0.7818609E-02  0.9113410E-01
       -2   -1    0    0    0  501  0.00000000000E+00  0.00000000000E+00  0.16310886707E+04  0.16310886707E+04  0.25500000920E-02 0.  1.
        2   -1    0    0  501    0  0.00000000000E+00  0.00000000000E+00 -0.22047901906E+03  0.22047901908E+03  0.25500000920E-02 0. -1.
    10030    2    1    2    0    0  0.00000000000E+00  0.00000000000E+00  0.14106096516E+04  0.18515676898E+04  0.11993678837E+04 0.  0.
        2    1    3    3  502    0 -0.71107275884E+02  0.52875933181E+03  0.28258311698E+03  0.60373495316E+03  0.25500000920E-02 0. -1.
       -2    1    3    3    0  502  0.71107275884E+02 -0.52875933181E+03  0.11280265346E+04  0.12478327366E+04  0.25500000920E-02 0.  1.
</event>
<event>
 5   0  0.3701879E-03  0.1174869E+04  0.7818609E-02  0.9135143E-01
       -1   -1    0    0    0  501  0.00000000000E+00  0.00000000000E+00  0.20142836809E+03  0.20142836815E+03  0.50400001928E-02 0.  1.
        1   -1    0    0  501    0  0.00000000000E+00  0.00000000000E+00 -0.17131606317E+04  0.17131606317E+04  0.50400001928E-02 0. -1.
    10030    2    1    2    0    0  0.00000000000E+00  0.00000000000E+00 -0.15117322636E+04  0.19145889998E+04  0.11748687593E+04 0.  0.
        1    1    3    3  502    0 -0.37581422830E+03  0.95133843656E+02 -0.14751033824E+04  0.15251940110E+04  0.50400001928E-02 0. -1.
       -1    1    3    3    0  502  0.37581422830E+03 -0.95133843656E+02 -0.36628881234E+02  0.38939498888E+03  0.50400001928E-02 0.  1.
</event>
<event>
 5   0  0.3701879E-03  0.1200713E+04  0.7818609E-02  0.9112233E-01
       -1   -1    0    0    0  501  0.00000000000E+00  0.00000000000E+00  0.28401149866E+03  0.28401149870E+03  0.50400001928E-02 0.  1.
        1   -1    0    0  501    0  0.00000000000E+00  0.00000000000E+00 -0.12690604617E+04  0.12690604618E+04  0.50400001928E-02 0. -1.
    10030    2    1    2    0    0  0.00000000000E+00  0.00000000000E+00 -0.98504896308E+03  0.15530719605E+04  0.12007127278E+04 0.  0.
        1    1    3    3  502    0  0.15032021650E+03 -0.39714259063E+03  0.56410117248E+02  0.42836959058E+03  0.50400001928E-02 0.  1.
       -1    1    3    3    0  502 -0.15032021650E+03  0.39714259063E+03 -0.10414590803E+04  0.11247023699E+04  0.50400001928E-02 0. -1.
</event>
<event>
 5   0  0.3648616E-03  0.1217112E+04  0.7818609E-02  0.9098009E-01
       -1   -1    0    0    0  501  0.00000000000E+00  0.00000000000E+00  0.31269722622E+03  0.31269722626E+03  0.50400001928E-02 0. -1.
        1   -1    0    0  501    0  0.00000000000E+00  0.00000000000E+00 -0.11843426297E+04  0.11843426297E+04  0.50400001928E-02 0.  1.
    10030    2    1    2    0    0  0.00000000000E+00  0.00000000000E+00 -0.87164540346E+03  0.14970398560E+04  0.12171124110E+04 0.  0.
        2    1    3    3  502    0 -0.79741936907E+02 -0.21486976971E+03 -0.11292299956E+04  0.11522535213E+04  0.25500000920E-02 0.  1.
       -2    1    3    3    0  502  0.79741936907E+02  0.21486976971E+03  0.25758459214E+03  0.34478633463E+03  0.25500000920E-02 0. -1.
</event>
<event>
 5   0  0.6658994E-03  0.7740754E+03  0.7818609E-02  0.9598319E-01
        2   -1    0    0  501    0  0.00000000000E+00  0.00000000000E+00  0.33847900285E+03  0.33847900286E+03  0.25500000920E-02 0.  1.
       -2   -1    0    0    0  501  0.00000000000E+00  0.00000000000E+00 -0.44256267999E+03  0.44256268000E+03  0.25500000920E-02 0. -1.
    10030    2    1    2    0    0  0.00000000000E+00  0.00000000000E+00 -0.10408367715E+03  0.78104168286E+03  0.77407538296E+03 0.  0.
        4    1    3    3  502    0 -0.30700134577E+03 -0.11605275874E+03  0.15493466325E+03  0.36293860623E+03  0.12699999809E+01 0.  1.
       -4    1    3    3    0  502  0.30700134577E+03  0.11605275874E+03 -0.25901834040E+03  0.41810307662E+03  0.12699999809E+01 0. -1.
</event>
<event>
 5   0  0.3772254E-03  0.1325988E+04  0.7818609E-02  0.9009207E-01
        1   -1    0    0  501    0  0.00000000000E+00  0.00000000000E+00  0.36936593787E+03  0.36936593791E+03  0.50400001928E-02 0. -1.
       -1   -1    0    0    0  501  0.00000000000E+00  0.00000000000E+00 -0.11900413309E+04  0.11900413310E+04  0.50400001928E-02 0.  1.
    10030    2    1    2    0    0  0.00000000000E+00  0.00000000000E+00 -0.82067539307E+03  0.15594072689E+04  0.13259875299E+04 0.  0.
        3    1    3    3  502    0 -0.24715463791E+03 -0.56496721652E+03 -0.69669030192E+03  0.93040354566E+03  0.10100000352E+00 0.  1.
       -3    1    3    3    0  502  0.24715463791E+03  0.56496721652E+03 -0.12398509115E+03  0.62900372321E+03  0.10100000352E+00 0. -1.
</event>
<event>
 5   0  0.3731281E-03  0.1238798E+04  0.7818609E-02  0.9079558E-01
        1   -1    0    0  501    0  0.00000000000E+00  0.00000000000E+00  0.34414121383E+03  0.34414121386E+03  0.50400001928E-02 0.  1.
       -1   -1    0    0    0  501  0.00000000000E+00  0.00000000000E+00 -0.11148190623E+04  0.11148190623E+04  0.50400001928E-02 0. -1.
    10030    2    1    2    0    0  0.00000000000E+00  0.00000000000E+00 -0.77067784851E+03  0.14589602762E+04  0.12387981036E+04 0.  0.
        5    1    3    3  502    0  0.16154034324E+03  0.37318733520E+03  0.16488439239E+03  0.43883142834E+03  0.46999998093E+01 0.  1.
       -5    1    3    3    0  502 -0.16154034324E+03 -0.37318733520E+03 -0.93556224090E+03  0.10201288479E+04  0.46999998093E+01 0. -1.
</event>
<event>
 5   0  0.3648616E-03  0.1193119E+04  0.7818609E-02  0.9118901E-01
        1   -1    0    0  501    0  0.00000000000E+00  0.00000000000E+00  0.14758778382E+04  0.14758778382E+04  0.50400001928E-02 0. -1.
       -1   -1    0    0    0  501  0.00000000000E+00  0.00000000000E+00 -0.24113329004E+03  0.24113329009E+03  0.50400001928E-02 0.  1.
    10030    2    1    2    0    0  0.00000000000E+00  0.00000000000E+00  0.12347445481E+04  0.17170111283E+04  0.11931190701E+04 0.  0.
        2    1    3    3  502    0 -0.17292054209E+03  0.50622329825E+03  0.99735792205E+03  0.11317625043E+04  0.25500000920E-02 0. -1.
       -2    1    3    3    0  502  0.17292054209E+03 -0.50622329825E+03  0.23738662609E+03  0.58524862394E+03  0.25500000920E-02 0.  1.
</event>
<event>
 5   0  0.6585930E-03  0.1165357E+04  0.7818609E-02  0.9143732E-01
       -2   -1    0    0    0  501  0.00000000000E+00  0.00000000000E+00  0.26340130742E+03  0.26340130743E+03  0.25500000920E-02 0. -1.
        2   -1    0    0  501    0  0.00000000000E+00  0.00000000000E+00 -0.12889608026E+04  0.12889608026E+04  0.25500000920E-02 0.  1.
    10030    2    1    2    0    0  0.00000000000E+00  0.00000000000E+00 -0.10255594952E+04  0.15523621101E+04  0.11653565302E+04 0.  0.
        2    1    3    3  502    0 -0.17552737051E+02 -0.43697126594E+03 -0.10256991293E+04  0.11150384252E+04  0.25500000920E-02 0.  1.
       -2    1    3    3    0  502  0.17552737051E+02  0.43697126594E+03  0.13963409830E+00  0.43732368486E+03  0.25500000920E-02 0. -1.
</event>
<event>
 5   0  0.2537625E-03  0.1057745E+04  0.7818609E-02  0.9247384E-01
       -3   -1    0    0    0  501  0.00000000000E+00  0.00000000000E+00  0.89160643318E+03  0.89160643890E+03  0.10100000352E+00 0.  1.
        3   -1    0    0  501    0  0.00000000000E+00  0.00000000000E+00 -0.31371015786E+03  0.31371017412E+03  0.10100000352E+00 0. -1.
    10030    2    1    2    0    0  0.00000000000E+00  0.00000000000E+00  0.57789627532E+03  0.12053166130E+04  0.10577447861E+04 0.  0.
        1    1    3    3  502    0  0.44943618455E+03 -0.23009467001E+03  0.46828908373E+03  0.68864439816E+03  0.50400001928E-02 0.  1.
       -1    1    3    3    0  502 -0.44943618455E+03  0.23009467001E+03  0.10960719159E+03  0.51667221487E+03  0.50400001928E-02 0. -1.
</event>
<event>
 5   0  0.6658994E-03  0.1150073E+04  0.7818609E-02  0.9157716E-01
        2   -1    0    0  501    0  0.00000000000E+00  0.00000000000E+00  0.73471428263E+03  0.73471428263E+03  0.25500000920E-02 0. -1.
       -2   -1    0    0    0  501  0.00000000000E+00  0.00000000000E+00 -0.45006212012E+03  0.45006212013E+03  0.25500000920E-02 0.  1.
    10030    2    1    2    0    0  0.00000000000E+00  0.00000000000E+00  0.28465216251E+03  0.11847764028E+04  0.11500731589E+04 0.  0.
        4    1    3    3  502    0  0.76745778449E+02  0.37830463863E+03 -0.29675219084E+03  0.48689607699E+03  0.12699999809E+01 0.  1.
       -4    1    3    3    0  502 -0.76745778449E+02 -0.37830463863E+03  0.58140435334E+03  0.69788032577E+03  0.12699999809E+01 0. -1.
</event>
<event>
 5   0  0.6658994E-03  0.7957875E+03  0.7818609E-02  0.9566135E-01
        2   -1    0    0  501    0  0.00000000000E+00  0.00000000000E+00  0.81325101505E+03  0.81325101506E+03  0.25500000920E-02 0. -1.
       -2   -1    0    0    0  501  0.00000000000E+00  0.00000000000E+00 -0.19467475868E+03  0.19467475870E+03  0.25500000920E-02 0.  1.
    10030    2    1    2    0    0  0.00000000000E+00  0.00000000000E+00  0.61857625637E+03  0.10079257738E+04  0.79578752218E+03 0.  0.
        4    1    3    3  502    0  0.28678295207E+03 -0.58019195184E+02  0.65081113635E+03  0.71355969386E+03  0.12699999809E+01 0. -1.
       -4    1    3    3    0  502 -0.28678295207E+03  0.58019195184E+02 -0.32234879981E+02  0.29436607989E+03  0.12699999809E+01 0.  1.
</event>
<event>
 5   0  0.3944074E-03  0.1205871E+04  0.7818609E-02  0.9107733E-01
        1   -1    0    0  501    0  0.00000000000E+00  0.00000000000E+00  0.13461556256E+04  0.13461556256E+04  0.50400001928E-02 0. -1.
       -1   -1    0    0    0  501  0.00000000000E+00  0.00000000000E+00 -0.27005143590E+03  0.27005143595E+03  0.50400001928E-02 0.  1.
    10030    2    1    2    0    0  0.00000000000E+00  0.00000000000E+00  0.10761041897E+04  0.16162070616E+04  0.12058710705E+04 0.  0.
        4    1    3    3  502    0 -0.21842552795E+03 -0.17380997806E+03 -0.17822794451E+03  0.33118942139E+03  0.12699999809E+01 0.  1.
       -4    1    3    3    0  502  0.21842552795E+03  0.17380997806E+03  0.12543321342E+04  0.12850176402E+04  0.12699999809E+01 0. -1.
</event>
<event>
 5   0  0.6585930E-03  0.1189345E+04  0.7818609E-02  0.9122235E-01
        2   -1    0    0  501    0  0.00000000000E+00  0.00000000000E+00  0.13902625015E+04  0.13902625015E+04  0.25500000920E-02 0.  1.
       -2   -1    0    0    0  501  0.00000000000E+00  0.00000000000E+00 -0.25436570432E+03  0.25436570433E+03  0.25500000920E-02 0. -1.
    10030    2    1    2    0    0  0.00000000000E+00  0.00000000000E+00  0.11358967972E+04  0.16446282058E+04  0.11893445260E+04 0.  0.
        2    1    3    3  502    0 -0.11492723107E+03 -0.18029353464E+03 -0.19937733303E+03  0.29234457068E+03  0.25500000920E-02 0. -1.
       -2    1    3    3    0  502  0.11492723107E+03  0.18029353464E+03  0.13352741302E+04  0.13522836352E+04  0.25500000920E-02 0.  1.
</event>
<event>
 5   0  0.2537625E-03  0.1172225E+04  0.7818609E-02  0.9137522E-01
        3   -1    0    0  501    0  0.00000000000E+00  0.00000000000E+00  0.14185470629E+04  0.14185470665E+04  0.10100000352E+00 0.  1.
       -3   -1    0    0    0  501  0.00000000000E+00  0.00000000000E+00 -0.24216866948E+03  0.24216869054E+03  0.10100000352E+00 0. -1.
    10030    2    1    2    0    0  0.00000000000E+00  0.00000000000E+00  0.11763783934E+04  0.16607157571E+04  0.11722246803E+04 0.  0.
        5    1    3    3  502    0  0.27974313244E+01 -0.38729648568E+03  0.12113842870E+04  0.12718020185E+04  0.46999998093E+01 0.  1.
       -5    1    3    3    0  502 -0.27974313244E+01  0.38729648568E+03 -0.35005893586E+02  0.38891373854E+03  0.46999998093E+01 0. -1.
</event>
<event>
 5   0  0.6658994E-03  0.1243203E+04  0.7818609E-02  0.9075860E-01
        2   -1    0    0  501    0  0.00000000000E+00  0.00000000000E+00  0.12224856954E+04  0.12224856954E+04  0.25500000920E-02 0.  1.
       -2   -1    0    0    0  501  0.00000000000E+00  0.00000000000E+00 -0.31606770163E+03  0.31606770164E+03  0.25500000920E-02 0. -1.
    10030    2    1    2    0    0  0.00000000000E+00  0.00000000000E+00  0.90641799375E+03  0.15385533970E+04  0.12432027092E+04 0.  0.
        4    1    3    3  502    0  0.40552522805E+03  0.26243363701E+03 -0.30972148757E+02  0.48402790345E+03  0.12699999809E+01 0. -1.
       -4    1    3    3    0  502 -0.40552522805E+03 -0.26243363701E+03  0.93739014251E+03  0.10545254936E+04  0.12699999809E+01 0.  1.
</event>
<event>
 5   0  0.6640844E-03  0.1222723E+04  0.7818609E-02  0.9093196E-01
        2   -1    0    0  501    0  0.00000000000E+00  0.00000000000E+00  0.13657238247E+04  0.13657238247E+04  0.25500000920E-02 0.  1.
       -2   -1    0    0    0  501  0.00000000000E+00  0.00000000000E+00 -0.27367392438E+03  0.27367392439E+03  0.25500000920E-02 0. -1.
    10030    2    1    2    0    0  0.00000000000E+00  0.00000000000E+00  0.10920499003E+04  0.16393977491E+04  0.12227231882E+04 0.  0.
        5    1    3    3  502    0  0.34589276507E+03  0.26945612896E+03  0.11172214343E+04  0.12001892490E+04  0.46999998093E+01 0.  1.
       -5    1    3    3    0  502 -0.34589276507E+03 -0.26945612896E+03 -0.25171533980E+02  0.43920850001E+03  0.46999998093E+01 0. -1.
</event>
<event>
 5   0  0.2537625E-03  0.1220102E+04  0.7818609E-02  0.9095441E-01
        4   -1    0    0  501    0  0.00000000000E+00  0.00000000000E+00  0.40064264919E+03  0.40064466208E+03  0.12699999809E+01 0. -1.
       -4   -1    0    0    0  501  0.00000000000E+00  0.00000000000E+00 -0.92890809716E+03  0.92890896532E+03  0.12699999809E+01 0.  1.
    10030    2    1    2    0    0  0.00000000000E+00  0.00000000000E+00 -0.52826544797E+03  0.13295536274E+04  0.12201018255E+04 0.  0.
        2    1    3    3  502    0 -0.35612135848E+03  0.21639121439E+03 -0.74965139910E+03  0.85768572322E+03  0.25500000920E-02 0.  1.
       -2    1    3    3    0  502  0.35612135848E+03 -0.21639121439E+03  0.22138595113E+03  0.47186790418E+03  0.25500000920E-02 0. -1.
</event>
<event>
 5   0  0.6493047E-03  0.1213391E+04  0.7818609E-02  0.9101216E-01
       -2   -1    0    0    0  501  0.00000000000E+00  0.00000000000E+00  0.43761647050E+03  0.43761647050E+03  0.25500000920E-02 0. -1.
        2   -1    0    0  501    0  0.00000000000E+00  0.00000000000E+00 -0.84109985714E+03  0.84109985714E+03  0.25500000920E-02 0.  1.
    10030    2    1    2    0    0  0.00000000000E+00  0.00000000000E+00 -0.40348338664E+03  0.12787163276E+04  0.12133905403E+04 0.  0.
        3    1    3    3  502    0 -0.36413861062E+03  0.36538280699E+03 -0.53827343712E+03  0.74554666299E+03  0.10100000352E+00 0.  1.
       -3    1    3    3    0  502  0.36413861062E+03 -0.36538280699E+03  0.13479005048E+03  0.53316966465E+03  0.10100000352E+00 0. -1.
</event>
<event>
 5   0  0.3731281E-03  0.1183023E+04  0.7818609E-02  0.9127848E-01
        1   -1    0    0  501    0  0.00000000000E+00  0.00000000000E+00  0.56524031011E+03  0.56524031013E+03  0.50400001928E-02 0. -1.
       -1   -1    0    0    0  501  0.00000000000E+00  0.00000000000E+00 -0.61900348999E+03  0.61900349001E+03  0.50400001928E-02 0.  1.
    10030    2    1    2    0    0  0.00000000000E+00  0.00000000000E+00 -0.53763179882E+02  0.11842438001E+04  0.11830227803E+04 0.  0.
        5    1    3    3  502    0  0.11238121677E+02 -0.57878802732E+03  0.94659369841E+02  0.58660409328E+03  0.46999998093E+01 0. -1.
       -5    1    3    3    0  502 -0.11238121677E+02  0.57878802732E+03 -0.14842254972E+03  0.59763970686E+03  0.46999998093E+01 0.  1.
</event>
<event>
 5   0  0.3648616E-03  0.1188906E+04  0.7818609E-02  0.9122623E-01
       -1   -1    0    0    0  501  0.00000000000E+00  0.00000000000E+00  0.18782866931E+03  0.18782866938E+03  0.50400001928E-02 0. -1.
        1   -1    0    0  501    0  0.00000000000E+00  0.00000000000E+00 -0.18813651358E+04  0.18813651359E+04  0.50400001928E-02 0.  1.
    10030    2    1    2    0    0  0.00000000000E+00  0.00000000000E+00 -0.16935364665E+04  0.20691938052E+04  0.11889059005E+04 0.  0.
        2    1    3    3  502    0 -0.22144867678E+03  0.36698586912E+01  0.11333930753E+03  0.24879466021E+03  0.25500000920E-02 0. -1.
       -2    1    3    3    0  502  0.22144867678E+03 -0.36698586912E+01 -0.18068757741E+04  0.18203991450E+04  0.25500000920E-02 0.  1.
</event>
<event>
 5   0  0.6349142E-03  0.1196458E+04  0.7818609E-02  0.9115962E-01
       -2   -1    0    0    0  501  0.00000000000E+00  0.00000000000E+00  0.10759021027E+04  0.10759021027E+04  0.25500000920E-02 0.  1.
        2   -1    0    0  501    0  0.00000000000E+00  0.00000000000E+00 -0.33263063249E+03  0.33263063250E+03  0.25500000920E-02 0. -1.
    10030    2    1    2    0    0  0.00000000000E+00  0.00000000000E+00  0.74327147025E+03  0.14085327352E+04  0.11964581011E+04 0.  0.
        1    1    3    3  502    0  0.16543157674E+01  0.54662891465E+03  0.85507564760E+02  0.55327881828E+03  0.50400001928E-02 0. -1.
       -1    1    3    3    0  502 -0.16543157674E+01 -0.54662891465E+03  0.65776390549E+03  0.85525391697E+03  0.50400001928E-02 0.  1.
</event>
<event>
 5   0  0.3944074E-03  0.1184226E+04  0.7818609E-02  0.9126777E-01
        1   -1    0    0  501    0  0.00000000000E+00  0.00000000000E+00  0.12074711920E+04  0.12074711920E+04  0.50400001928E-02 0.  1.
       -1   -1    0    0    0  501  0.00000000000E+00  0.00000000000E+00 -0.29035693634E+03  0.29035693638E+03  0.50400001928E-02 0. -1.
    10030    2    1    2    0    0  0.00000000000E+00  0.00000000000E+00  0.91711425568E+03  0.14978281284E+04  0.11842257151E+04 0.  0.
        4    1    3    3  502    0  0.36622173277E+03  0.19357012994E+03 -0.76578717946E+02  0.42125249637E+03  0.12699999809E+01 0. -1.
       -4    1    3    3    0  502 -0.36622173277E+03 -0.19357012994E+03  0.99369297363E+03  0.10765756320E+04  0.12699999809E+01 0.  1.
</event>
<event>
 5   0  0.6493047E-03  0.1177075E+04  0.7818609E-02  0.9133163E-01
       -2   -1    0    0    0  501  0.00000000000E+00  0.00000000000E+00  0.32891062600E+03  0.32891062601E+03  0.25500000920E-02 0.  1.
        2   -1    0    0  501    0  0.00000000000E+00  0.00000000000E+00 -0.10531020192E+04  0.10531020192E+04  0.25500000920E-02 0. -1.
    10030    2    1    2    0    0  0.00000000000E+00  0.00000000000E+00 -0.72419139323E+03  0.13820126452E+04  0.11770750943E+04 0.  0.
        3    1    3    3  502    0  0.30525416313E+03 -0.47876952002E+03 -0.18029442918E+03  0.59574025280E+03  0.10100000352E+00 0. -1.
       -3    1    3    3    0  502 -0.30525416313E+03  0.47876952002E+03 -0.54389696404E+03  0.78627239244E+03  0.10100000352E+00 0.  1.
</event>
<event>
 5   0  0.3772254E-03  0.1233160E+04  0.7818609E-02  0.9084317E-01
        1   -1    0    0  501    0  0.00000000000E+00  0.00000000000E+00  0.10008781774E+04  0.10008781774E+04  0.50400001928E-02 0.  1.
       -1   -1    0    0    0  501  0.00000000000E+00  0.00000000000E+00 -0.37983725251E+03  0.37983725254E+03  0.50400001928E-02 0. -1.
    10030    2    1    2    0    0  0.00000000000E+00  0.00000000000E+00  0.62104092491E+03  0.13807154300E+04  0.12331598713E+04 0.  0.
        3    1    3    3  502    0  0.87709606744E+02  0.14590297851E+03  0.97404342851E+03  0.98880800213E+03  0.10100000352E+00 0.  1.
       -3    1    3    3    0  502 -0.87709606744E+02 -0.14590297851E+03 -0.35300250360E+03  0.39190742784E+03  0.10100000352E+00 0. -1.
</event>
<event>
 5   0  0.3772254E-03  0.1256113E+04  0.7818609E-02  0.9065111E-01
        1   -1    0    0  501    0  0.00000000000E+00  0.00000000000E+00  0.51165498383E+03  0.51165498386E+03  0.50400001928E-02 0. -1.
       -1   -1    0    0    0  501  0.00000000000E+00  0.00000000000E+00 -0.77093949896E+03  0.77093949898E+03  0.50400001928E-02 0.  1.
    10030    2    1    2    0    0  0.00000000000E+00  0.00000000000E+00 -0.25928451513E+03  0.12825944828E+04  0.12561131110E+04 0.  0.
        3    1    3    3  502    0  0.58877699806E+01 -0.61487194089E+03 -0.26021647768E+03  0.66769363857E+03  0.10100000352E+00 0.  1.
       -3    1    3    3    0  502 -0.58877699806E+01  0.61487194089E+03  0.93196255617E+00  0.61490084427E+03  0.10100000352E+00 0. -1.
</event>
<event>
 5   0  0.3731281E-03  0.1208857E+04  0.7818609E-02  0.9105139E-01
       -1   -1    0    0    0  501  0.00000000000E+00  0.00000000000E+00  0.64130257961E+03  0.64130257963E+03  0.50400001928E-02 0. -1.
        1   -1    0    0  501    0  0.00000000000E+00  0.00000000000E+00 -0.56967449695E+03  0.56967449698E+03  0.50400001928E-02 0.  1.
    10030    2    1    2    0    0  0.00000000000E+00  0.00000000000E+00  0.71628082660E+02  0.12109770766E+04  0.12088568558E+04 0.  0.
        5    1    3    3  502    0 -0.11853061116E+03  0.14267583452E+03 -0.54043894798E+03  0.57140375045E+03  0.46999998093E+01 0.  1.
       -5    1    3    3    0  502  0.11853061116E+03 -0.14267583452E+03  0.61206703064E+03  0.63957332616E+03  0.46999998093E+01 0. -1.
</event>
<event>
 5   0  0.6585930E-03  0.1411179E+04  0.7818609E-02  0.8945766E-01
        2   -1    0    0  501    0  0.00000000000E+00  0.00000000000E+00  0.75710002598E+03  0.75710002598E+03  0.25500000920E-02 0.  1.
       -2   -1    0    0    0  501  0.00000000000E+00  0.00000000000E+00 -0.65758385023E+03  0.65758385024E+03  0.25500000920E-02 0. -1.
    10030    2    1    2    0    0  0.00000000000E+00  0.00000000000E+00  0.99516175746E+02  0.14146838762E+04  0.14111792942E+04 0.  0.
        2    1    3    3  502    0  0.63762322254E+03  0.11036420764E+03 -0.23221097329E+03  0.68750677697E+03  0.25500000920E-02 0. -1.
       -2    1    3    3    0  502 -0.63762322254E+03 -0.11036420764E+03  0.33172714904E+03  0.72717709925E+03  0.25500000920E-02 0.  1.
</event>
<event>
 5   0  0.6640844E-03  0.1180575E+04  0.7818609E-02  0.9130031E-01
       -2   -1    0    0    0  501  0.00000000000E+00  0.00000000000E+00  0.28894848542E+03  0.28894848544E+03  0.25500000920E-02 0. -1.
        2   -1    0    0  501    0  0.00000000000E+00  0.00000000000E+00 -0.12058872615E+04  0.12058872615E+04  0.25500000920E-02 0.  1.
    10030    2    1    2    0    0  0.00000000000E+00  0.00000000000E+00 -0.91693877612E+03  0.14948357470E+04  0.11805749410E+04 0.  0.
        5    1    3    3  502    0 -0.45956368268E+03  0.30430720298E+03 -0.72591967434E+03  0.91147304723E+03  0.46999998093E+01 0.  1.
       -5    1    3    3    0  502  0.45956368268E+03 -0.30430720298E+03 -0.19101910177E+03  0.58336269975E+03  0.46999998093E+01 0. -1.
</event>
<event>
 5   0  0.3944074E-03  0.1198227E+04  0.7818609E-02  0.9114410E-01
       -1   -1    0    0    0  501  0.00000000000E+00  0.00000000000E+00  0.23839393365E+03  0.23839393371E+03  0.50400001928E-02 0.  1.
        1   -1    0    0  501    0  0.00000000000E+00  0.00000000000E+00 -0.15056457681E+04  0.15056457681E+04  0.50400001928E-02 0. -1.
    10030    2    1    2    0    0  0.00000000000E+00  0.00000000000E+00 -0.12672518344E+04  0.17440397018E+04  0.11982267188E+04 0.  0.
        4    1    3    3  502    0 -0.31062182454E+03  0.49016018908E+03 -0.85045537647E+03  0.10295721874E+04  0.12699999809E+01 0. -1.
       -4    1    3    3    0  502  0.31062182454E+03 -0.49016018908E+03 -0.41679645797E+03  0.71446751439E+03  0.12699999809E+01 0.  1.
</event>
<event>
 5   0  0.6658994E-03  0.1195628E+04  0.7818609E-02  0.9116692E-01
       -2   -1    0    0    0  501  0.00000000000E+00  0.00000000000E+00  0.34772064327E+03  0.34772064328E+03  0.25500000920E-02 0. -1.
        2   -1    0    0  501    0  0.00000000000E+00  0.00000000000E+00 -0.10277844244E+04  0.10277844244E+04  0.25500000920E-02 0.  1.
    10030    2    1    2    0    0  0.00000000000E+00  0.00000000000E+00 -0.68006378110E+03  0.13755050676E+04  0.11956284727E+04 0.  0.
        4    1    3    3  502    0 -0.25881244102E+03 -0.53888414084E+03 -0.34060872994E+03  0.68803772912E+03  0.12699999809E+01 0. -1.
       -4    1    3    3    0  502  0.25881244102E+03  0.53888414084E+03 -0.33945505116E+03  0.68746733853E+03  0.12699999809E+01 0.  1.
</event>
<event>
 5   0  0.3731281E-03  0.1042198E+04  0.7818609E-02  0.9263436E-01
        1   -1    0    0  501    0  0.00000000000E+00  0.00000000000E+00  0.84780343472E+03  0.84780343474E+03  0.50400001928E-02 0. -1.
       -1   -1    0    0    0  501  0.00000000000E+00  0.00000000000E+00 -0.32029139312E+03  0.32029139316E+03  0.50400001928E-02 0.  1.
    10030    2    1    2    0    0  0.00000000000E+00  0.00000000000E+00  0.52751204160E+03  0.11680948279E+04  0.10421979529E+04 0.  0.
        5    1    3    3  502    0 -0.27424889480E+03  0.41470485795E+02  0.75816678358E+03  0.80732349106E+03  0.46999998093E+01 0. -1.
       -5    1    3    3    0  502  0.27424889480E+03 -0.41470485795E+02 -0.23065474198E+03  0.36077133684E+03  0.46999998093E+01 0.  1.
</event>
<event>
 5   0  0.6585930E-03  0.1196579E+04  0.7818609E-02  0.9115856E-01
        2   -1    0    0  501    0  0.00000000000E+00  0.00000000000E+00  0.47692331513E+03  0.47692331514E+03  0.25500000920E-02 0.  1.
       -2   -1    0    0    0  501  0.00000000000E+00  0.00000000000E+00 -0.75054105192E+03  0.75054105192E+03  0.25500000920E-02 0. -1.
    10030    2    1    2    0    0  0.00000000000E+00  0.00000000000E+00 -0.27361773678E+03  0.12274643671E+04  0.11965793357E+04 0.  0.
        2    1    3    3  502    0 -0.98124081715E+02  0.58966299495E+03 -0.11127165995E+03  0.60803960836E+03  0.25500000920E-02 0. -1.
       -2    1    3    3    0  502  0.98124081715E+02 -0.58966299495E+03 -0.16234607683E+03  0.61942475870E+03  0.25500000920E-02 0.  1.
</event>
<event>
 5   0  0.6493047E-03  0.1236517E+04  0.7818609E-02  0.9081480E-01
        2   -1    0    0  501    0  0.00000000000E+00  0.00000000000E+00  0.91433612289E+03  0.91433612290E+03  0.25500000920E-02 0. -1.
       -2   -1    0    0    0  501  0.00000000000E+00  0.00000000000E+00 -0.41805586445E+03  0.41805586446E+03  0.25500000920E-02 0.  1.
    10030    2    1    2    0    0  0.00000000000E+00  0.00000000000E+00  0.49628025844E+03  0.13323919874E+04  0.12365170088E+04 0.  0.
        3    1    3    3  502    0 -0.12970283707E+01 -0.26396551406E+03  0.85056301259E+03  0.89058235076E+03  0.10100000352E+00 0. -1.
       -3    1    3    3    0  502  0.12970283707E+01  0.26396551406E+03 -0.35428275415E+03  0.44180963659E+03  0.10100000352E+00 0.  1.
</event>
<event>
 5   0  0.3648616E-03  0.1166774E+04  0.7818609E-02  0.9142447E-01
       -1   -1    0    0    0  501  0.00000000000E+00  0.00000000000E+00  0.88239399509E+03  0.88239399510E+03  0.50400001928E-02 0.  1.
        1   -1    0    0  501    0  0.00000000000E+00  0.00000000000E+00 -0.38570105523E+03  0.38570105526E+03  0.50400001928E-02 0. -1.
    10030    2    1    2    0    0  0.00000000000E+00  0.00000000000E+00  0.49669293986E+03  0.12680950504E+04  0.11667738342E+04 0.  0.
        2    1    3    3  502    0  0.20457969035E+03 -0.89591190634E+02 -0.33739900012E+03  0.40462021258E+03  0.25500000920E-02 0. -1.
       -2    1    3    3    0  502 -0.20457969035E+03  0.89591190634E+02  0.83409193998E+03  0.86347483778E+03  0.25500000920E-02 0.  1.
</event>
<event>
 5   0  0.3731281E-03  0.1066325E+04  0.7818609E-02  0.9238650E-01
        1   -1    0    0  501    0  0.00000000000E+00  0.00000000000E+00  0.30916606513E+03  0.30916606517E+03  0.50400001928E-02 0. -1.
       -1   -1    0    0    0  501  0.00000000000E+00  0.00000000000E+00 -0.91944880333E+03  0.91944880334E+03  0.50400001928E-02 0.  1.
    10030    2    1    2    0    0  0.00000000000E+00  0.00000000000E+00 -0.61028273819E+03  0.12286148685E+04  0.10663252199E+04 0.  0.
        5    1    3    3  502    0 -0.20511804222E+03 -0.37100794961E+03  0.67358154307E+02  0.42927790634E+03  0.46999998093E+01 0. -1.
       -5    1    3    3    0  502  0.20511804222E+03  0.37100794961E+03 -0.67764089250E+03  0.79933696218E+03  0.46999998093E+01 0.  1.
</event>
<event>
 5   0  0.6493047E-03  0.1194742E+04  0.7818609E-02  0.9117471E-01
        2   -1    0    0  501    0  0.00000000000E+00  0.00000000000E+00  0.18722156058E+04  0.18722156058E+04  0.25500000920E-02 0. -1.
       -2   -1    0    0    0  501  0.00000000000E+00  0.00000000000E+00 -0.19060418967E+03  0.19060418969E+03  0.25500000920E-02 0.  1.
    10030    2    1    2    0    0  0.00000000000E+00  0.00000000000E+00  0.16816114161E+04  0.20628197955E+04  0.11947420449E+04 0.  0.
        3    1    3    3  502    0  0.28170091615E+03 -0.93170648187E+02 -0.54383136751E+02  0.30165163949E+03  0.10100000352E+00 0.  1.
       -3    1    3    3    0  502 -0.28170091615E+03  0.93170648187E+02  0.17359945529E+04  0.17611681560E+04  0.10100000352E+00 0. -1.
</event>
<event>
 5   0  0.6493047E-03  0.1146626E+04  0.7818609E-02  0.9160902E-01
        2   -1    0    0  501    0  0.00000000000E+00  0.00000000000E+00  0.43089230699E+03  0.43089230699E+03  0.25500000920E-02 0.  1.
       -2   -1    0    0    0  501  0.00000000000E+00  0.00000000000E+00 -0.76280668279E+03  0.76280668280E+03  0.25500000920E-02 0. -1.
    10030    2    1    2    0    0  0.00000000000E+00  0.00000000000E+00 -0.33191437580E+03  0.11936989898E+04  0.11466255384E+04 0.  0.
        3    1    3    3  502    0  0.13137961557E+03 -0.48385048181E+03  0.12351501265E+03  0.51636020439E+03  0.10100000352E+00 0.  1.
       -3    1    3    3    0  502 -0.13137961557E+03  0.48385048181E+03 -0.45542938846E+03  0.67733878540E+03  0.10100000352E+00 0. -1.
</event>
<event>
 5   0  0.6585930E-03  0.1208648E+04  0.7818609E-02  0.9105321E-01
       -2   -1    0    0    0  501  0.00000000000E+00  0.00000000000E+00  0.12210629616E+03  0.12210629619E+03  0.25500000920E-02 0.  1.
        2   -1    0    0  501    0  0.00000000000E+00  0.00000000000E+00 -0.29908969257E+04  0.29908969257E+04  0.25500000920E-02 0. -1.
    10030    2    1    2    0    0  0.00000000000E+00  0.00000000000E+00 -0.28687906295E+04  0.31130032219E+04  0.12086477499E+04 0.  0.
        2    1    3    3  502    0  0.18524063538E+03  0.36222020415E+03 -0.28344192112E+03  0.49583958287E+03  0.25500000920E-02 0.  1.
       -2    1    3    3    0  502 -0.18524063538E+03 -0.36222020415E+03 -0.25853487084E+04  0.26171636390E+04  0.25500000920E-02 0. -1.
</event>
<event>
 5   0  0.3701879E-03  0.1191899E+04  0.7818609E-02  0.9119977E-01
       -1   -1    0    0    0  501  0.00000000000E+00  0.00000000000E+00  0.64882034900E+03  0.64882034902E+03  0.50400001928E-02 0. -1.
        1   -1    0    0  501    0  0.00000000000E+00  0.00000000000E+00 -0.54738728858E+03  0.54738728861E+03  0.50400001928E-02 0.  1.
    10030    2    1    2    0    0  0.00000000000E+00  0.00000000000E+00  0.10143306042E+03  0.11962076376E+04  0.11918993441E+04 0.  0.
        1    1    3    3  502    0 -0.25015642191E+03  0.16039465147E+03  0.56916032123E+03  0.64206553476E+03  0.50400001928E-02 0. -1.
       -1    1    3    3    0  502  0.25015642191E+03 -0.16039465147E+03 -0.46772726081E+03  0.55414210287E+03  0.50400001928E-02 0.  1.
</event>
<event>
 5   0  0.6658994E-03  0.1174522E+04  0.7818609E-02  0.9135454E-01
       -2   -1    0    0    0  501  0.00000000000E+00  0.00000000000E+00  0.10847876637E+04  0.10847876638E+04  0.25500000920E-02 0.  1.
        2   -1    0    0  501    0  0.00000000000E+00  0.00000000000E+00 -0.31791984989E+03  0.31791984990E+03  0.25500000920E-02 0. -1.
    10030    2    1    2    0    0  0.00000000000E+00  0.00000000000E+00  0.76686781386E+03  0.14027075137E+04  0.11745220836E+04 0.  0.
        4    1    3    3  502    0 -0.56497508965E+03 -0.15172696505E+03  0.32188511677E+03  0.66770469906E+03  0.12699999809E+01 0.  1.
       -4    1    3    3    0  502  0.56497508965E+03  0.15172696505E+03  0.44498269709E+03  0.73500281459E+03  0.12699999809E+01 0. -1.
</event>
<event>
 5   0  0.6493047E-03  0.1259764E+04  0.7818609E-02  0.9062095E-01
       -2   -1    0    0    0  501  0.00000000000E+00  0.00000000000E+00  0.24988724693E+03  0.24988724695E+03  0.25500000920E-02 0.  1.
        2   -1    0    0  501    0  0.00000000000E+00  0.00000000000E+00 -0.15877224970E+04  0.15877224970E+04  0.25500000920E-02 0. -1.
    10030    2    1    2    0    0  0.00000000000E+00  0.00000000000E+00 -0.13378352501E+04  0.18376097439E+04  0.12597644283E+04 0.  0.
        3    1    3    3  502    0  0.30554493217E+03 -0.50710031860E+02 -0.14689710999E+04  0.15012679026E+04  0.10100000352E+00 0. -1.
       -3    1    3    3    0  502 -0.30554493217E+03  0.50710031860E+02  0.13113584985E+03  0.33634184131E+03  0.10100000352E+00 0.  1.
</event>
<event>
 5   0  0.2537625E-03  0.1104942E+04  0.7818609E-02  0.9200388E-01
        4   -1    0    0  501    0  0.00000000000E+00  0.00000000000E+00  0.50247825735E+03  0.50247986229E+03  0.12699999809E+01 0. -1.
       -4   -1    0    0    0  501  0.00000000000E+00  0.00000000000E+00 -0.60743463076E+03  0.60743595840E+03  0.12699999809E+01 0.  1.
    10030    2    1    2    0    0  0.00000000000E+00  0.00000000000E+00 -0.10495637341E+03  0.11099158207E+04  0.11049422106E+04 0.  0.
        5    1    3    3  502    0 -0.15887923960E+03 -0.30196050385E+03  0.38396514508E+03  0.51368675405E+03  0.46999998093E+01 0. -1.
       -5    1    3    3    0  502  0.15887923960E+03  0.30196050385E+03 -0.48892151849E+03  0.59622906663E+03  0.46999998093E+01 0.  1.
</event>
<event>
 5   0  0.3701879E-03  0.1118088E+04  0.7818609E-02  0.9187739E-01
       -1   -1    0    0    0  501  0.00000000000E+00  0.00000000000E+00  0.30950989715E+03  0.30950989719E+03  0.50400001928E-02 0. -1.
        1   -1    0    0  501    0  0.00000000000E+00  0.00000000000E+00 -0.10097586778E+04  0.10097586778E+04  0.50400001928E-02 0.  1.
    10030    2    1    2    0    0  0.00000000000E+00  0.00000000000E+00 -0.70024878065E+03  0.13192685750E+04  0.11180881979E+04 0.  0.
        1    1    3    3  502    0 -0.19391973964E+03 -0.49971902341E+03 -0.53745641256E+03  0.75906742995E+03  0.50400001928E-02 0.  1.
       -1    1    3    3    0  502  0.19391973964E+03  0.49971902341E+03 -0.16279236810E+03  0.56020114505E+03  0.50400001928E-02 0. -1.
</event>
<event>
 5   0  0.6349142E-03  0.1135989E+04  0.7818609E-02  0.9170807E-01
       -2   -1    0    0    0  501  0.00000000000E+00  0.00000000000E+00  0.19705534491E+03  0.19705534493E+03  0.25500000920E-02 0.  1.
        2   -1    0    0  501    0  0.00000000000E+00  0.00000000000E+00 -0.16371939866E+04  0.16371939866E+04  0.25500000920E-02 0. -1.
    10030    2    1    2    0    0  0.00000000000E+00  0.00000000000E+00 -0.14401386417E+04  0.18342493315E+04  0.11359891298E+04 0.  0.
        1    1    3    3  502    0 -0.37904341033E+03 -0.11093342581E+03 -0.60939717985E+02  0.39961704309E+03  0.50400001928E-02 0.  1.
       -1    1    3    3    0  502  0.37904341033E+03  0.11093342581E+03 -0.13791989237E+04  0.14346322885E+04  0.50400001928E-02 0. -1.
</event>
<event>
 5   0  0.3731281E-03  0.1039060E+04  0.7818609E-02  0.9266713E-01
        1   -1    0    0  501    0  0.00000000000E+00  0.00000000000E+00  0.80329953476E+03  0.80329953478E+03  0.50400001928E-02 0.  1.
       -1   -1    0    0    0  501  0.00000000000E+00  0.00000000000E+00 -0.33600318243E+03  0.33600318247E+03  0.50400001928E-02 0. -1.
    10030    2    1    2    0    0  0.00000000000E+00  0.00000000000E+00  0.46729635233E+03  0.11393027172E+04  0.10390595751E+04 0.  0.
        5    1    3    3  502    0  0.22054507704E+03  0.33171342147E+03 -0.13201458050E+03  0.41967113846E+03  0.46999998093E+01 0. -1.
       -5    1    3    3    0  502 -0.22054507704E+03 -0.33171342147E+03  0.59931093283E+03  0.71963157879E+03  0.46999998093E+01 0.  1.
</event>
<event>
 5   0  0.3944074E-03  0.1190509E+04  0.7818609E-02  0.9121205E-01
       -1   -1    0    0    0  501  0.00000000000E+00  0.00000000000E+00  0.63243603987E+03  0.63243603989E+03  0.50400001928E-02 0. -1.
        1   -1    0    0  501    0  0.00000000000E+00  0.00000000000E+00 -0.56025848886E+03  0.56025848888E+03  0.50400001928E-02 0.  1.
    10030    2    1    2    0    0  0.00000000000E+00  0.00000000000E+00  0.72177551018E+02  0.11926945288E+04  0.11905085636E+04 0.  0.
        4    1    3    3  502    0  0.49147945909E+03  0.59492468096E+02 -0.29502472110E+03  0.57630947540E+03  0.12699999809E+01 0.  1.
       -4    1    3    3    0  502 -0.49147945909E+03 -0.59492468096E+02  0.36720227212E+03  0.61638505337E+03  0.12699999809E+01 0. -1.
</event>
<event>
 5   0  0.6493047E-03  0.7335518E+03  0.7818609E-02  0.9661514E-01
        2   -1    0    0  501    0  0.00000000000E+00  0.00000000000E+00  0.11315179721E+04  0.11315179721E+04  0.25500000920E-02 0.  1.
       -2   -1    0    0    0  501  0.00000000000E+00  0.00000000000E+00 -0.11888858332E+03  0.11888858335E+03  0.25500000920E-02 0. -1.
    10030    2    1    2    0    0  0.00000000000E+00  0.00000000000E+00  0.10126293887E+04  0.12504065554E+04  0.73355182152E+03 0.  0.
        3    1    3    3  502    0 -0.31624838443E+03  0.98833214189E+02  0.23818116346E+03  0.40805798817E+03  0.10100000352E+00 0. -1.
       -3    1    3    3    0  502  0.31624838443E+03 -0.98833214189E+02  0.77444822528E+03  0.84234856723E+03  0.10100000352E+00 0.  1.
</event>
<event>
 5   0  0.3944074E-03  0.1224206E+04  0.7818609E-02  0.9091929E-01
       -1   -1    0    0    0  501  0.00000000000E+00  0.00000000000E+00  0.32534693736E+03  0.32534693740E+03  0.50400001928E-02 0. -1.
        1   -1    0    0  501    0  0.00000000000E+00  0.00000000000E+00 -0.11516021850E+04  0.11516021851E+04  0.50400001928E-02 0.  1.
    10030    2    1    2    0    0  0.00000000000E+00  0.00000000000E+00 -0.82625524769E+03  0.14769491225E+04  0.12242062637E+04 0.  0.
        4    1    3    3  502    0 -0.19071214161E+03  0.57891888689E+03 -0.48084436199E+03  0.77635759281E+03  0.12699999809E+01 0.  1.
       -4    1    3    3    0  502  0.19071214161E+03 -0.57891888689E+03 -0.34541088569E+03  0.70059152965E+03  0.12699999809E+01 0. -1.
</event>
<event>
 5   0  0.3701879E-03  0.1234788E+04  0.7818609E-02  0.9082940E-01
       -1   -1    0    0    0  501  0.00000000000E+00  0.00000000000E+00  0.59489498369E+03  0.59489498371E+03  0.50400001928E-02 0.  1.
        1   -1    0    0  501    0  0.00000000000E+00  0.00000000000E+00 -0.64074430548E+03  0.64074430550E+03  0.50400001928E-02 0. -1.
    10030    2    1    2    0    0  0.00000000000E+00  0.00000000000E+00 -0.45849321789E+02  0.12356392892E+04  0.12347883595E+04 0.  0.
        1    1    3    3  502    0  0.24684170078E+03  0.30296817007E+03 -0.50122374596E+03  0.63556729059E+03  0.50400001928E-02 0. -1.
       -1    1    3    3    0  502 -0.24684170078E+03 -0.30296817007E+03  0.45537442417E+03  0.60007199863E+03  0.50400001928E-02 0.  1.
</event>
<event>
 5   0  0.3648616E-03  0.1217199E+04  0.7818609E-02  0.9097934E-01
        1   -1    0    0  501    0  0.00000000000E+00  0.00000000000E+00  0.56588979357E+03  0.56588979360E+03  0.50400001928E-02 0.  1.
       -1   -1    0    0    0  501  0.00000000000E+00  0.00000000000E+00 -0.65453298494E+03  0.65453298496E+03  0.50400001928E-02 0. -1.
    10030    2    1    2    0    0  0.00000000000E+00  0.00000000000E+00 -0.88643191367E+02  0.12204227786E+04  0.12171993029E+04 0.  0.
        2    1    3    3  502    0  0.27050762405E+03 -0.27508465241E+03  0.42761334237E+03  0.57593325242E+03  0.25500000920E-02 0.  1.
       -2    1    3    3    0  502 -0.27050762405E+03  0.27508465241E+03 -0.51625653374E+03  0.64448952614E+03  0.25500000920E-02 0. -1.
</event>
<event>
 5   0  0.6349142E-03  0.1158190E+04  0.7818609E-02  0.9150261E-01
       -2   -1    0    0    0  501  0.00000000000E+00  0.00000000000E+00  0.22289479875E+03  0.22289479876E+03  0.25500000920E-02 0.  1.
        2   -1    0    0  501    0  0.00000000000E+00  0.00000000000E+00 -0.15045259063E+04  0.15045259063E+04  0.25500000920E-02 0. -1.
    10030    2    1    2    0    0  0.00000000000E+00  0.00000000000E+00 -0.12816311075E+04  0.17274207051E+04  0.11581899656E+04 0.  0.
        1    1    3    3  502    0  0.51080476353E+03 -0.12714373583E+03 -0.28080242913E+03  0.59660459288E+03  0.50400001928E-02 0.  1.
       -1    1    3    3    0  502 -0.51080476353E+03  0.12714373583E+03 -0.10008286784E+04  0.11308161122E+04  0.50400001928E-02 0. -1.
</event>
<event>
 5   0  0.3731281E-03  0.1242979E+04  0.7818609E-02  0.9076047E-01
       -1   -1    0    0    0  501  0.00000000000E+00  0.00000000000E+00  0.34793238893E+03  0.34793238896E+03  0.50400001928E-02 0. -1.
        1   -1    0    0  501    0  0.00000000000E+00  0.00000000000E+00 -0.11101266165E+04  0.11101266165E+04  0.50400001928E-02 0.  1.
    10030    2    1    2    0    0  0.00000000000E+00  0.00000000000E+00 -0.76219422761E+03  0.14580590055E+04  0.12429786897E+04 0.  0.
        5    1    3    3  502    0  0.18246763464E+03 -0.34448606892E+03  0.18665947004E+03  0.43223713066E+03  0.46999998093E+01 0. -1.
       -5    1    3    3    0  502 -0.18246763464E+03  0.34448606892E+03 -0.94885369765E+03  0.10258218748E+04  0.46999998093E+01 0.  1.
</event>
<event>
 5   0  0.6493047E-03  0.1176882E+04  0.7818609E-02  0.9133336E-01
        2   -1    0    0  501    0  0.00000000000E+00  0.00000000000E+00  0.25624411191E+04  0.25624411191E+04  0.25500000920E-02 0. -1.
       -2   -1    0    0    0  501  0.00000000000E+00  0.00000000000E+00 -0.13513002824E+03  0.13513002827E+03  0.25500000920E-02 0.  1.
    10030    2    1    2    0    0  0.00000000000E+00  0.00000000000E+00  0.24273110909E+04  0.26975711474E+04  0.11768818816E+04 0.  0.
        3    1    3    3  502    0  0.25864218301E+03  0.15914765635E+03  0.58367692291E+02  0.30924190056E+03  0.10100000352E+00 0.  1.
       -3    1    3    3    0  502 -0.25864218301E+03 -0.15914765635E+03  0.23689433986E+04  0.23883292468E+04  0.10100000352E+00 0. -1.
</event>
<event>
 5   0  0.6585930E-03  0.1196651E+04  0.7818609E-02  0.9115793E-01
        2   -1    0    0  501    0  0.00000000000E+00  0.00000000000E+00  0.13320034540E+04  0.13320034540E+04  0.25500000920E-02 0. -1.
       -2   -1    0    0    0  501  0.00000000000E+00  0.00000000000E+00 -0.26876321204E+03  0.26876321205E+03  0.25500000920E-02 0.  1.
    10030    2    1    2    0    0  0.00000000000E+00  0.00000000000E+00  0.10632402420E+04  0.16007666661E+04  0.11966512053E+04 0.  0.
        2    1    3    3  502    0  0.59441285711E+03  0.65790494234E+02  0.55623146046E+03  0.81673035418E+03  0.25500000920E-02 0. -1.
       -2    1    3    3    0  502 -0.59441285711E+03 -0.65790494234E+02  0.50700878154E+03  0.78403631191E+03  0.25500000920E-02 0.  1.
</event>
<event>
 5   0  0.6658994E-03  0.1229947E+04  0.7818609E-02  0.9087041E-01
       -2   -1    0    0    0  501  0.00000000000E+00  0.00000000000E+00  0.45457577598E+03  0.45457577599E+03  0.25500000920E-02 0. -1.
        2   -1    0    0  501    0  0.00000000000E+00  0.00000000000E+00 -0.83196719327E+03  0.83196719327E+03  0.25500000920E-02 0.  1.
    10030    2    1    2    0    0  0.00000000000E+00  0.00000000000E+00 -0.37739141729E+03  0.12865429693E+04  0.12299465557E+04 0.  0.
        4    1    3    3  502    0 -0.58183500618E+03  0.11862338071E+03 -0.35601579047E+03  0.69235275461E+03  0.12699999809E+01 0. -1.
       -4    1    3    3    0  502  0.58183500618E+03 -0.11862338071E+03 -0.21375626820E+02  0.59419021465E+03  0.12699999809E+01 0.  1.
</event>
<event>
 5   0  0.6493047E-03  0.1245051E+04  0.7818609E-02  0.9074313E-01
        2   -1    0    0  501    0  0.00000000000E+00  0.00000000000E+00  0.14926815290E+04  0.14926815290E+04  0.25500000920E-02 0.  1.
       -2   -1    0    0    0  501  0.00000000000E+00  0.00000000000E+00 -0.25962523308E+03  0.25962523309E+03  0.25500000920E-02 0. -1.
    10030    2    1    2    0    0  0.00000000000E+00  0.00000000000E+00  0.12330562959E+04  0.17523067621E+04  0.12450506655E+04 0.  0.
        3    1    3    3  502    0  0.52916036855E+03  0.31985891973E+03  0.51486856406E+03  0.80461796688E+03  0.10100000352E+00 0. -1.
       -3    1    3    3    0  502 -0.52916036855E+03 -0.31985891973E+03  0.71818773187E+03  0.94768879522E+03  0.10100000352E+00 0.  1.
</event>
<event>
 5   0  0.3701879E-03  0.1203120E+04  0.7818609E-02  0.9110130E-01
        1   -1    0    0  501    0  0.00000000000E+00  0.00000000000E+00  0.31068023756E+03  0.31068023760E+03  0.50400001928E-02 0. -1.
       -1   -1    0    0    0  501  0.00000000000E+00  0.00000000000E+00 -0.11647807011E+04  0.11647807011E+04  0.50400001928E-02 0.  1.
    10030    2    1    2    0    0  0.00000000000E+00  0.00000000000E+00 -0.85410046356E+03  0.14754609387E+04  0.12031198527E+04 0.  0.
        1    1    3    3  502    0  0.22121764308E+03  0.19561959372E+03 -0.10697741997E+04  0.11097842625E+04  0.50400001928E-02 0.  1.
       -1    1    3    3    0  502 -0.22121764308E+03 -0.19561959372E+03  0.21567373611E+03  0.36567667621E+03  0.50400001928E-02 0. -1.
</event>
<event>
 5   0  0.3731281E-03  0.1213169E+04  0.7818609E-02  0.9101407E-01
       -1   -1    0    0    0  501  0.00000000000E+00  0.00000000000E+00  0.32777867059E+03  0.32777867063E+03  0.50400001928E-02 0. -1.
        1   -1    0    0  501    0  0.00000000000E+00  0.00000000000E+00 -0.11225400864E+04  0.11225400864E+04  0.50400001928E-02 0.  1.
    10030    2    1    2    0    0  0.00000000000E+00  0.00000000000E+00 -0.79476141582E+03  0.14503187570E+04  0.12131689037E+04 0.  0.
        5    1    3    3  502    0 -0.49219312293E+03 -0.34432469267E+03 -0.29658367125E+03  0.66992352421E+03  0.46999998093E+01 0.  1.
       -5    1    3    3    0  502  0.49219312293E+03  0.34432469267E+03 -0.49817774457E+03  0.78039523283E+03  0.46999998093E+01 0. -1.
</event>
<event>
 5   0  0.2537625E-03  0.1202452E+04  0.7818609E-02  0.9110713E-01
        3   -1    0    0  501    0  0.00000000000E+00  0.00000000000E+00  0.81750486772E+03  0.81750487396E+03  0.10100000352E+00 0.  1.
       -3   -1    0    0    0  501  0.00000000000E+00  0.00000000000E+00 -0.44216608033E+03  0.44216609186E+03  0.10100000352E+00 0. -1.
    10030    2    1    2    0    0  0.00000000000E+00  0.00000000000E+00  0.37533878739E+03  0.12596709658E+04  0.12024523844E+04 0.  0.
        2    1    3    3  502    0  0.48240306089E+03 -0.32489752675E+03  0.34723902474E+03  0.67738176559E+03  0.25500000920E-02 0.  1.
       -2    1    3    3    0  502 -0.48240306089E+03  0.32489752675E+03  0.28099762650E+02  0.58228920023E+03  0.25500000920E-02 0. -1.
</event>
<event>
 5   0  0.6658994E-03  0.1164137E+04  0.7818609E-02  0.9144839E-01
        2   -1    0    0  501    0  0.00000000000E+00  0.00000000000E+00  0.21869663148E+04  0.21869663148E+04  0.25500000920E-02 0. -1.
       -2   -1    0    0    0  501  0.00000000000E+00  0.00000000000E+00 -0.15491963209E+03  0.15491963211E+03  0.25500000920E-02 0.  1.
    10030    2    1    2    0    0  0.00000000000E+00  0.00000000000E+00  0.20320466827E+04  0.23418859469E+04  0.11641374780E+04 0.  0.
        4    1    3    3  502    0  0.37867944084E+03 -0.44067811191E+03  0.94613081845E+03  0.11102974627E+04  0.12699999809E+01 0.  1.
       -4    1    3    3    0  502 -0.37867944084E+03  0.44067811191E+03  0.10859158642E+04  0.12315884842E+04  0.12699999809E+01 0. -1.
</event>
<event>
 5   0  0.6585930E-03  0.1227998E+04  0.7818609E-02  0.9088697E-01
       -2   -1    0    0    0  501  0.00000000000E+00  0.00000000000E+00  0.22724522699E+03  0.22724522701E+03  0.25500000920E-02 0.  1.
        2   -1    0    0  501    0  0.00000000000E+00  0.00000000000E+00 -0.16589783892E+04  0.16589783892E+04  0.25500000920E-02 0. -1.
    10030    2    1    2    0    0  0.00000000000E+00  0.00000000000E+00 -0.14317331622E+04  0.18862236162E+04  0.12279982421E+04 0.  0.
        2    1    3    3  502    0 -0.47288860568E+03 -0.32472566456E+03 -0.37960723480E+03  0.68787502013E+03  0.25500000920E-02 0.  1.
       -2    1    3    3    0  502  0.47288860568E+03  0.32472566456E+03 -0.10521259274E+04  0.11983485961E+04  0.25500000920E-02 0. -1.
</event>
<event>
 5   0  0.3648616E-03  0.1262465E+04  0.7818609E-02  0.9059872E-01
       -1   -1    0    0    0  501  0.00000000000E+00  0.00000000000E+00  0.60665524792E+03  0.60665524794E+03  0.50400001928E-02 0. -1.
        1   -1    0    0  501    0  0.00000000000E+00  0.00000000000E+00 -0.65680524007E+03  0.65680524009E+03  0.50400001928E-02 0.  1.
    10030    2    1    2    0    0  0.00000000000E+00  0.00000000000E+00 -0.50149992159E+02  0.12634604880E+04  0.12624648047E+04 0.  0.
        2    1    3    3  502    0  0.30690190881E+03  0.90560577724E+02  0.51947209218E+03  0.61011577133E+03  0.25500000920E-02 0. -1.
       -2    1    3    3    0  502 -0.30690190881E+03 -0.90560577724E+02 -0.56962208434E+03  0.65334471670E+03  0.25500000920E-02 0.  1.
</event>
<event>
 5   0  0.2537625E-03  0.1123289E+04  0.7818609E-02  0.9182785E-01
       -4   -1    0    0    0  501  0.00000000000E+00  0.00000000000E+00  0.81765644905E+03  0.81765743534E+03  0.12699999809E+01 0.  1.
        4   -1    0    0  501    0  0.00000000000E+00  0.00000000000E+00 -0.38578895170E+03  0.38579104209E+03  0.12699999809E+01 0. -1.
    10030    2    1    2    0    0  0.00000000000E+00  0.00000000000E+00  0.43186749734E+03  0.12034484774E+04  0.11232892337E+04 0.  0.
        4    1    3    3  502    0 -0.37424102481E+03  0.36551229840E+03  0.43494124727E+03  0.68031690146E+03  0.12699999809E+01 0.  1.
       -4    1    3    3    0  502  0.37424102481E+03 -0.36551229840E+03 -0.30737499268E+01  0.52313157597E+03  0.12699999809E+01 0. -1.
</event>
<event>
 5   0  0.6349142E-03  0.1204868E+04  0.7818609E-02  0.9108606E-01
       -2   -1    0    0    0  501  0.00000000000E+00  0.00000000000E+00  0.27290251414E+03  0.27290251415E+03  0.25500000920E-02 0. -1.
        2   -1    0    0  501    0  0.00000000000E+00  0.00000000000E+00 -0.13298763417E+04  0.13298763417E+04  0.25500000920E-02 0.  1.
    10030    2    1    2    0    0  0.00000000000E+00  0.00000000000E+00 -0.10569738276E+04  0.16027788559E+04  0.12048677889E+04 0.  0.
        1    1    3    3  502    0  0.46689100965E+03  0.33409229875E+03 -0.28565939413E+03  0.64125359138E+03  0.50400001928E-02 0. -1.
       -1    1    3    3    0  502 -0.46689100965E+03 -0.33409229875E+03 -0.77131443344E+03  0.96152526448E+03  0.50400001928E-02 0.  1.
</event>
<event>
 5   0  0.3944074E-03  0.1212869E+04  0.7818609E-02  0.9101666E-01
        1   -1    0    0  501    0  0.00000000000E+00  0.00000000000E+00  0.12042850316E+04  0.12042850316E+04  0.50400001928E-02 0.  1.
       -1   -1    0    0    0  501  0.00000000000E+00  0.00000000000E+00 -0.30537859190E+03  0.30537859195E+03  0.50400001928E-02 0. -1.
    10030    2    1    2    0    0  0.00000000000E+00  0.00000000000E+00  0.89890643972E+03  0.15096636236E+04  0.12128691063E+04 0.  0.
        4    1    3    3  502    0 -0.41269617408E+02  0.52148610578E+03  0.83129625103E+03  0.98219448671E+03  0.12699999809E+01 0.  1.
       -4    1    3    3    0  502  0.41269617408E+02 -0.52148610578E+03  0.67610188696E+02  0.52746913688E+03  0.12699999809E+01 0. -1.
</event>
<event>
 5   0  0.3731281E-03  0.1218439E+04  0.7818609E-02  0.9096868E-01
        1   -1    0    0  501    0  0.00000000000E+00  0.00000000000E+00  0.13019056598E+04  0.13019056598E+04  0.50400001928E-02 0. -1.
       -1   -1    0    0    0  501  0.00000000000E+00  0.00000000000E+00 -0.28508078055E+03  0.28508078059E+03  0.50400001928E-02 0.  1.
    10030    2    1    2    0    0  0.00000000000E+00  0.00000000000E+00  0.10168248792E+04  0.15869864404E+04  0.12184388072E+04 0.  0.
        5    1    3    3  502    0 -0.15406266310E+03  0.15001034806E+03  0.12508093974E+04  0.12691669107E+04  0.46999998093E+01 0. -1.
       -5    1    3    3    0  502  0.15406266310E+03 -0.15001034806E+03 -0.23398451817E+03  0.31781952965E+03  0.46999998093E+01 0.  1.
</event>
<event>
 5   0  0.3701879E-03  0.1199905E+04  0.7818609E-02  0.9112940E-01
       -1   -1    0    0    0  501  0.00000000000E+00  0.00000000000E+00  0.43522311875E+03  0.43522311877E+03  0.50400001928E-02 0. -1.
        1   -1    0    0  501    0  0.00000000000E+00  0.00000000000E+00 -0.82703036587E+03  0.82703036589E+03  0.50400001928E-02 0.  1.
    10030    2    1    2    0    0  0.00000000000E+00  0.00000000000E+00 -0.39180724713E+03  0.12622534847E+04  0.11999045548E+04 0.  0.
        1    1    3    3  502    0 -0.35751071306E+03 -0.91294893652E+02 -0.69355379882E+03  0.78559884129E+03  0.50400001928E-02 0.  1.
       -1    1    3    3    0  502  0.35751071306E+03  0.91294893652E+02  0.30174655169E+03  0.47665464337E+03  0.50400001928E-02 0. -1.
</event>
<event>
 5   0  0.3772254E-03  0.9668758E+03  0.7818609E-02  0.9345640E-01
       -1   -1    0    0    0  501  0.00000000000E+00  0.00000000000E+00  0.27502919774E+03  0.27502919778E+03  0.50400001928E-02 0. -1.
        1   -1    0    0  501    0  0.00000000000E+00  0.00000000000E+00 -0.84977232651E+03  0.84977232653E+03  0.50400001928E-02 0.  1.
    10030    2    1    2    0    0  0.00000000000E+00  0.00000000000E+00 -0.57474312878E+03  0.11248015243E+04  0.96687579607E+03 0.  0.
        3    1    3    3  502    0 -0.23317032378E+03 -0.12912375310E+03 -0.75657379956E+03  0.80215040229E+03  0.10100000352E+00 0.  1.
       -3    1    3    3    0  502  0.23317032378E+03  0.12912375310E+03  0.18183067079E+03  0.32265112203E+03  0.10100000352E+00 0. -1.
</event>
<event>
 5   0  0.6349142E-03  0.1267890E+04  0.7818609E-02  0.9055424E-01
       -2   -1    0    0    0  501  0.00000000000E+00  0.00000000000E+00  0.24619157217E+03  0.24619157219E+03  0.25500000920E-02 0. -1.
        2   -1    0    0  501    0  0.00000000000E+00  0.00000000000E+00 -0.16324125725E+04  0.16324125725E+04  0.25500000920E-02 0.  1.
    10030    2    1    2    0    0  0.00000000000E+00  0.00000000000E+00 -0.13862210003E+04  0.18786041447E+04  0.12678899285E+04 0.  0.
        1    1    3    3  502    0  0.48652798788E+03 -0.24261425583E+02 -0.12942191309E+04  0.13828598116E+04  0.50400001928E-02 0.  1.
       -1    1    3    3    0  502 -0.48652798788E+03  0.24261425583E+02 -0.92001869403E+02  0.49574433306E+03  0.50400001928E-02 0. -1.
</event>
<event>
 5   0  0.6349142E-03  0.1212004E+04  0.7818609E-02  0.9102414E-01
        2   -1    0    0  501    0  0.00000000000E+00  0.00000000000E+00  0.41048115117E+03  0.41048115118E+03  0.25500000920E-02 0.  1.
       -2   -1    0    0    0  501  0.00000000000E+00  0.00000000000E+00 -0.89465329780E+03  0.89465329780E+03  0.25500000920E-02 0. -1.
    10030    2    1    2    0    0  0.00000000000E+00  0.00000000000E+00 -0.48417214663E+03  0.13051344490E+04  0.12120038211E+04 0.  0.
        1    1    3    3  502    0 -0.31014503649E+02  0.39305530887E+03  0.25347567457E+03  0.46872624516E+03  0.50400001928E-02 0.  1.
       -1    1    3    3    0  502  0.31014503649E+02 -0.39305530887E+03 -0.73764782120E+03  0.83640820382E+03  0.50400001928E-02 0. -1.
</event>
<event>
 5   0  0.3731281E-03  0.1177514E+04  0.7818609E-02  0.9132769E-01
       -1   -1    0    0    0  501  0.00000000000E+00  0.00000000000E+00  0.53399022198E+03  0.53399022200E+03  0.50400001928E-02 0. -1.
        1   -1    0    0  501    0  0.00000000000E+00  0.00000000000E+00 -0.64914097792E+03  0.64914097794E+03  0.50400001928E-02 0.  1.
    10030    2    1    2    0    0  0.00000000000E+00  0.00000000000E+00 -0.11515075595E+03  0.11831311999E+04  0.11775142206E+04 0.  0.
        5    1    3    3  502    0  0.44794946518E+03 -0.38046989718E+03 -0.92334893063E+02  0.59494864357E+03  0.46999998093E+01 0.  1.
       -5    1    3    3    0  502 -0.44794946518E+03  0.38046989718E+03 -0.22815862883E+02  0.58818255637E+03  0.46999998093E+01 0. -1.
</event>
<event>
 5   0  0.6658994E-03  0.1218457E+04  0.7818609E-02  0.9096853E-01
        2   -1    0    0  501    0  0.00000000000E+00  0.00000000000E+00  0.54820869218E+03  0.54820869218E+03  0.25500000920E-02 0. -1.
       -2   -1    0    0    0  501  0.00000000000E+00  0.00000000000E+00 -0.67704065662E+03  0.67704065663E+03  0.25500000920E-02 0.  1.
    10030    2    1    2    0    0  0.00000000000E+00  0.00000000000E+00 -0.12883196445E+03  0.12252493488E+04  0.12184573409E+04 0.  0.
        4    1    3    3  502    0 -0.30411501416E+03  0.19067372671E+03  0.43058355427E+03  0.56057668699E+03  0.12699999809E+01 0. -1.
       -4    1    3    3    0  502  0.30411501416E+03 -0.19067372671E+03 -0.55941551871E+03  0.66467266182E+03  0.12699999809E+01 0.  1.
</event>
<event>
 5   0  0.3648616E-03  0.1272892E+04  0.7818609E-02  0.9051343E-01
       -1   -1    0    0    0  501  0.00000000000E+00  0.00000000000E+00  0.81171569308E+03  0.81171569310E+03  0.50400001928E-02 0.  1.
        1   -1    0    0  501    0  0.00000000000E+00  0.00000000000E+00 -0.49902123250E+03  0.49902123253E+03  0.50400001928E-02 0. -1.
    10030    2    1    2    0    0  0.00000000000E+00  0.00000000000E+00  0.31269446058E+03  0.13107369256E+04  0.12728917717E+04 0.  0.
        2    1    3    3  502    0  0.49379239749E+02 -0.41740882286E+03  0.64846300404E+03  0.77276950142E+03  0.25500000920E-02 0.  1.
       -2    1    3    3    0  502 -0.49379239749E+02  0.41740882286E+03 -0.33576854346E+03  0.53796742420E+03  0.25500000920E-02 0. -1.
</event>
<event>
 5   0  0.6640844E-03  0.1263763E+04  0.7818609E-02  0.9058806E-01
       -2   -1    0    0    0  501  0.00000000000E+00  0.00000000000E+00  0.29353612037E+03  0.29353612038E+03  0.25500000920E-02 0.  1.
        2   -1    0    0  501    0  0.00000000000E+00  0.00000000000E+00 -0.13602213296E+04  0.13602213296E+04  0.25500000920E-02 0. -1.
    10030    2    1    2    0    0  0.00000000000E+00  0.00000000000E+00 -0.10666852092E+04  0.16537574499E+04  0.12637627814E+04 0.  0.
        5    1    3    3  502    0  0.62452726048E+03  0.93321317790E+02 -0.50382408812E+03  0.80783907383E+03  0.46999998093E+01 0. -1.
       -5    1    3    3    0  502 -0.62452726048E+03 -0.93321317790E+02 -0.56286112107E+03  0.84591837612E+03  0.46999998093E+01 0.  1.
</event>
<event>
 5   0  0.6640844E-03  0.1184618E+04  0.7818609E-02  0.9126428E-01
       -2   -1    0    0    0  501  0.00000000000E+00  0.00000000000E+00  0.11389351891E+04  0.11389351891E+04  0.25500000920E-02 0.  1.
        2   -1    0    0  501    0  0.00000000000E+00  0.00000000000E+00 -0.30803348989E+03  0.30803348990E+03  0.25500000920E-02 0. -1.
    10030    2    1    2    0    0  0.00000000000E+00  0.00000000000E+00  0.83090169917E+03  0.14469686789E+04  0.11846183876E+04 0.  0.
        5    1    3    3  502    0 -0.55337722711E+02  0.31924825661E+03 -0.19016175052E+03  0.37571970173E+03  0.46999998093E+01 0. -1.
       -5    1    3    3    0  502  0.55337722711E+02 -0.31924825661E+03  0.10210634497E+04  0.10712489772E+04  0.46999998093E+01 0.  1.
</event>
<event>
 5   0  0.6493047E-03  0.1336263E+04  0.7818609E-02  0.9001293E-01
        2   -1    0    0  501    0  0.00000000000E+00  0.00000000000E+00  0.95956681370E+03  0.95956681370E+03  0.25500000920E-02 0. -1.
       -2   -1    0    0    0  501  0.00000000000E+00  0.00000000000E+00 -0.46520954606E+03  0.46520954607E+03  0.25500000920E-02 0.  1.
    10030    2    1    2    0    0  0.00000000000E+00  0.00000000000E+00  0.49435726764E+03  0.14247763598E+04  0.13362629110E+04 0.  0.
        3    1    3    3  502    0 -0.31816306919E+03  0.52884477024E+03  0.52005077431E+03  0.80706712712E+03  0.10100000352E+00 0.  1.
       -3    1    3    3    0  502  0.31816306919E+03 -0.52884477024E+03 -0.25693506677E+02  0.61770923265E+03  0.10100000352E+00 0. -1.
</event>
<event>
 5   0  0.6640844E-03  0.1113812E+04  0.7818609E-02  0.9191833E-01
        2   -1    0    0  501    0  0.00000000000E+00  0.00000000000E+00  0.53644989934E+03  0.53644989934E+03  0.25500000920E-02 0. -1.
       -2   -1    0    0    0  501  0.00000000000E+00  0.00000000000E+00 -0.57814250244E+03  0.57814250245E+03  0.25500000920E-02 0.  1.
    10030    2    1    2    0    0  0.00000000000E+00  0.00000000000E+00 -0.41692603107E+02  0.11145924018E+04  0.11138123491E+04 0.  0.
        5    1    3    3  502    0  0.23167402563E+03 -0.45971825003E+03  0.19169046952E+03  0.54934601998E+03  0.46999998093E+01 0. -1.
       -5    1    3    3    0  502 -0.23167402563E+03  0.45971825003E+03 -0.23338307263E+03  0.56524638181E+03  0.46999998093E+01 0.  1.
</event>
<event>
 5   0  0.6585930E-03  0.1177866E+04  0.7818609E-02  0.9132454E-01
       -2   -1    0    0    0  501  0.00000000000E+00  0.00000000000E+00  0.20412804646E+03  0.20412804647E+03  0.25500000920E-02 0.  1.
        2   -1    0    0  501    0  0.00000000000E+00  0.00000000000E+00 -0.16991404501E+04  0.16991404501E+04  0.25500000920E-02 0. -1.
    10030    2    1    2    0    0  0.00000000000E+00  0.00000000000E+00 -0.14950124036E+04  0.19032684965E+04  0.11778662415E+04 0.  0.
        2    1    3    3  502    0  0.45149715391E+03  0.33119163412E+03 -0.45261862908E+03  0.72000083465E+03  0.25500000920E-02 0. -1.
       -2    1    3    3    0  502 -0.45149715391E+03 -0.33119163412E+03 -0.10423937745E+04  0.11832676619E+04  0.25500000920E-02 0.  1.
</event>
<event>
 5   0  0.6640844E-03  0.1063854E+04  0.7818609E-02  0.9241157E-01
        2   -1    0    0  501    0  0.00000000000E+00  0.00000000000E+00  0.63578335458E+03  0.63578335459E+03  0.25500000920E-02 0. -1.
       -2   -1    0    0    0  501  0.00000000000E+00  0.00000000000E+00 -0.44503563315E+03  0.44503563316E+03  0.25500000920E-02 0.  1.
    10030    2    1    2    0    0  0.00000000000E+00  0.00000000000E+00  0.19074772143E+03  0.10808189877E+04  0.10638538391E+04 0.  0.
        5    1    3    3  502    0 -0.31537496398E+03 -0.39023438336E+03  0.27476809069E+03  0.57206978204E+03  0.46999998093E+01 0.  1.
       -5    1    3    3    0  502  0.31537496398E+03  0.39023438336E+03 -0.84020369261E+02  0.50874920571E+03  0.46999998093E+01 0. -1.
</event>
<event>
 5   0  0.6585930E-03  0.1177356E+04  0.7818609E-02  0.9132911E-01
        2   -1    0    0  501    0  0.00000000000E+00  0.00000000000E+00  0.55783768323E+03  0.55783768324E+03  0.25500000920E-02 0.  1.
       -2   -1    0    0    0  501  0.00000000000E+00  0.00000000000E+00 -0.62122311337E+03  0.62122311338E+03  0.25500000920E-02 0. -1.
    10030    2    1    2    0    0  0.00000000000E+00  0.00000000000E+00 -0.63385430137E+02  0.11790607966E+04  0.11773557871E+04 0.  0.
        2    1    3    3  502    0  0.44387494624E+02 -0.36513628905E+03  0.42858892514E+03  0.56478600020E+03  0.25500000920E-02 0.  1.
       -2    1    3    3    0  502 -0.44387494624E+02  0.36513628905E+03 -0.49197435528E+03  0.61427479642E+03  0.25500000920E-02 0. -1.
</event>
<event>
 5   0  0.6658994E-03  0.1147527E+04  0.7818609E-02  0.9160068E-01
       -2   -1    0    0    0  501  0.00000000000E+00  0.00000000000E+00  0.73259797070E+03  0.73259797070E+03  0.25500000920E-02 0.  1.
        2   -1    0    0  501    0  0.00000000000E+00  0.00000000000E+00 -0.44936567612E+03  0.44936567612E+03  0.25500000920E-02 0. -1.
    10030    2    1    2    0    0  0.00000000000E+00  0.00000000000E+00  0.28323229458E+03  0.11819636468E+04  0.11475267011E+04 0.  0.
        4    1    3    3  502    0  0.60815030653E+02 -0.36253573273E+03 -0.31214041783E+03  0.48224877273E+03  0.12699999809E+01 0. -1.
       -4    1    3    3    0  502 -0.60815030653E+02  0.36253573273E+03  0.59537271240E+03  0.69971487410E+03  0.12699999809E+01 0.  1.
</event>
<event>
 5   0  0.6349142E-03  0.1247787E+04  0.7818609E-02  0.9072027E-01
        2   -1    0    0  501    0  0.00000000000E+00  0.00000000000E+00  0.93805929502E+03  0.93805929502E+03  0.25500000920E-02 0.  1.
       -2   -1    0    0    0  501  0.00000000000E+00  0.00000000000E+00 -0.41494502062E+03  0.41494502063E+03  0.25500000920E-02 0. -1.
    10030    2    1    2    0    0  0.00000000000E+00  0.00000000000E+00  0.52311427440E+03  0.13530043156E+04  0.12477868945E+04 0.  0.
        1    1    3    3  502    0  0.30854730411E+03 -0.46470095376E+03 -0.41461482063E+02  0.55934557280E+03  0.50400001928E-02 0. -1.
       -1    1    3    3    0  502 -0.30854730411E+03  0.46470095376E+03  0.56457575646E+03  0.79365874285E+03  0.50400001928E-02 0.  1.
</event>
<event>
 5   0  0.3701879E-03  0.1365666E+04  0.7818609E-02  0.8979053E-01
       -1   -1    0    0    0  501  0.00000000000E+00  0.00000000000E+00  0.53670460134E+03  0.53670460136E+03  0.50400001928E-02 0.  1.
        1   -1    0    0  501    0  0.00000000000E+00  0.00000000000E+00 -0.86874748153E+03  0.86874748155E+03  0.50400001928E-02 0. -1.
    10030    2    1    2    0    0  0.00000000000E+00  0.00000000000E+00 -0.33204288020E+03  0.14054520829E+04  0.13656658021E+04 0.  0.
        1    1    3    3  502    0  0.48210742454E+03 -0.10313410553E+03 -0.65222188940E+03  0.81759256697E+03  0.50400001928E-02 0. -1.
       -1    1    3    3    0  502 -0.48210742454E+03  0.10313410553E+03  0.32017900920E+03  0.58785951594E+03  0.50400001928E-02 0.  1.
</event>
<event>
 5   0  0.3731281E-03  0.9326114E+03  0.7818609E-02  0.9385709E-01
       -1   -1    0    0    0  501  0.00000000000E+00  0.00000000000E+00  0.32915655152E+03  0.32915655156E+03  0.50400001928E-02 0.  1.
        1   -1    0    0  501    0  0.00000000000E+00  0.00000000000E+00 -0.66060053652E+03  0.66060053654E+03  0.50400001928E-02 0. -1.
    10030    2    1    2    0    0  0.00000000000E+00  0.00000000000E+00 -0.33144398500E+03  0.98975708810E+03  0.93261137579E+03 0.  0.
        5    1    3    3  502    0 -0.30039226680E+03  0.27151733968E+03 -0.41110777439E+03  0.57705187970E+03  0.46999998093E+01 0. -1.
       -5    1    3    3    0  502  0.30039226680E+03 -0.27151733968E+03  0.79663789395E+02  0.41270520840E+03  0.46999998093E+01 0.  1.
</event>
<event>
 5   0  0.3648616E-03  0.1259489E+04  0.7818609E-02  0.9062323E-01
       -1   -1    0    0    0  501  0.00000000000E+00  0.00000000000E+00  0.27751380269E+03  0.27751380274E+03  0.50400001928E-02 0.  1.
        1   -1    0    0  501    0  0.00000000000E+00  0.00000000000E+00 -0.14290382061E+04  0.14290382062E+04  0.50400001928E-02 0. -1.
    10030    2    1    2    0    0  0.00000000000E+00  0.00000000000E+00 -0.11515244035E+04  0.17065520089E+04  0.12594885102E+04 0.  0.
        2    1    3    3  502    0 -0.20551966139E+03  0.49609722725E+03 -0.10215141009E+04  0.11540545257E+04  0.25500000920E-02 0. -1.
       -2    1    3    3    0  502  0.20551966139E+03 -0.49609722725E+03 -0.13001030259E+03  0.55249748315E+03  0.25500000920E-02 0.  1.
</event>
<event>
 5   0  0.3731281E-03  0.1194555E+04  0.7818609E-02  0.9117636E-01
       -1   -1    0    0    0  501  0.00000000000E+00  0.00000000000E+00  0.36513226990E+03  0.36513226993E+03  0.50400001928E-02 0.  1.
        1   -1    0    0  501    0  0.00000000000E+00  0.00000000000E+00 -0.97701615731E+03  0.97701615732E+03  0.50400001928E-02 0. -1.
    10030    2    1    2    0    0  0.00000000000E+00  0.00000000000E+00 -0.61188388741E+03  0.13421484273E+04  0.11945545233E+04 0.  0.
        5    1    3    3  502    0  0.30152108480E+02 -0.35249280548E+03  0.23471799694E+03  0.42458798340E+03  0.46999998093E+01 0.  1.
       -5    1    3    3    0  502 -0.30152108480E+02  0.35249280548E+03 -0.84660188435E+03  0.91756044386E+03  0.46999998093E+01 0. -1.
</event>
<event>
 5   0  0.6349142E-03  0.1187008E+04  0.7818609E-02  0.9124305E-01
       -2   -1    0    0    0  501  0.00000000000E+00  0.00000000000E+00  0.26148887455E+03  0.26148887457E+03  0.25500000920E-02 0. -1.
        2   -1    0    0  501    0  0.00000000000E+00  0.00000000000E+00 -0.13470818941E+04  0.13470818941E+04  0.25500000920E-02 0.  1.
    10030    2    1    2    0    0  0.00000000000E+00  0.00000000000E+00 -0.10855930196E+04  0.16085707687E+04  0.11870078828E+04 0.  0.
        1    1    3    3  502    0 -0.99604563493E+02  0.14576404899E+02  0.24983549469E+03  0.26935351321E+03  0.50400001928E-02 0. -1.
       -1    1    3    3    0  502  0.99604563493E+02 -0.14576404899E+02 -0.13354285142E+04  0.13392172555E+04  0.50400001928E-02 0.  1.
</event>
<event>
 5   0  0.6658994E-03  0.1217668E+04  0.7818609E-02  0.9097531E-01
        2   -1    0    0  501    0  0.00000000000E+00  0.00000000000E+00  0.17437838199E+04  0.17437838199E+04  0.25500000920E-02 0.  1.
       -2   -1    0    0    0  501  0.00000000000E+00  0.00000000000E+00 -0.21257146353E+03  0.21257146354E+03  0.25500000920E-02 0. -1.
    10030    2    1    2    0    0  0.00000000000E+00  0.00000000000E+00  0.15312123564E+04  0.19563552835E+04  0.12176677358E+04 0.  0.
        4    1    3    3  502    0 -0.51750985450E+02  0.48152658405E+03  0.17282074066E+03  0.51421263787E+03  0.12699999809E+01 0. -1.
       -4    1    3    3    0  502  0.51750985450E+02 -0.48152658405E+03  0.13583916157E+04  0.14421426456E+04  0.12699999809E+01 0.  1.
</event>
<event>
 5   0  0.3944074E-03  0.1201421E+04  0.7818609E-02  0.9111614E-01
        1   -1    0    0  501    0  0.00000000000E+00  0.00000000000E+00  0.75747115023E+03  0.75747115024E+03  0.50400001928E-02 0.  1.
       -1   -1    0    0    0  501  0.00000000000E+00  0.00000000000E+00 -0.47639172368E+03  0.47639172370E+03  0.50400001928E-02 0. -1.
    10030    2    1    2    0    0  0.00000000000E+00  0.00000000000E+00  0.28107942655E+03  0.12338628739E+04  0.12014208037E+04 0.  0.
        4    1    3    3  502    0 -0.42147040330E+03  0.25032784731E+03  0.49711844173E+03  0.69816165034E+03  0.12699999809E+01 0.  1.
       -4    1    3    3    0  502  0.42147040330E+03 -0.25032784731E+03 -0.21603901518E+03  0.53570122361E+03  0.12699999809E+01 0. -1.
</event>
<event>
 5   0  0.3648616E-03  0.1207441E+04  0.7818609E-02  0.9106368E-01
       -1   -1    0    0    0  501  0.00000000000E+00  0.00000000000E+00  0.20528553700E+03  0.20528553706E+03  0.50400001928E-02 0.  1.
        1   -1    0    0  501    0  0.00000000000E+00  0.00000000000E+00 -0.17754705466E+04  0.17754705466E+04  0.50400001928E-02 0. -1.
    10030    2    1    2    0    0  0.00000000000E+00  0.00000000000E+00 -0.15701850096E+04  0.19807560837E+04  0.12074409711E+04 0.  0.
        2    1    3    3  502    0  0.20512327210E+03  0.88548390771E+02 -0.17051569615E+04  0.17197315598E+04  0.25500000920E-02 0. -1.
       -2    1    3    3    0  502 -0.20512327210E+03 -0.88548390771E+02  0.13497195192E+03  0.26102452390E+03  0.25500000920E-02 0.  1.
</event>
<event>
 5   0  0.3648616E-03  0.1192472E+04  0.7818609E-02  0.9119471E-01
       -1   -1    0    0    0  501  0.00000000000E+00  0.00000000000E+00  0.16533118764E+03  0.16533118772E+03  0.50400001928E-02 0. -1.
        1   -1    0    0  501    0  0.00000000000E+00  0.00000000000E+00 -0.21502147278E+04  0.21502147278E+04  0.50400001928E-02 0.  1.
    10030    2    1    2    0    0  0.00000000000E+00  0.00000000000E+00 -0.19848835402E+04  0.23155459155E+04  0.11924723137E+04 0.  0.
        2    1    3    3  502    0  0.17689030352E+02 -0.58279902821E+03 -0.75045587052E+03  0.95034289742E+03  0.25500000920E-02 0. -1.
       -2    1    3    3    0  502 -0.17689030352E+02  0.58279902821E+03 -0.12344276696E+04  0.13652030181E+04  0.25500000920E-02 0.  1.
</event>
<event>
 5   0  0.6585930E-03  0.1177699E+04  0.7818609E-02  0.9132604E-01
       -2   -1    0    0    0  501  0.00000000000E+00  0.00000000000E+00  0.69097284270E+03  0.69097284270E+03  0.25500000920E-02 0.  1.
        2   -1    0    0  501    0  0.00000000000E+00  0.00000000000E+00 -0.50181971503E+03  0.50181971503E+03  0.25500000920E-02 0. -1.
    10030    2    1    2    0    0  0.00000000000E+00  0.00000000000E+00  0.18915312767E+03  0.11927925577E+04  0.11776991042E+04 0.  0.
        2    1    3    3  502    0  0.32149310277E+03 -0.48620581991E+03  0.98995656848E+01  0.58296819455E+03  0.25500000920E-02 0.  1.
       -2    1    3    3    0  502 -0.32149310277E+03  0.48620581991E+03  0.17925356199E+03  0.60982436319E+03  0.25500000920E-02 0. -1.
</event>
<event>
 5   0  0.3701879E-03  0.1194143E+04  0.7818609E-02  0.9117999E-01
       -1   -1    0    0    0  501  0.00000000000E+00  0.00000000000E+00  0.14080885766E+04  0.14080885766E+04  0.50400001928E-02 0. -1.
        1   -1    0    0  501    0  0.00000000000E+00  0.00000000000E+00 -0.25317591868E+03  0.25317591873E+03  0.50400001928E-02 0.  1.
    10030    2    1    2    0    0  0.00000000000E+00  0.00000000000E+00  0.11549126579E+04  0.16612644953E+04  0.11941425694E+04 0.  0.
        1    1    3    3  502    0  0.14270352199E+02 -0.28721659568E+03 -0.15048608966E+03  0.32456598558E+03  0.50400001928E-02 0.  1.
       -1    1    3    3    0  502 -0.14270352199E+02  0.28721659568E+03  0.13053987475E+04  0.13366985097E+04  0.50400001928E-02 0. -1.
</event>
<event>
 5   0  0.3648616E-03  0.1228699E+04  0.7818609E-02  0.9088101E-01
       -1   -1    0    0    0  501  0.00000000000E+00  0.00000000000E+00  0.40806575888E+03  0.40806575892E+03  0.50400001928E-02 0. -1.
        1   -1    0    0  501    0  0.00000000000E+00  0.00000000000E+00 -0.92491239664E+03  0.92491239665E+03  0.50400001928E-02 0.  1.
    10030    2    1    2    0    0  0.00000000000E+00  0.00000000000E+00 -0.51684663775E+03  0.13329781556E+04  0.12286986271E+04 0.  0.
        2    1    3    3  502    0 -0.13088274474E+03 -0.16457697154E+03  0.36780997839E+03  0.42367446541E+03  0.25500000920E-02 0. -1.
       -2    1    3    3    0  502  0.13088274474E+03  0.16457697154E+03 -0.88465661615E+03  0.90930369016E+03  0.25500000920E-02 0.  1.
</event>
<event>
 5   0  0.3772254E-03  0.1192600E+04  0.7818609E-02  0.9119359E-01
        1   -1    0    0  501    0  0.00000000000E+00  0.00000000000E+00  0.69909186653E+03  0.69909186654E+03  0.50400001928E-02 0.  1.
       -1   -1    0    0    0  501  0.00000000000E+00  0.00000000000E+00 -0.50862213070E+03  0.50862213072E+03  0.50400001928E-02 0. -1.
    10030    2    1    2    0    0  0.00000000000E+00  0.00000000000E+00  0.19046973583E+03  0.12077139973E+04  0.11925998402E+04 0.  0.
        3    1    3    3  502    0 -0.16736299465E+03 -0.43052998219E+03  0.47711763846E+03  0.66408409759E+03  0.10100000352E+00 0.  1.
       -3    1    3    3    0  502  0.16736299465E+03  0.43052998219E+03 -0.28664790263E+03  0.54362989968E+03  0.10100000352E+00 0. -1.
</event>
<event>
 5   0  0.3944074E-03  0.1189704E+04  0.7818609E-02  0.9121916E-01
       -1   -1    0    0    0  501  0.00000000000E+00  0.00000000000E+00  0.29421641362E+03  0.29421641366E+03  0.50400001928E-02 0.  1.
        1   -1    0    0  501    0  0.00000000000E+00  0.00000000000E+00 -0.12026828469E+04  0.12026828469E+04  0.50400001928E-02 0. -1.
    10030    2    1    2    0    0  0.00000000000E+00  0.00000000000E+00 -0.90846643329E+03  0.14968992606E+04  0.11897042220E+04 0.  0.
        4    1    3    3  502    0 -0.17075837809E+03  0.26355393119E+03 -0.10898831478E+04  0.11342248397E+04  0.12699999809E+01 0. -1.
       -4    1    3    3    0  502  0.17075837809E+03 -0.26355393119E+03  0.18141671451E+03  0.36267442084E+03  0.12699999809E+01 0.  1.
</event>
<event>
 5   0  0.6658994E-03  0.1053030E+04  0.7818609E-02  0.9252221E-01
       -2   -1    0    0    0  501  0.00000000000E+00  0.00000000000E+00  0.23137918212E+03  0.23137918213E+03  0.25500000920E-02 0.  1.
        2   -1    0    0  501    0  0.00000000000E+00  0.00000000000E+00 -0.11981121443E+04  0.11981121443E+04  0.25500000920E-02 0. -1.
    10030    2    1    2    0    0  0.00000000000E+00  0.00000000000E+00 -0.96673296219E+03  0.14294913264E+04  0.10530303093E+04 0.  0.
        4    1    3    3  502    0  0.48342404006E+03  0.98302199401E+02 -0.23359165567E+03  0.54582854397E+03  0.12699999809E+01 0.  1.
       -4    1    3    3    0  502 -0.48342404006E+03 -0.98302199401E+02 -0.73314130651E+03  0.88366278247E+03  0.12699999809E+01 0. -1.
</event>
<event>
 5   0  0.6585930E-03  0.1203098E+04  0.7818609E-02  0.9110149E-01
       -2   -1    0    0    0  501  0.00000000000E+00  0.00000000000E+00  0.22866333078E+03  0.22866333080E+03  0.25500000920E-02 0. -1.
        2   -1    0    0  501    0  0.00000000000E+00  0.00000000000E+00 -0.15825067352E+04  0.15825067352E+04  0.25500000920E-02 0.  1.
    10030    2    1    2    0    0  0.00000000000E+00  0.00000000000E+00 -0.13538434045E+04  0.18111700660E+04  0.12030981025E+04 0.  0.
        2    1    3    3  502    0 -0.20933310873E+03 -0.54370213638E+03 -0.45146551734E+03  0.73705730908E+03  0.25500000920E-02 0.  1.
       -2    1    3    3    0  502  0.20933310873E+03  0.54370213638E+03 -0.90237788712E+03  0.10741127570E+04  0.25500000920E-02 0. -1.
</event>
<event>
 5   0  0.6640844E-03  0.1104121E+04  0.7818609E-02  0.9201184E-01
       -2   -1    0    0    0  501  0.00000000000E+00  0.00000000000E+00  0.81355522285E+03  0.81355522285E+03  0.25500000920E-02 0. -1.
        2   -1    0    0  501    0  0.00000000000E+00  0.00000000000E+00 -0.37461616936E+03  0.37461616937E+03  0.25500000920E-02 0.  1.
    10030    2    1    2    0    0  0.00000000000E+00  0.00000000000E+00  0.43893905349E+03  0.11881713922E+04  0.11041212635E+04 0.  0.
        5    1    3    3  502    0 -0.43016438417E+01 -0.28460205865E+03 -0.28954055591E+03  0.40604514459E+03  0.46999998093E+01 0.  1.
       -5    1    3    3    0  502  0.43016438417E+01  0.28460205865E+03  0.72847960940E+03  0.78212624763E+03  0.46999998093E+01 0. -1.
</event>
<event>
 5   0  0.6493047E-03  0.1196000E+04  0.7818609E-02  0.9116365E-01
       -2   -1    0    0    0  501  0.00000000000E+00  0.00000000000E+00  0.45310254344E+03  0.45310254345E+03  0.25500000920E-02 0.  1.
        2   -1    0    0  501    0  0.00000000000E+00  0.00000000000E+00 -0.78923358228E+03  0.78923358229E+03  0.25500000920E-02 0. -1.
    10030    2    1    2    0    0  0.00000000000E+00  0.00000000000E+00 -0.33613103884E+03  0.12423361257E+04  0.11959995711E+04 0.  0.
        3    1    3    3  502    0  0.18141255738E+03  0.25125813945E+03  0.36318073842E+03  0.47743211828E+03  0.10100000352E+00 0.  1.
       -3    1    3    3    0  502 -0.18141255738E+03 -0.25125813945E+03 -0.69931177725E+03  0.76490400745E+03  0.10100000352E+00 0. -1.
</event>
<event>
 5   0  0.6349142E-03  0.1326577E+04  0.7818609E-02  0.9008751E-01
       -2   -1    0    0    0  501  0.00000000000E+00  0.00000000000E+00  0.36604165176E+03  0.36604165177E+03  0.25500000920E-02 0. -1.
        2   -1    0    0  501    0  0.00000000000E+00  0.00000000000E+00 -0.12019159970E+04  0.12019159970E+04  0.25500000920E-02 0.  1.
    10030    2    1    2    0    0  0.00000000000E+00  0.00000000000E+00 -0.83587434527E+03  0.15679576488E+04  0.13265765215E+04 0.  0.
        1    1    3    3  502    0 -0.39855600605E+03 -0.45334227506E+03 -0.92984263689E+02  0.61074723220E+03  0.50400001928E-02 0. -1.
       -1    1    3    3    0  502  0.39855600605E+03  0.45334227506E+03 -0.74289008158E+03  0.95721041660E+03  0.50400001928E-02 0.  1.
</event>
<event>
 5   0  0.3772254E-03  0.1204950E+04  0.7818609E-02  0.9108535E-01
        1   -1    0    0  501    0  0.00000000000E+00  0.00000000000E+00  0.99428677139E+03  0.99428677140E+03  0.50400001928E-02 0. -1.
       -1   -1    0    0    0  501  0.00000000000E+00  0.00000000000E+00 -0.36506200974E+03  0.36506200977E+03  0.50400001928E-02 0.  1.
    10030    2    1    2    0    0  0.00000000000E+00  0.00000000000E+00  0.62922476165E+03  0.13593487812E+04  0.12049503343E+04 0.  0.
        3    1    3    3  502    0  0.12315284151E+03 -0.33036873801E+03 -0.23652162312E+03  0.42456167259E+03  0.10100000352E+00 0.  1.
       -3    1    3    3    0  502 -0.12315284151E+03  0.33036873801E+03  0.86574638477E+03  0.93478710858E+03  0.10100000352E+00 0. -1.
</event>
<event>
 5   0  0.3772254E-03  0.1162483E+04  0.7818609E-02  0.9146344E-01
        1   -1    0    0  501    0  0.00000000000E+00  0.00000000000E+00  0.34158928159E+03  0.34158928162E+03  0.50400001928E-02 0. -1.
       -1   -1    0    0    0  501  0.00000000000E+00  0.00000000000E+00 -0.98902821715E+03  0.98902821716E+03  0.50400001928E-02 0.  1.
    10030    2    1    2    0    0  0.00000000000E+00  0.00000000000E+00 -0.64743893556E+03  0.13306174988E+04  0.11624825817E+04 0.  0.
        3    1    3    3  502    0 -0.99474925141E+02 -0.35529327056E+03  0.19036391844E+03  0.41517104966E+03  0.10100000352E+00 0. -1.
       -3    1    3    3    0  502  0.99474925141E+02  0.35529327056E+03 -0.83780285400E+03  0.91544644912E+03  0.10100000352E+00 0.  1.
</event>
<event>
 5   0  0.6493047E-03  0.1210533E+04  0.7818609E-02  0.9103687E-01
       -2   -1    0    0    0  501  0.00000000000E+00  0.00000000000E+00  0.40020368177E+03  0.40020368178E+03  0.25500000920E-02 0.  1.
        2   -1    0    0  501    0  0.00000000000E+00  0.00000000000E+00 -0.91540269174E+03  0.91540269175E+03  0.25500000920E-02 0. -1.
    10030    2    1    2    0    0  0.00000000000E+00  0.00000000000E+00 -0.51519900997E+03  0.13156063735E+04  0.12105329860E+04 0.  0.
        3    1    3    3  502    0  0.34537092069E+02  0.58351249348E+03 -0.42829231345E+03  0.72464747066E+03  0.10100000352E+00 0. -1.
       -3    1    3    3    0  502 -0.34537092069E+02 -0.58351249348E+03 -0.86906696526E+02  0.59095890286E+03  0.10100000352E+00 0.  1.
</event>
<event>
 5   0  0.3648616E-03  0.1215023E+04  0.7818609E-02  0.9099807E-01
       -1   -1    0    0    0  501  0.00000000000E+00  0.00000000000E+00  0.43656023993E+03  0.43656023996E+03  0.50400001928E-02 0. -1.
        1   -1    0    0  501    0  0.00000000000E+00  0.00000000000E+00 -0.84540533938E+03  0.84540533940E+03  0.50400001928E-02 0.  1.
    10030    2    1    2    0    0  0.00000000000E+00  0.00000000000E+00 -0.40884509945E+03  0.12819655794E+04  0.12150232225E+04 0.  0.
        2    1    3    3  502    0  0.18079363099E+03 -0.55690185003E+03 -0.33495932158E+02  0.58647078789E+03  0.25500000920E-02 0. -1.
       -2    1    3    3    0  502 -0.18079363099E+03  0.55690185003E+03 -0.37534916729E+03  0.69549479147E+03  0.25500000920E-02 0.  1.
</event>
<event>
 5   0  0.6349142E-03  0.1200878E+04  0.7818609E-02  0.9112088E-01
        2   -1    0    0  501    0  0.00000000000E+00  0.00000000000E+00  0.28425353620E+03  0.28425353621E+03  0.25500000920E-02 0. -1.
       -2   -1    0    0    0  501  0.00000000000E+00  0.00000000000E+00 -0.12683298611E+04  0.12683298611E+04  0.25500000920E-02 0.  1.
    10030    2    1    2    0    0  0.00000000000E+00  0.00000000000E+00 -0.98407632493E+03  0.15525833973E+04  0.12008784253E+04 0.  0.
        1    1    3    3  502    0  0.14988827173E+03  0.42524890178E+03 -0.10046817027E+04  0.11012213430E+04  0.50400001928E-02 0.  1.
       -1    1    3    3    0  502 -0.14988827173E+03 -0.42524890178E+03  0.20605377795E+02  0.45136205433E+03  0.50400001928E-02 0. -1.
</event>
<event>
 5   0  0.6493047E-03  0.1035156E+04  0.7818609E-02  0.9270805E-01
       -2   -1    0    0    0  501  0.00000000000E+00  0.00000000000E+00  0.35784074574E+03  0.35784074574E+03  0.25500000920E-02 0.  1.
        2   -1    0    0  501    0  0.00000000000E+00  0.00000000000E+00 -0.74862130020E+03  0.74862130020E+03  0.25500000920E-02 0. -1.
    10030    2    1    2    0    0  0.00000000000E+00  0.00000000000E+00 -0.39078055446E+03  0.11064620459E+04  0.10351564217E+04 0.  0.
        3    1    3    3  502    0  0.40285782277E+02  0.47555913598E+03  0.18674263750E+02  0.47762765246E+03  0.10100000352E+00 0.  1.
       -3    1    3    3    0  502 -0.40285782277E+02 -0.47555913598E+03 -0.40945481821E+03  0.62883439349E+03  0.10100000352E+00 0. -1.
</event>
<event>
 5   0  0.2537625E-03  0.1280308E+04  0.7818609E-02  0.9045329E-01
        3   -1    0    0  501    0  0.00000000000E+00  0.00000000000E+00  0.14570369403E+04  0.14570369438E+04  0.10100000352E+00 0.  1.
       -3   -1    0    0    0  501  0.00000000000E+00  0.00000000000E+00 -0.28125373470E+03  0.28125375284E+03  0.10100000352E+00 0. -1.
    10030    2    1    2    0    0  0.00000000000E+00  0.00000000000E+00  0.11757832056E+04  0.17382906966E+04  0.12803079315E+04 0.  0.
        5    1    3    3  502    0  0.41185408850E+03 -0.51972060139E+01  0.12532045013E+04  0.13191642859E+04  0.46999998093E+01 0.  1.
       -5    1    3    3    0  502 -0.41185408850E+03  0.51972060139E+01 -0.77421295673E+02  0.41912641075E+03  0.46999998093E+01 0. -1.
</event>
<event>
 5   0  0.3701879E-03  0.1214306E+04  0.7818609E-02  0.9100426E-01
       -1   -1    0    0    0  501  0.00000000000E+00  0.00000000000E+00  0.19443438112E+03  0.19443438119E+03  0.50400001928E-02 0. -1.
        1   -1    0    0  501    0  0.00000000000E+00  0.00000000000E+00 -0.18959327449E+04  0.18959327449E+04  0.50400001928E-02 0.  1.
    10030    2    1    2    0    0  0.00000000000E+00  0.00000000000E+00 -0.17014983638E+04  0.20903671261E+04  0.12143055793E+04 0.  0.
        1    1    3    3  502    0  0.53126498401E+03  0.28846239247E+03 -0.75365150851E+03  0.96614886607E+03  0.50400001928E-02 0.  1.
       -1    1    3    3    0  502 -0.53126498401E+03 -0.28846239247E+03 -0.94784685524E+03  0.11242182600E+04  0.50400001928E-02 0. -1.
</event>
<event>
 5   0  0.6493047E-03  0.1296373E+04  0.7818609E-02  0.9032447E-01
       -2   -1    0    0    0  501  0.00000000000E+00  0.00000000000E+00  0.25243905986E+03  0.25243905988E+03  0.25500000920E-02 0. -1.
        2   -1    0    0  501    0  0.00000000000E+00  0.00000000000E+00 -0.16643441420E+04  0.16643441420E+04  0.25500000920E-02 0.  1.
    10030    2    1    2    0    0  0.00000000000E+00  0.00000000000E+00 -0.14119050821E+04  0.19167832019E+04  0.12963725861E+04 0.  0.
        3    1    3    3  502    0 -0.10688490886E+03  0.15340403130E+02  0.23904702861E+03  0.26230364809E+03  0.10100000352E+00 0. -1.
       -3    1    3    3    0  502  0.10688490886E+03 -0.15340403130E+02 -0.16509521107E+04  0.16544795538E+04  0.10100000352E+00 0.  1.
</event>
<event>
 5   0  0.6349142E-03  0.1204095E+04  0.7818609E-02  0.9109280E-01
       -2   -1    0    0    0  501  0.00000000000E+00  0.00000000000E+00  0.60062015678E+03  0.60062015679E+03  0.25500000920E-02 0. -1.
        2   -1    0    0  501    0  0.00000000000E+00  0.00000000000E+00 -0.60347823718E+03  0.60347823718E+03  0.25500000920E-02 0.  1.
    10030    2    1    2    0    0  0.00000000000E+00  0.00000000000E+00 -0.28580803967E+01  0.12040983940E+04  0.12040950020E+04 0.  0.
        1    1    3    3  502    0 -0.25065283170E+03  0.47842063458E+03 -0.26741484129E+03  0.60268054805E+03  0.50400001928E-02 0.  1.
       -1    1    3    3    0  502  0.25065283170E+03 -0.47842063458E+03  0.26455676089E+03  0.60141784592E+03  0.50400001928E-02 0. -1.
</event>
<event>
 5   0  0.3648616E-03  0.1196255E+04  0.7818609E-02  0.9116141E-01
        1   -1    0    0  501    0  0.00000000000E+00  0.00000000000E+00  0.10412420221E+04  0.10412420221E+04  0.50400001928E-02 0.  1.
       -1   -1    0    0    0  501  0.00000000000E+00  0.00000000000E+00 -0.34358619838E+03  0.34358619842E+03  0.50400001928E-02 0. -1.
    10030    2    1    2    0    0  0.00000000000E+00  0.00000000000E+00  0.69765582372E+03  0.13848282205E+04  0.11962548023E+04 0.  0.
        2    1    3    3  502    0 -0.21485771980E+03  0.38113560448E+03  0.82095090715E+03  0.93026264072E+03  0.25500000920E-02 0.  1.
       -2    1    3    3    0  502  0.21485771980E+03 -0.38113560448E+03 -0.12329508343E+03  0.45456557982E+03  0.25500000920E-02 0. -1.
</event>
<event>
 5   0  0.6658994E-03  0.1232423E+04  0.7818609E-02  0.9084940E-01
        2   -1    0    0  501    0  0.00000000000E+00  0.00000000000E+00  0.78848234517E+03  0.78848234518E+03  0.25500000920E-02 0. -1.
       -2   -1    0    0    0  501  0.00000000000E+00  0.00000000000E+00 -0.48157932771E+03  0.48157932772E+03  0.25500000920E-02 0.  1.
    10030    2    1    2    0    0  0.00000000000E+00  0.00000000000E+00  0.30690301746E+03  0.12700616729E+04  0.12324233002E+04 0.  0.
        4    1    3    3  502    0  0.95805548337E+02 -0.72917298801E+01 -0.47381086228E+03  0.48345653221E+03  0.12699999809E+01 0.  1.
       -4    1    3    3    0  502 -0.95805548337E+02  0.72917298801E+01  0.78071387975E+03  0.78660514068E+03  0.12699999809E+01 0. -1.
</event>
<event>
 5   0  0.6585930E-03  0.1247206E+04  0.7818609E-02  0.9072512E-01
       -2   -1    0    0    0  501  0.00000000000E+00  0.00000000000E+00  0.29032625777E+03  0.29032625778E+03  0.25500000920E-02 0. -1.
        2   -1    0    0  501    0  0.00000000000E+00  0.00000000000E+00 -0.13394608887E+04  0.13394608887E+04  0.25500000920E-02 0.  1.
    10030    2    1    2    0    0  0.00000000000E+00  0.00000000000E+00 -0.10491346309E+04  0.16297871465E+04  0.12472059449E+04 0.  0.
        2    1    3    3  502    0  0.12605036710E+03  0.31505012115E+03 -0.12082556869E+04  0.12550008282E+04  0.25500000920E-02 0.  1.
       -2    1    3    3    0  502 -0.12605036710E+03 -0.31505012115E+03  0.15912105599E+03  0.37478631825E+03  0.25500000920E-02 0. -1.
</event>
<event>
 5   0  0.3772254E-03  0.1207692E+04  0.7818609E-02  0.9106150E-01
       -1   -1    0    0    0  501  0.00000000000E+00  0.00000000000E+00  0.44743661833E+03  0.44743661836E+03  0.50400001928E-02 0.  1.
        1   -1    0    0  501    0  0.00000000000E+00  0.00000000000E+00 -0.81493153162E+03  0.81493153163E+03  0.50400001928E-02 0. -1.
    10030    2    1    2    0    0  0.00000000000E+00  0.00000000000E+00 -0.36749491329E+03  0.12623681500E+04  0.12076923593E+04 0.  0.
        3    1    3    3  502    0 -0.51818300898E+03 -0.21106129055E+03  0.53623188196E+02  0.56208180515E+03  0.10100000352E+00 0.  1.
       -3    1    3    3    0  502  0.51818300898E+03  0.21106129055E+03 -0.42111810148E+03  0.70028634484E+03  0.10100000352E+00 0. -1.
</event>
<event>
 5   0  0.3944074E-03  0.1200207E+04  0.7818609E-02  0.9112675E-01
       -1   -1    0    0    0  501  0.00000000000E+00  0.00000000000E+00  0.67995039222E+03  0.67995039223E+03  0.50400001928E-02 0.  1.
        1   -1    0    0  501    0  0.00000000000E+00  0.00000000000E+00 -0.52963326477E+03  0.52963326480E+03  0.50400001928E-02 0. -1.
    10030    2    1    2    0    0  0.00000000000E+00  0.00000000000E+00  0.15031712744E+03  0.12095836570E+04  0.12002072257E+04 0.  0.
        4    1    3    3  502    0 -0.37243031817E+03  0.10697502920E+02 -0.39894613640E+03  0.54587398830E+03  0.12699999809E+01 0. -1.
       -4    1    3    3    0  502  0.37243031817E+03 -0.10697502920E+02  0.54926326384E+03  0.66370966873E+03  0.12699999809E+01 0.  1.
</event>
<event>
 5   0  0.3731281E-03  0.6886685E+03  0.7818609E-02  0.9736809E-01
        1   -1    0    0  501    0  0.00000000000E+00  0.00000000000E+00  0.29959774789E+03  0.29959774793E+03  0.50400001928E-02 0.  1.
       -1   -1    0    0    0  501  0.00000000000E+00  0.00000000000E+00 -0.39575085789E+03  0.39575085792E+03  0.50400001928E-02 0. -1.
    10030    2    1    2    0    0  0.00000000000E+00  0.00000000000E+00 -0.96153110001E+02  0.69534860586E+03  0.68866847111E+03 0.  0.
        5    1    3    3  502    0  0.41711904267E+02  0.14792579564E+03 -0.35915931714E+03  0.39069096363E+03  0.46999998093E+01 0. -1.
       -5    1    3    3    0  502 -0.41711904267E+02 -0.14792579564E+03  0.26300620714E+03  0.30465764223E+03  0.46999998093E+01 0.  1.
</event>
<event>
 5   0  0.3944074E-03  0.1071966E+04  0.7818609E-02  0.9232955E-01
        1   -1    0    0  501    0  0.00000000000E+00  0.00000000000E+00  0.11815656441E+04  0.11815656441E+04  0.50400001928E-02 0. -1.
       -1   -1    0    0    0  501  0.00000000000E+00  0.00000000000E+00 -0.24313292902E+03  0.24313292907E+03  0.50400001928E-02 0.  1.
    10030    2    1    2    0    0  0.00000000000E+00  0.00000000000E+00  0.93843271511E+03  0.14246985732E+04  0.10719655142E+04 0.  0.
        4    1    3    3  502    0  0.14741126751E+03 -0.30335220647E+03  0.10228481536E+04  0.10770202418E+04  0.12699999809E+01 0. -1.
       -4    1    3    3    0  502 -0.14741126751E+03  0.30335220647E+03 -0.84415438532E+02  0.34767833140E+03  0.12699999809E+01 0.  1.
</event>
<event>
 5   0  0.3701879E-03  0.1137022E+04  0.7818609E-02  0.9169840E-01
        1   -1    0    0  501    0  0.00000000000E+00  0.00000000000E+00  0.35344339793E+03  0.35344339797E+03  0.50400001928E-02 0. -1.
       -1   -1    0    0    0  501  0.00000000000E+00  0.00000000000E+00 -0.91444564350E+03  0.91444564352E+03  0.50400001928E-02 0.  1.
    10030    2    1    2    0    0  0.00000000000E+00  0.00000000000E+00 -0.56100224557E+03  0.12678890415E+04  0.11370220323E+04 0.  0.
        1    1    3    3  502    0 -0.40912822940E+03 -0.18548372401E+03 -0.66905202703E+03  0.80586644976E+03  0.50400001928E-02 0.  1.
       -1    1    3    3    0  502  0.40912822940E+03  0.18548372401E+03  0.10804978145E+03  0.46202259172E+03  0.50400001928E-02 0. -1.
</event>
<event>
 5   0  0.6640844E-03  0.1199508E+04  0.7818609E-02  0.9113287E-01
       -2   -1    0    0    0  501  0.00000000000E+00  0.00000000000E+00  0.21059672478E+03  0.21059672480E+03  0.25500000920E-02 0. -1.
        2   -1    0    0  501    0  0.00000000000E+00  0.00000000000E+00 -0.17080270748E+04  0.17080270748E+04  0.25500000920E-02 0.  1.
    10030    2    1    2    0    0  0.00000000000E+00  0.00000000000E+00 -0.14974303500E+04  0.19186237996E+04  0.11995080789E+04 0.  0.
        5    1    3    3  502    0  0.37369862568E+02 -0.37179121904E+03  0.16191887969E+01  0.37369764376E+03  0.46999998093E+01 0. -1.
       -5    1    3    3    0  502 -0.37369862568E+02  0.37179121904E+03 -0.14990495388E+04  0.15449261558E+04  0.46999998093E+01 0.  1.
</event>
<event>
 5   0  0.3944074E-03  0.7436597E+03  0.7818609E-02  0.9645350E-01
       -1   -1    0    0    0  501  0.00000000000E+00  0.00000000000E+00  0.17255686733E+03  0.17255686741E+03  0.50400001928E-02 0. -1.
        1   -1    0    0  501    0  0.00000000000E+00  0.00000000000E+00 -0.80122825672E+03  0.80122825674E+03  0.50400001928E-02 0.  1.
    10030    2    1    2    0    0  0.00000000000E+00  0.00000000000E+00 -0.62867138939E+03  0.97378512414E+03  0.74365970186E+03 0.  0.
        4    1    3    3  502    0 -0.23304641419E+03 -0.28928791321E+03 -0.33535623004E+03  0.50046332715E+03  0.12699999809E+01 0. -1.
       -4    1    3    3    0  502  0.23304641419E+03  0.28928791321E+03 -0.29331515935E+03  0.47332179699E+03  0.12699999809E+01 0.  1.
</event>
<event>
 5   0  0.6640844E-03  0.1154793E+04  0.7818609E-02  0.9153373E-01
        2   -1    0    0  501    0  0.00000000000E+00  0.00000000000E+00  0.13354284989E+04  0.13354284989E+04  0.25500000920E-02 0.  1.
       -2   -1    0    0    0  501  0.00000000000E+00  0.00000000000E+00 -0.24964773386E+03  0.24964773387E+03  0.25500000920E-02 0. -1.
    10030    2    1    2    0    0  0.00000000000E+00  0.00000000000E+00  0.10857807650E+04  0.15850762327E+04  0.11547929658E+04 0.  0.
        5    1    3    3  502    0  0.30410679170E+03  0.33519149283E+03  0.50795513228E+02  0.45545203017E+03  0.46999998093E+01 0. -1.
       -5    1    3    3    0  502 -0.30410679170E+03 -0.33519149283E+03  0.10349852518E+04  0.11296242026E+04  0.46999998093E+01 0.  1.
</event>
<event>
 5   0  0.6493047E-03  0.1203794E+04  0.7818609E-02  0.9109542E-01
        2   -1    0    0  501    0  0.00000000000E+00  0.00000000000E+00  0.96551071998E+03  0.96551071999E+03  0.25500000920E-02 0. -1.
       -2   -1    0    0    0  501  0.00000000000E+00  0.00000000000E+00 -0.37522096209E+03  0.37522096210E+03  0.25500000920E-02 0.  1.
    10030    2    1    2    0    0  0.00000000000E+00  0.00000000000E+00  0.59028975789E+03  0.13407316821E+04  0.12037937718E+04 0.  0.
        3    1    3    3  502    0 -0.31926097330E+03  0.47967442069E+03  0.10138752394E+03  0.58505944924E+03  0.10100000352E+00 0.  1.
       -3    1    3    3    0  502  0.31926097330E+03 -0.47967442069E+03  0.48890223395E+03  0.75567223285E+03  0.10100000352E+00 0. -1.
</event>
<event>
 5   0  0.6493047E-03  0.1237121E+04  0.7818609E-02  0.9080971E-01
        2   -1    0    0  501    0  0.00000000000E+00  0.00000000000E+00  0.69413123513E+03  0.69413123513E+03  0.25500000920E-02 0. -1.
       -2   -1    0    0    0  501  0.00000000000E+00  0.00000000000E+00 -0.55121755823E+03  0.55121755824E+03  0.25500000920E-02 0.  1.
    10030    2    1    2    0    0  0.00000000000E+00  0.00000000000E+00  0.14291367689E+03  0.12453487934E+04  0.12371213757E+04 0.  0.
        3    1    3    3  502    0 -0.33407480813E+03  0.56493887255E+02 -0.44949792795E+03  0.56289069468E+03  0.10100000352E+00 0.  1.
       -3    1    3    3    0  502  0.33407480813E+03 -0.56493887255E+02  0.59241160484E+03  0.68245809869E+03  0.10100000352E+00 0. -1.
</event>
<event>
 5   0  0.3731281E-03  0.1199060E+04  0.7818609E-02  0.9113679E-01
        1   -1    0    0  501    0  0.00000000000E+00  0.00000000000E+00  0.40133111746E+03  0.40133111749E+03  0.50400001928E-02 0. -1.
       -1   -1    0    0    0  501  0.00000000000E+00  0.00000000000E+00 -0.89561058748E+03  0.89561058749E+03  0.50400001928E-02 0.  1.
    10030    2    1    2    0    0  0.00000000000E+00  0.00000000000E+00 -0.49427947002E+03  0.12969417050E+04  0.11990602952E+04 0.  0.
        5    1    3    3  502    0 -0.53990405515E+03  0.17576105092E+03 -0.39010701061E+02  0.56915047271E+03  0.46999998093E+01 0. -1.
       -5    1    3    3    0  502  0.53990405515E+03 -0.17576105092E+03 -0.45526876896E+03  0.72779123227E+03  0.46999998093E+01 0.  1.
</event>
<event>
 5   0  0.6640844E-03  0.1169839E+04  0.7818609E-02  0.9139674E-01
       -2   -1    0    0    0  501  0.00000000000E+00  0.00000000000E+00  0.55042187199E+03  0.55042187199E+03  0.25500000920E-02 0. -1.
        2   -1    0    0  501    0  0.00000000000E+00  0.00000000000E+00 -0.62157875092E+03  0.62157875092E+03  0.25500000920E-02 0.  1.
    10030    2    1    2    0    0  0.00000000000E+00  0.00000000000E+00 -0.71156878930E+02  0.11720006229E+04  0.11698385182E+04 0.  0.
        5    1    3    3  502    0  0.24305704283E+03  0.32278500913E+03  0.38809979356E+03  0.56027709925E+03  0.46999998093E+01 0. -1.
       -5    1    3    3    0  502 -0.24305704283E+03 -0.32278500913E+03 -0.45925667249E+03  0.61172352367E+03  0.46999998093E+01 0.  1.
</event>
<event>
 5   0  0.6493047E-03  0.8704221E+03  0.7818609E-02  0.9463330E-01
       -2   -1    0    0    0  501  0.00000000000E+00  0.00000000000E+00  0.50285904174E+03  0.50285904175E+03  0.25500000920E-02 0.  1.
        2   -1    0    0  501    0  0.00000000000E+00  0.00000000000E+00 -0.37666350906E+03  0.37666350907E+03  0.25500000920E-02 0. -1.
    10030    2    1    2    0    0  0.00000000000E+00  0.00000000000E+00  0.12619553268E+03  0.87952255082E+03  0.87042208435E+03 0.  0.
        3    1    3    3  502    0  0.16832588231E+03 -0.39057076872E+03  0.15641872583E+03  0.45315114038E+03  0.10100000352E+00 0. -1.
       -3    1    3    3    0  502 -0.16832588231E+03  0.39057076872E+03 -0.30223193150E+02  0.42637141044E+03  0.10100000352E+00 0.  1.
</event>
<event>
 5   0  0.3701879E-03  0.1205214E+04  0.7818609E-02  0.9108305E-01
       -1   -1    0    0    0  501  0.00000000000E+00  0.00000000000E+00  0.26168439203E+03  0.26168439207E+03  0.50400001928E-02 0.  1.
        1   -1    0    0  501    0  0.00000000000E+00  0.00000000000E+00 -0.13876841107E+04  0.13876841107E+04  0.50400001928E-02 0. -1.
    10030    2    1    2    0    0  0.00000000000E+00  0.00000000000E+00 -0.11259997187E+04  0.16493685028E+04  0.12052141268E+04 0.  0.
        1    1    3    3  502    0 -0.13638828170E+03  0.14677010706E+03 -0.13407666515E+04  0.13556542485E+04  0.50400001928E-02 0. -1.
       -1    1    3    3    0  502  0.13638828170E+03 -0.14677010706E+03  0.21476693282E+03  0.29371425428E+03  0.50400001928E-02 0.  1.
</event>
<event>
 5   0  0.3772254E-03  0.1145765E+04  0.7818609E-02  0.9161699E-01
       -1   -1    0    0    0  501  0.00000000000E+00  0.00000000000E+00  0.27436800669E+03  0.27436800674E+03  0.50400001928E-02 0. -1.
        1   -1    0    0  501    0  0.00000000000E+00  0.00000000000E+00 -0.11961836333E+04  0.11961836333E+04  0.50400001928E-02 0.  1.
    10030    2    1    2    0    0  0.00000000000E+00  0.00000000000E+00 -0.92181562660E+03  0.14705516400E+04  0.11457652799E+04 0.  0.
        3    1    3    3  502    0 -0.24400300160E+03 -0.50827489641E+03 -0.33056373106E+03  0.65356960272E+03  0.10100000352E+00 0. -1.
       -3    1    3    3    0  502  0.24400300160E+03  0.50827489641E+03 -0.59125189554E+03  0.81698203732E+03  0.10100000352E+00 0.  1.
</event>
<event>
 5   0  0.3944074E-03  0.1207868E+04  0.7818609E-02  0.9105997E-01
        1   -1    0    0  501    0  0.00000000000E+00  0.00000000000E+00  0.55797800248E+03  0.55797800250E+03  0.50400001928E-02 0.  1.
       -1   -1    0    0    0  501  0.00000000000E+00  0.00000000000E+00 -0.65367499444E+03  0.65367499446E+03  0.50400001928E-02 0. -1.
    10030    2    1    2    0    0  0.00000000000E+00  0.00000000000E+00 -0.95696991963E+02  0.12116529970E+04  0.12078679857E+04 0.  0.
        4    1    3    3  502    0  0.20421289359E+03  0.23303203105E+03 -0.56786257974E+03  0.64689748475E+03  0.12699999809E+01 0. -1.
       -4    1    3    3    0  502 -0.20421289359E+03 -0.23303203105E+03  0.47216558778E+03  0.56475551222E+03  0.12699999809E+01 0.  1.
</event>
<event>
 5   0  0.2537625E-03  0.1061527E+04  0.7818609E-02  0.9243523E-01
        3   -1    0    0  501    0  0.00000000000E+00  0.00000000000E+00  0.39682308097E+03  0.39682309382E+03  0.10100000352E+00 0. -1.
       -3   -1    0    0    0  501  0.00000000000E+00  0.00000000000E+00 -0.70991361222E+03  0.70991361940E+03  0.10100000352E+00 0.  1.
    10030    2    1    2    0    0  0.00000000000E+00  0.00000000000E+00 -0.31309053125E+03  0.11067367132E+04  0.10615274239E+04 0.  0.
        5    1    3    3  502    0  0.15862640902E+02 -0.69441481111E+01  0.39650680961E+03  0.39691256548E+03  0.46999998093E+01 0. -1.
       -5    1    3    3    0  502 -0.15862640902E+02  0.69441481111E+01 -0.70959734086E+03  0.70982414774E+03  0.46999998093E+01 0.  1.
</event>
<event>
 5   0  0.6349142E-03  0.1185438E+04  0.7818609E-02  0.9125699E-01
        2   -1    0    0  501    0  0.00000000000E+00  0.00000000000E+00  0.56797204021E+03  0.56797204022E+03  0.25500000920E-02 0.  1.
       -2   -1    0    0    0  501  0.00000000000E+00  0.00000000000E+00 -0.61854416149E+03  0.61854416150E+03  0.25500000920E-02 0. -1.
    10030    2    1    2    0    0  0.00000000000E+00  0.00000000000E+00 -0.50572121276E+02  0.11865162017E+04  0.11854379602E+04 0.  0.
        1    1    3    3  502    0  0.40588241814E+03  0.15297256400E+02  0.40677919111E+03  0.57484245994E+03  0.50400001928E-02 0.  1.
       -1    1    3    3    0  502 -0.40588241814E+03 -0.15297256400E+02 -0.45735131239E+03  0.61167374177E+03  0.50400001928E-02 0. -1.
</event>
<event>
 5   0  0.6640844E-03  0.1242932E+04  0.7818609E-02  0.9076086E-01
        2   -1    0    0  501    0  0.00000000000E+00  0.00000000000E+00  0.33680331389E+03  0.33680331390E+03  0.25500000920E-02 0.  1.
       -2   -1    0    0    0  501  0.00000000000E+00  0.00000000000E+00 -0.11467230139E+04  0.11467230139E+04  0.25500000920E-02 0. -1.
    10030    2    1    2    0    0  0.00000000000E+00  0.00000000000E+00 -0.80991969997E+03  0.14835263278E+04  0.12429321964E+04 0.  0.
        5    1    3    3  502    0 -0.35439661701E+03 -0.12917332149E+03 -0.99443751199E+03  0.10635839245E+04  0.46999998093E+01 0. -1.
       -5    1    3    3    0  502  0.35439661701E+03  0.12917332149E+03  0.18451781202E+03  0.41994240330E+03  0.46999998093E+01 0.  1.
</event>
<event>
 5   0  0.6585930E-03  0.1204920E+04  0.7818609E-02  0.9108561E-01
        2   -1    0    0  501    0  0.00000000000E+00  0.00000000000E+00  0.94850021375E+03  0.94850021376E+03  0.25500000920E-02 0. -1.
       -2   -1    0    0    0  501  0.00000000000E+00  0.00000000000E+00 -0.38266493281E+03  0.38266493282E+03  0.25500000920E-02 0.  1.
    10030    2    1    2    0    0  0.00000000000E+00  0.00000000000E+00  0.56583528094E+03  0.13311651466E+04  0.12049195335E+04 0.  0.
        2    1    3    3  502    0 -0.30264405208E+03  0.11497970999E+03 -0.27839513005E+03  0.42698665601E+03  0.25500000920E-02 0.  1.
       -2    1    3    3    0  502  0.30264405208E+03 -0.11497970999E+03  0.84423041099E+03  0.90417849057E+03  0.25500000920E-02 0. -1.
</event>
<event>
 5   0  0.6493047E-03  0.1140940E+04  0.7818609E-02  0.9166183E-01
       -2   -1    0    0    0  501  0.00000000000E+00  0.00000000000E+00  0.25921468144E+03  0.25921468146E+03  0.25500000920E-02 0. -1.
        2   -1    0    0  501    0  0.00000000000E+00  0.00000000000E+00 -0.12554680107E+04  0.12554680107E+04  0.25500000920E-02 0.  1.
    10030    2    1    2    0    0  0.00000000000E+00  0.00000000000E+00 -0.99625332922E+03  0.15146826921E+04  0.11409395084E+04 0.  0.
        3    1    3    3  502    0  0.14157072028E+03  0.98876424581E+02 -0.12199379756E+04  0.12320988153E+04  0.10100000352E+00 0.  1.
       -3    1    3    3    0  502 -0.14157072028E+03 -0.98876424581E+02  0.22368464641E+03  0.28258387678E+03  0.10100000352E+00 0. -1.
</event>
<event>
 5   0  0.3648616E-03  0.1172570E+04  0.7818609E-02  0.9137211E-01
       -1   -1    0    0    0  501  0.00000000000E+00  0.00000000000E+00  0.22649563094E+03  0.22649563099E+03  0.50400001928E-02 0. -1.
        1   -1    0    0  501    0  0.00000000000E+00  0.00000000000E+00 -0.15176007598E+04  0.15176007599E+04  0.50400001928E-02 0.  1.
    10030    2    1    2    0    0  0.00000000000E+00  0.00000000000E+00 -0.12911051289E+04  0.17440963908E+04  0.11725697279E+04 0.  0.
        2    1    3    3  502    0  0.53980083341E+03  0.22863545182E+03 -0.65807090617E+03  0.88131516901E+03  0.25500000920E-02 0.  1.
       -2    1    3    3    0  502 -0.53980083341E+03 -0.22863545182E+03 -0.63303422274E+03  0.86278122183E+03  0.25500000920E-02 0. -1.
</event>
<event>
 5   0  0.3701879E-03  0.1208999E+04  0.7818609E-02  0.9105016E-01
       -1   -1    0    0    0  501  0.00000000000E+00  0.00000000000E+00  0.28621413000E+03  0.28621413004E+03  0.50400001928E-02 0.  1.
        1   -1    0    0  501    0  0.00000000000E+00  0.00000000000E+00 -0.12767343141E+04  0.12767343141E+04  0.50400001928E-02 0. -1.
    10030    2    1    2    0    0  0.00000000000E+00  0.00000000000E+00 -0.99052018414E+03  0.15629484442E+04  0.12089985955E+04 0.  0.
        1    1    3    3  502    0  0.13332407291E+03  0.11610111067E+03  0.25204698056E+03  0.30786759614E+03  0.50400001928E-02 0.  1.
       -1    1    3    3    0  502 -0.13332407291E+03 -0.11610111067E+03 -0.12425671647E+04  0.12550808481E+04  0.50400001928E-02 0. -1.
</event>
<event>
 5   0  0.6493047E-03  0.1211601E+04  0.7818609E-02  0.9102762E-01
       -2   -1    0    0    0  501  0.00000000000E+00  0.00000000000E+00  0.86305244029E+03  0.86305244029E+03  0.25500000920E-02 0.  1.
        2   -1    0    0  501    0  0.00000000000E+00  0.00000000000E+00 -0.42522852759E+03  0.42522852759E+03  0.25500000920E-02 0. -1.
    10030    2    1    2    0    0  0.00000000000E+00  0.00000000000E+00  0.43782391270E+03  0.12882809679E+04  0.12116014500E+04 0.  0.
        3    1    3    3  502    0 -0.22562840742E+03 -0.41323956971E+03 -0.18642162560E+03  0.50638735460E+03  0.10100000352E+00 0.  1.
       -3    1    3    3    0  502  0.22562840742E+03  0.41323956971E+03  0.62424553830E+03  0.78189361328E+03  0.10100000352E+00 0. -1.
</event>
<event>
 5   0  0.6640844E-03  0.1279456E+04  0.7818609E-02  0.9046018E-01
        2   -1    0    0  501    0  0.00000000000E+00  0.00000000000E+00  0.36524736295E+03  0.36524736296E+03  0.25500000920E-02 0. -1.
       -2   -1    0    0    0  501  0.00000000000E+00  0.00000000000E+00 -0.11204781522E+04  0.11204781522E+04  0.25500000920E-02 0.  1.
    10030    2    1    2    0    0  0.00000000000E+00  0.00000000000E+00 -0.75523078921E+03  0.14857255151E+04  0.12794556504E+04 0.  0.
        5    1    3    3  502    0  0.31925345717E+03  0.21767304466E+03  0.21440627330E+03  0.44192359556E+03  0.46999998093E+01 0. -1.
       -5    1    3    3    0  502 -0.31925345717E+03 -0.21767304466E+03 -0.96963706250E+03  0.10438019196E+04  0.46999998093E+01 0.  1.
</event>
<event>
 5   0  0.3772254E-03  0.1248681E+04  0.7818609E-02  0.9071282E-01
        1   -1    0    0  501    0  0.00000000000E+00  0.00000000000E+00  0.45322603363E+03  0.45322603366E+03  0.50400001928E-02 0.  1.
       -1   -1    0    0    0  501  0.00000000000E+00  0.00000000000E+00 -0.86005827908E+03  0.86005827910E+03  0.50400001928E-02 0. -1.
    10030    2    1    2    0    0  0.00000000000E+00  0.00000000000E+00 -0.40683224545E+03  0.13132843128E+04  0.12486805877E+04 0.  0.
        3    1    3    3  502    0  0.31657186067E+03  0.49442972842E+03  0.19994066964E+02  0.58743363219E+03  0.10100000352E+00 0.  1.
       -3    1    3    3    0  502 -0.31657186067E+03 -0.49442972842E+03 -0.42682631241E+03  0.72585068057E+03  0.10100000352E+00 0. -1.
</event>
<event>
 5   0  0.3648616E-03  0.1194579E+04  0.7818609E-02  0.9117615E-01
        1   -1    0    0  501    0  0.00000000000E+00  0.00000000000E+00  0.32621999336E+03  0.32621999340E+03  0.50400001928E-02 0.  1.
       -1   -1    0    0    0  501  0.00000000000E+00  0.00000000000E+00 -0.10936008750E+04  0.10936008750E+04  0.50400001928E-02 0. -1.
    10030    2    1    2    0    0  0.00000000000E+00  0.00000000000E+00 -0.76738088161E+03  0.14198208684E+04  0.11945785369E+04 0.  0.
        2    1    3    3  502    0  0.91246809838E+02  0.44189544854E+03 -0.84883413182E+03  0.96131001821E+03  0.25500000920E-02 0. -1.
       -2    1    3    3    0  502 -0.91246809838E+02 -0.44189544854E+03  0.81453250214E+02  0.45851085017E+03  0.25500000920E-02 0.  1.
</event>
<event>
 5   0  0.3648616E-03  0.1204118E+04  0.7818609E-02  0.9109259E-01
        1   -1    0    0  501    0  0.00000000000E+00  0.00000000000E+00  0.10158380896E+04  0.10158380896E+04  0.50400001928E-02 0. -1.
       -1   -1    0    0    0  501  0.00000000000E+00  0.00000000000E+00 -0.35682386561E+03  0.35682386565E+03  0.50400001928E-02 0.  1.
    10030    2    1    2    0    0  0.00000000000E+00  0.00000000000E+00  0.65901422397E+03  0.13726619552E+04  0.12041183895E+04 0.  0.
        2    1    3    3  502    0  0.97101886648E+02 -0.46064220453E+03  0.75734667109E+03  0.89173650660E+03  0.25500000920E-02 0. -1.
       -2    1    3    3    0  502 -0.97101886648E+02  0.46064220453E+03 -0.98332447129E+02  0.48092544864E+03  0.25500000920E-02 0.  1.
</event>
<event>
 5   0  0.6658994E-03  0.1195041E+04  0.7818609E-02  0.9117208E-01
       -2   -1    0    0    0  501  0.00000000000E+00  0.00000000000E+00  0.25335317704E+03  0.25335317706E+03  0.25500000920E-02 0. -1.
        2   -1    0    0  501    0  0.00000000000E+00  0.00000000000E+00 -0.14092219914E+04  0.14092219914E+04  0.25500000920E-02 0.  1.
    10030    2    1    2    0    0  0.00000000000E+00  0.00000000000E+00 -0.11558688143E+04  0.16625751684E+04  0.11950412021E+04 0.  0.
        4    1    3    3  502    0  0.12375382551E+03  0.40802935516E+03 -0.11603031348E+04  0.12361666318E+04  0.12699999809E+01 0.  1.
       -4    1    3    3    0  502 -0.12375382551E+03 -0.40802935516E+03  0.44343205037E+01  0.42640853662E+03  0.12699999809E+01 0. -1.
</event>
<event>
 5   0  0.3731281E-03  0.1207921E+04  0.7818609E-02  0.9105952E-01
        1   -1    0    0  501    0  0.00000000000E+00  0.00000000000E+00  0.13351671300E+04  0.13351671300E+04  0.50400001928E-02 0.  1.
       -1   -1    0    0    0  501  0.00000000000E+00  0.00000000000E+00 -0.27320027952E+03  0.27320027956E+03  0.50400001928E-02 0. -1.
    10030    2    1    2    0    0  0.00000000000E+00  0.00000000000E+00  0.10619668505E+04  0.16083674096E+04  0.12079205821E+04 0.  0.
        5    1    3    3  502    0 -0.13165360914E+03 -0.38892183798E+03 -0.58734654359E+02  0.41480684479E+03  0.46999998093E+01 0. -1.
       -5    1    3    3    0  502  0.13165360914E+03  0.38892183798E+03  0.11207015048E+04  0.11935605648E+04  0.46999998093E+01 0.  1.
</event>
<event>
 5   0  0.6640844E-03  0.1201141E+04  0.7818609E-02  0.9111858E-01
       -2   -1    0    0    0  501  0.00000000000E+00  0.00000000000E+00  0.40927171646E+03  0.40927171647E+03  0.25500000920E-02 0.  1.
        2   -1    0    0  501    0  0.00000000000E+00  0.00000000000E+00 -0.88128474900E+03  0.88128474900E+03  0.25500000920E-02 0. -1.
    10030    2    1    2    0    0  0.00000000000E+00  0.00000000000E+00 -0.47201303254E+03  0.12905564655E+04  0.12011409941E+04 0.  0.
        5    1    3    3  502    0 -0.34879449219E+02  0.15045565412E+03  0.38754895250E+03  0.41721668281E+03  0.46999998093E+01 0.  1.
       -5    1    3    3    0  502  0.34879449219E+02 -0.15045565412E+03 -0.85956198504E+03  0.87333978265E+03  0.46999998093E+01 0. -1.
</event>
<event>
 5   0  0.3648616E-03  0.1225913E+04  0.7818609E-02  0.9090472E-01
       -1   -1    0    0    0  501  0.00000000000E+00  0.00000000000E+00  0.39589405810E+03  0.39589405813E+03  0.50400001928E-02 0.  1.
        1   -1    0    0  501    0  0.00000000000E+00  0.00000000000E+00 -0.94903110606E+03  0.94903110607E+03  0.50400001928E-02 0. -1.
    10030    2    1    2    0    0  0.00000000000E+00  0.00000000000E+00 -0.55313704796E+03  0.13449251642E+04  0.12259131713E+04 0.  0.
        2    1    3    3  502    0  0.40064105780E+03 -0.37831017052E+03 -0.57111758811E+03  0.79360389476E+03  0.25500000920E-02 0. -1.
       -2    1    3    3    0  502 -0.40064105780E+03  0.37831017052E+03  0.17980540152E+02  0.55132126945E+03  0.25500000920E-02 0.  1.
</event>
<event>
 5   0  0.6349142E-03  0.1186842E+04  0.7818609E-02  0.9124452E-01
       -2   -1    0    0    0  501  0.00000000000E+00  0.00000000000E+00  0.41447134299E+03  0.41447134300E+03  0.25500000920E-02 0.  1.
        2   -1    0    0  501    0  0.00000000000E+00  0.00000000000E+00 -0.84963305688E+03  0.84963305689E+03  0.25500000920E-02 0. -1.
    10030    2    1    2    0    0  0.00000000000E+00  0.00000000000E+00 -0.43516171389E+03  0.12641043999E+04  0.11868421195E+04 0.  0.
        1    1    3    3  502    0  0.11481165618E+03 -0.24879326964E+03  0.34305873311E+03  0.43905478224E+03  0.50400001928E-02 0.  1.
       -1    1    3    3    0  502 -0.11481165618E+03  0.24879326964E+03 -0.77822044701E+03  0.82504961765E+03  0.50400001928E-02 0. -1.
</event>
<event>
 5   0  0.3731281E-03  0.1195614E+04  0.7818609E-02  0.9116704E-01
        1   -1    0    0  501    0  0.00000000000E+00  0.00000000000E+00  0.12262523543E+04  0.12262523543E+04  0.50400001928E-02 0.  1.
       -1   -1    0    0    0  501  0.00000000000E+00  0.00000000000E+00 -0.29143545577E+03  0.29143545581E+03  0.50400001928E-02 0. -1.
    10030    2    1    2    0    0  0.00000000000E+00  0.00000000000E+00  0.93481689854E+03  0.15176878101E+04  0.11956143422E+04 0.  0.
        5    1    3    3  502    0  0.47374526489E+03 -0.28442410422E+03  0.75692617224E+03  0.93717179177E+03  0.46999998093E+01 0. -1.
       -5    1    3    3    0  502 -0.47374526489E+03  0.28442410422E+03  0.17789072630E+03  0.58051601836E+03  0.46999998093E+01 0.  1.
</event>
<event>
 5   0  0.2537625E-03  0.1123155E+04  0.7818609E-02  0.9182913E-01
        4   -1    0    0  501    0  0.00000000000E+00  0.00000000000E+00  0.77591655980E+03  0.77591759915E+03  0.12699999809E+01 0.  1.
       -4   -1    0    0    0  501  0.00000000000E+00  0.00000000000E+00 -0.40644478219E+03  0.40644676634E+03  0.12699999809E+01 0. -1.
    10030    2    1    2    0    0  0.00000000000E+00  0.00000000000E+00  0.36947177761E+03  0.11823643655E+04  0.11231545300E+04 0.  0.
        1    1    3    3  502    0  0.60676900660E+02  0.12521751683E+03 -0.38801197597E+03  0.41220675190E+03  0.50400001928E-02 0. -1.
       -1    1    3    3    0  502 -0.60676900660E+02 -0.12521751683E+03  0.75748375358E+03  0.77015761358E+03  0.50400001928E-02 0.  1.
</event>
<event>
 5   0  0.6585930E-03  0.1215464E+04  0.7818609E-02  0.9099428E-01
       -2   -1    0    0    0  501  0.00000000000E+00  0.00000000000E+00  0.34274371517E+03  0.34274371518E+03  0.25500000920E-02 0.  1.
        2   -1    0    0  501    0  0.00000000000E+00  0.00000000000E+00 -0.10775925721E+04  0.10775925721E+04  0.25500000920E-02 0. -1.
    10030    2    1    2    0    0  0.00000000000E+00  0.00000000000E+00 -0.73484885695E+03  0.14203362873E+04  0.12154638318E+04 0.  0.
        2    1    3    3  502    0  0.20847334848E+03 -0.18308862662E+03 -0.99926102397E+03  0.10370656567E+04  0.25500000920E-02 0. -1.
       -2    1    3    3    0  502 -0.20847334848E+03  0.18308862662E+03  0.26441216702E+03  0.38327063062E+03  0.25500000920E-02 0.  1.
</event>
<event>
 5   0  0.6585930E-03  0.1190392E+04  0.7818609E-02  0.9121309E-01
       -2   -1    0    0    0  501  0.00000000000E+00  0.00000000000E+00  0.37651826746E+03  0.37651826747E+03  0.25500000920E-02 0. -1.
        2   -1    0    0  501    0  0.00000000000E+00  0.00000000000E+00 -0.94087863903E+03  0.94087863903E+03  0.25500000920E-02 0.  1.
    10030    2    1    2    0    0  0.00000000000E+00  0.00000000000E+00 -0.56436037157E+03  0.13173969065E+04  0.11903915239E+04 0.  0.
        2    1    3    3  502    0  0.12898850585E+03  0.42408289563E+03 -0.72176639675E+03  0.84701302734E+03  0.25500000920E-02 0. -1.
       -2    1    3    3    0  502 -0.12898850585E+03 -0.42408289563E+03  0.15740602518E+03  0.47038387916E+03  0.25500000920E-02 0.  1.
</event>
<event>
 5   0  0.6658994E-03  0.7298414E+03  0.7818609E-02  0.9667518E-01
        2   -1    0    0  501    0  0.00000000000E+00  0.00000000000E+00  0.12840814360E+04  0.12840814360E+04  0.25500000920E-02 0. -1.
       -2   -1    0    0    0  501  0.00000000000E+00  0.00000000000E+00 -0.10370611915E+03  0.10370611919E+03  0.25500000920E-02 0.  1.
    10030    2    1    2    0    0  0.00000000000E+00  0.00000000000E+00  0.11803753169E+04  0.13877875552E+04  0.72984135929E+03 0.  0.
        4    1    3    3  502    0 -0.27953471509E+03  0.22243100358E+01  0.10362117363E+04  0.10732571825E+04  0.12699999809E+01 0. -1.
       -4    1    3    3    0  502  0.27953471509E+03 -0.22243100358E+01  0.14416358062E+03  0.31453037273E+03  0.12699999809E+01 0.  1.
</event>
<event>
 5   0  0.6585930E-03  0.1256502E+04  0.7818609E-02  0.9064789E-01
        2   -1    0    0  501    0  0.00000000000E+00  0.00000000000E+00  0.21638982669E+04  0.21638982669E+04  0.25500000920E-02 0. -1.
       -2   -1    0    0    0  501  0.00000000000E+00  0.00000000000E+00 -0.18240187782E+03  0.18240187784E+03  0.25500000920E-02 0.  1.
    10030    2    1    2    0    0  0.00000000000E+00  0.00000000000E+00  0.19814963890E+04  0.23463001447E+04  0.12565016631E+04 0.  0.
        2    1    3    3  502    0  0.61310611772E+03 -0.35945668669E+02  0.74366819850E+03  0.96448618038E+03  0.25500000920E-02 0. -1.
       -2    1    3    3    0  502 -0.61310611772E+03  0.35945668669E+02  0.12378281905E+04  0.13818139643E+04  0.25500000920E-02 0.  1.
</event>
<event>
 5   0  0.6585930E-03  0.1195608E+04  0.7818609E-02  0.9116709E-01
       -2   -1    0    0    0  501  0.00000000000E+00  0.00000000000E+00  0.69707968040E+03  0.69707968041E+03  0.25500000920E-02 0. -1.
        2   -1    0    0  501    0  0.00000000000E+00  0.00000000000E+00 -0.51266699718E+03  0.51266699719E+03  0.25500000920E-02 0.  1.
    10030    2    1    2    0    0  0.00000000000E+00  0.00000000000E+00  0.18441268322E+03  0.12097466776E+04  0.11956082077E+04 0.  0.
        2    1    3    3  502    0  0.71679208046E+02  0.49311508172E+03  0.42636823305E+03  0.65581267359E+03  0.25500000920E-02 0. -1.
       -2    1    3    3    0  502 -0.71679208046E+02 -0.49311508172E+03 -0.24195554983E+03  0.55393400400E+03  0.25500000920E-02 0.  1.
</event>
<event>
 5   0  0.6493047E-03  0.1179623E+04  0.7818609E-02  0.9130882E-01
       -2   -1    0    0    0  501  0.00000000000E+00  0.00000000000E+00  0.58247036388E+03  0.58247036388E+03  0.25500000920E-02 0. -1.
        2   -1    0    0  501    0  0.00000000000E+00  0.00000000000E+00 -0.59724506064E+03  0.59724506065E+03  0.25500000920E-02 0.  1.
    10030    2    1    2    0    0  0.00000000000E+00  0.00000000000E+00 -0.14774696762E+02  0.11797154245E+04  0.11796229021E+04 0.  0.
        3    1    3    3  502    0  0.36970923119E+03  0.30313708430E+03 -0.35281352753E+03  0.59418381239E+03  0.10100000352E+00 0.  1.
       -3    1    3    3    0  502 -0.36970923119E+03 -0.30313708430E+03  0.33803883077E+03  0.58553161214E+03  0.10100000352E+00 0. -1.
</event>
<event>
 5   0  0.3648616E-03  0.1192487E+04  0.7818609E-02  0.9119458E-01
        1   -1    0    0  501    0  0.00000000000E+00  0.00000000000E+00  0.14633952012E+04  0.14633952012E+04  0.50400001928E-02 0. -1.
       -1   -1    0    0    0  501  0.00000000000E+00  0.00000000000E+00 -0.24293273678E+03  0.24293273684E+03  0.50400001928E-02 0.  1.
    10030    2    1    2    0    0  0.00000000000E+00  0.00000000000E+00  0.12204624644E+04  0.17063279380E+04  0.11924874863E+04 0.  0.
        2    1    3    3  502    0  0.54128329688E+03  0.24842503587E+03  0.65080407465E+03  0.88218396580E+03  0.25500000920E-02 0.  1.
       -2    1    3    3    0  502 -0.54128329688E+03 -0.24842503587E+03  0.56965838975E+03  0.82414397222E+03  0.25500000920E-02 0. -1.
</event>
<event>
 5   0  0.3701879E-03  0.1185817E+04  0.7818609E-02  0.9125363E-01
       -1   -1    0    0    0  501  0.00000000000E+00  0.00000000000E+00  0.25875688069E+03  0.25875688074E+03  0.50400001928E-02 0.  1.
        1   -1    0    0  501    0  0.00000000000E+00  0.00000000000E+00 -0.13585735848E+04  0.13585735848E+04  0.50400001928E-02 0. -1.
    10030    2    1    2    0    0  0.00000000000E+00  0.00000000000E+00 -0.10998167041E+04  0.16173304656E+04  0.11858166183E+04 0.  0.
        1    1    3    3  502    0 -0.17668806760E+03  0.28631126286E+03 -0.12157738165E+04  0.12614669181E+04  0.50400001928E-02 0. -1.
       -1    1    3    3    0  502  0.17668806760E+03 -0.28631126286E+03  0.11595711240E+03  0.35586354747E+03  0.50400001928E-02 0.  1.
</event>
<event>
 5   0  0.3772254E-03  0.1204257E+04  0.7818609E-02  0.9109139E-01
        1   -1    0    0  501    0  0.00000000000E+00  0.00000000000E+00  0.15101907670E+04  0.15101907670E+04  0.50400001928E-02 0. -1.
       -1   -1    0    0    0  501  0.00000000000E+00  0.00000000000E+00 -0.24007476213E+03  0.24007476218E+03  0.50400001928E-02 0.  1.
    10030    2    1    2    0    0  0.00000000000E+00  0.00000000000E+00  0.12701160049E+04  0.17502655292E+04  0.12042569314E+04 0.  0.
        3    1    3    3  502    0  0.39601494544E+03 -0.11607911463E+03  0.12723306515E+04  0.13375827058E+04  0.10100000352E+00 0. -1.
       -3    1    3    3    0  502 -0.39601494544E+03  0.11607911463E+03 -0.22146466369E+01  0.41268282340E+03  0.10100000352E+00 0.  1.
</event>
<event>
 5   0  0.2537625E-03  0.7101153E+03  0.7818609E-02  0.9700088E-01
        3   -1    0    0  501    0  0.00000000000E+00  0.00000000000E+00  0.32663317479E+03  0.32663319041E+03  0.10100000352E+00 0.  1.
       -3   -1    0    0    0  501  0.00000000000E+00  0.00000000000E+00 -0.38595565514E+03  0.38595566836E+03  0.10100000352E+00 0. -1.
    10030    2    1    2    0    0  0.00000000000E+00  0.00000000000E+00 -0.59322480349E+02  0.71258885877E+03  0.71011528991E+03 0.  0.
        5    1    3    3  502    0 -0.12359941145E+03  0.18136020939E+03 -0.30969512898E+03  0.37960703757E+03  0.46999998093E+01 0. -1.
       -5    1    3    3    0  502  0.12359941145E+03 -0.18136020939E+03  0.25037264863E+03  0.33298182119E+03  0.46999998093E+01 0.  1.
</event>
<event>
 5   0  0.3648616E-03  0.1241048E+04  0.7818609E-02  0.9077667E-01
        1   -1    0    0  501    0  0.00000000000E+00  0.00000000000E+00  0.98908478355E+03  0.98908478356E+03  0.50400001928E-02 0.  1.
       -1   -1    0    0    0  501  0.00000000000E+00  0.00000000000E+00 -0.38929932007E+03  0.38929932010E+03  0.50400001928E-02 0. -1.
    10030    2    1    2    0    0  0.00000000000E+00  0.00000000000E+00  0.59978546347E+03  0.13783841037E+04  0.12410479987E+04 0.  0.
        2    1    3    3  502    0 -0.17209120099E+03 -0.50062359781E+03  0.65946353217E+03  0.84565449116E+03  0.25500000920E-02 0.  1.
       -2    1    3    3    0  502  0.17209120099E+03  0.50062359781E+03 -0.59678068698E+02  0.53272961250E+03  0.25500000920E-02 0. -1.
</event>
<event>
 5   0  0.3701879E-03  0.1293160E+04  0.7818609E-02  0.9035007E-01
        1   -1    0    0  501    0  0.00000000000E+00  0.00000000000E+00  0.81520599514E+03  0.81520599516E+03  0.50400001928E-02 0. -1.
       -1   -1    0    0    0  501  0.00000000000E+00  0.00000000000E+00 -0.51283474548E+03  0.51283474550E+03  0.50400001928E-02 0.  1.
    10030    2    1    2    0    0  0.00000000000E+00  0.00000000000E+00  0.30237124967E+03  0.13280407407E+04  0.12931604062E+04 0.  0.
        1    1    3    3  502    0  0.27177636353E+03 -0.25055191101E+03  0.69599191954E+03  0.78806307106E+03  0.50400001928E-02 0. -1.
       -1    1    3    3    0  502 -0.27177636353E+03  0.25055191101E+03 -0.39362066987E+03  0.53997766959E+03  0.50400001928E-02 0.  1.
</event>
<event>
 5   0  0.6658994E-03  0.1349704E+04  0.7818609E-02  0.8991052E-01
       -2   -1    0    0    0  501  0.00000000000E+00  0.00000000000E+00  0.33397422361E+03  0.33397422362E+03  0.25500000920E-02 0. -1.
        2   -1    0    0  501    0  0.00000000000E+00  0.00000000000E+00 -0.13636531970E+04  0.13636531970E+04  0.25500000920E-02 0.  1.
    10030    2    1    2    0    0  0.00000000000E+00  0.00000000000E+00 -0.10296789734E+04  0.16976274206E+04  0.13497036975E+04 0.  0.
        4    1    3    3  502    0  0.14197619743E+03 -0.22329873941E+03 -0.12956793217E+04  0.13224243212E+04  0.12699999809E+01 0.  1.
       -4    1    3    3    0  502 -0.14197619743E+03  0.22329873941E+03  0.26600034829E+03  0.37520309947E+03  0.12699999809E+01 0. -1.
</event>
<event>
 5   0  0.6658994E-03  0.1178811E+04  0.7818609E-02  0.9131608E-01
       -2   -1    0    0    0  501  0.00000000000E+00  0.00000000000E+00  0.49079105491E+03  0.49079105492E+03  0.25500000920E-02 0. -1.
        2   -1    0    0  501    0  0.00000000000E+00  0.00000000000E+00 -0.70783488605E+03  0.70783488606E+03  0.25500000920E-02 0.  1.
    10030    2    1    2    0    0  0.00000000000E+00  0.00000000000E+00 -0.21704383114E+03  0.11986259410E+04  0.11788113173E+04 0.  0.
        4    1    3    3  502    0  0.28225082448E+03 -0.43809159400E+03  0.17143801569E+03  0.54861860958E+03  0.12699999809E+01 0. -1.
       -4    1    3    3    0  502 -0.28225082448E+03  0.43809159400E+03 -0.38848184683E+03  0.65000733140E+03  0.12699999809E+01 0.  1.
</event>
<event>
 5   0  0.6585930E-03  0.1156139E+04  0.7818609E-02  0.9152139E-01
        2   -1    0    0  501    0  0.00000000000E+00  0.00000000000E+00  0.69708077374E+03  0.69708077375E+03  0.25500000920E-02 0.  1.
       -2   -1    0    0    0  501  0.00000000000E+00  0.00000000000E+00 -0.47937694082E+03  0.47937694083E+03  0.25500000920E-02 0. -1.
    10030    2    1    2    0    0  0.00000000000E+00  0.00000000000E+00  0.21770383292E+03  0.11764577146E+04  0.11561391764E+04 0.  0.
        2    1    3    3  502    0 -0.12218299430E+03  0.12829707198E+03  0.66877279197E+03  0.69184237371E+03  0.25500000920E-02 0.  1.
       -2    1    3    3    0  502  0.12218299430E+03 -0.12829707198E+03 -0.45106895905E+03  0.48461534086E+03  0.25500000920E-02 0. -1.
</event>
<event>
 5   0  0.3731281E-03  0.1188925E+04  0.7818609E-02  0.9122606E-01
        1   -1    0    0  501    0  0.00000000000E+00  0.00000000000E+00  0.52864066120E+03  0.52864066123E+03  0.50400001928E-02 0. -1.
       -1   -1    0    0    0  501  0.00000000000E+00  0.00000000000E+00 -0.66847994524E+03  0.66847994526E+03  0.50400001928E-02 0.  1.
    10030    2    1    2    0    0  0.00000000000E+00  0.00000000000E+00 -0.13983928404E+03  0.11971206065E+04  0.11889250275E+04 0.  0.
        5    1    3    3  502    0  0.68147987302E+02 -0.14180028483E+03  0.50727890175E+03  0.53113599305E+03  0.46999998093E+01 0. -1.
       -5    1    3    3    0  502 -0.68147987302E+02  0.14180028483E+03 -0.64711818579E+03  0.66598461343E+03  0.46999998093E+01 0.  1.
</event>
<event>
 5   0  0.3944074E-03  0.1195734E+04  0.7818609E-02  0.9116599E-01
       -1   -1    0    0    0  501  0.00000000000E+00  0.00000000000E+00  0.15367384538E+04  0.15367384538E+04  0.50400001928E-02 0.  1.
        1   -1    0    0  501    0  0.00000000000E+00  0.00000000000E+00 -0.23259972332E+03  0.23259972337E+03  0.50400001928E-02 0. -1.
    10030    2    1    2    0    0  0.00000000000E+00  0.00000000000E+00  0.13041387305E+04  0.17693381772E+04  0.11957339825E+04 0.  0.
        4    1    3    3  502    0 -0.21147036822E+03 -0.50434125598E+02 -0.17203682880E+03  0.27723924870E+03  0.12699999809E+01 0. -1.
       -4    1    3    3    0  502  0.21147036822E+03  0.50434125598E+02  0.14761755593E+04  0.14920989285E+04  0.12699999809E+01 0.  1.
</event>
<event>
 5   0  0.3772254E-03  0.1152237E+04  0.7818609E-02  0.9155722E-01
       -1   -1    0    0    0  501  0.00000000000E+00  0.00000000000E+00  0.65774108273E+03  0.65774108275E+03  0.50400001928E-02 0.  1.
        1   -1    0    0  501    0  0.00000000000E+00  0.00000000000E+00 -0.50462531298E+03  0.50462531301E+03  0.50400001928E-02 0. -1.
    10030    2    1    2    0    0  0.00000000000E+00  0.00000000000E+00  0.15311576974E+03  0.11623663958E+04  0.11522374751E+04 0.  0.
        3    1    3    3  502    0 -0.84433472461E+02  0.34517094703E+03  0.53402058354E+03  0.64144367469E+03  0.10100000352E+00 0.  1.
       -3    1    3    3    0  502  0.84433472461E+02 -0.34517094703E+03 -0.38090481380E+03  0.52092272107E+03  0.10100000352E+00 0. -1.
</event>
<event>
 5   0  0.2537625E-03  0.1173680E+04  0.7818609E-02  0.9136212E-01
       -3   -1    0    0    0  501  0.00000000000E+00  0.00000000000E+00  0.39290446407E+03  0.39290447705E+03  0.10100000352E+00 0.  1.
        3   -1    0    0  501    0  0.00000000000E+00  0.00000000000E+00 -0.87650054526E+03  0.87650055107E+03  0.10100000352E+00 0. -1.
    10030    2    1    2    0    0  0.00000000000E+00  0.00000000000E+00 -0.48359608119E+03  0.12694050281E+04  0.11736796649E+04 0.  0.
        3    1    3    3  502    0 -0.14311291816E+03 -0.40743251560E+02 -0.85575811307E+03  0.86859845624E+03  0.10100000352E+00 0. -1.
       -3    1    3    3    0  502  0.14311291816E+03  0.40743251560E+02  0.37216203188E+03  0.40080657189E+03  0.10100000352E+00 0.  1.
</event>
<event>
 5   0  0.3944074E-03  0.1156973E+04  0.7818609E-02  0.9151375E-01
       -1   -1    0    0    0  501  0.00000000000E+00  0.00000000000E+00  0.42721833867E+03  0.42721833870E+03  0.50400001928E-02 0.  1.
        1   -1    0    0  501    0  0.00000000000E+00  0.00000000000E+00 -0.78331498170E+03  0.78331498172E+03  0.50400001928E-02 0. -1.
    10030    2    1    2    0    0  0.00000000000E+00  0.00000000000E+00 -0.35609664303E+03  0.12105333204E+04  0.11569728176E+04 0.  0.
        4    1    3    3  502    0 -0.49687637899E+03  0.65134628274E+02  0.12432195852E+03  0.51631987960E+03  0.12699999809E+01 0.  1.
       -4    1    3    3    0  502  0.49687637899E+03 -0.65134628274E+02 -0.48041860155E+03  0.69421344082E+03  0.12699999809E+01 0. -1.
</event>
<event>
 5   0  0.3648616E-03  0.1113584E+04  0.7818609E-02  0.9192052E-01
       -1   -1    0    0    0  501  0.00000000000E+00  0.00000000000E+00  0.24422079929E+03  0.24422079934E+03  0.50400001928E-02 0.  1.
        1   -1    0    0  501    0  0.00000000000E+00  0.00000000000E+00 -0.12694137845E+04  0.12694137845E+04  0.50400001928E-02 0. -1.
    10030    2    1    2    0    0  0.00000000000E+00  0.00000000000E+00 -0.10251929852E+04  0.15136345839E+04  0.11135838525E+04 0.  0.
        2    1    3    3  502    0  0.15389156088E+03  0.27477822853E+03  0.11152038932E+03  0.33409951306E+03  0.25500000920E-02 0.  1.
       -2    1    3    3    0  502 -0.15389156088E+03 -0.27477822853E+03 -0.11367133746E+04  0.11795350708E+04  0.25500000920E-02 0. -1.
</event>
<event>
 5   0  0.6349142E-03  0.1161999E+04  0.7818609E-02  0.9146785E-01
       -2   -1    0    0    0  501  0.00000000000E+00  0.00000000000E+00  0.80351430891E+03  0.80351430892E+03  0.25500000920E-02 0. -1.
        2   -1    0    0  501    0  0.00000000000E+00  0.00000000000E+00 -0.42010501027E+03  0.42010501028E+03  0.25500000920E-02 0.  1.
    10030    2    1    2    0    0  0.00000000000E+00  0.00000000000E+00  0.38340929864E+03  0.12236193192E+04  0.11619989449E+04 0.  0.
        1    1    3    3  502    0  0.26388667614E+01  0.44056513304E+03  0.59054549420E+03  0.73678258721E+03  0.50400001928E-02 0. -1.
       -1    1    3    3    0  502 -0.26388667614E+01 -0.44056513304E+03 -0.20713619556E+03  0.48683673198E+03  0.50400001928E-02 0.  1.
</event>
<event>
 5   0  0.6585930E-03  0.1178811E+04  0.7818609E-02  0.9131608E-01
       -2   -1    0    0    0  501  0.00000000000E+00  0.00000000000E+00  0.36939533945E+03  0.36939533946E+03  0.25500000920E-02 0.  1.
        2   -1    0    0  501    0  0.00000000000E+00  0.00000000000E+00 -0.94045278746E+03  0.94045278747E+03  0.25500000920E-02 0. -1.
    10030    2    1    2    0    0  0.00000000000E+00  0.00000000000E+00 -0.57105744802E+03  0.13098481269E+04  0.11788110564E+04 0.  0.
        2    1    3    3  502    0 -0.51373769538E+03 -0.10211905972E+03 -0.58583850444E+03  0.78585079711E+03  0.25500000920E-02 0. -1.
       -2    1    3    3    0  502  0.51373769538E+03  0.10211905972E+03  0.14781056429E+02  0.52399732981E+03  0.25500000920E-02 0.  1.
</event>
<event>
 5   0  0.6493047E-03  0.1232253E+04  0.7818609E-02  0.9085084E-01
       -2   -1    0    0    0  501  0.00000000000E+00  0.00000000000E+00  0.19065411105E+03  0.19065411107E+03  0.25500000920E-02 0.  1.
        2   -1    0    0  501    0  0.00000000000E+00  0.00000000000E+00 -0.19911034741E+04  0.19911034741E+04  0.25500000920E-02 0. -1.
    10030    2    1    2    0    0  0.00000000000E+00  0.00000000000E+00 -0.18004493630E+04  0.21817575851E+04  0.12322533228E+04 0.  0.
        3    1    3    3  502    0 -0.11373388055E+03 -0.59535907544E+03 -0.10959816470E+04  0.12524230934E+04  0.10100000352E+00 0. -1.
       -3    1    3    3    0  502  0.11373388055E+03  0.59535907544E+03 -0.70446771602E+03  0.92933449167E+03  0.10100000352E+00 0.  1.
</event>
<event>
 5   0  0.6640844E-03  0.1211107E+04  0.7818609E-02  0.9103189E-01
        2   -1    0    0  501    0  0.00000000000E+00  0.00000000000E+00  0.65740194157E+03  0.65740194158E+03  0.25500000920E-02 0.  1.
       -2   -1    0    0    0  501  0.00000000000E+00  0.00000000000E+00 -0.55779465932E+03  0.55779465933E+03  0.25500000920E-02 0. -1.
    10030    2    1    2    0    0  0.00000000000E+00  0.00000000000E+00  0.99607282247E+02  0.12151966009E+04  0.12111074140E+04 0.  0.
        5    1    3    3  502    0 -0.98357561980E+02 -0.56150552048E+03 -0.15511751748E+03  0.59080131495E+03  0.46999998093E+01 0. -1.
       -5    1    3    3    0  502  0.98357561980E+02  0.56150552048E+03  0.25472479972E+03  0.62439528595E+03  0.46999998093E+01 0.  1.
</event>
<event>
 5   0  0.3731281E-03  0.1174149E+04  0.7818609E-02  0.9135789E-01
       -1   -1    0    0    0  501  0.00000000000E+00  0.00000000000E+00  0.16730247155E+03  0.16730247162E+03  0.50400001928E-02 0. -1.
        1   -1    0    0  501    0  0.00000000000E+00  0.00000000000E+00 -0.20600807079E+04  0.20600807079E+04  0.50400001928E-02 0.  1.
    10030    2    1    2    0    0  0.00000000000E+00  0.00000000000E+00 -0.18927782363E+04  0.22273831795E+04  0.11741492139E+04 0.  0.
        5    1    3    3  502    0  0.46655040553E+03 -0.20138680964E+02 -0.16212578210E+04  0.16871792613E+04  0.46999998093E+01 0.  1.
       -5    1    3    3    0  502 -0.46655040553E+03  0.20138680964E+02 -0.27152041531E+03  0.54020391826E+03  0.46999998093E+01 0. -1.
</event>
<event>
 5   0  0.3648616E-03  0.1289612E+04  0.7818609E-02  0.9037844E-01
       -1   -1    0    0    0  501  0.00000000000E+00  0.00000000000E+00  0.54275542872E+03  0.54275542875E+03  0.50400001928E-02 0. -1.
        1   -1    0    0  501    0  0.00000000000E+00  0.00000000000E+00 -0.76604390652E+03  0.76604390653E+03  0.50400001928E-02 0.  1.
    10030    2    1    2    0    0  0.00000000000E+00  0.00000000000E+00 -0.22328847780E+03  0.13087993353E+04  0.12896115523E+04 0.  0.
        2    1    3    3  502    0  0.71867931226E+02  0.48551672920E+02  0.53680865204E+03  0.54376998207E+03  0.25500000920E-02 0. -1.
       -2    1    3    3    0  502 -0.71867931226E+02 -0.48551672920E+02 -0.76009712984E+03  0.76502935321E+03  0.25500000920E-02 0.  1.
</event>
<event>
 5   0  0.3731281E-03  0.1316822E+04  0.7818609E-02  0.9016331E-01
        1   -1    0    0  501    0  0.00000000000E+00  0.00000000000E+00  0.21177307710E+04  0.21177307710E+04  0.50400001928E-02 0.  1.
       -1   -1    0    0    0  501  0.00000000000E+00  0.00000000000E+00 -0.20470259321E+03  0.20470259328E+03  0.50400001928E-02 0. -1.
    10030    2    1    2    0    0  0.00000000000E+00  0.00000000000E+00  0.19130281778E+04  0.23224333643E+04  0.13168219023E+04 0.  0.
        5    1    3    3  502    0 -0.35675577275E+03 -0.35791648210E+03  0.17008227257E+04  0.17743164667E+04  0.46999998093E+01 0.  1.
       -5    1    3    3    0  502  0.35675577275E+03  0.35791648210E+03  0.21220545203E+03  0.54811689758E+03  0.46999998093E+01 0. -1.
</event>
<event>
 5   0  0.6585930E-03  0.1019296E+04  0.7818609E-02  0.9287631E-01
        2   -1    0    0  501    0  0.00000000000E+00  0.00000000000E+00  0.22504658803E+03  0.22504658805E+03  0.25500000920E-02 0.  1.
       -2   -1    0    0    0  501  0.00000000000E+00  0.00000000000E+00 -0.11541660384E+04  0.11541660384E+04  0.25500000920E-02 0. -1.
    10030    2    1    2    0    0  0.00000000000E+00  0.00000000000E+00 -0.92911945039E+03  0.13792126265E+04  0.10192960884E+04 0.  0.
        2    1    3    3  502    0 -0.15316323909E+03  0.48368688032E+03 -0.52986223506E+03  0.73359795812E+03  0.25500000920E-02 0.  1.
       -2    1    3    3    0  502  0.15316323909E+03 -0.48368688032E+03 -0.39925721533E+03  0.64561466836E+03  0.25500000920E-02 0. -1.
</event>
<event>
 5   0  0.6349142E-03  0.1186219E+04  0.7818609E-02  0.9125005E-01
       -2   -1    0    0    0  501  0.00000000000E+00  0.00000000000E+00  0.39844521257E+03  0.39844521258E+03  0.25500000920E-02 0.  1.
        2   -1    0    0  501    0  0.00000000000E+00  0.00000000000E+00 -0.88287862914E+03  0.88287862914E+03  0.25500000920E-02 0. -1.
    10030    2    1    2    0    0  0.00000000000E+00  0.00000000000E+00 -0.48443341657E+03  0.12813238417E+04  0.11862188046E+04 0.  0.
        1    1    3    3  502    0 -0.20327795247E+03  0.38903058647E+03 -0.67308608112E+03  0.80356181828E+03  0.50400001928E-02 0. -1.
       -1    1    3    3    0  502  0.20327795247E+03 -0.38903058647E+03  0.18865266456E+03  0.47776202344E+03  0.50400001928E-02 0.  1.
</event>
<event>
 5   0  0.6349142E-03  0.1183143E+04  0.7818609E-02  0.9127741E-01
       -2   -1    0    0    0  501  0.00000000000E+00  0.00000000000E+00  0.19036299611E+03  0.19036299613E+03  0.25500000920E-02 0. -1.
        2   -1    0    0  501    0  0.00000000000E+00  0.00000000000E+00 -0.18383645949E+04  0.18383645949E+04  0.25500000920E-02 0.  1.
    10030    2    1    2    0    0  0.00000000000E+00  0.00000000000E+00 -0.16480015988E+04  0.20287275910E+04  0.11831425818E+04 0.  0.
        1    1    3    3  502    0 -0.18541875100E+03 -0.13243971077E+03 -0.17600984619E+04  0.17747864621E+04  0.50400001928E-02 0.  1.
       -1    1    3    3    0  502  0.18541875100E+03  0.13243971077E+03  0.11209686316E+03  0.25394112895E+03  0.50400001928E-02 0. -1.
</event>
<event>
 5   0  0.6493047E-03  0.1127810E+04  0.7818609E-02  0.9178502E-01
        2   -1    0    0  501    0  0.00000000000E+00  0.00000000000E+00  0.17939987871E+04  0.17939987871E+04  0.25500000920E-02 0. -1.
       -2   -1    0    0    0  501  0.00000000000E+00  0.00000000000E+00 -0.17725148645E+03  0.17725148647E+03  0.25500000920E-02 0.  1.
    10030    2    1    2    0    0  0.00000000000E+00  0.00000000000E+00  0.16167473006E+04  0.19712502736E+04  0.11278101821E+04 0.  0.
        3    1    3    3  502    0  0.44556308036E+03  0.34349244856E+03  0.87551092298E+03  0.10406886697E+04  0.10100000352E+00 0.  1.
       -3    1    3    3    0  502 -0.44556308036E+03 -0.34349244856E+03  0.74123637765E+03  0.93056160385E+03  0.10100000352E+00 0. -1.
</event>
<event>
 5   0  0.3944074E-03  0.1229618E+04  0.7818609E-02  0.9087320E-01
       -1   -1    0    0    0  501  0.00000000000E+00  0.00000000000E+00  0.31567836719E+03  0.31567836723E+03  0.50400001928E-02 0.  1.
        1   -1    0    0  501    0  0.00000000000E+00  0.00000000000E+00 -0.11973893327E+04  0.11973893327E+04  0.50400001928E-02 0. -1.
    10030    2    1    2    0    0  0.00000000000E+00  0.00000000000E+00 -0.88171096551E+03  0.15130676999E+04  0.12296176796E+04 0.  0.
        4    1    3    3  502    0 -0.42271673718E+01 -0.59519954067E+03 -0.63032315520E+03  0.86694247504E+03  0.12699999809E+01 0. -1.
       -4    1    3    3    0  502  0.42271673718E+01  0.59519954067E+03 -0.25138781031E+03  0.64612522488E+03  0.12699999809E+01 0.  1.
</event>
<event>
 5   0  0.6493047E-03  0.1191132E+04  0.7818609E-02  0.9120655E-01
       -2   -1    0    0    0  501  0.00000000000E+00  0.00000000000E+00  0.25632796311E+03  0.25632796312E+03  0.25500000920E-02 0. -1.
        2   -1    0    0  501    0  0.00000000000E+00  0.00000000000E+00 -0.13837688062E+04  0.13837688062E+04  0.25500000920E-02 0.  1.
    10030    2    1    2    0    0  0.00000000000E+00  0.00000000000E+00 -0.11274408431E+04  0.16400967694E+04  0.11911316292E+04 0.  0.
        3    1    3    3  502    0  0.14971053518E+03 -0.45545754763E+03 -0.10502320426E+04  0.11544878412E+04  0.10100000352E+00 0.  1.
       -3    1    3    3    0  502 -0.14971053518E+03  0.45545754763E+03 -0.77208800581E+02  0.48560892818E+03  0.10100000352E+00 0. -1.
</event>
<event>
 5   0  0.3648616E-03  0.1298587E+04  0.7818609E-02  0.9030686E-01
       -1   -1    0    0    0  501  0.00000000000E+00  0.00000000000E+00  0.48989604595E+03  0.48989604598E+03  0.50400001928E-02 0. -1.
        1   -1    0    0  501    0  0.00000000000E+00  0.00000000000E+00 -0.86055472623E+03  0.86055472624E+03  0.50400001928E-02 0.  1.
    10030    2    1    2    0    0  0.00000000000E+00  0.00000000000E+00 -0.37065868028E+03  0.13504507722E+04  0.12985874753E+04 0.  0.
        2    1    3    3  502    0 -0.62755908863E+03  0.15586419346E+03 -0.24648532367E+03  0.69201088960E+03  0.25500000920E-02 0.  1.
       -2    1    3    3    0  502  0.62755908863E+03 -0.15586419346E+03 -0.12417335660E+03  0.65843988262E+03  0.25500000920E-02 0. -1.
</event>
<event>
 5   0  0.6640844E-03  0.1041027E+04  0.7818609E-02  0.9264658E-01
       -2   -1    0    0    0  501  0.00000000000E+00  0.00000000000E+00  0.11050663897E+04  0.11050663897E+04  0.25500000920E-02 0. -1.
        2   -1    0    0  501    0  0.00000000000E+00  0.00000000000E+00 -0.24517461412E+03  0.24517461413E+03  0.25500000920E-02 0.  1.
    10030    2    1    2    0    0  0.00000000000E+00  0.00000000000E+00  0.85989177557E+03  0.13502410038E+04  0.10410268501E+04 0.  0.
        5    1    3    3  502    0  0.12959204205E+03 -0.39885793280E+03  0.30111068022E+02  0.42048842355E+03  0.46999998093E+01 0.  1.
       -5    1    3    3    0  502 -0.12959204205E+03  0.39885793280E+03  0.82978070755E+03  0.92975258028E+03  0.46999998093E+01 0. -1.
</event>
<event>
 5   0  0.6493047E-03  0.1195036E+04  0.7818609E-02  0.9117212E-01
        2   -1    0    0  501    0  0.00000000000E+00  0.00000000000E+00  0.10496084829E+04  0.10496084829E+04  0.25500000920E-02 0.  1.
       -2   -1    0    0    0  501  0.00000000000E+00  0.00000000000E+00 -0.34015342975E+03  0.34015342976E+03  0.25500000920E-02 0. -1.
    10030    2    1    2    0    0  0.00000000000E+00  0.00000000000E+00  0.70945505312E+03  0.13897619126E+04  0.11950362762E+04 0.  0.
        3    1    3    3  502    0 -0.20046956018E+02 -0.51790619373E+03  0.70049449844E+03  0.87139041680E+03  0.10100000352E+00 0.  1.
       -3    1    3    3    0  502  0.20046956018E+02  0.51790619373E+03  0.89605546869E+01  0.51837149583E+03  0.10100000352E+00 0. -1.
</event>
<event>
 5   0  0.3648616E-03  0.1209203E+04  0.7818609E-02  0.9104839E-01
        1   -1    0    0  501    0  0.00000000000E+00  0.00000000000E+00  0.35572670474E+03  0.35572670477E+03  0.50400001928E-02 0. -1.
       -1   -1    0    0    0  501  0.00000000000E+00  0.00000000000E+00 -0.10275949446E+04  0.10275949446E+04  0.50400001928E-02 0.  1.
    10030    2    1    2    0    0  0.00000000000E+00  0.00000000000E+00 -0.67186823988E+03  0.13833216494E+04  0.12092029829E+04 0.  0.
        2    1    3    3  502    0 -0.54183985693E+03 -0.22048380677E+03 -0.16116325733E+03  0.60677601726E+03  0.25500000920E-02 0. -1.
       -2    1    3    3    0  502  0.54183985693E+03  0.22048380677E+03 -0.51070498254E+03  0.77654563214E+03  0.25500000920E-02 0.  1.
</event>
<event>
 5   0  0.3648616E-03  0.1276781E+04  0.7818609E-02  0.9048183E-01
       -1   -1    0    0    0  501  0.00000000000E+00  0.00000000000E+00  0.68224976510E+03  0.68224976512E+03  0.50400001928E-02 0.  1.
        1   -1    0    0  501    0  0.00000000000E+00  0.00000000000E+00 -0.59735070407E+03  0.59735070409E+03  0.50400001928E-02 0. -1.
    10030    2    1    2    0    0  0.00000000000E+00  0.00000000000E+00  0.84899061034E+02  0.12796004692E+04  0.12767809171E+04 0.  0.
        2    1    3    3  502    0 -0.15509843839E+03 -0.15397714580E+03  0.64358899924E+03  0.67968469673E+03  0.25500000920E-02 0.  1.
       -2    1    3    3    0  502  0.15509843839E+03  0.15397714580E+03 -0.55868993820E+03  0.59991577248E+03  0.25500000920E-02 0. -1.
</event>
<event>
 5   0  0.2537625E-03  0.1239826E+04  0.7818609E-02  0.9078694E-01
        3   -1    0    0  501    0  0.00000000000E+00  0.00000000000E+00  0.96364961470E+03  0.96364961999E+03  0.10100000352E+00 0.  1.
       -3   -1    0    0    0  501  0.00000000000E+00  0.00000000000E+00 -0.39878827420E+03  0.39878828699E+03  0.10100000352E+00 0. -1.
    10030    2    1    2    0    0  0.00000000000E+00  0.00000000000E+00  0.56486134050E+03  0.13624379070E+04  0.12398260831E+04 0.  0.
        5    1    3    3  502    0  0.57001672052E+02 -0.13013350319E+02  0.96059323744E+03  0.96238245813E+03  0.46999998093E+01 0.  1.
       -5    1    3    3    0  502 -0.57001672052E+02  0.13013350319E+02 -0.39573189694E+03  0.40005544885E+03  0.46999998093E+01 0. -1.
</event>
<event>
 5   0  0.3731281E-03  0.1060547E+04  0.7818609E-02  0.9244522E-01
       -1   -1    0    0    0  501  0.00000000000E+00  0.00000000000E+00  0.12380432582E+03  0.12380432592E+03  0.50400001928E-02 0. -1.
        1   -1    0    0  501    0  0.00000000000E+00  0.00000000000E+00 -0.22712469513E+04  0.22712469513E+04  0.50400001928E-02 0.  1.
    10030    2    1    2    0    0  0.00000000000E+00  0.00000000000E+00 -0.21474426255E+04  0.23950512772E+04  0.10605474015E+04 0.  0.
        5    1    3    3  502    0  0.42748811651E+02 -0.45233008003E+02 -0.22629228308E+04  0.22637834071E+04  0.46999998093E+01 0.  1.
       -5    1    3    3    0  502 -0.42748811651E+02  0.45233008003E+02  0.11548020534E+03  0.13126787015E+03  0.46999998093E+01 0. -1.
</event>
<event>
 5   0  0.6585930E-03  0.1162542E+04  0.7818609E-02  0.9146291E-01
       -2   -1    0    0    0  501  0.00000000000E+00  0.00000000000E+00  0.35526389210E+03  0.35526389211E+03  0.25500000920E-02 0. -1.
        2   -1    0    0  501    0  0.00000000000E+00  0.00000000000E+00 -0.95105561199E+03  0.95105561199E+03  0.25500000920E-02 0.  1.
    10030    2    1    2    0    0  0.00000000000E+00  0.00000000000E+00 -0.59579171989E+03  0.13063195041E+04  0.11625415577E+04 0.  0.
        2    1    3    3  502    0 -0.46141067508E+03 -0.50588796107E+02 -0.69104852567E+03  0.83247048128E+03  0.25500000920E-02 0.  1.
       -2    1    3    3    0  502  0.46141067508E+03  0.50588796107E+02  0.95256805781E+02  0.47384902281E+03  0.25500000920E-02 0. -1.
</event>
<event>
 5   0  0.6585930E-03  0.1202095E+04  0.7818609E-02  0.9111025E-01
       -2   -1    0    0    0  501  0.00000000000E+00  0.00000000000E+00  0.32583007502E+03  0.32583007503E+03  0.25500000920E-02 0.  1.
        2   -1    0    0  501    0  0.00000000000E+00  0.00000000000E+00 -0.11087317295E+04  0.11087317295E+04  0.25500000920E-02 0. -1.
    10030    2    1    2    0    0  0.00000000000E+00  0.00000000000E+00 -0.78290165445E+03  0.14345618045E+04  0.12020950754E+04 0.  0.
        2    1    3    3  502    0  0.12913648694E+03 -0.43245482056E+03  0.82256346888E+02  0.45875866280E+03  0.25500000920E-02 0.  1.
       -2    1    3    3    0  502 -0.12913648694E+03  0.43245482056E+03 -0.86515800134E+03  0.97580314171E+03  0.25500000920E-02 0. -1.
</event>
<event>
 5   0  0.3772254E-03  0.1090911E+04  0.7818609E-02  0.9214096E-01
        1   -1    0    0  501    0  0.00000000000E+00  0.00000000000E+00  0.82890470008E+03  0.82890470010E+03  0.50400001928E-02 0. -1.
       -1   -1    0    0    0  501  0.00000000000E+00  0.00000000000E+00 -0.35893357306E+03  0.35893357309E+03  0.50400001928E-02 0.  1.
    10030    2    1    2    0    0  0.00000000000E+00  0.00000000000E+00  0.46997112703E+03  0.11878382732E+04  0.10909110427E+04 0.  0.
        3    1    3    3  502    0  0.45436788525E+03 -0.24368054065E+03  0.42882326014E+03  0.67061149683E+03  0.10100000352E+00 0. -1.
       -3    1    3    3    0  502 -0.45436788525E+03  0.24368054065E+03  0.41147866893E+02  0.51722677637E+03  0.10100000352E+00 0.  1.
</event>
<event>
 5   0  0.6658994E-03  0.1311990E+04  0.7818609E-02  0.9020111E-01
        2   -1    0    0  501    0  0.00000000000E+00  0.00000000000E+00  0.51032140022E+03  0.51032140023E+03  0.25500000920E-02 0. -1.
       -2   -1    0    0    0  501  0.00000000000E+00  0.00000000000E+00 -0.84325152564E+03  0.84325152564E+03  0.25500000920E-02 0.  1.
    10030    2    1    2    0    0  0.00000000000E+00  0.00000000000E+00 -0.33293012541E+03  0.13535729259E+04  0.13119897855E+04 0.  0.
        4    1    3    3  502    0  0.40582368974E+03 -0.15962843716E+02 -0.69794307940E+03  0.80751088817E+03  0.12699999809E+01 0.  1.
       -4    1    3    3    0  502 -0.40582368974E+03  0.15962843716E+02  0.36501295399E+03  0.54606203769E+03  0.12699999809E+01 0. -1.
</event>
<event>
 5   0  0.3701879E-03  0.1196387E+04  0.7818609E-02  0.9116024E-01
        1   -1    0    0  501    0  0.00000000000E+00  0.00000000000E+00  0.16417507996E+04  0.16417507996E+04  0.50400001928E-02 0. -1.
       -1   -1    0    0    0  501  0.00000000000E+00  0.00000000000E+00 -0.21795983993E+03  0.21795983999E+03  0.50400001928E-02 0.  1.
    10030    2    1    2    0    0  0.00000000000E+00  0.00000000000E+00  0.14237909597E+04  0.18597106396E+04  0.11963874649E+04 0.  0.
        1    1    3    3  502    0 -0.81330233489E+02  0.56353660348E+02 -0.20515125839E+03  0.22776606587E+03  0.50400001928E-02 0.  1.
       -1    1    3    3    0  502  0.81330233489E+02 -0.56353660348E+02  0.16289422181E+04  0.16319445738E+04  0.50400001928E-02 0. -1.
</event>
<event>
 5   0  0.6585930E-03  0.1210933E+04  0.7818609E-02  0.9103341E-01
        2   -1    0    0  501    0  0.00000000000E+00  0.00000000000E+00  0.28758637469E+03  0.28758637470E+03  0.25500000920E-02 0. -1.
       -2   -1    0    0    0  501  0.00000000000E+00  0.00000000000E+00 -0.12747107758E+04  0.12747107758E+04  0.25500000920E-02 0.  1.
    10030    2    1    2    0    0  0.00000000000E+00  0.00000000000E+00 -0.98712440109E+03  0.15622971505E+04  0.12109326171E+04 0.  0.
        2    1    3    3  502    0  0.33600225901E+02 -0.25337456946E+03  0.21457221041E+03  0.33371976435E+03  0.25500000920E-02 0. -1.
       -2    1    3    3    0  502 -0.33600225901E+02  0.25337456946E+03 -0.12016966115E+04  0.12285773861E+04  0.25500000920E-02 0.  1.
</event>
<event>
 5   0  0.3772254E-03  0.1262689E+04  0.7818609E-02  0.9059688E-01
        1   -1    0    0  501    0  0.00000000000E+00  0.00000000000E+00  0.12052799166E+04  0.12052799166E+04  0.50400001928E-02 0.  1.
       -1   -1    0    0    0  501  0.00000000000E+00  0.00000000000E+00 -0.33070830769E+03  0.33070830773E+03  0.50400001928E-02 0. -1.
    10030    2    1    2    0    0  0.00000000000E+00  0.00000000000E+00  0.87457160894E+03  0.15359882244E+04  0.12626893229E+04 0.  0.
        3    1    3    3  502    0 -0.36580635727E+03  0.24943283679E+03 -0.11020096106E+03  0.45626230735E+03  0.10100000352E+00 0. -1.
       -3    1    3    3    0  502  0.36580635727E+03 -0.24943283679E+03  0.98477256999E+03  0.10797259170E+04  0.10100000352E+00 0.  1.
</event>
<event>
 5   0  0.6349142E-03  0.1205654E+04  0.7818609E-02  0.9107922E-01
       -2   -1    0    0    0  501  0.00000000000E+00  0.00000000000E+00  0.47949809265E+03  0.47949809266E+03  0.25500000920E-02 0. -1.
        2   -1    0    0  501    0  0.00000000000E+00  0.00000000000E+00 -0.75787613458E+03  0.75787613458E+03  0.25500000920E-02 0.  1.
    10030    2    1    2    0    0  0.00000000000E+00  0.00000000000E+00 -0.27837804193E+03  0.12373742272E+04  0.12056536169E+04 0.  0.
        1    1    3    3  502    0 -0.35617669294E+03 -0.46034212931E+03 -0.30023613596E+03  0.65491865905E+03  0.50400001928E-02 0.  1.
       -1    1    3    3    0  502  0.35617669294E+03  0.46034212931E+03  0.21858094033E+02  0.58245556819E+03  0.50400001928E-02 0. -1.
</event>
<event>
 5   0  0.6640844E-03  0.1176465E+04  0.7818609E-02  0.9133710E-01
       -2   -1    0    0    0  501  0.00000000000E+00  0.00000000000E+00  0.24132930011E+03  0.24132930012E+03  0.25500000920E-02 0. -1.
        2   -1    0    0  501    0  0.00000000000E+00  0.00000000000E+00 -0.14337983127E+04  0.14337983127E+04  0.25500000920E-02 0.  1.
    10030    2    1    2    0    0  0.00000000000E+00  0.00000000000E+00 -0.11924690126E+04  0.16751276129E+04  0.11764651178E+04 0.  0.
        5    1    3    3  502    0 -0.92842730158E+02 -0.20377045242E+03 -0.13707088576E+04  0.13888869760E+04  0.46999998093E+01 0.  1.
       -5    1    3    3    0  502  0.92842730158E+02  0.20377045242E+03  0.17823984500E+03  0.28624063682E+03  0.46999998093E+01 0. -1.
</event>
<event>
 5   0  0.3701879E-03  0.1210803E+04  0.7818609E-02  0.9103453E-01
       -1   -1    0    0    0  501  0.00000000000E+00  0.00000000000E+00  0.75494870343E+03  0.75494870345E+03  0.50400001928E-02 0. -1.
        1   -1    0    0  501    0  0.00000000000E+00  0.00000000000E+00 -0.48547758950E+03  0.48547758952E+03  0.50400001928E-02 0.  1.
    10030    2    1    2    0    0  0.00000000000E+00  0.00000000000E+00  0.26947111393E+03  0.12404262930E+04  0.12108025054E+04 0.  0.
        1    1    3    3  502    0  0.38417859340E+03 -0.15029175133E+03 -0.31919649265E+03  0.52160061646E+03  0.50400001928E-02 0.  1.
       -1    1    3    3    0  502 -0.38417859340E+03  0.15029175133E+03  0.58866760658E+03  0.71882567651E+03  0.50400001928E-02 0. -1.
</event>
<event>
 5   0  0.3648616E-03  0.1204097E+04  0.7818609E-02  0.9109278E-01
       -1   -1    0    0    0  501  0.00000000000E+00  0.00000000000E+00  0.48394938480E+03  0.48394938483E+03  0.50400001928E-02 0. -1.
        1   -1    0    0  501    0  0.00000000000E+00  0.00000000000E+00 -0.74896703035E+03  0.74896703037E+03  0.50400001928E-02 0.  1.
    10030    2    1    2    0    0  0.00000000000E+00  0.00000000000E+00 -0.26501764555E+03  0.12329164152E+04  0.12040965636E+04 0.  0.
        2    1    3    3  502    0 -0.10810551880E+03 -0.51813598041E+03  0.16125598655E+03  0.55331292285E+03  0.25500000920E-02 0. -1.
       -2    1    3    3    0  502  0.10810551880E+03  0.51813598041E+03 -0.42627363210E+03  0.67960349235E+03  0.25500000920E-02 0.  1.
</event>
<event>
 5   0  0.3944074E-03  0.1205324E+04  0.7818609E-02  0.9108209E-01
        1   -1    0    0  501    0  0.00000000000E+00  0.00000000000E+00  0.18018584687E+04  0.18018584687E+04  0.50400001928E-02 0. -1.
       -1   -1    0    0    0  501  0.00000000000E+00  0.00000000000E+00 -0.20157050362E+03  0.20157050369E+03  0.50400001928E-02 0.  1.
    10030    2    1    2    0    0  0.00000000000E+00  0.00000000000E+00  0.16002879651E+04  0.20034289724E+04  0.12053240545E+04 0.  0.
        4    1    3    3  502    0 -0.55258855369E+03 -0.18938009899E+03  0.55371397036E+03  0.80487247774E+03  0.12699999809E+01 0.  1.
       -4    1    3    3    0  502  0.55258855369E+03  0.18938009899E+03  0.10465739948E+04  0.11985564947E+04  0.12699999809E+01 0. -1.
</event>
<event>
 5   0  0.6585930E-03  0.9429241E+03  0.7818609E-02  0.9373460E-01
       -2   -1    0    0    0  501  0.00000000000E+00  0.00000000000E+00  0.39217695055E+03  0.39217695055E+03  0.25500000920E-02 0. -1.
        2   -1    0    0  501    0  0.00000000000E+00  0.00000000000E+00 -0.56677590994E+03  0.56677590994E+03  0.25500000920E-02 0.  1.
    10030    2    1    2    0    0  0.00000000000E+00  0.00000000000E+00 -0.17459895939E+03  0.95895286050E+03  0.94292406483E+03 0.  0.
        2    1    3    3  502    0  0.38198043580E+03  0.63243517081E+02 -0.36088479373E+03  0.52928879653E+03  0.25500000920E-02 0.  1.
       -2    1    3    3    0  502 -0.38198043580E+03 -0.63243517081E+02  0.18628583433E+03  0.42966406397E+03  0.25500000920E-02 0. -1.
</event>
<event>
 5   0  0.6585930E-03  0.1176521E+04  0.7818609E-02  0.9133660E-01
        2   -1    0    0  501    0  0.00000000000E+00  0.00000000000E+00  0.10329016155E+04  0.10329016155E+04  0.25500000920E-02 0. -1.
       -2   -1    0    0    0  501  0.00000000000E+00  0.00000000000E+00 -0.33502740545E+03  0.33502740545E+03  0.25500000920E-02 0.  1.
    10030    2    1    2    0    0  0.00000000000E+00  0.00000000000E+00  0.69787421007E+03  0.13679290210E+04  0.11765208852E+04 0.  0.
        2    1    3    3  502    0  0.12224943108E+03 -0.15021175739E+03  0.99477119298E+03  0.10134486775E+04  0.25500000920E-02 0. -1.
       -2    1    3    3    0  502 -0.12224943108E+03  0.15021175739E+03 -0.29689698292E+03  0.35448034350E+03  0.25500000920E-02 0.  1.
</event>
<event>
 5   0  0.6658994E-03  0.1190062E+04  0.7818609E-02  0.9121600E-01
       -2   -1    0    0    0  501  0.00000000000E+00  0.00000000000E+00  0.16877337083E+04  0.16877337083E+04  0.25500000920E-02 0.  1.
        2   -1    0    0  501    0  0.00000000000E+00  0.00000000000E+00 -0.20978540550E+03  0.20978540552E+03  0.25500000920E-02 0. -1.
    10030    2    1    2    0    0  0.00000000000E+00  0.00000000000E+00  0.14779483028E+04  0.18975191138E+04  0.11900620159E+04 0.  0.
        4    1    3    3  502    0 -0.53454685452E+03  0.38307381395E+02  0.11512381081E+04  0.12698655793E+04  0.12699999809E+01 0.  1.
       -4    1    3    3    0  502  0.53454685452E+03 -0.38307381395E+02  0.32671019473E+03  0.62765353452E+03  0.12699999809E+01 0. -1.
</event>
<event>
 5   0  0.6640844E-03  0.1192549E+04  0.7818609E-02  0.9119403E-01
       -2   -1    0    0    0  501  0.00000000000E+00  0.00000000000E+00  0.51203910952E+03  0.51203910953E+03  0.25500000920E-02 0.  1.
        2   -1    0    0  501    0  0.00000000000E+00  0.00000000000E+00 -0.69436799878E+03  0.69436799878E+03  0.25500000920E-02 0. -1.
    10030    2    1    2    0    0  0.00000000000E+00  0.00000000000E+00 -0.18232888926E+03  0.12064071083E+04  0.11925494904E+04 0.  0.
        5    1    3    3  502    0  0.77443993505E+02  0.26554634868E+03 -0.62551543498E+03  0.68396204925E+03  0.46999998093E+01 0. -1.
       -5    1    3    3    0  502 -0.77443993505E+02 -0.26554634868E+03  0.44318654572E+03  0.52244505906E+03  0.46999998093E+01 0.  1.
</event>
<event>
 5   0  0.6585930E-03  0.1191673E+04  0.7818609E-02  0.9120177E-01
        2   -1    0    0  501    0  0.00000000000E+00  0.00000000000E+00  0.64475284337E+03  0.64475284337E+03  0.25500000920E-02 0. -1.
       -2   -1    0    0    0  501  0.00000000000E+00  0.00000000000E+00 -0.55063136723E+03  0.55063136723E+03  0.25500000920E-02 0.  1.
    10030    2    1    2    0    0  0.00000000000E+00  0.00000000000E+00  0.94121476142E+02  0.11953842106E+04  0.11916730083E+04 0.  0.
        2    1    3    3  502    0 -0.37540726747E+03  0.74448867150E+02  0.50515337574E+03  0.63376114058E+03  0.25500000920E-02 0. -1.
       -2    1    3    3    0  502  0.37540726747E+03 -0.74448867150E+02 -0.41103189960E+03  0.56162307002E+03  0.25500000920E-02 0.  1.
</event>
<event>
 5   0  0.6349142E-03  0.1194306E+04  0.7818609E-02  0.9117855E-01
       -2   -1    0    0    0  501  0.00000000000E+00  0.00000000000E+00  0.60369926603E+03  0.60369926603E+03  0.25500000920E-02 0. -1.
        2   -1    0    0  501    0  0.00000000000E+00  0.00000000000E+00 -0.59067818492E+03  0.59067818492E+03  0.25500000920E-02 0.  1.
    10030    2    1    2    0    0  0.00000000000E+00  0.00000000000E+00  0.13021081113E+02  0.11943774510E+04  0.11943064711E+04 0.  0.
        1    1    3    3  502    0 -0.53880081794E+03  0.29624186053E+02  0.26227576053E+03  0.59997707323E+03  0.50400001928E-02 0. -1.
       -1    1    3    3    0  502  0.53880081794E+03 -0.29624186053E+02 -0.24925467941E+03  0.59440037773E+03  0.50400001928E-02 0.  1.
</event>
<event>
 5   0  0.6658994E-03  0.1216736E+04  0.7818609E-02  0.9098332E-01
       -2   -1    0    0    0  501  0.00000000000E+00  0.00000000000E+00  0.25885386459E+03  0.25885386461E+03  0.25500000920E-02 0.  1.
        2   -1    0    0  501    0  0.00000000000E+00  0.00000000000E+00 -0.14298094088E+04  0.14298094088E+04  0.25500000920E-02 0. -1.
    10030    2    1    2    0    0  0.00000000000E+00  0.00000000000E+00 -0.11709555442E+04  0.16886632734E+04  0.12167361113E+04 0.  0.
        4    1    3    3  502    0  0.33063271726E+03 -0.35736207143E+02 -0.12924915868E+04  0.13345902686E+04  0.12699999809E+01 0. -1.
       -4    1    3    3    0  502 -0.33063271726E+03  0.35736207143E+02  0.12153604254E+03  0.35407300485E+03  0.12699999809E+01 0.  1.
</event>
<event>
 5   0  0.6658994E-03  0.1202339E+04  0.7818609E-02  0.9110811E-01
       -2   -1    0    0    0  501  0.00000000000E+00  0.00000000000E+00  0.30944677887E+03  0.30944677888E+03  0.25500000920E-02 0. -1.
        2   -1    0    0  501    0  0.00000000000E+00  0.00000000000E+00 -0.11679069857E+04  0.11679069857E+04  0.25500000920E-02 0.  1.
    10030    2    1    2    0    0  0.00000000000E+00  0.00000000000E+00 -0.85846020679E+03  0.14773537645E+04  0.12023394774E+04 0.  0.
        4    1    3    3  502    0  0.23042230665E+03  0.56330103380E+02 -0.11079710739E+04  0.11330794471E+04  0.12699999809E+01 0.  1.
       -4    1    3    3    0  502 -0.23042230665E+03 -0.56330103380E+02  0.24951086710E+03  0.34427431745E+03  0.12699999809E+01 0. -1.
</event>
<event>
 5   0  0.6640844E-03  0.1184306E+04  0.7818609E-02  0.9126706E-01
        2   -1    0    0  501    0  0.00000000000E+00  0.00000000000E+00  0.55091068255E+03  0.55091068255E+03  0.25500000920E-02 0. -1.
       -2   -1    0    0    0  501  0.00000000000E+00  0.00000000000E+00 -0.63648249050E+03  0.63648249051E+03  0.25500000920E-02 0.  1.
    10030    2    1    2    0    0  0.00000000000E+00  0.00000000000E+00 -0.85571807957E+02  0.11873931731E+04  0.11843057093E+04 0.  0.
        5    1    3    3  502    0 -0.10843957482E+03  0.45623212909E+03 -0.40527514974E+03  0.61982008196E+03  0.46999998093E+01 0.  1.
       -5    1    3    3    0  502  0.10843957482E+03 -0.45623212909E+03  0.31970334178E+03  0.56757309110E+03  0.46999998093E+01 0. -1.
</event>
<event>
 5   0  0.3648616E-03  0.9030827E+03  0.7818609E-02  0.9421736E-01
        1   -1    0    0  501    0  0.00000000000E+00  0.00000000000E+00  0.11474152125E+04  0.11474152125E+04  0.50400001928E-02 0. -1.
       -1   -1    0    0    0  501  0.00000000000E+00  0.00000000000E+00 -0.17769468477E+03  0.17769468484E+03  0.50400001928E-02 0.  1.
    10030    2    1    2    0    0  0.00000000000E+00  0.00000000000E+00  0.96972052772E+03  0.13251098973E+04  0.90308268621E+03 0.  0.
        2    1    3    3  502    0  0.18150246905E+03  0.26578598906E+03  0.94957242852E+03  0.10026331010E+04  0.25500000920E-02 0. -1.
       -2    1    3    3    0  502 -0.18150246905E+03 -0.26578598906E+03  0.20148099197E+02  0.32247679631E+03  0.25500000920E-02 0.  1.
</event>
<event>
 5   0  0.6640844E-03  0.1198510E+04  0.7818609E-02  0.9114162E-01
       -2   -1    0    0    0  501  0.00000000000E+00  0.00000000000E+00  0.42921955918E+03  0.42921955919E+03  0.25500000920E-02 0. -1.
        2   -1    0    0  501    0  0.00000000000E+00  0.00000000000E+00 -0.83665015547E+03  0.83665015547E+03  0.25500000920E-02 0.  1.
    10030    2    1    2    0    0  0.00000000000E+00  0.00000000000E+00 -0.40743059629E+03  0.12658697147E+04  0.11985100933E+04 0.  0.
        5    1    3    3  502    0 -0.27615297975E+03  0.36329797976E+03 -0.61392280559E+03  0.76496352302E+03  0.46999998093E+01 0.  1.
       -5    1    3    3    0  502  0.27615297975E+03 -0.36329797976E+03  0.20649220931E+03  0.50090619164E+03  0.46999998093E+01 0. -1.
</event>
<event>
 5   0  0.6493047E-03  0.1078617E+04  0.7818609E-02  0.9226287E-01
        2   -1    0    0  501    0  0.00000000000E+00  0.00000000000E+00  0.24751735555E+04  0.24751735555E+04  0.25500000920E-02 0. -1.
       -2   -1    0    0    0  501  0.00000000000E+00  0.00000000000E+00 -0.11750848425E+03  0.11750848428E+03  0.25500000920E-02 0.  1.
    10030    2    1    2    0    0  0.00000000000E+00  0.00000000000E+00  0.23576650713E+04  0.25926820398E+04  0.10786174351E+04 0.  0.
        3    1    3    3  502    0  0.34161113369E+03  0.11779387879E+02  0.21815477724E+04  0.22081638558E+04  0.10100000352E+00 0. -1.
       -3    1    3    3    0  502 -0.34161113369E+03 -0.11779387879E+02  0.17611729882E+03  0.38451818394E+03  0.10100000352E+00 0.  1.
</event>
<event>
 5   0  0.6640844E-03  0.1268972E+04  0.7818609E-02  0.9054539E-01
       -2   -1    0    0    0  501  0.00000000000E+00  0.00000000000E+00  0.48198684038E+03  0.48198684038E+03  0.25500000920E-02 0. -1.
        2   -1    0    0  501    0  0.00000000000E+00  0.00000000000E+00 -0.83523488557E+03  0.83523488557E+03  0.25500000920E-02 0.  1.
    10030    2    1    2    0    0  0.00000000000E+00  0.00000000000E+00 -0.35324804520E+03  0.13172217260E+04  0.12689715891E+04 0.  0.
        5    1    3    3  502    0 -0.96629884115E+02  0.44486486598E+03 -0.63536449598E+03  0.78163432386E+03  0.46999998093E+01 0.  1.
       -5    1    3    3    0  502  0.96629884115E+02 -0.44486486598E+03  0.28211645079E+03  0.53558740210E+03  0.46999998093E+01 0. -1.
</event>
<event>
 5   0  0.3701879E-03  0.1228546E+04  0.7818609E-02  0.9088231E-01
       -1   -1    0    0    0  501  0.00000000000E+00  0.00000000000E+00  0.28463947836E+03  0.28463947840E+03  0.50400001928E-02 0. -1.
        1   -1    0    0  501    0  0.00000000000E+00  0.00000000000E+00 -0.13256461684E+04  0.13256461684E+04  0.50400001928E-02 0.  1.
    10030    2    1    2    0    0  0.00000000000E+00  0.00000000000E+00 -0.10410066900E+04  0.16102856468E+04  0.12285458622E+04 0.  0.
        1    1    3    3  502    0 -0.18076740903E+03 -0.12627204286E+03 -0.12719840613E+04  0.12909550485E+04  0.50400001928E-02 0.  1.
       -1    1    3    3    0  502  0.18076740903E+03  0.12627204286E+03  0.23097737125E+03  0.31933059834E+03  0.50400001928E-02 0. -1.
</event>
<event>
 5   0  0.3731281E-03  0.1213031E+04  0.7818609E-02  0.9101526E-01
        1   -1    0    0  501    0  0.00000000000E+00  0.00000000000E+00  0.12818086333E+04  0.12818086333E+04  0.50400001928E-02 0. -1.
       -1   -1    0    0    0  501  0.00000000000E+00  0.00000000000E+00 -0.28698616855E+03  0.28698616859E+03  0.50400001928E-02 0.  1.
    10030    2    1    2    0    0  0.00000000000E+00  0.00000000000E+00  0.99482246475E+03  0.15687948019E+04  0.12130314893E+04 0.  0.
        5    1    3    3  502    0  0.29344108426E+02  0.56702913481E+03  0.22167721163E+03  0.60954572640E+03  0.46999998093E+01 0. -1.
       -5    1    3    3    0  502 -0.29344108426E+02 -0.56702913481E+03  0.77314525313E+03  0.95924907550E+03  0.46999998093E+01 0.  1.
</event>
<event>
 5   0  0.3731281E-03  0.1214153E+04  0.7818609E-02  0.9100558E-01
        1   -1    0    0  501    0  0.00000000000E+00  0.00000000000E+00  0.10662524019E+04  0.10662524019E+04  0.50400001928E-02 0. -1.
       -1   -1    0    0    0  501  0.00000000000E+00  0.00000000000E+00 -0.34564212038E+03  0.34564212042E+03  0.50400001928E-02 0.  1.
    10030    2    1    2    0    0  0.00000000000E+00  0.00000000000E+00  0.72061028150E+03  0.14118945223E+04  0.12141527764E+04 0.  0.
        5    1    3    3  502    0 -0.23466279139E+03 -0.41408571784E+03  0.79848432764E+03  0.92958749931E+03  0.46999998093E+01 0. -1.
       -5    1    3    3    0  502  0.23466279139E+03  0.41408571784E+03 -0.77874046140E+02  0.48230702300E+03  0.46999998093E+01 0.  1.
</event>
<event>
 5   0  0.2537625E-03  0.1161633E+04  0.7818609E-02  0.9147118E-01
       -3   -1    0    0    0  501  0.00000000000E+00  0.00000000000E+00  0.93443839498E+03  0.93443840044E+03  0.10100000352E+00 0. -1.
        3   -1    0    0  501    0  0.00000000000E+00  0.00000000000E+00 -0.36101657713E+03  0.36101659125E+03  0.10100000352E+00 0.  1.
    10030    2    1    2    0    0  0.00000000000E+00  0.00000000000E+00  0.57342181786E+03  0.12954549917E+04  0.11616329258E+04 0.  0.
        3    1    3    3  502    0  0.27971207660E+03 -0.30732993951E+03 -0.16581536466E+03  0.44742070009E+03  0.10100000352E+00 0.  1.
       -3    1    3    3    0  502 -0.27971207660E+03  0.30732993951E+03  0.73923718252E+03  0.84803429160E+03  0.10100000352E+00 0. -1.
</event>
<event>
 5   0  0.6349142E-03  0.1198815E+04  0.7818609E-02  0.9113895E-01
        2   -1    0    0  501    0  0.00000000000E+00  0.00000000000E+00  0.16548024837E+04  0.16548024837E+04  0.25500000920E-02 0.  1.
       -2   -1    0    0    0  501  0.00000000000E+00  0.00000000000E+00 -0.21711907528E+03  0.21711907529E+03  0.25500000920E-02 0. -1.
    10030    2    1    2    0    0  0.00000000000E+00  0.00000000000E+00  0.14376834084E+04  0.18719215590E+04  0.11988147230E+04 0.  0.
        1    1    3    3  502    0 -0.54823569158E+03 -0.19672065726E+03  0.49786212541E+03  0.76624283779E+03  0.50400001928E-02 0. -1.
       -1    1    3    3    0  502  0.54823569158E+03  0.19672065726E+03  0.93982128303E+03  0.11056787212E+04  0.50400001928E-02 0.  1.
</event>
<event>
 5   0  0.6349142E-03  0.7022726E+03  0.7818609E-02  0.9713354E-01
        2   -1    0    0  501    0  0.00000000000E+00  0.00000000000E+00  0.11955212174E+04  0.11955212174E+04  0.25500000920E-02 0. -1.
       -2   -1    0    0    0  501  0.00000000000E+00  0.00000000000E+00 -0.10313218000E+03  0.10313218003E+03  0.25500000920E-02 0.  1.
    10030    2    1    2    0    0  0.00000000000E+00  0.00000000000E+00  0.10923890374E+04  0.12986533974E+04  0.70227262343E+03 0.  0.
        1    1    3    3  502    0  0.23720089580E+03  0.17156095124E+03  0.90476728947E+03  0.95094756589E+03  0.50400001928E-02 0. -1.
       -1    1    3    3    0  502 -0.23720089580E+03 -0.17156095124E+03  0.18762174790E+03  0.34770583151E+03  0.50400001928E-02 0.  1.
</event>
<event>
 5   0  0.3944074E-03  0.1166857E+04  0.7818609E-02  0.9142371E-01
        1   -1    0    0  501    0  0.00000000000E+00  0.00000000000E+00  0.14847215168E+04  0.14847215168E+04  0.50400001928E-02 0.  1.
       -1   -1    0    0    0  501  0.00000000000E+00  0.00000000000E+00 -0.22926123009E+03  0.22926123014E+03  0.50400001928E-02 0. -1.
    10030    2    1    2    0    0  0.00000000000E+00  0.00000000000E+00  0.12554602867E+04  0.17139827469E+04  0.11668574572E+04 0.  0.
        4    1    3    3  502    0 -0.19929443953E+03 -0.54662789599E+03  0.69120136594E+03  0.90348285621E+03  0.12699999809E+01 0.  1.
       -4    1    3    3    0  502  0.19929443953E+03  0.54662789599E+03  0.56425892077E+03  0.81049989073E+03  0.12699999809E+01 0. -1.
</event>
<event>
 5   0  0.6585930E-03  0.1134484E+04  0.7818609E-02  0.9172218E-01
       -2   -1    0    0    0  501  0.00000000000E+00  0.00000000000E+00  0.39488331565E+03  0.39488331566E+03  0.25500000920E-02 0.  1.
        2   -1    0    0  501    0  0.00000000000E+00  0.00000000000E+00 -0.81483146154E+03  0.81483146155E+03  0.25500000920E-02 0. -1.
    10030    2    1    2    0    0  0.00000000000E+00  0.00000000000E+00 -0.41994814589E+03  0.12097147772E+04  0.11344837579E+04 0.  0.
        2    1    3    3  502    0 -0.78825299948E+02 -0.55904226962E+03 -0.15135922378E+03  0.58450945395E+03  0.25500000920E-02 0.  1.
       -2    1    3    3    0  502  0.78825299948E+02  0.55904226962E+03 -0.26858892211E+03  0.62520532325E+03  0.25500000920E-02 0. -1.
</event>
<event>
 5   0  0.3731281E-03  0.1189608E+04  0.7818609E-02  0.9122002E-01
       -1   -1    0    0    0  501  0.00000000000E+00  0.00000000000E+00  0.37568789685E+03  0.37568789688E+03  0.50400001928E-02 0. -1.
        1   -1    0    0  501    0  0.00000000000E+00  0.00000000000E+00 -0.94171674071E+03  0.94171674072E+03  0.50400001928E-02 0.  1.
    10030    2    1    2    0    0  0.00000000000E+00  0.00000000000E+00 -0.56602884386E+03  0.13174046376E+04  0.11896076358E+04 0.  0.
        5    1    3    3  502    0  0.46146670950E+03 -0.15770751521E+03 -0.66010345841E+03  0.82072032395E+03  0.46999998093E+01 0.  1.
       -5    1    3    3    0  502 -0.46146670950E+03  0.15770751521E+03  0.94074614552E+02  0.49668431366E+03  0.46999998093E+01 0. -1.
</event>
<event>
 5   0  0.6640844E-03  0.1207101E+04  0.7818609E-02  0.9106664E-01
       -2   -1    0    0    0  501  0.00000000000E+00  0.00000000000E+00  0.98894203139E+03  0.98894203140E+03  0.25500000920E-02 0. -1.
        2   -1    0    0  501    0  0.00000000000E+00  0.00000000000E+00 -0.36834617762E+03  0.36834617763E+03  0.25500000920E-02 0.  1.
    10030    2    1    2    0    0  0.00000000000E+00  0.00000000000E+00  0.62059585377E+03  0.13572882090E+04  0.12071006870E+04 0.  0.
        5    1    3    3  502    0 -0.56878118500E+03  0.10797808533E+03  0.11855340218E+03  0.59097233648E+03  0.46999998093E+01 0.  1.
       -5    1    3    3    0  502  0.56878118500E+03 -0.10797808533E+03  0.50204245159E+03  0.76631587254E+03  0.46999998093E+01 0. -1.
</event>
<event>
 5   0  0.6640844E-03  0.1205679E+04  0.7818609E-02  0.9107900E-01
        2   -1    0    0  501    0  0.00000000000E+00  0.00000000000E+00  0.49225428207E+03  0.49225428208E+03  0.25500000920E-02 0. -1.
       -2   -1    0    0    0  501  0.00000000000E+00  0.00000000000E+00 -0.73826751000E+03  0.73826751000E+03  0.25500000920E-02 0.  1.
    10030    2    1    2    0    0  0.00000000000E+00  0.00000000000E+00 -0.24601322793E+03  0.12305217921E+04  0.12056788015E+04 0.  0.
        5    1    3    3  502    0  0.57287716329E+03  0.13410777567E+03  0.10922713426E+02  0.58848494915E+03  0.46999998093E+01 0. -1.
       -5    1    3    3    0  502 -0.57287716329E+03 -0.13410777567E+03 -0.25693594135E+03  0.64203684292E+03  0.46999998093E+01 0.  1.
</event>
<event>
 5   0  0.3701879E-03  0.1175355E+04  0.7818609E-02  0.9134706E-01
        1   -1    0    0  501    0  0.00000000000E+00  0.00000000000E+00  0.40203165837E+03  0.40203165840E+03  0.50400001928E-02 0. -1.
       -1   -1    0    0    0  501  0.00000000000E+00  0.00000000000E+00 -0.85904900147E+03  0.85904900149E+03  0.50400001928E-02 0.  1.
    10030    2    1    2    0    0  0.00000000000E+00  0.00000000000E+00 -0.45701734311E+03  0.12610806599E+04  0.11753550863E+04 0.  0.
        1    1    3    3  502    0 -0.36879279228E+03  0.19553020360E+02 -0.71898761794E+03  0.80829056596E+03  0.50400001928E-02 0.  1.
       -1    1    3    3    0  502  0.36879279228E+03 -0.19553020360E+02  0.26197027483E+03  0.45279009393E+03  0.50400001928E-02 0. -1.
</event>
<event>
 5   0  0.3944074E-03  0.1201741E+04  0.7818609E-02  0.9111334E-01
        1   -1    0    0  501    0  0.00000000000E+00  0.00000000000E+00  0.91182948529E+03  0.91182948530E+03  0.50400001928E-02 0. -1.
       -1   -1    0    0    0  501  0.00000000000E+00  0.00000000000E+00 -0.39595689773E+03  0.39595689776E+03  0.50400001928E-02 0.  1.
    10030    2    1    2    0    0  0.00000000000E+00  0.00000000000E+00  0.51587258756E+03  0.13077863831E+04  0.12017406946E+04 0.  0.
        4    1    3    3  502    0 -0.28029457816E+03 -0.52028659554E+03  0.37605141403E+03  0.70048516825E+03  0.12699999809E+01 0. -1.
       -4    1    3    3    0  502  0.28029457816E+03  0.52028659554E+03  0.13982117353E+03  0.60730121481E+03  0.12699999809E+01 0.  1.
</event>
<event>
 5   0  0.6493047E-03  0.1098484E+04  0.7818609E-02  0.9206671E-01
        2   -1    0    0  501    0  0.00000000000E+00  0.00000000000E+00  0.54496954067E+03  0.54496954068E+03  0.25500000920E-02 0. -1.
       -2   -1    0    0    0  501  0.00000000000E+00  0.00000000000E+00 -0.55354757814E+03  0.55354757815E+03  0.25500000920E-02 0.  1.
    10030    2    1    2    0    0  0.00000000000E+00  0.00000000000E+00 -0.85780374716E+01  0.10985171188E+04  0.10984836265E+04 0.  0.
        3    1    3    3  502    0 -0.13636626535E+03 -0.32433517151E+02  0.52678165962E+03  0.54511156516E+03  0.10100000352E+00 0. -1.
       -3    1    3    3    0  502  0.13636626535E+03  0.32433517151E+02 -0.53535969709E+03  0.55340555367E+03  0.10100000352E+00 0.  1.
</event>
<event>
 5   0  0.6349142E-03  0.1199395E+04  0.7818609E-02  0.9113387E-01
        2   -1    0    0  501    0  0.00000000000E+00  0.00000000000E+00  0.81841277880E+03  0.81841277881E+03  0.25500000920E-02 0.  1.
       -2   -1    0    0    0  501  0.00000000000E+00  0.00000000000E+00 -0.43943211593E+03  0.43943211594E+03  0.25500000920E-02 0. -1.
    10030    2    1    2    0    0  0.00000000000E+00  0.00000000000E+00  0.37898066287E+03  0.12578448947E+04  0.11993946125E+04 0.  0.
        1    1    3    3  502    0 -0.29473831948E+03  0.40749490086E+03 -0.15310061047E+03  0.52570197655E+03  0.50400001928E-02 0. -1.
       -1    1    3    3    0  502  0.29473831948E+03 -0.40749490086E+03  0.53208127334E+03  0.73214291819E+03  0.50400001928E-02 0.  1.
</event>
<event>
 5   0  0.6640844E-03  0.1197353E+04  0.7818609E-02  0.9115177E-01
        2   -1    0    0  501    0  0.00000000000E+00  0.00000000000E+00  0.16718613413E+04  0.16718613413E+04  0.25500000920E-02 0.  1.
       -2   -1    0    0    0  501  0.00000000000E+00  0.00000000000E+00 -0.21437999168E+03  0.21437999169E+03  0.25500000920E-02 0. -1.
    10030    2    1    2    0    0  0.00000000000E+00  0.00000000000E+00  0.14574813497E+04  0.18862413330E+04  0.11973531149E+04 0.  0.
        5    1    3    3  502    0  0.47730638076E+03 -0.29236270293E+03  0.10632708892E+04  0.12016090899E+04  0.46999998093E+01 0.  1.
       -5    1    3    3    0  502 -0.47730638076E+03  0.29236270293E+03  0.39421046046E+03  0.68463224311E+03  0.46999998093E+01 0. -1.
</event>
<event>
 5   0  0.2537625E-03  0.1165789E+04  0.7818609E-02  0.9143339E-01
       -4   -1    0    0    0  501  0.00000000000E+00  0.00000000000E+00  0.30372048407E+03  0.30372313929E+03  0.12699999809E+01 0.  1.
        4   -1    0    0  501    0  0.00000000000E+00  0.00000000000E+00 -0.11186728663E+04  0.11186735872E+04  0.12699999809E+01 0. -1.
    10030    2    1    2    0    0  0.00000000000E+00  0.00000000000E+00 -0.81495238220E+03  0.14223967265E+04  0.11657894588E+04 0.  0.
        2    1    3    3  502    0  0.63934672486E+02  0.25640767221E+03  0.22643613587E+03  0.34800267291E+03  0.25500000920E-02 0.  1.
       -2    1    3    3    0  502 -0.63934672486E+02 -0.25640767221E+03 -0.10413885181E+04  0.10743940535E+04  0.25500000920E-02 0. -1.
</event>
<event>
 5   0  0.6493047E-03  0.1299125E+04  0.7818609E-02  0.9030260E-01
        2   -1    0    0  501    0  0.00000000000E+00  0.00000000000E+00  0.14662345253E+04  0.14662345253E+04  0.25500000920E-02 0.  1.
       -2   -1    0    0    0  501  0.00000000000E+00  0.00000000000E+00 -0.28776510881E+03  0.28776510882E+03  0.25500000920E-02 0. -1.
    10030    2    1    2    0    0  0.00000000000E+00  0.00000000000E+00  0.11784694165E+04  0.17539996342E+04  0.12991245325E+04 0.  0.
        3    1    3    3  502    0  0.43621272072E+03  0.36364988510E+03  0.16354794201E+03  0.59099129959E+03  0.10100000352E+00 0. -1.
       -3    1    3    3    0  502 -0.43621272072E+03 -0.36364988510E+03  0.10149214745E+04  0.11630083346E+04  0.10100000352E+00 0.  1.
</event>
<event>
 5   0  0.6658994E-03  0.1077143E+04  0.7818609E-02  0.9227760E-01
       -2   -1    0    0    0  501  0.00000000000E+00  0.00000000000E+00  0.41585880651E+03  0.41585880652E+03  0.25500000920E-02 0. -1.
        2   -1    0    0  501    0  0.00000000000E+00  0.00000000000E+00 -0.69749489390E+03  0.69749489390E+03  0.25500000920E-02 0.  1.
    10030    2    1    2    0    0  0.00000000000E+00  0.00000000000E+00 -0.28163608738E+03  0.11133537004E+04  0.10771432479E+04 0.  0.
        4    1    3    3  502    0 -0.30719678589E+03  0.44208225237E+03 -0.12443600776E+03  0.55253281898E+03  0.12699999809E+01 0. -1.
       -4    1    3    3    0  502  0.30719678589E+03 -0.44208225237E+03 -0.15720007962E+03  0.56082088144E+03  0.12699999809E+01 0.  1.
</event>
<event>
 5   0  0.3731281E-03  0.1110404E+04  0.7818609E-02  0.9195110E-01
       -1   -1    0    0    0  501  0.00000000000E+00  0.00000000000E+00  0.49531094921E+03  0.49531094923E+03  0.50400001928E-02 0.  1.
        1   -1    0    0  501    0  0.00000000000E+00  0.00000000000E+00 -0.62233533413E+03  0.62233533415E+03  0.50400001928E-02 0. -1.
    10030    2    1    2    0    0  0.00000000000E+00  0.00000000000E+00 -0.12702438493E+03  0.11176462834E+04  0.11104044400E+04 0.  0.
        5    1    3    3  502    0  0.33869364146E+03  0.21779604963E+03 -0.44820755682E+03  0.60254510701E+03  0.46999998093E+01 0. -1.
       -5    1    3    3    0  502 -0.33869364146E+03 -0.21779604963E+03  0.32118317189E+03  0.51510117637E+03  0.46999998093E+01 0.  1.
</event>
<event>
 5   0  0.6493047E-03  0.1157315E+04  0.7818609E-02  0.9151062E-01
        2   -1    0    0  501    0  0.00000000000E+00  0.00000000000E+00  0.86261292421E+03  0.86261292421E+03  0.25500000920E-02 0.  1.
       -2   -1    0    0    0  501  0.00000000000E+00  0.00000000000E+00 -0.38817462933E+03  0.38817462934E+03  0.25500000920E-02 0. -1.
    10030    2    1    2    0    0  0.00000000000E+00  0.00000000000E+00  0.47443829488E+03  0.12507875536E+04  0.11573149133E+04 0.  0.
        3    1    3    3  502    0  0.16596120095E+02  0.17767422914E+03 -0.35769451893E+03  0.39973609041E+03  0.10100000352E+00 0. -1.
       -3    1    3    3    0  502 -0.16596120095E+02 -0.17767422914E+03  0.83213281381E+03  0.85105146314E+03  0.10100000352E+00 0.  1.
</event>
<event>
 5   0  0.6658994E-03  0.1209225E+04  0.7818609E-02  0.9104820E-01
        2   -1    0    0  501    0  0.00000000000E+00  0.00000000000E+00  0.75566522607E+03  0.75566522608E+03  0.25500000920E-02 0. -1.
       -2   -1    0    0    0  501  0.00000000000E+00  0.00000000000E+00 -0.48375391191E+03  0.48375391192E+03  0.25500000920E-02 0.  1.
    10030    2    1    2    0    0  0.00000000000E+00  0.00000000000E+00  0.27191131416E+03  0.12394191380E+04  0.12092245601E+04 0.  0.
        4    1    3    3  502    0  0.57929202337E+03 -0.16099150886E+03  0.20123975823E+03  0.63403199246E+03  0.12699999809E+01 0. -1.
       -4    1    3    3    0  502 -0.57929202337E+03  0.16099150886E+03  0.70671555936E+02  0.60538714554E+03  0.12699999809E+01 0.  1.
</event>
<event>
 5   0  0.6349142E-03  0.1212864E+04  0.7818609E-02  0.9101671E-01
        2   -1    0    0  501    0  0.00000000000E+00  0.00000000000E+00  0.53676664826E+03  0.53676664827E+03  0.25500000920E-02 0.  1.
       -2   -1    0    0    0  501  0.00000000000E+00  0.00000000000E+00 -0.68513892096E+03  0.68513892097E+03  0.25500000920E-02 0. -1.
    10030    2    1    2    0    0  0.00000000000E+00  0.00000000000E+00 -0.14837227270E+03  0.12219055692E+04  0.12128639202E+04 0.  0.
        1    1    3    3  502    0 -0.28607689629E+03  0.37127778215E+03  0.31348443156E+03  0.56387912797E+03  0.50400001928E-02 0.  1.
       -1    1    3    3    0  502  0.28607689629E+03 -0.37127778215E+03 -0.46185670426E+03  0.65802644126E+03  0.50400001928E-02 0. -1.
</event>
<event>
 5   0  0.3944074E-03  0.1226472E+04  0.7818609E-02  0.9089996E-01
       -1   -1    0    0    0  501  0.00000000000E+00  0.00000000000E+00  0.42211058977E+03  0.42211058980E+03  0.50400001928E-02 0. -1.
        1   -1    0    0  501    0  0.00000000000E+00  0.00000000000E+00 -0.89089993253E+03  0.89089993254E+03  0.50400001928E-02 0.  1.
    10030    2    1    2    0    0  0.00000000000E+00  0.00000000000E+00 -0.46878934276E+03  0.13130105223E+04  0.12264718439E+04 0.  0.
        4    1    3    3  502    0 -0.30450167494E+03 -0.37480813295E+02  0.33404153581E+03  0.45355423265E+03  0.12699999809E+01 0. -1.
       -4    1    3    3    0  502  0.30450167494E+03  0.37480813295E+02 -0.80283087857E+03  0.85945628969E+03  0.12699999809E+01 0.  1.
</event>
<event>
 5   0  0.6493047E-03  0.1201763E+04  0.7818609E-02  0.9111315E-01
        2   -1    0    0  501    0  0.00000000000E+00  0.00000000000E+00  0.47981732785E+03  0.47981732786E+03  0.25500000920E-02 0.  1.
       -2   -1    0    0    0  501  0.00000000000E+00  0.00000000000E+00 -0.75249165350E+03  0.75249165350E+03  0.25500000920E-02 0. -1.
    10030    2    1    2    0    0  0.00000000000E+00  0.00000000000E+00 -0.27267432564E+03  0.12323089814E+04  0.12017629291E+04 0.  0.
        3    1    3    3  502    0  0.51098149883E+03 -0.22699026456E+03 -0.36200327571E+03  0.66608787272E+03  0.10100000352E+00 0. -1.
       -3    1    3    3    0  502 -0.51098149883E+03  0.22699026456E+03  0.89328950062E+02  0.56622110865E+03  0.10100000352E+00 0.  1.
</event>
<event>
 5   0  0.6640844E-03  0.1184539E+04  0.7818609E-02  0.9126498E-01
        2   -1    0    0  501    0  0.00000000000E+00  0.00000000000E+00  0.57509161961E+03  0.57509161961E+03  0.25500000920E-02 0. -1.
       -2   -1    0    0    0  501  0.00000000000E+00  0.00000000000E+00 -0.60996027018E+03  0.60996027018E+03  0.25500000920E-02 0.  1.
    10030    2    1    2    0    0  0.00000000000E+00  0.00000000000E+00 -0.34868650569E+02  0.11850518898E+04  0.11845387958E+04 0.  0.
        5    1    3    3  502    0  0.19000021956E+02  0.21395900233E+03  0.53473000768E+03  0.57627920891E+03  0.46999998093E+01 0. -1.
       -5    1    3    3    0  502 -0.19000021956E+02 -0.21395900233E+03 -0.56959865825E+03  0.60877268088E+03  0.46999998093E+01 0.  1.
</event>
<event>
 5   0  0.3772254E-03  0.1097393E+04  0.7818609E-02  0.9207737E-01
        1   -1    0    0  501    0  0.00000000000E+00  0.00000000000E+00  0.51334700281E+03  0.51334700284E+03  0.50400001928E-02 0. -1.
       -1   -1    0    0    0  501  0.00000000000E+00  0.00000000000E+00 -0.58647987798E+03  0.58647987800E+03  0.50400001928E-02 0.  1.
    10030    2    1    2    0    0  0.00000000000E+00  0.00000000000E+00 -0.73132875173E+02  0.10998268808E+04  0.10973927056E+04 0.  0.
        3    1    3    3  502    0 -0.27591974938E+03  0.14289607072E+03  0.41667189209E+03  0.51977540437E+03  0.10100000352E+00 0. -1.
       -3    1    3    3    0  502  0.27591974938E+03 -0.14289607072E+03 -0.48980476726E+03  0.58005147647E+03  0.10100000352E+00 0.  1.
</event>
<event>
 5   0  0.2537625E-03  0.1186279E+04  0.7818609E-02  0.9124952E-01
       -3   -1    0    0    0  501  0.00000000000E+00  0.00000000000E+00  0.62721405962E+03  0.62721406775E+03  0.10100000352E+00 0. -1.
        3   -1    0    0  501    0  0.00000000000E+00  0.00000000000E+00 -0.56091585391E+03  0.56091586300E+03  0.10100000352E+00 0.  1.
    10030    2    1    2    0    0  0.00000000000E+00  0.00000000000E+00  0.66298205710E+02  0.11881299308E+04  0.11862787532E+04 0.  0.
        1    1    3    3  502    0  0.27779033334E+03 -0.12533751629E+03  0.54280205070E+03  0.62250383818E+03  0.50400001928E-02 0. -1.
       -1    1    3    3    0  502 -0.27779033334E+03  0.12533751629E+03 -0.47650384499E+03  0.56562609257E+03  0.50400001928E-02 0.  1.
</event>
<event>
 5   0  0.3944074E-03  0.1208169E+04  0.7818609E-02  0.9105736E-01
       -1   -1    0    0    0  501  0.00000000000E+00  0.00000000000E+00  0.25507454859E+03  0.25507454864E+03  0.50400001928E-02 0.  1.
        1   -1    0    0  501    0  0.00000000000E+00  0.00000000000E+00 -0.14306331683E+04  0.14306331684E+04  0.50400001928E-02 0. -1.
    10030    2    1    2    0    0  0.00000000000E+00  0.00000000000E+00 -0.11755586198E+04  0.16857077170E+04  0.12081690439E+04 0.  0.
        4    1    3    3  502    0 -0.55876525204E+03 -0.19302146672E+03 -0.76115440133E+03  0.96376009933E+03  0.12699999809E+01 0. -1.
       -4    1    3    3    0  502  0.55876525204E+03  0.19302146672E+03 -0.41440421842E+03  0.72194761766E+03  0.12699999809E+01 0.  1.
</event>
<event>
 5   0  0.6658994E-03  0.1031913E+04  0.7818609E-02  0.9274219E-01
       -2   -1    0    0    0  501  0.00000000000E+00  0.00000000000E+00  0.22454552805E+03  0.22454552806E+03  0.25500000920E-02 0. -1.
        2   -1    0    0  501    0  0.00000000000E+00  0.00000000000E+00 -0.11855551718E+04  0.11855551718E+04  0.25500000920E-02 0.  1.
    10030    2    1    2    0    0  0.00000000000E+00  0.00000000000E+00 -0.96100964373E+03  0.14101006998E+04  0.10319130043E+04 0.  0.
        4    1    3    3  502    0 -0.23683768109E+03  0.12943538318E+03  0.12038484234E+03  0.29553295716E+03  0.12699999809E+01 0. -1.
       -4    1    3    3    0  502  0.23683768109E+03 -0.12943538318E+03 -0.10813944861E+04  0.11145677427E+04  0.12699999809E+01 0.  1.
</event>
<event>
 5   0  0.3772254E-03  0.1182545E+04  0.7818609E-02  0.9128274E-01
       -1   -1    0    0    0  501  0.00000000000E+00  0.00000000000E+00  0.82770465233E+03  0.82770465235E+03  0.50400001928E-02 0. -1.
        1   -1    0    0  501    0  0.00000000000E+00  0.00000000000E+00 -0.42237656135E+03  0.42237656138E+03  0.50400001928E-02 0.  1.
    10030    2    1    2    0    0  0.00000000000E+00  0.00000000000E+00  0.40532809098E+03  0.12500812137E+04  0.11825447897E+04 0.  0.
        3    1    3    3  502    0 -0.64913710038E+02  0.44903487421E+03 -0.19814269771E+03  0.49508246471E+03  0.10100000352E+00 0.  1.
       -3    1    3    3    0  502  0.64913710038E+02 -0.44903487421E+03  0.60347078869E+03  0.75499874902E+03  0.10100000352E+00 0. -1.
</event>
<event>
 5   0  0.6640844E-03  0.1181068E+04  0.7818609E-02  0.9129591E-01
       -2   -1    0    0    0  501  0.00000000000E+00  0.00000000000E+00  0.36356816030E+03  0.36356816031E+03  0.25500000920E-02 0. -1.
        2   -1    0    0  501    0  0.00000000000E+00  0.00000000000E+00 -0.95918830451E+03  0.95918830452E+03  0.25500000920E-02 0.  1.
    10030    2    1    2    0    0  0.00000000000E+00  0.00000000000E+00 -0.59562014421E+03  0.13227564648E+04  0.11810678681E+04 0.  0.
        5    1    3    3  502    0 -0.56567970757E+03  0.16919965024E+03 -0.30820732301E+03  0.66605998015E+03  0.46999998093E+01 0. -1.
       -5    1    3    3    0  502  0.56567970757E+03 -0.16919965024E+03 -0.28741282120E+03  0.65669648468E+03  0.46999998093E+01 0.  1.
</event>
<event>
 5   0  0.6585930E-03  0.1273191E+04  0.7818609E-02  0.9051099E-01
       -2   -1    0    0    0  501  0.00000000000E+00  0.00000000000E+00  0.12481412200E+04  0.12481412200E+04  0.25500000920E-02 0. -1.
        2   -1    0    0  501    0  0.00000000000E+00  0.00000000000E+00 -0.32468593563E+03  0.32468593564E+03  0.25500000920E-02 0.  1.
    10030    2    1    2    0    0  0.00000000000E+00  0.00000000000E+00  0.92345528433E+03  0.15728271556E+04  0.12731911087E+04 0.  0.
        2    1    3    3  502    0 -0.33989616956E+03 -0.12933183246E+03  0.11071841028E+04  0.11653809534E+04  0.25500000920E-02 0. -1.
       -2    1    3    3    0  502  0.33989616956E+03  0.12933183246E+03 -0.18372881847E+03  0.40744620223E+03  0.25500000920E-02 0.  1.
</event>
<event>
 5   0  0.6640844E-03  0.1207958E+04  0.7818609E-02  0.9105920E-01
        2   -1    0    0  501    0  0.00000000000E+00  0.00000000000E+00  0.37888464024E+03  0.37888464025E+03  0.25500000920E-02 0. -1.
       -2   -1    0    0    0  501  0.00000000000E+00  0.00000000000E+00 -0.96280092591E+03  0.96280092591E+03  0.25500000920E-02 0.  1.
    10030    2    1    2    0    0  0.00000000000E+00  0.00000000000E+00 -0.58391628567E+03  0.13416855662E+04  0.12079577516E+04 0.  0.
        5    1    3    3  502    0  0.17419147663E+03 -0.34526584773E+03 -0.80723128662E+03  0.89509531125E+03  0.46999998093E+01 0.  1.
       -5    1    3    3    0  502 -0.17419147663E+03  0.34526584773E+03  0.22331500094E+03  0.44659025491E+03  0.46999998093E+01 0. -1.
</event>
<event>
 5   0  0.3772254E-03  0.1206798E+04  0.7818609E-02  0.9106927E-01
        1   -1    0    0  501    0  0.00000000000E+00  0.00000000000E+00  0.11865686974E+04  0.11865686974E+04  0.50400001928E-02 0.  1.
       -1   -1    0    0    0  501  0.00000000000E+00  0.00000000000E+00 -0.30684288854E+03  0.30684288858E+03  0.50400001928E-02 0. -1.
    10030    2    1    2    0    0  0.00000000000E+00  0.00000000000E+00  0.87972580886E+03  0.14934115860E+04  0.12067976907E+04 0.  0.
        3    1    3    3  502    0 -0.24932112728E+03  0.53293049180E+03  0.60549482262E+03  0.84427479177E+03  0.10100000352E+00 0.  1.
       -3    1    3    3    0  502  0.24932112728E+03 -0.53293049180E+03  0.27423098625E+03  0.64913679422E+03  0.10100000352E+00 0. -1.
</event>
<event>
 5   0  0.3648616E-03  0.1183419E+04  0.7818609E-02  0.9127495E-01
        1   -1    0    0  501    0  0.00000000000E+00  0.00000000000E+00  0.34852152353E+03  0.34852152356E+03  0.50400001928E-02 0.  1.
       -1   -1    0    0    0  501  0.00000000000E+00  0.00000000000E+00 -0.10045863406E+04  0.10045863406E+04  0.50400001928E-02 0. -1.
    10030    2    1    2    0    0  0.00000000000E+00  0.00000000000E+00 -0.65606481708E+03  0.13531078642E+04  0.11834187120E+04 0.  0.
        2    1    3    3  502    0  0.35681376855E+03  0.40177446737E+03 -0.61130958251E+03  0.81390306163E+03  0.25500000920E-02 0. -1.
       -2    1    3    3    0  502 -0.35681376855E+03 -0.40177446737E+03 -0.44755234567E+02  0.53920480255E+03  0.25500000920E-02 0.  1.
</event>
<event>
 5   0  0.6493047E-03  0.1211930E+04  0.7818609E-02  0.9102478E-01
        2   -1    0    0  501    0  0.00000000000E+00  0.00000000000E+00  0.92088942719E+03  0.92088942719E+03  0.25500000920E-02 0. -1.
       -2   -1    0    0    0  501  0.00000000000E+00  0.00000000000E+00 -0.39873801547E+03  0.39873801548E+03  0.25500000920E-02 0.  1.
    10030    2    1    2    0    0  0.00000000000E+00  0.00000000000E+00  0.52215141172E+03  0.13196274427E+04  0.12119300684E+04 0.  0.
        3    1    3    3  502    0  0.56384416400E+03 -0.24354259954E+02  0.20833039870E+02  0.56475428021E+03  0.10100000352E+00 0.  1.
       -3    1    3    3    0  502 -0.56384416400E+03  0.24354259954E+02  0.50131837185E+03  0.75487316246E+03  0.10100000352E+00 0. -1.
</event>
<event>
 5   0  0.3648616E-03  0.1207844E+04  0.7818609E-02  0.9106018E-01
        1   -1    0    0  501    0  0.00000000000E+00  0.00000000000E+00  0.73600997388E+03  0.73600997389E+03  0.50400001928E-02 0. -1.
       -1   -1    0    0    0  501  0.00000000000E+00  0.00000000000E+00 -0.49553914324E+03  0.49553914326E+03  0.50400001928E-02 0.  1.
    10030    2    1    2    0    0  0.00000000000E+00  0.00000000000E+00  0.24047083064E+03  0.12315491172E+04  0.12078439500E+04 0.  0.
        2    1    3    3  502    0 -0.42301368880E+03 -0.35463543862E+03  0.37002272348E+03  0.66454773428E+03  0.25500000920E-02 0. -1.
       -2    1    3    3    0  502  0.42301368880E+03  0.35463543862E+03 -0.12955189284E+03  0.56700138288E+03  0.25500000920E-02 0.  1.
</event>
<event>
 5   0  0.6658994E-03  0.1184455E+04  0.7818609E-02  0.9126573E-01
        2   -1    0    0  501    0  0.00000000000E+00  0.00000000000E+00  0.16308936617E+03  0.16308936619E+03  0.25500000920E-02 0. -1.
       -2   -1    0    0    0  501  0.00000000000E+00  0.00000000000E+00 -0.21505586869E+04  0.21505586869E+04  0.25500000920E-02 0.  1.
    10030    2    1    2    0    0  0.00000000000E+00  0.00000000000E+00 -0.19874693207E+04  0.23136480531E+04  0.11844547322E+04 0.  0.
        4    1    3    3  502    0 -0.41133058867E+03 -0.29269051484E+03 -0.15985496825E+04  0.16763720622E+04  0.12699999809E+01 0.  1.
       -4    1    3    3    0  502  0.41133058867E+03  0.29269051484E+03 -0.38891963822E+03  0.63727599087E+03  0.12699999809E+01 0. -1.
</event>
<event>
 5   0  0.3944074E-03  0.1196447E+04  0.7818609E-02  0.9115972E-01
        1   -1    0    0  501    0  0.00000000000E+00  0.00000000000E+00  0.99796751677E+03  0.99796751679E+03  0.50400001928E-02 0.  1.
       -1   -1    0    0    0  501  0.00000000000E+00  0.00000000000E+00 -0.35860023090E+03  0.35860023093E+03  0.50400001928E-02 0. -1.
    10030    2    1    2    0    0  0.00000000000E+00  0.00000000000E+00  0.63936728588E+03  0.13565677477E+04  0.11964470435E+04 0.  0.
        4    1    3    3  502    0 -0.47302962122E+02 -0.79345715070E+02  0.98983046418E+03  0.99413242249E+03  0.12699999809E+01 0.  1.
       -4    1    3    3    0  502  0.47302962122E+02  0.79345715070E+02 -0.35046317830E+03  0.36243532523E+03  0.12699999809E+01 0. -1.
</event>
<event>
 5   0  0.3701879E-03  0.1181025E+04  0.7818609E-02  0.9129629E-01
       -1   -1    0    0    0  501  0.00000000000E+00  0.00000000000E+00  0.44880378436E+03  0.44880378439E+03  0.50400001928E-02 0. -1.
        1   -1    0    0  501    0  0.00000000000E+00  0.00000000000E+00 -0.77696538720E+03  0.77696538722E+03  0.50400001928E-02 0.  1.
    10030    2    1    2    0    0  0.00000000000E+00  0.00000000000E+00 -0.32816160284E+03  0.12257691716E+04  0.11810249889E+04 0.  0.
        1    1    3    3  502    0  0.40648992059E+03 -0.16362554242E+03  0.24676686548E+03  0.50289289078E+03  0.50400001928E-02 0. -1.
       -1    1    3    3    0  502 -0.40648992059E+03  0.16362554242E+03 -0.57492846832E+03  0.72287628083E+03  0.50400001928E-02 0.  1.
</event>
<event>
 5   0  0.3731281E-03  0.1073740E+04  0.7818609E-02  0.9231171E-01
        1   -1    0    0  501    0  0.00000000000E+00  0.00000000000E+00  0.11804210053E+04  0.11804210053E+04  0.50400001928E-02 0.  1.
       -1   -1    0    0    0  501  0.00000000000E+00  0.00000000000E+00 -0.24417518768E+03  0.24417518773E+03  0.50400001928E-02 0. -1.
    10030    2    1    2    0    0  0.00000000000E+00  0.00000000000E+00  0.93624581757E+03  0.14245961930E+04  0.10737402303E+04 0.  0.
        5    1    3    3  502    0 -0.24247765797E+03  0.25127959538E+03  0.10091266409E+04  0.10678462048E+04  0.46999998093E+01 0.  1.
       -5    1    3    3    0  502  0.24247765797E+03 -0.25127959538E+03 -0.72880823356E+02  0.35674998820E+03  0.46999998093E+01 0. -1.
</event>
<event>
 5   0  0.3772254E-03  0.1189948E+04  0.7818609E-02  0.9121700E-01
        1   -1    0    0  501    0  0.00000000000E+00  0.00000000000E+00  0.10241184018E+04  0.10241184018E+04  0.50400001928E-02 0. -1.
       -1   -1    0    0    0  501  0.00000000000E+00  0.00000000000E+00 -0.34565763569E+03  0.34565763572E+03  0.50400001928E-02 0.  1.
    10030    2    1    2    0    0  0.00000000000E+00  0.00000000000E+00  0.67846076612E+03  0.13697760375E+04  0.11899484787E+04 0.  0.
        3    1    3    3  502    0  0.16070996277E+03 -0.54113201223E+03  0.55563763599E+03  0.79207622078E+03  0.10100000352E+00 0.  1.
       -3    1    3    3    0  502 -0.16070996277E+03  0.54113201223E+03  0.12282313014E+03  0.57769981677E+03  0.10100000352E+00 0. -1.
</event>
<event>
 5   0  0.6585930E-03  0.1256305E+04  0.7818609E-02  0.9064952E-01
       -2   -1    0    0    0  501  0.00000000000E+00  0.00000000000E+00  0.60453886804E+03  0.60453886805E+03  0.25500000920E-02 0.  1.
        2   -1    0    0  501    0  0.00000000000E+00  0.00000000000E+00 -0.65268817418E+03  0.65268817419E+03  0.25500000920E-02 0. -1.
    10030    2    1    2    0    0  0.00000000000E+00  0.00000000000E+00 -0.48149306140E+02  0.12572270422E+04  0.12563046924E+04 0.  0.
        2    1    3    3  502    0  0.23953225741E+03 -0.42842404423E+03  0.36819847251E+03  0.61359023719E+03  0.25500000920E-02 0.  1.
       -2    1    3    3    0  502 -0.23953225741E+03  0.42842404423E+03 -0.41634777865E+03  0.64363680504E+03  0.25500000920E-02 0. -1.
</event>
<event>
 5   0  0.3944074E-03  0.1186328E+04  0.7818609E-02  0.9124908E-01
       -1   -1    0    0    0  501  0.00000000000E+00  0.00000000000E+00  0.53140926532E+03  0.53140926535E+03  0.50400001928E-02 0.  1.
        1   -1    0    0  501    0  0.00000000000E+00  0.00000000000E+00 -0.66209543003E+03  0.66209543005E+03  0.50400001928E-02 0. -1.
    10030    2    1    2    0    0  0.00000000000E+00  0.00000000000E+00 -0.13068616471E+03  0.11935046954E+04  0.11863281942E+04 0.  0.
        4    1    3    3  502    0 -0.32547755842E+03 -0.46486337471E+03  0.10835253779E+03  0.57773305560E+03  0.12699999809E+01 0. -1.
       -4    1    3    3    0  502  0.32547755842E+03  0.46486337471E+03 -0.23903870250E+03  0.61577163980E+03  0.12699999809E+01 0.  1.
</event>
<event>
 5   0  0.6493047E-03  0.1239392E+04  0.7818609E-02  0.9079059E-01
       -2   -1    0    0    0  501  0.00000000000E+00  0.00000000000E+00  0.12932999070E+03  0.12932999073E+03  0.25500000920E-02 0. -1.
        2   -1    0    0  501    0  0.00000000000E+00  0.00000000000E+00 -0.29693262577E+04  0.29693262577E+04  0.25500000920E-02 0.  1.
    10030    2    1    2    0    0  0.00000000000E+00  0.00000000000E+00 -0.28399962670E+04  0.30986562484E+04  0.12393916852E+04 0.  0.
        3    1    3    3  502    0 -0.47972916716E+03  0.33891234893E+02 -0.23970846551E+04  0.24448524585E+04  0.10100000352E+00 0.  1.
       -3    1    3    3    0  502  0.47972916716E+03 -0.33891234893E+02 -0.44291161183E+03  0.65380378992E+03  0.10100000352E+00 0. -1.
</event>
<event>
 5   0  0.2537625E-03  0.1216174E+04  0.7818609E-02  0.9098816E-01
       -3   -1    0    0    0  501  0.00000000000E+00  0.00000000000E+00  0.53094453465E+03  0.53094454425E+03  0.10100000352E+00 0. -1.
        3   -1    0    0  501    0  0.00000000000E+00  0.00000000000E+00 -0.69643812801E+03  0.69643813533E+03  0.10100000352E+00 0.  1.
    10030    2    1    2    0    0  0.00000000000E+00  0.00000000000E+00 -0.16549359336E+03  0.12273826796E+04  0.12161743759E+04 0.  0.
        1    1    3    3  502    0  0.35832459508E+03 -0.28091001654E+03 -0.48952856177E+03  0.66853957673E+03  0.50400001928E-02 0. -1.
       -1    1    3    3    0  502 -0.35832459508E+03  0.28091001654E+03  0.32403496841E+03  0.55884310286E+03  0.50400001928E-02 0.  1.
</event>
<event>
 5   0  0.6658994E-03  0.1180204E+04  0.7818609E-02  0.9130363E-01
        2   -1    0    0  501    0  0.00000000000E+00  0.00000000000E+00  0.10293217255E+04  0.10293217255E+04  0.25500000920E-02 0.  1.
       -2   -1    0    0    0  501  0.00000000000E+00  0.00000000000E+00 -0.33830067551E+03  0.33830067552E+03  0.25500000920E-02 0. -1.
    10030    2    1    2    0    0  0.00000000000E+00  0.00000000000E+00  0.69102105001E+03  0.13676224010E+04  0.11802037707E+04 0.  0.
        4    1    3    3  502    0 -0.28457690549E+03  0.16193584098E+03 -0.22337907186E+03  0.39636732254E+03  0.12699999809E+01 0. -1.
       -4    1    3    3    0  502  0.28457690549E+03 -0.16193584098E+03  0.91440012188E+03  0.97125507850E+03  0.12699999809E+01 0.  1.
</event>
<event>
 5   0  0.3701879E-03  0.9815333E+03  0.7818609E-02  0.9329034E-01
       -1   -1    0    0    0  501  0.00000000000E+00  0.00000000000E+00  0.37968516850E+03  0.37968516853E+03  0.50400001928E-02 0.  1.
        1   -1    0    0  501    0  0.00000000000E+00  0.00000000000E+00 -0.63434641354E+03  0.63434641356E+03  0.50400001928E-02 0. -1.
    10030    2    1    2    0    0  0.00000000000E+00  0.00000000000E+00 -0.25466124504E+03  0.10140315821E+04  0.98153334114E+03 0.  0.
        1    1    3    3  502    0  0.33132991770E+03  0.16262113142E+03  0.20683967928E+03  0.42309313359E+03  0.50400001928E-02 0.  1.
       -1    1    3    3    0  502 -0.33132991770E+03 -0.16262113142E+03 -0.46150092432E+03  0.59093844850E+03  0.50400001928E-02 0. -1.
</event>
<event>
 5   0  0.6640844E-03  0.1175843E+04  0.7818609E-02  0.9134268E-01
       -2   -1    0    0    0  501  0.00000000000E+00  0.00000000000E+00  0.20975952190E+03  0.20975952192E+03  0.25500000920E-02 0.  1.
        2   -1    0    0  501    0  0.00000000000E+00  0.00000000000E+00 -0.16478475675E+04  0.16478475675E+04  0.25500000920E-02 0. -1.
    10030    2    1    2    0    0  0.00000000000E+00  0.00000000000E+00 -0.14380880456E+04  0.18576070894E+04  0.11758430473E+04 0.  0.
        5    1    3    3  502    0 -0.21724325316E+03  0.16402582830E+03 -0.15422600813E+04  0.15661057920E+04  0.46999998093E+01 0. -1.
       -5    1    3    3    0  502  0.21724325316E+03 -0.16402582830E+03  0.10417203568E+03  0.29150129743E+03  0.46999998093E+01 0.  1.
</event>
<event>
 5   0  0.2537625E-03  0.1189146E+04  0.7818609E-02  0.9122410E-01
       -3   -1    0    0    0  501  0.00000000000E+00  0.00000000000E+00  0.73247581532E+03  0.73247582229E+03  0.10100000352E+00 0.  1.
        3   -1    0    0  501    0  0.00000000000E+00  0.00000000000E+00 -0.48263342881E+03  0.48263343937E+03  0.10100000352E+00 0. -1.
    10030    2    1    2    0    0  0.00000000000E+00  0.00000000000E+00  0.24984238652E+03  0.12151092617E+04  0.11891464585E+04 0.  0.
        4    1    3    3  502    0 -0.58118577147E+03 -0.10244764612E+03  0.19891271503E+03  0.62276825726E+03  0.12699999809E+01 0.  1.
       -4    1    3    3    0  502  0.58118577147E+03  0.10244764612E+03  0.50929671491E+02  0.59234100440E+03  0.12699999809E+01 0. -1.
</event>
<event>
 5   0  0.6349142E-03  0.1229311E+04  0.7818609E-02  0.9087580E-01
        2   -1    0    0  501    0  0.00000000000E+00  0.00000000000E+00  0.20024869774E+04  0.20024869774E+04  0.25500000920E-02 0. -1.
       -2   -1    0    0    0  501  0.00000000000E+00  0.00000000000E+00 -0.18866612936E+03  0.18866612938E+03  0.25500000920E-02 0.  1.
    10030    2    1    2    0    0  0.00000000000E+00  0.00000000000E+00  0.18138208481E+04  0.21911531068E+04  0.12293111358E+04 0.  0.
        1    1    3    3  502    0 -0.35499973539E+03  0.27437953797E+03  0.16557246152E+04  0.17154395776E+04  0.50400001928E-02 0. -1.
       -1    1    3    3    0  502  0.35499973539E+03 -0.27437953797E+03  0.15809623285E+03  0.47571352919E+03  0.50400001928E-02 0.  1.
</event>
<event>
 5   0  0.6493047E-03  0.1214065E+04  0.7818609E-02  0.9100633E-01
        2   -1    0    0  501    0  0.00000000000E+00  0.00000000000E+00  0.71266826366E+03  0.71266826366E+03  0.25500000920E-02 0. -1.
       -2   -1    0    0    0  501  0.00000000000E+00  0.00000000000E+00 -0.51705498312E+03  0.51705498312E+03  0.25500000920E-02 0.  1.
    10030    2    1    2    0    0  0.00000000000E+00  0.00000000000E+00  0.19561328054E+03  0.12297232468E+04  0.12140653640E+04 0.  0.
        3    1    3    3  502    0 -0.30523187004E+03  0.17914492089E+03  0.59735004738E+03  0.69432448212E+03  0.10100000352E+00 0. -1.
       -3    1    3    3    0  502  0.30523187004E+03 -0.17914492089E+03 -0.40173676684E+03  0.53539876466E+03  0.10100000352E+00 0.  1.
</event>
<event>
 5   0  0.3701879E-03  0.1156799E+04  0.7818609E-02  0.9151534E-01
       -1   -1    0    0    0  501  0.00000000000E+00  0.00000000000E+00  0.88387893976E+03  0.88387893977E+03  0.50400001928E-02 0.  1.
        1   -1    0    0  501    0  0.00000000000E+00  0.00000000000E+00 -0.37849735670E+03  0.37849735673E+03  0.50400001928E-02 0. -1.
    10030    2    1    2    0    0  0.00000000000E+00  0.00000000000E+00  0.50538158306E+03  0.12623762965E+04  0.11567987593E+04 0.  0.
        1    1    3    3  502    0  0.18990610026E+03  0.74182651201E+02 -0.33798456946E+03  0.39471630555E+03  0.50400001928E-02 0. -1.
       -1    1    3    3    0  502 -0.18990610026E+03 -0.74182651201E+02  0.84336615252E+03  0.86765999095E+03  0.50400001928E-02 0.  1.
</event>
<event>
 5   0  0.2537625E-03  0.1304323E+04  0.7818609E-02  0.9026144E-01
        4   -1    0    0  501    0  0.00000000000E+00  0.00000000000E+00  0.90420600839E+03  0.90420690028E+03  0.12699999809E+01 0. -1.
       -4   -1    0    0    0  501  0.00000000000E+00  0.00000000000E+00 -0.47037166241E+03  0.47037337690E+03  0.12699999809E+01 0.  1.
    10030    2    1    2    0    0  0.00000000000E+00  0.00000000000E+00  0.43383434599E+03  0.13745802772E+04  0.13043230806E+04 0.  0.
        3    1    3    3  502    0  0.24840909541E+03 -0.57226947364E+03  0.41719374686E+03  0.75049987460E+03  0.10100000352E+00 0. -1.
       -3    1    3    3    0  502 -0.24840909541E+03  0.57226947364E+03  0.16640599124E+02  0.62408040258E+03  0.10100000352E+00 0.  1.
</event>
<event>
 5   0  0.6349142E-03  0.1169193E+04  0.7818609E-02  0.9140258E-01
        2   -1    0    0  501    0  0.00000000000E+00  0.00000000000E+00  0.10210345610E+04  0.10210345610E+04  0.25500000920E-02 0. -1.
       -2   -1    0    0    0  501  0.00000000000E+00  0.00000000000E+00 -0.33471233861E+03  0.33471233862E+03  0.25500000920E-02 0.  1.
    10030    2    1    2    0    0  0.00000000000E+00  0.00000000000E+00  0.68632222242E+03  0.13557468997E+04  0.11691926543E+04 0.  0.
        1    1    3    3  502    0  0.31389089845E+03  0.47606606739E+03  0.49249883009E+03  0.75347295526E+03  0.50400001928E-02 0. -1.
       -1    1    3    3    0  502 -0.31389089845E+03 -0.47606606739E+03  0.19382339233E+03  0.60227394439E+03  0.50400001928E-02 0.  1.
</event>
<event>
 5   0  0.6493047E-03  0.1188308E+04  0.7818609E-02  0.9123152E-01
        2   -1    0    0  501    0  0.00000000000E+00  0.00000000000E+00  0.13941338696E+04  0.13941338696E+04  0.25500000920E-02 0. -1.
       -2   -1    0    0    0  501  0.00000000000E+00  0.00000000000E+00 -0.25321747124E+03  0.25321747125E+03  0.25500000920E-02 0.  1.
    10030    2    1    2    0    0  0.00000000000E+00  0.00000000000E+00  0.11409163984E+04  0.16473513409E+04  0.11883081302E+04 0.  0.
        3    1    3    3  502    0 -0.31056999579E+03 -0.10366810247E+03  0.12577864934E+04  0.12997029164E+04  0.10100000352E+00 0. -1.
       -3    1    3    3    0  502  0.31056999579E+03  0.10366810247E+03 -0.11687009497E+03  0.34764842450E+03  0.10100000352E+00 0.  1.
</event>
<event>
 5   0  0.3731281E-03  0.1192557E+04  0.7818609E-02  0.9119396E-01
       -1   -1    0    0    0  501  0.00000000000E+00  0.00000000000E+00  0.24920472483E+03  0.24920472488E+03  0.50400001928E-02 0. -1.
        1   -1    0    0  501    0  0.00000000000E+00  0.00000000000E+00 -0.14267318983E+04  0.14267318983E+04  0.50400001928E-02 0.  1.
    10030    2    1    2    0    0  0.00000000000E+00  0.00000000000E+00 -0.11775271735E+04  0.16759366232E+04  0.11925574706E+04 0.  0.
        5    1    3    3  502    0 -0.31134759360E+03 -0.16787289086E+03 -0.12633330577E+04  0.13119264980E+04  0.46999998093E+01 0.  1.
       -5    1    3    3    0  502  0.31134759360E+03  0.16787289086E+03  0.85805884158E+02  0.36401012524E+03  0.46999998093E+01 0. -1.
</event>
<event>
 5   0  0.6493047E-03  0.1132272E+04  0.7818609E-02  0.9174296E-01
       -2   -1    0    0    0  501  0.00000000000E+00  0.00000000000E+00  0.49825425461E+03  0.49825425461E+03  0.25500000920E-02 0.  1.
        2   -1    0    0  501    0  0.00000000000E+00  0.00000000000E+00 -0.64326602907E+03  0.64326602908E+03  0.25500000920E-02 0. -1.
    10030    2    1    2    0    0  0.00000000000E+00  0.00000000000E+00 -0.14501177447E+03  0.11415202837E+04  0.11322721154E+04 0.  0.
        3    1    3    3  502    0 -0.44076184097E+03 -0.24807668766E+03  0.18392765564E+03  0.53818438860E+03  0.10100000352E+00 0.  1.
       -3    1    3    3    0  502  0.44076184097E+03  0.24807668766E+03 -0.32893943011E+03  0.60333589509E+03  0.10100000352E+00 0. -1.
</event>
<event>
 5   0  0.3648616E-03  0.1232609E+04  0.7818609E-02  0.9084783E-01
        1   -1    0    0  501    0  0.00000000000E+00  0.00000000000E+00  0.42392392419E+03  0.42392392422E+03  0.50400001928E-02 0.  1.
       -1   -1    0    0    0  501  0.00000000000E+00  0.00000000000E+00 -0.89598975616E+03  0.89598975618E+03  0.50400001928E-02 0. -1.
    10030    2    1    2    0    0  0.00000000000E+00  0.00000000000E+00 -0.47206583198E+03  0.13199136804E+04  0.12326094166E+04 0.  0.
        2    1    3    3  502    0 -0.11675183141E+03  0.15485713495E+03 -0.86246298679E+03  0.88399894003E+03  0.25500000920E-02 0. -1.
       -2    1    3    3    0  502  0.11675183141E+03 -0.15485713495E+03  0.39039715481E+03  0.43591474037E+03  0.25500000920E-02 0.  1.
</event>
<event>
 5   0  0.3944074E-03  0.1283893E+04  0.7818609E-02  0.9042437E-01
        1   -1    0    0  501    0  0.00000000000E+00  0.00000000000E+00  0.61515476161E+03  0.61515476163E+03  0.50400001928E-02 0. -1.
       -1   -1    0    0    0  501  0.00000000000E+00  0.00000000000E+00 -0.66990494061E+03  0.66990494063E+03  0.50400001928E-02 0.  1.
    10030    2    1    2    0    0  0.00000000000E+00  0.00000000000E+00 -0.54750179009E+02  0.12850597023E+04  0.12838928523E+04 0.  0.
        4    1    3    3  502    0 -0.60629873513E+02  0.49790185262E+03  0.37362772199E+03  0.62544506069E+03  0.12699999809E+01 0. -1.
       -4    1    3    3    0  502  0.60629873513E+02 -0.49790185262E+03 -0.42837790100E+03  0.65961464157E+03  0.12699999809E+01 0.  1.
</event>
<event>
 5   0  0.6493047E-03  0.8073303E+03  0.7818609E-02  0.9549467E-01
       -2   -1    0    0    0  501  0.00000000000E+00  0.00000000000E+00  0.36323429402E+03  0.36323429403E+03  0.25500000920E-02 0. -1.
        2   -1    0    0  501    0  0.00000000000E+00  0.00000000000E+00 -0.44859624531E+03  0.44859624532E+03  0.25500000920E-02 0.  1.
    10030    2    1    2    0    0  0.00000000000E+00  0.00000000000E+00 -0.85361951289E+02  0.81183053935E+03  0.80733026816E+03 0.  0.
        3    1    3    3  502    0 -0.15071289310E+03  0.57880236718E+02 -0.41471767716E+03  0.44503399859E+03  0.10100000352E+00 0.  1.
       -3    1    3    3    0  502  0.15071289310E+03 -0.57880236718E+02  0.32935572587E+03  0.36679654076E+03  0.10100000352E+00 0. -1.
</event>
<event>
 5   0  0.3772254E-03  0.1134930E+04  0.7818609E-02  0.9171800E-01
        1   -1    0    0  501    0  0.00000000000E+00  0.00000000000E+00  0.95614397353E+03  0.95614397354E+03  0.50400001928E-02 0.  1.
       -1   -1    0    0    0  501  0.00000000000E+00  0.00000000000E+00 -0.33678675230E+03  0.33678675234E+03  0.50400001928E-02 0. -1.
    10030    2    1    2    0    0  0.00000000000E+00  0.00000000000E+00  0.61935722123E+03  0.12929307259E+04  0.11349301716E+04 0.  0.
        3    1    3    3  502    0 -0.46360457203E+02 -0.33089412311E+03 -0.21284344292E+03  0.39615975830E+03  0.10100000352E+00 0. -1.
       -3    1    3    3    0  502  0.46360457203E+02  0.33089412311E+03  0.83220066414E+03  0.89677096758E+03  0.10100000352E+00 0.  1.
</event>
<event>
 5   0  0.3701879E-03  0.1147357E+04  0.7818609E-02  0.9160225E-01
       -1   -1    0    0    0  501  0.00000000000E+00  0.00000000000E+00  0.23026070589E+03  0.23026070594E+03  0.50400001928E-02 0.  1.
        1   -1    0    0  501    0  0.00000000000E+00  0.00000000000E+00 -0.14292794142E+04  0.14292794143E+04  0.50400001928E-02 0. -1.
    10030    2    1    2    0    0  0.00000000000E+00  0.00000000000E+00 -0.11990187084E+04  0.16595401202E+04  0.11473567656E+04 0.  0.
        1    1    3    3  502    0 -0.40428154390E+03  0.14287287923E+02 -0.11878579576E+04  0.12548522705E+04  0.50400001928E-02 0. -1.
       -1    1    3    3    0  502  0.40428154390E+03 -0.14287287923E+02 -0.11160750792E+02  0.40468784972E+03  0.50400001928E-02 0.  1.
</event>
<event>
 5   0  0.3944074E-03  0.1209768E+04  0.7818609E-02  0.9104349E-01
       -1   -1    0    0    0  501  0.00000000000E+00  0.00000000000E+00  0.26799648134E+03  0.26799648139E+03  0.50400001928E-02 0. -1.
        1   -1    0    0  501    0  0.00000000000E+00  0.00000000000E+00 -0.13652599772E+04  0.13652599772E+04  0.50400001928E-02 0.  1.
    10030    2    1    2    0    0  0.00000000000E+00  0.00000000000E+00 -0.10972634958E+04  0.16332564586E+04  0.12097683581E+04 0.  0.
        4    1    3    3  502    0 -0.14050713574E+03  0.30315674389E+03  0.13209298878E+03  0.35929992645E+03  0.12699999809E+01 0. -1.
       -4    1    3    3    0  502  0.14050713574E+03 -0.30315674389E+03 -0.12293564846E+04  0.12739565321E+04  0.12699999809E+01 0.  1.
</event>
<event>
 5   0  0.6585930E-03  0.1303655E+04  0.7818609E-02  0.9026672E-01
        2   -1    0    0  501    0  0.00000000000E+00  0.00000000000E+00  0.25195341798E+04  0.25195341798E+04  0.25500000920E-02 0. -1.
       -2   -1    0    0    0  501  0.00000000000E+00  0.00000000000E+00 -0.16863398022E+03  0.16863398024E+03  0.25500000920E-02 0.  1.
    10030    2    1    2    0    0  0.00000000000E+00  0.00000000000E+00  0.23509001995E+04  0.26881681600E+04  0.13036549805E+04 0.  0.
        2    1    3    3  502    0 -0.47434679632E+03  0.15540365295E+03  0.20398389962E+04  0.21000234067E+04  0.25500000920E-02 0. -1.
       -2    1    3    3    0  502  0.47434679632E+03 -0.15540365295E+03  0.31106120336E+03  0.58814475325E+03  0.25500000920E-02 0.  1.
</event>
<event>
 5   0  0.6585930E-03  0.1200469E+04  0.7818609E-02  0.9112446E-01
        2   -1    0    0  501    0  0.00000000000E+00  0.00000000000E+00  0.10339507957E+04  0.10339507957E+04  0.25500000920E-02 0.  1.
       -2   -1    0    0    0  501  0.00000000000E+00  0.00000000000E+00 -0.34845132760E+03  0.34845132760E+03  0.25500000920E-02 0. -1.
    10030    2    1    2    0    0  0.00000000000E+00  0.00000000000E+00  0.68549946808E+03  0.13824021233E+04  0.12004691207E+04 0.  0.
        2    1    3    3  502    0 -0.49281811716E+02  0.43570916823E+03  0.81475997203E+03  0.92525941675E+03  0.25500000920E-02 0.  1.
       -2    1    3    3    0  502  0.49281811716E+02 -0.43570916823E+03 -0.12926050396E+03  0.45714270653E+03  0.25500000920E-02 0. -1.
</event>
<event>
 5   0  0.6585930E-03  0.1170049E+04  0.7818609E-02  0.9139484E-01
       -2   -1    0    0    0  501  0.00000000000E+00  0.00000000000E+00  0.27135579569E+03  0.27135579570E+03  0.25500000920E-02 0. -1.
        2   -1    0    0  501    0  0.00000000000E+00  0.00000000000E+00 -0.12612725679E+04  0.12612725679E+04  0.25500000920E-02 0.  1.
    10030    2    1    2    0    0  0.00000000000E+00  0.00000000000E+00 -0.98991677218E+03  0.15326283636E+04  0.11700489242E+04 0.  0.
        2    1    3    3  502    0  0.20535980066E+03  0.33783434941E+02 -0.12111423624E+04  0.12288937261E+04  0.25500000920E-02 0.  1.
       -2    1    3    3    0  502 -0.20535980066E+03 -0.33783434941E+02  0.22122559020E+03  0.30373463742E+03  0.25500000920E-02 0. -1.
</event>
<event>
 5   0  0.2537625E-03  0.1218339E+04  0.7818609E-02  0.9096954E-01
       -4   -1    0    0    0  501  0.00000000000E+00  0.00000000000E+00  0.44646094146E+03  0.44646274778E+03  0.12699999809E+01 0.  1.
        4   -1    0    0  501    0  0.00000000000E+00  0.00000000000E+00 -0.83117161106E+03  0.83117258131E+03  0.12699999809E+01 0. -1.
    10030    2    1    2    0    0  0.00000000000E+00  0.00000000000E+00 -0.38471066959E+03  0.12776353291E+04  0.12183389245E+04 0.  0.
        5    1    3    3  502    0  0.81054524611E+02 -0.59173639184E+03 -0.31794882325E+03  0.67663530620E+03  0.46999998093E+01 0.  1.
       -5    1    3    3    0  502 -0.81054524611E+02  0.59173639184E+03 -0.66761846339E+02  0.60100002289E+03  0.46999998093E+01 0. -1.
</event>
<event>
 5   0  0.3944074E-03  0.1195216E+04  0.7818609E-02  0.9117055E-01
        1   -1    0    0  501    0  0.00000000000E+00  0.00000000000E+00  0.14772044923E+04  0.14772044923E+04  0.50400001928E-02 0. -1.
       -1   -1    0    0    0  501  0.00000000000E+00  0.00000000000E+00 -0.24176420824E+03  0.24176420830E+03  0.50400001928E-02 0.  1.
    10030    2    1    2    0    0  0.00000000000E+00  0.00000000000E+00  0.12354402840E+04  0.17189687006E+04  0.11952157538E+04 0.  0.
        4    1    3    3  502    0 -0.42199930708E+03  0.42287720013E+03  0.63929422195E+03  0.87498986091E+03  0.12699999809E+01 0. -1.
       -4    1    3    3    0  502  0.42199930708E+03 -0.42287720013E+03  0.59614606207E+03  0.84397883966E+03  0.12699999809E+01 0.  1.
</event>
<event>
 5   0  0.3772254E-03  0.9504937E+03  0.7818609E-02  0.9364574E-01
       -1   -1    0    0    0  501  0.00000000000E+00  0.00000000000E+00  0.56885564734E+03  0.56885564736E+03  0.50400001928E-02 0.  1.
        1   -1    0    0  501    0  0.00000000000E+00  0.00000000000E+00 -0.39704197948E+03  0.39704197951E+03  0.50400001928E-02 0. -1.
    10030    2    1    2    0    0  0.00000000000E+00  0.00000000000E+00  0.17181366785E+03  0.96589762687E+03  0.95049370810E+03 0.  0.
        3    1    3    3  502    0  0.18349601078E+03 -0.64117544580E+02  0.52661441815E+03  0.56134178635E+03  0.10100000352E+00 0.  1.
       -3    1    3    3    0  502 -0.18349601078E+03  0.64117544580E+02 -0.35480075029E+03  0.40455584053E+03  0.10100000352E+00 0. -1.
</event>
<event>
 5   0  0.6640844E-03  0.1120717E+04  0.7818609E-02  0.9185232E-01
        2   -1    0    0  501    0  0.00000000000E+00  0.00000000000E+00  0.82990423587E+03  0.82990423587E+03  0.25500000920E-02 0. -1.
       -2   -1    0    0    0  501  0.00000000000E+00  0.00000000000E+00 -0.37835859225E+03  0.37835859225E+03  0.25500000920E-02 0.  1.
    10030    2    1    2    0    0  0.00000000000E+00  0.00000000000E+00  0.45154564362E+03  0.12082628281E+04  0.11207165536E+04 0.  0.
        5    1    3    3  502    0  0.54971409617E+03  0.59570860414E+02  0.32366812124E+03  0.64071633165E+03  0.46999998093E+01 0.  1.
       -5    1    3    3    0  502 -0.54971409617E+03 -0.59570860414E+02  0.12787752238E+03  0.56754649648E+03  0.46999998093E+01 0. -1.
</event>
<event>
 5   0  0.3944074E-03  0.1216330E+04  0.7818609E-02  0.9098682E-01
        1   -1    0    0  501    0  0.00000000000E+00  0.00000000000E+00  0.10453111596E+04  0.10453111596E+04  0.50400001928E-02 0. -1.
       -1   -1    0    0    0  501  0.00000000000E+00  0.00000000000E+00 -0.35383223794E+03  0.35383223797E+03  0.50400001928E-02 0.  1.
    10030    2    1    2    0    0  0.00000000000E+00  0.00000000000E+00  0.69147892164E+03  0.13991433976E+04  0.12163301969E+04 0.  0.
        4    1    3    3  502    0  0.25016727396E+02 -0.33913178087E+03  0.92573085760E+03  0.98621267232E+03  0.12699999809E+01 0. -1.
       -4    1    3    3    0  502 -0.25016727396E+02  0.33913178087E+03 -0.23425193596E+03  0.41293072524E+03  0.12699999809E+01 0.  1.
</event>
<event>
 5   0  0.6640844E-03  0.1198109E+04  0.7818609E-02  0.9114513E-01
        2   -1    0    0  501    0  0.00000000000E+00  0.00000000000E+00  0.12009403693E+04  0.12009403693E+04  0.25500000920E-02 0.  1.
       -2   -1    0    0    0  501  0.00000000000E+00  0.00000000000E+00 -0.29882103294E+03  0.29882103295E+03  0.25500000920E-02 0. -1.
    10030    2    1    2    0    0  0.00000000000E+00  0.00000000000E+00  0.90211933636E+03  0.14997614022E+04  0.11981089127E+04 0.  0.
        5    1    3    3  502    0 -0.15679896306E+02  0.46865919235E+03  0.91768236571E+03  0.10305582526E+04  0.46999998093E+01 0.  1.
       -5    1    3    3    0  502  0.15679896306E+02 -0.46865919235E+03 -0.15563029354E+02  0.46920314961E+03  0.46999998093E+01 0. -1.
</event>
<event>
 5   0  0.3944074E-03  0.1135503E+04  0.7818609E-02  0.9171263E-01
        1   -1    0    0  501    0  0.00000000000E+00  0.00000000000E+00  0.11457567992E+04  0.11457567992E+04  0.50400001928E-02 0.  1.
       -1   -1    0    0    0  501  0.00000000000E+00  0.00000000000E+00 -0.28133539049E+03  0.28133539054E+03  0.50400001928E-02 0. -1.
    10030    2    1    2    0    0  0.00000000000E+00  0.00000000000E+00  0.86442140866E+03  0.14270921897E+04  0.11355033008E+04 0.  0.
        4    1    3    3  502    0  0.29512352645E+03  0.39747788123E+03  0.82890708642E+02  0.50195522152E+03  0.12699999809E+01 0. -1.
       -4    1    3    3    0  502 -0.29512352645E+03 -0.39747788123E+03  0.78153070002E+03  0.92513696819E+03  0.12699999809E+01 0.  1.
</event>
<event>
 5   0  0.3731281E-03  0.1199435E+04  0.7818609E-02  0.9113351E-01
       -1   -1    0    0    0  501  0.00000000000E+00  0.00000000000E+00  0.13594887532E+03  0.13594887541E+03  0.50400001928E-02 0.  1.
        1   -1    0    0  501    0  0.00000000000E+00  0.00000000000E+00 -0.26455607498E+04  0.26455607498E+04  0.50400001928E-02 0. -1.
    10030    2    1    2    0    0  0.00000000000E+00  0.00000000000E+00 -0.25096118745E+04  0.27815096252E+04  0.11994348814E+04 0.  0.
        5    1    3    3  502    0 -0.28294651236E+03  0.32334260328E+03 -0.28460915565E+03  0.51539657491E+03  0.46999998093E+01 0.  1.
       -5    1    3    3    0  502  0.28294651236E+03 -0.32334260328E+03 -0.22250027188E+04  0.22661130503E+04  0.46999998093E+01 0. -1.
</event>
<event>
 5   0  0.3772254E-03  0.1206784E+04  0.7818609E-02  0.9106940E-01
        1   -1    0    0  501    0  0.00000000000E+00  0.00000000000E+00  0.80699544969E+03  0.80699544971E+03  0.50400001928E-02 0. -1.
       -1   -1    0    0    0  501  0.00000000000E+00  0.00000000000E+00 -0.45115696658E+03  0.45115696660E+03  0.50400001928E-02 0.  1.
    10030    2    1    2    0    0  0.00000000000E+00  0.00000000000E+00  0.35583848312E+03  0.12581524163E+04  0.12067835252E+04 0.  0.
        3    1    3    3  502    0  0.39575391740E+03  0.22013274519E+03  0.59364334434E+03  0.74665388174E+03  0.10100000352E+00 0. -1.
       -3    1    3    3    0  502 -0.39575391740E+03 -0.22013274519E+03 -0.23780486122E+03  0.51149853457E+03  0.10100000352E+00 0.  1.
</event>
<event>
 5   0  0.3701879E-03  0.7210934E+03  0.7818609E-02  0.9681824E-01
       -1   -1    0    0    0  501  0.00000000000E+00  0.00000000000E+00  0.10006182387E+03  0.10006182399E+03  0.50400001928E-02 0. -1.
        1   -1    0    0  501    0  0.00000000000E+00  0.00000000000E+00 -0.12991360575E+04  0.12991360575E+04  0.50400001928E-02 0.  1.
    10030    2    1    2    0    0  0.00000000000E+00  0.00000000000E+00 -0.11990742336E+04  0.13991978815E+04  0.72109340161E+03 0.  0.
        1    1    3    3  502    0 -0.90043206254E+02  0.12296940648E+03  0.34480605155E+02  0.15626313091E+03  0.50400001928E-02 0. -1.
       -1    1    3    3    0  502  0.90043206254E+02 -0.12296940648E+03 -0.12335548388E+04  0.12429347506E+04  0.50400001928E-02 0.  1.
</event>
<event>
 5   0  0.6658994E-03  0.1204693E+04  0.7818609E-02  0.9108759E-01
       -2   -1    0    0    0  501  0.00000000000E+00  0.00000000000E+00  0.26081241571E+03  0.26081241572E+03  0.25500000920E-02 0. -1.
        2   -1    0    0  501    0  0.00000000000E+00  0.00000000000E+00 -0.13911191454E+04  0.13911191454E+04  0.25500000920E-02 0.  1.
    10030    2    1    2    0    0  0.00000000000E+00  0.00000000000E+00 -0.11303067297E+04  0.16519315611E+04  0.12046927324E+04 0.  0.
        4    1    3    3  502    0  0.32502488558E+03  0.50516067865E+03 -0.50396677628E+03  0.78409987374E+03  0.12699999809E+01 0. -1.
       -4    1    3    3    0  502 -0.32502488558E+03 -0.50516067865E+03 -0.62633995342E+03  0.86783168740E+03  0.12699999809E+01 0.  1.
</event>
<event>
 5   0  0.6585930E-03  0.1179640E+04  0.7818609E-02  0.9130867E-01
        2   -1    0    0  501    0  0.00000000000E+00  0.00000000000E+00  0.40669565398E+03  0.40669565398E+03  0.25500000920E-02 0. -1.
       -2   -1    0    0    0  501  0.00000000000E+00  0.00000000000E+00 -0.85539978023E+03  0.85539978023E+03  0.25500000920E-02 0.  1.
    10030    2    1    2    0    0  0.00000000000E+00  0.00000000000E+00 -0.44870412625E+03  0.12620954342E+04  0.11796395603E+04 0.  0.
        2    1    3    3  502    0  0.14203762748E+03 -0.13081726106E+03  0.37191835502E+03  0.41905978836E+03  0.25500000920E-02 0. -1.
       -2    1    3    3    0  502 -0.14203762748E+03  0.13081726106E+03 -0.82062248127E+03  0.84303564586E+03  0.25500000920E-02 0.  1.
</event>
<event>
 5   0  0.3772254E-03  0.1205532E+04  0.7818609E-02  0.9108028E-01
        1   -1    0    0  501    0  0.00000000000E+00  0.00000000000E+00  0.51744137865E+03  0.51744137867E+03  0.50400001928E-02 0. -1.
       -1   -1    0    0    0  501  0.00000000000E+00  0.00000000000E+00 -0.70216042706E+03  0.70216042708E+03  0.50400001928E-02 0.  1.
    10030    2    1    2    0    0  0.00000000000E+00  0.00000000000E+00 -0.18471904841E+03  0.12196018058E+04  0.12055320144E+04 0.  0.
        3    1    3    3  502    0  0.16355682757E+03 -0.12989040257E+02 -0.67913508227E+03  0.69867304312E+03  0.10100000352E+00 0.  1.
       -3    1    3    3    0  502 -0.16355682757E+03  0.12989040257E+02  0.49441603385E+03  0.52092876264E+03  0.10100000352E+00 0. -1.
</event>
<event>
 5   0  0.6493047E-03  0.1144594E+04  0.7818609E-02  0.9162785E-01
       -2   -1    0    0    0  501  0.00000000000E+00  0.00000000000E+00  0.39161888402E+03  0.39161888403E+03  0.25500000920E-02 0. -1.
        2   -1    0    0  501    0  0.00000000000E+00  0.00000000000E+00 -0.83633350555E+03  0.83633350555E+03  0.25500000920E-02 0.  1.
    10030    2    1    2    0    0  0.00000000000E+00  0.00000000000E+00 -0.44471462153E+03  0.12279523896E+04  0.11445942410E+04 0.  0.
        3    1    3    3  502    0  0.38524374106E+03  0.16837882629E+01 -0.67639087587E+03  0.77840876301E+03  0.10100000352E+00 0.  1.
       -3    1    3    3    0  502 -0.38524374106E+03 -0.16837882629E+01  0.23167625434E+03  0.44954362657E+03  0.10100000352E+00 0. -1.
</event>
<event>
 5   0  0.3701879E-03  0.1195113E+04  0.7818609E-02  0.9117145E-01
        1   -1    0    0  501    0  0.00000000000E+00  0.00000000000E+00  0.42356138989E+03  0.42356138992E+03  0.50400001928E-02 0.  1.
       -1   -1    0    0    0  501  0.00000000000E+00  0.00000000000E+00 -0.84302755337E+03  0.84302755338E+03  0.50400001928E-02 0. -1.
    10030    2    1    2    0    0  0.00000000000E+00  0.00000000000E+00 -0.41946616347E+03  0.12665889433E+04  0.11951132536E+04 0.  0.
        1    1    3    3  502    0  0.24464330542E+03 -0.52176394113E+03 -0.37725617910E+03  0.68877440563E+03  0.50400001928E-02 0. -1.
       -1    1    3    3    0  502 -0.24464330542E+03  0.52176394113E+03 -0.42209984374E+02  0.57781453768E+03  0.50400001928E-02 0.  1.
</event>
<event>
 5   0  0.3944074E-03  0.1178399E+04  0.7818609E-02  0.9131977E-01
        1   -1    0    0  501    0  0.00000000000E+00  0.00000000000E+00  0.59191520625E+03  0.59191520627E+03  0.50400001928E-02 0. -1.
       -1   -1    0    0    0  501  0.00000000000E+00  0.00000000000E+00 -0.58649656289E+03  0.58649656291E+03  0.50400001928E-02 0.  1.
    10030    2    1    2    0    0  0.00000000000E+00  0.00000000000E+00  0.54186433533E+01  0.11784117692E+04  0.11783993110E+04 0.  0.
        4    1    3    3  502    0  0.19635404740E+03  0.40165856530E+03  0.38647125315E+03  0.59097052162E+03  0.12699999809E+01 0. -1.
       -4    1    3    3    0  502 -0.19635404740E+03 -0.40165856530E+03 -0.38105260980E+03  0.58744124757E+03  0.12699999809E+01 0.  1.
</event>
<event>
 5   0  0.3731281E-03  0.1167506E+04  0.7818609E-02  0.9141784E-01
       -1   -1    0    0    0  501  0.00000000000E+00  0.00000000000E+00  0.97449216638E+03  0.97449216639E+03  0.50400001928E-02 0. -1.
        1   -1    0    0  501    0  0.00000000000E+00  0.00000000000E+00 -0.34968726474E+03  0.34968726478E+03  0.50400001928E-02 0.  1.
    10030    2    1    2    0    0  0.00000000000E+00  0.00000000000E+00  0.62480490164E+03  0.13241794312E+04  0.11675058890E+04 0.  0.
        5    1    3    3  502    0  0.38096097299E+03  0.26657191162E+03  0.71268424324E+03  0.85095990950E+03  0.46999998093E+01 0. -1.
       -5    1    3    3    0  502 -0.38096097299E+03 -0.26657191162E+03 -0.87879341608E+02  0.47321952167E+03  0.46999998093E+01 0.  1.
</event>
<event>
 5   0  0.6493047E-03  0.1188214E+04  0.7818609E-02  0.9123235E-01
        2   -1    0    0  501    0  0.00000000000E+00  0.00000000000E+00  0.70115098339E+03  0.70115098339E+03  0.25500000920E-02 0.  1.
       -2   -1    0    0    0  501  0.00000000000E+00  0.00000000000E+00 -0.50340565491E+03  0.50340565492E+03  0.25500000920E-02 0. -1.
    10030    2    1    2    0    0  0.00000000000E+00  0.00000000000E+00  0.19774532848E+03  0.12045566383E+04  0.11882144082E+04 0.  0.
        3    1    3    3  502    0 -0.18836985789E+03 -0.56336718267E+03  0.88858855775E+02  0.60063440821E+03  0.10100000352E+00 0. -1.
       -3    1    3    3    0  502  0.18836985789E+03  0.56336718267E+03  0.10888647270E+03  0.60392223010E+03  0.10100000352E+00 0.  1.
</event>
<event>
 5   0  0.3701879E-03  0.6920699E+03  0.7818609E-02  0.9730891E-01
        1   -1    0    0  501    0  0.00000000000E+00  0.00000000000E+00  0.59997498898E+03  0.59997498900E+03  0.50400001928E-02 0.  1.
       -1   -1    0    0    0  501  0.00000000000E+00  0.00000000000E+00 -0.19957529752E+03  0.19957529758E+03  0.50400001928E-02 0. -1.
    10030    2    1    2    0    0  0.00000000000E+00  0.00000000000E+00  0.40039969146E+03  0.79955028658E+03  0.69206990098E+03 0.  0.
        1    1    3    3  502    0 -0.22333762736E+03 -0.26188104177E+03  0.15888567681E+03  0.37908578733E+03  0.50400001928E-02 0.  1.
       -1    1    3    3    0  502  0.22333762736E+03  0.26188104177E+03  0.24151401465E+03  0.42046449925E+03  0.50400001928E-02 0. -1.
</event>
<event>
 5   0  0.6349142E-03  0.1223152E+04  0.7818609E-02  0.9092829E-01
       -2   -1    0    0    0  501  0.00000000000E+00  0.00000000000E+00  0.88143989337E+03  0.88143989337E+03  0.25500000920E-02 0.  1.
        2   -1    0    0  501    0  0.00000000000E+00  0.00000000000E+00 -0.42433443039E+03  0.42433443040E+03  0.25500000920E-02 0. -1.
    10030    2    1    2    0    0  0.00000000000E+00  0.00000000000E+00  0.45710546298E+03  0.13057743238E+04  0.12231521493E+04 0.  0.
        1    1    3    3  502    0  0.51892538237E+03  0.66400713076E+02 -0.10959685860E+03  0.53451293586E+03  0.50400001928E-02 0. -1.
       -1    1    3    3    0  502 -0.51892538237E+03 -0.66400713076E+02  0.56670232158E+03  0.77126138791E+03  0.50400001928E-02 0.  1.
</event>
<event>
 5   0  0.3944074E-03  0.1194945E+04  0.7818609E-02  0.9117293E-01
        1   -1    0    0  501    0  0.00000000000E+00  0.00000000000E+00  0.45313021693E+03  0.45313021696E+03  0.50400001928E-02 0. -1.
       -1   -1    0    0    0  501  0.00000000000E+00  0.00000000000E+00 -0.78779423134E+03  0.78779423135E+03  0.50400001928E-02 0.  1.
    10030    2    1    2    0    0  0.00000000000E+00  0.00000000000E+00 -0.33466401441E+03  0.12409244483E+04  0.11949449711E+04 0.  0.
        4    1    3    3  502    0 -0.45528690225E+03 -0.35212275138E+03 -0.86693602037E+00  0.57556837985E+03  0.12699999809E+01 0.  1.
       -4    1    3    3    0  502  0.45528690225E+03  0.35212275138E+03 -0.33379707839E+03  0.66535606846E+03  0.12699999809E+01 0. -1.
</event>
<event>
 5   0  0.3731281E-03  0.1204925E+04  0.7818609E-02  0.9108556E-01
       -1   -1    0    0    0  501  0.00000000000E+00  0.00000000000E+00  0.16226593768E+03  0.16226593776E+03  0.50400001928E-02 0. -1.
        1   -1    0    0  501    0  0.00000000000E+00  0.00000000000E+00 -0.22368295704E+04  0.22368295704E+04  0.50400001928E-02 0.  1.
    10030    2    1    2    0    0  0.00000000000E+00  0.00000000000E+00 -0.20745636327E+04  0.23990955082E+04  0.12049253052E+04 0.  0.
        5    1    3    3  502    0  0.17234353006E+03  0.41067414813E+03 -0.22952486597E+03  0.50105818264E+03  0.46999998093E+01 0. -1.
       -5    1    3    3    0  502 -0.17234353006E+03 -0.41067414813E+03 -0.18450387667E+04  0.18980373255E+04  0.46999998093E+01 0.  1.
</event>
<event>
 5   0  0.3648616E-03  0.1194314E+04  0.7818609E-02  0.9117848E-01
       -1   -1    0    0    0  501  0.00000000000E+00  0.00000000000E+00  0.17010607926E+03  0.17010607933E+03  0.50400001928E-02 0. -1.
        1   -1    0    0  501    0  0.00000000000E+00  0.00000000000E+00 -0.20963184503E+04  0.20963184503E+04  0.50400001928E-02 0.  1.
    10030    2    1    2    0    0  0.00000000000E+00  0.00000000000E+00 -0.19262123710E+04  0.22664245296E+04  0.11943140501E+04 0.  0.
        2    1    3    3  502    0 -0.49559881890E+03 -0.33290681554E+03 -0.98645422338E+03  0.11530555372E+04  0.25500000920E-02 0. -1.
       -2    1    3    3    0  502  0.49559881890E+03  0.33290681554E+03 -0.93975814765E+03  0.11133689924E+04  0.25500000920E-02 0.  1.
</event>
<event>
 5   0  0.3648616E-03  0.1187710E+04  0.7818609E-02  0.9123682E-01
        1   -1    0    0  501    0  0.00000000000E+00  0.00000000000E+00  0.11968655232E+04  0.11968655232E+04  0.50400001928E-02 0. -1.
       -1   -1    0    0    0  501  0.00000000000E+00  0.00000000000E+00 -0.29465621396E+03  0.29465621400E+03  0.50400001928E-02 0.  1.
    10030    2    1    2    0    0  0.00000000000E+00  0.00000000000E+00  0.90220930919E+03  0.14915217372E+04  0.11877101729E+04 0.  0.
        2    1    3    3  502    0 -0.26991289818E+03 -0.81494545153E+02  0.11074542754E+04  0.11427813901E+04  0.25500000920E-02 0. -1.
       -2    1    3    3    0  502  0.26991289818E+03  0.81494545153E+02 -0.20524496621E+03  0.34874034704E+03  0.25500000920E-02 0.  1.
</event>
<event>
 5   0  0.3731281E-03  0.1221609E+04  0.7818609E-02  0.9094149E-01
       -1   -1    0    0    0  501  0.00000000000E+00  0.00000000000E+00  0.16284264265E+03  0.16284264273E+03  0.50400001928E-02 0.  1.
        1   -1    0    0  501    0  0.00000000000E+00  0.00000000000E+00 -0.22910607974E+04  0.22910607974E+04  0.50400001928E-02 0. -1.
    10030    2    1    2    0    0  0.00000000000E+00  0.00000000000E+00 -0.21282181547E+04  0.24539034401E+04  0.12216094218E+04 0.  0.
        5    1    3    3  502    0  0.22787607924E+03 -0.37724808674E+03 -0.19135420353E+04  0.19636468209E+04  0.46999998093E+01 0. -1.
       -5    1    3    3    0  502 -0.22787607924E+03  0.37724808674E+03 -0.21467611947E+03  0.49025661924E+03  0.46999998093E+01 0.  1.
</event>
<event>
 5   0  0.6585930E-03  0.1111397E+04  0.7818609E-02  0.9194154E-01
        2   -1    0    0  501    0  0.00000000000E+00  0.00000000000E+00  0.79984197328E+03  0.79984197328E+03  0.25500000920E-02 0. -1.
       -2   -1    0    0    0  501  0.00000000000E+00  0.00000000000E+00 -0.38607733448E+03  0.38607733449E+03  0.25500000920E-02 0.  1.
    10030    2    1    2    0    0  0.00000000000E+00  0.00000000000E+00  0.41376463880E+03  0.11859193078E+04  0.11113970615E+04 0.  0.
        2    1    3    3  502    0  0.43118063583E+03  0.26188293371E+03 -0.41769470844E+02  0.50620559102E+03  0.25500000920E-02 0. -1.
       -2    1    3    3    0  502 -0.43118063583E+03 -0.26188293371E+03  0.45553410964E+03  0.67971371675E+03  0.25500000920E-02 0.  1.
</event>
<event>
 5   0  0.3944074E-03  0.1222512E+04  0.7818609E-02  0.9093377E-01
        1   -1    0    0  501    0  0.00000000000E+00  0.00000000000E+00  0.44279069811E+03  0.44279069814E+03  0.50400001928E-02 0.  1.
       -1   -1    0    0    0  501  0.00000000000E+00  0.00000000000E+00 -0.84381540972E+03  0.84381540974E+03  0.50400001928E-02 0. -1.
    10030    2    1    2    0    0  0.00000000000E+00  0.00000000000E+00 -0.40102471161E+03  0.12866061079E+04  0.12225115368E+04 0.  0.
        4    1    3    3  502    0 -0.30323398185E+03  0.33908368272E+03  0.22918717965E+03  0.50936918620E+03  0.12699999809E+01 0.  1.
       -4    1    3    3    0  502  0.30323398185E+03 -0.33908368272E+03 -0.63021189126E+03  0.77723692168E+03  0.12699999809E+01 0. -1.
</event>
<event>
 5   0  0.3701879E-03  0.1212740E+04  0.7818609E-02  0.9101778E-01
       -1   -1    0    0    0  501  0.00000000000E+00  0.00000000000E+00  0.43765621876E+03  0.43765621879E+03  0.50400001928E-02 0.  1.
        1   -1    0    0  501    0  0.00000000000E+00  0.00000000000E+00 -0.84012143857E+03  0.84012143859E+03  0.50400001928E-02 0. -1.
    10030    2    1    2    0    0  0.00000000000E+00  0.00000000000E+00 -0.40246521981E+03  0.12777776574E+04  0.12127396623E+04 0.  0.
        1    1    3    3  502    0  0.12272020760E+03  0.51691897145E+03 -0.50917160995E+03  0.73588124096E+03  0.50400001928E-02 0. -1.
       -1    1    3    3    0  502 -0.12272020760E+03 -0.51691897145E+03  0.10670639013E+03  0.54189641641E+03  0.50400001928E-02 0.  1.
</event>
<event>
 5   0  0.3701879E-03  0.1209461E+04  0.7818609E-02  0.9104616E-01
        1   -1    0    0  501    0  0.00000000000E+00  0.00000000000E+00  0.62236394161E+03  0.62236394163E+03  0.50400001928E-02 0.  1.
       -1   -1    0    0    0  501  0.00000000000E+00  0.00000000000E+00 -0.58759652594E+03  0.58759652596E+03  0.50400001928E-02 0. -1.
    10030    2    1    2    0    0  0.00000000000E+00  0.00000000000E+00  0.34767415669E+02  0.12099604676E+04  0.12094608551E+04 0.  0.
        1    1    3    3  502    0 -0.43112699460E+02 -0.38587560283E+03  0.48119166262E+03  0.61830744934E+03  0.50400001928E-02 0.  1.
       -1    1    3    3    0  502  0.43112699460E+02  0.38587560283E+03 -0.44642424695E+03  0.59165301825E+03  0.50400001928E-02 0. -1.
</event>
<event>
 5   0  0.2537625E-03  0.1240085E+04  0.7818609E-02  0.9078476E-01
        3   -1    0    0  501    0  0.00000000000E+00  0.00000000000E+00  0.10666129436E+04  0.10666129484E+04  0.10100000352E+00 0. -1.
       -3   -1    0    0    0  501  0.00000000000E+00  0.00000000000E+00 -0.36044262593E+03  0.36044264008E+03  0.10100000352E+00 0.  1.
    10030    2    1    2    0    0  0.00000000000E+00  0.00000000000E+00  0.70617031764E+03  0.14270555884E+04  0.12400851321E+04 0.  0.
        1    1    3    3  502    0  0.11225578082E+03  0.53414641741E+03  0.14556534138E+02  0.54600883535E+03  0.50400001928E-02 0.  1.
       -1    1    3    3    0  502 -0.11225578082E+03 -0.53414641741E+03  0.69161378350E+03  0.88104675309E+03  0.50400001928E-02 0. -1.
</event>
<event>
 5   0  0.6658994E-03  0.1209540E+04  0.7818609E-02  0.9104547E-01
       -2   -1    0    0    0  501  0.00000000000E+00  0.00000000000E+00  0.48588343216E+03  0.48588343216E+03  0.25500000920E-02 0.  1.
        2   -1    0    0  501    0  0.00000000000E+00  0.00000000000E+00 -0.75274561868E+03  0.75274561868E+03  0.25500000920E-02 0. -1.
    10030    2    1    2    0    0  0.00000000000E+00  0.00000000000E+00 -0.26686218652E+03  0.12386290508E+04  0.12095397881E+04 0.  0.
        4    1    3    3  502    0 -0.33804250830E+03 -0.30858464084E+02 -0.64598828295E+03  0.72974478884E+03  0.12699999809E+01 0. -1.
       -4    1    3    3    0  502  0.33804250830E+03  0.30858464084E+02  0.37912609643E+03  0.50888426201E+03  0.12699999809E+01 0.  1.
</event>
<event>
 5   0  0.3701879E-03  0.1107033E+04  0.7818609E-02  0.9198364E-01
       -1   -1    0    0    0  501  0.00000000000E+00  0.00000000000E+00  0.39956483682E+03  0.39956483685E+03  0.50400001928E-02 0.  1.
        1   -1    0    0  501    0  0.00000000000E+00  0.00000000000E+00 -0.76678553616E+03  0.76678553618E+03  0.50400001928E-02 0. -1.
    10030    2    1    2    0    0  0.00000000000E+00  0.00000000000E+00 -0.36722069934E+03  0.11663503730E+04  0.11070330395E+04 0.  0.
        1    1    3    3  502    0  0.50199858475E+03  0.37864014315E+01  0.62042971929E+02  0.50583223140E+03  0.50400001928E-02 0. -1.
       -1    1    3    3    0  502 -0.50199858475E+03 -0.37864014315E+01 -0.42926367127E+03  0.66051814163E+03  0.50400001928E-02 0.  1.
</event>
<event>
 5   0  0.6658994E-03  0.1195818E+04  0.7818609E-02  0.9116525E-01
        2   -1    0    0  501    0  0.00000000000E+00  0.00000000000E+00  0.67845749096E+03  0.67845749096E+03  0.25500000920E-02 0. -1.
       -2   -1    0    0    0  501  0.00000000000E+00  0.00000000000E+00 -0.52692343821E+03  0.52692343821E+03  0.25500000920E-02 0.  1.
    10030    2    1    2    0    0  0.00000000000E+00  0.00000000000E+00  0.15153405275E+03  0.12053809292E+04  0.11958179691E+04 0.  0.
        4    1    3    3  502    0 -0.17506454290E+03 -0.20148335601E+03 -0.46353530168E+03  0.53489225619E+03  0.12699999809E+01 0.  1.
       -4    1    3    3    0  502  0.17506454290E+03  0.20148335601E+03  0.61506935444E+03  0.67048867298E+03  0.12699999809E+01 0. -1.
</event>
<event>
 5   0  0.6493047E-03  0.1303152E+04  0.7818609E-02  0.9027069E-01
        2   -1    0    0  501    0  0.00000000000E+00  0.00000000000E+00  0.31077817634E+03  0.31077817635E+03  0.25500000920E-02 0.  1.
       -2   -1    0    0    0  501  0.00000000000E+00  0.00000000000E+00 -0.13660920713E+04  0.13660920713E+04  0.25500000920E-02 0. -1.
    10030    2    1    2    0    0  0.00000000000E+00  0.00000000000E+00 -0.10553138949E+04  0.16768702476E+04  0.13031524894E+04 0.  0.
        3    1    3    3  502    0  0.44392499894E+03 -0.47196382974E+03 -0.43913686998E+03  0.78272630086E+03  0.10100000352E+00 0. -1.
       -3    1    3    3    0  502 -0.44392499894E+03  0.47196382974E+03 -0.61617702494E+03  0.89414394677E+03  0.10100000352E+00 0.  1.
</event>
<event>
 5   0  0.6349142E-03  0.1184968E+04  0.7818609E-02  0.9126117E-01
        2   -1    0    0  501    0  0.00000000000E+00  0.00000000000E+00  0.65996593324E+03  0.65996593324E+03  0.25500000920E-02 0. -1.
       -2   -1    0    0    0  501  0.00000000000E+00  0.00000000000E+00 -0.53190201859E+03  0.53190201860E+03  0.25500000920E-02 0.  1.
    10030    2    1    2    0    0  0.00000000000E+00  0.00000000000E+00  0.12806391465E+03  0.11918679518E+04  0.11849678681E+04 0.  0.
        1    1    3    3  502    0 -0.45856748395E+03 -0.22106524607E+03  0.36891951335E+03  0.62869355629E+03  0.50400001928E-02 0. -1.
       -1    1    3    3    0  502  0.45856748395E+03  0.22106524607E+03 -0.24085559870E+03  0.56317439556E+03  0.50400001928E-02 0.  1.
</event>
<event>
 5   0  0.6658994E-03  0.1194389E+04  0.7818609E-02  0.9117782E-01
        2   -1    0    0  501    0  0.00000000000E+00  0.00000000000E+00  0.89053558104E+03  0.89053558105E+03  0.25500000920E-02 0.  1.
       -2   -1    0    0    0  501  0.00000000000E+00  0.00000000000E+00 -0.40047935799E+03  0.40047935800E+03  0.25500000920E-02 0. -1.
    10030    2    1    2    0    0  0.00000000000E+00  0.00000000000E+00  0.49005622305E+03  0.12910149391E+04  0.11943887437E+04 0.  0.
        4    1    3    3  502    0  0.11009651542E+03 -0.27514433437E+03 -0.31538900653E+03  0.43277879544E+03  0.12699999809E+01 0. -1.
       -4    1    3    3    0  502 -0.11009651542E+03  0.27514433437E+03  0.80544522958E+03  0.85823614361E+03  0.12699999809E+01 0.  1.
</event>
<event>
 5   0  0.3701879E-03  0.1201417E+04  0.7818609E-02  0.9111617E-01
        1   -1    0    0  501    0  0.00000000000E+00  0.00000000000E+00  0.81897817097E+03  0.81897817099E+03  0.50400001928E-02 0. -1.
       -1   -1    0    0    0  501  0.00000000000E+00  0.00000000000E+00 -0.44061099610E+03  0.44061099613E+03  0.50400001928E-02 0.  1.
    10030    2    1    2    0    0  0.00000000000E+00  0.00000000000E+00  0.37836717487E+03  0.12595891671E+04  0.12014171427E+04 0.  0.
        1    1    3    3  502    0 -0.56848234875E+03  0.87344317955E+02  0.74420181729E+01  0.57520135117E+03  0.50400001928E-02 0.  1.
       -1    1    3    3    0  502  0.56848234875E+03 -0.87344317955E+02  0.37092515670E+03  0.68438781595E+03  0.50400001928E-02 0. -1.
</event>
<event>
 5   0  0.6493047E-03  0.1202317E+04  0.7818609E-02  0.9110831E-01
        2   -1    0    0  501    0  0.00000000000E+00  0.00000000000E+00  0.11864329436E+04  0.11864329436E+04  0.25500000920E-02 0. -1.
       -2   -1    0    0    0  501  0.00000000000E+00  0.00000000000E+00 -0.30460342929E+03  0.30460342930E+03  0.25500000920E-02 0.  1.
    10030    2    1    2    0    0  0.00000000000E+00  0.00000000000E+00  0.88182951435E+03  0.14910363729E+04  0.12023170019E+04 0.  0.
        3    1    3    3  502    0 -0.52415284632E+03 -0.41677983252E+02  0.80229950954E+03  0.95924854641E+03  0.10100000352E+00 0. -1.
       -3    1    3    3    0  502  0.52415284632E+03  0.41677983252E+02  0.79530004813E+02  0.53178782654E+03  0.10100000352E+00 0.  1.
</event>
<event>
 5   0  0.3701879E-03  0.1234419E+04  0.7818609E-02  0.9083252E-01
        1   -1    0    0  501    0  0.00000000000E+00  0.00000000000E+00  0.70418207532E+03  0.70418207534E+03  0.50400001928E-02 0. -1.
       -1   -1    0    0    0  501  0.00000000000E+00  0.00000000000E+00 -0.54097885745E+03  0.54097885748E+03  0.50400001928E-02 0.  1.
    10030    2    1    2    0    0  0.00000000000E+00  0.00000000000E+00  0.16320321787E+03  0.12451609328E+04  0.12344190773E+04 0.  0.
        1    1    3    3  502    0 -0.46048483492E+02 -0.58880238941E+03  0.26243488553E+03  0.64628228026E+03  0.50400001928E-02 0.  1.
       -1    1    3    3    0  502  0.46048483492E+02  0.58880238941E+03 -0.99231667662E+02  0.59887865256E+03  0.50400001928E-02 0. -1.
</event>
<event>
 5   0  0.6658994E-03  0.1153869E+04  0.7818609E-02  0.9154221E-01
       -2   -1    0    0    0  501  0.00000000000E+00  0.00000000000E+00  0.28968654050E+03  0.28968654051E+03  0.25500000920E-02 0.  1.
        2   -1    0    0  501    0  0.00000000000E+00  0.00000000000E+00 -0.11490127636E+04  0.11490127636E+04  0.25500000920E-02 0. -1.
    10030    2    1    2    0    0  0.00000000000E+00  0.00000000000E+00 -0.85932622305E+03  0.14386993041E+04  0.11538691996E+04 0.  0.
        4    1    3    3  502    0  0.53794929055E+03  0.14814934980E+03 -0.61254747010E+03  0.82858535171E+03  0.12699999809E+01 0.  1.
       -4    1    3    3    0  502 -0.53794929055E+03 -0.14814934980E+03 -0.24677875295E+03  0.61011395235E+03  0.12699999809E+01 0. -1.
</event>
<event>
 5   0  0.6585930E-03  0.1175522E+04  0.7818609E-02  0.9134556E-01
       -2   -1    0    0    0  501  0.00000000000E+00  0.00000000000E+00  0.69301756811E+03  0.69301756811E+03  0.25500000920E-02 0.  1.
        2   -1    0    0  501    0  0.00000000000E+00  0.00000000000E+00 -0.49849071232E+03  0.49849071232E+03  0.25500000920E-02 0. -1.
    10030    2    1    2    0    0  0.00000000000E+00  0.00000000000E+00  0.19452685579E+03  0.11915082804E+04  0.11755217075E+04 0.  0.
        2    1    3    3  502    0 -0.37073474082E+03  0.21869508317E+03 -0.30841836182E+03  0.52952211792E+03  0.25500000920E-02 0. -1.
       -2    1    3    3    0  502  0.37073474082E+03 -0.21869508317E+03  0.50294521761E+03  0.66198616252E+03  0.25500000920E-02 0.  1.
</event>
<event>
 5   0  0.6349142E-03  0.1201679E+04  0.7818609E-02  0.9111389E-01
       -2   -1    0    0    0  501  0.00000000000E+00  0.00000000000E+00  0.22301681828E+03  0.22301681830E+03  0.25500000920E-02 0. -1.
        2   -1    0    0  501    0  0.00000000000E+00  0.00000000000E+00 -0.16187473462E+04  0.16187473462E+04  0.25500000920E-02 0.  1.
    10030    2    1    2    0    0  0.00000000000E+00  0.00000000000E+00 -0.13957305279E+04  0.18417641645E+04  0.12016786305E+04 0.  0.
        1    1    3    3  502    0  0.35361684292E+03  0.47811163793E+03 -0.82946238236E+03  0.10206093541E+04  0.50400001928E-02 0. -1.
       -1    1    3    3    0  502 -0.35361684292E+03 -0.47811163793E+03 -0.56626814556E+03  0.82115481039E+03  0.50400001928E-02 0.  1.
</event>
<event>
 5   0  0.6493047E-03  0.1196794E+04  0.7818609E-02  0.9115668E-01
       -2   -1    0    0    0  501  0.00000000000E+00  0.00000000000E+00  0.35858128509E+03  0.35858128510E+03  0.25500000920E-02 0.  1.
        2   -1    0    0  501    0  0.00000000000E+00  0.00000000000E+00 -0.99859857678E+03  0.99859857678E+03  0.25500000920E-02 0. -1.
    10030    2    1    2    0    0  0.00000000000E+00  0.00000000000E+00 -0.64001729168E+03  0.13571798619E+04  0.11967936513E+04 0.  0.
        3    1    3    3  502    0 -0.43859229613E+03  0.13562286584E+02  0.14137118296E+03  0.46101297098E+03  0.10100000352E+00 0.  1.
       -3    1    3    3    0  502  0.43859229613E+03 -0.13562286584E+02 -0.78138847464E+03  0.89616689090E+03  0.10100000352E+00 0. -1.
</event>
<event>
 5   0  0.2537625E-03  0.1244320E+04  0.7818609E-02  0.9074924E-01
        3   -1    0    0  501    0  0.00000000000E+00  0.00000000000E+00  0.13168673977E+04  0.13168674016E+04  0.10100000352E+00 0. -1.
       -3   -1    0    0    0  501  0.00000000000E+00  0.00000000000E+00 -0.29394220533E+03  0.29394222268E+03  0.10100000352E+00 0.  1.
    10030    2    1    2    0    0  0.00000000000E+00  0.00000000000E+00  0.10229251924E+04  0.16108096243E+04  0.12443197726E+04 0.  0.
        3    1    3    3  502    0  0.81415391493E+02  0.43037123140E+02  0.13079956659E+04  0.13112335154E+04  0.10100000352E+00 0. -1.
       -3    1    3    3    0  502 -0.81415391493E+02 -0.43037123140E+02 -0.28507047346E+03  0.29957610883E+03  0.10100000352E+00 0.  1.
</event>
<event>
 5   0  0.6585930E-03  0.1125395E+04  0.7818609E-02  0.9180788E-01
        2   -1    0    0  501    0  0.00000000000E+00  0.00000000000E+00  0.11430024574E+04  0.11430024574E+04  0.25500000920E-02 0. -1.
       -2   -1    0    0    0  501  0.00000000000E+00  0.00000000000E+00 -0.27701459214E+03  0.27701459215E+03  0.25500000920E-02 0.  1.
    10030    2    1    2    0    0  0.00000000000E+00  0.00000000000E+00  0.86598786521E+03  0.14200170495E+04  0.11253947921E+04 0.  0.
        2    1    3    3  502    0  0.37832926242E+03 -0.18440165903E+02 -0.92063170977E+02  0.38980597479E+03  0.25500000920E-02 0.  1.
       -2    1    3    3    0  502 -0.37832926242E+03  0.18440165903E+02  0.95805103619E+03  0.10302110747E+04  0.25500000920E-02 0. -1.
</event>
<event>
 5   0  0.3648616E-03  0.1249737E+04  0.7818609E-02  0.9070402E-01
        1   -1    0    0  501    0  0.00000000000E+00  0.00000000000E+00  0.45124537451E+03  0.45124537454E+03  0.50400001928E-02 0.  1.
       -1   -1    0    0    0  501  0.00000000000E+00  0.00000000000E+00 -0.86529608842E+03  0.86529608844E+03  0.50400001928E-02 0. -1.
    10030    2    1    2    0    0  0.00000000000E+00  0.00000000000E+00 -0.41405071391E+03  0.13165414630E+04  0.12497373444E+04 0.  0.
        2    1    3    3  502    0 -0.23023816598E+03 -0.27312375106E+03 -0.74712468255E+03  0.82813132277E+03  0.25500000920E-02 0. -1.
       -2    1    3    3    0  502  0.23023816598E+03  0.27312375106E+03  0.33307396863E+03  0.48841014021E+03  0.25500000920E-02 0.  1.
</event>
<event>
 5   0  0.3648616E-03  0.1238856E+04  0.7818609E-02  0.9079509E-01
       -1   -1    0    0    0  501  0.00000000000E+00  0.00000000000E+00  0.18886759403E+03  0.18886759410E+03  0.50400001928E-02 0. -1.
        1   -1    0    0  501    0  0.00000000000E+00  0.00000000000E+00 -0.20315357431E+04  0.20315357432E+04  0.50400001928E-02 0.  1.
    10030    2    1    2    0    0  0.00000000000E+00  0.00000000000E+00 -0.18426681491E+04  0.22204033373E+04  0.12388563566E+04 0.  0.
        2    1    3    3  502    0  0.29730473308E+03  0.19144475175E+02  0.52026651418E+02  0.30242914493E+03  0.25500000920E-02 0. -1.
       -2    1    3    3    0  502 -0.29730473308E+03 -0.19144475175E+02 -0.18946948005E+04  0.19179741923E+04  0.25500000920E-02 0.  1.
</event>
<event>
 5   0  0.3944074E-03  0.1261549E+04  0.7818609E-02  0.9060626E-01
        1   -1    0    0  501    0  0.00000000000E+00  0.00000000000E+00  0.71994815362E+03  0.71994815363E+03  0.50400001928E-02 0. -1.
       -1   -1    0    0    0  501  0.00000000000E+00  0.00000000000E+00 -0.55264560073E+03  0.55264560075E+03  0.50400001928E-02 0.  1.
    10030    2    1    2    0    0  0.00000000000E+00  0.00000000000E+00  0.16730255289E+03  0.12725937544E+04  0.12615485403E+04 0.  0.
        4    1    3    3  502    0  0.48457610089E+03 -0.30353370645E+03  0.35230585457E+03  0.67161576557E+03  0.12699999809E+01 0. -1.
       -4    1    3    3    0  502 -0.48457610089E+03  0.30353370645E+03 -0.18500330168E+03  0.60097798881E+03  0.12699999809E+01 0.  1.
</event>
<event>
 5   0  0.3731281E-03  0.1110790E+04  0.7818609E-02  0.9194738E-01
        1   -1    0    0  501    0  0.00000000000E+00  0.00000000000E+00  0.74966989995E+03  0.74966989997E+03  0.50400001928E-02 0. -1.
       -1   -1    0    0    0  501  0.00000000000E+00  0.00000000000E+00 -0.41146599495E+03  0.41146599498E+03  0.50400001928E-02 0.  1.
    10030    2    1    2    0    0  0.00000000000E+00  0.00000000000E+00  0.33820390500E+03  0.11611358949E+04  0.11107901175E+04 0.  0.
        5    1    3    3  502    0  0.26407504786E+03  0.42779028457E+03 -0.77606590251E+02  0.50870918148E+03  0.46999998093E+01 0.  1.
       -5    1    3    3    0  502 -0.26407504786E+03 -0.42779028457E+03  0.41581049526E+03  0.65242671346E+03  0.46999998093E+01 0. -1.
</event>
<event>
 5   0  0.3731281E-03  0.1182581E+04  0.7818609E-02  0.9128241E-01
        1   -1    0    0  501    0  0.00000000000E+00  0.00000000000E+00  0.14458563639E+04  0.14458563639E+04  0.50400001928E-02 0.  1.
       -1   -1    0    0    0  501  0.00000000000E+00  0.00000000000E+00 -0.24181133429E+03  0.24181133434E+03  0.50400001928E-02 0. -1.
    10030    2    1    2    0    0  0.00000000000E+00  0.00000000000E+00  0.12040450296E+04  0.16876676982E+04  0.11825810020E+04 0.  0.
        5    1    3    3  502    0  0.57704951652E+03 -0.12337534015E+03  0.54872538284E+03  0.80580968897E+03  0.46999998093E+01 0. -1.
       -5    1    3    3    0  502 -0.57704951652E+03  0.12337534015E+03  0.65531964675E+03  0.88185800925E+03  0.46999998093E+01 0.  1.
</event>
<event>
 5   0  0.6493047E-03  0.1223303E+04  0.7818609E-02  0.9092701E-01
       -2   -1    0    0    0  501  0.00000000000E+00  0.00000000000E+00  0.31773158734E+03  0.31773158735E+03  0.25500000920E-02 0. -1.
        2   -1    0    0  501    0  0.00000000000E+00  0.00000000000E+00 -0.11774634711E+04  0.11774634711E+04  0.25500000920E-02 0.  1.
    10030    2    1    2    0    0  0.00000000000E+00  0.00000000000E+00 -0.85973188379E+03  0.14951950585E+04  0.12233026408E+04 0.  0.
        3    1    3    3  502    0 -0.26664715139E+03  0.23238750656E+03 -0.10397884537E+04  0.10983008218E+04  0.10100000352E+00 0.  1.
       -3    1    3    3    0  502  0.26664715139E+03 -0.23238750656E+03  0.18005656989E+03  0.39689423668E+03  0.10100000352E+00 0. -1.
</event>
<event>
 5   0  0.6493047E-03  0.1202904E+04  0.7818609E-02  0.9110318E-01
        2   -1    0    0  501    0  0.00000000000E+00  0.00000000000E+00  0.66921655345E+03  0.66921655345E+03  0.25500000920E-02 0.  1.
       -2   -1    0    0    0  501  0.00000000000E+00  0.00000000000E+00 -0.54054966801E+03  0.54054966802E+03  0.25500000920E-02 0. -1.
    10030    2    1    2    0    0  0.00000000000E+00  0.00000000000E+00  0.12866688543E+03  0.12097662215E+04  0.12029044614E+04 0.  0.
        3    1    3    3  502    0  0.18392355444E+03  0.56494040018E+03  0.15845815887E+03  0.61489391601E+03  0.10100000352E+00 0.  1.
       -3    1    3    3    0  502 -0.18392355444E+03 -0.56494040018E+03 -0.29791273435E+02  0.59487230546E+03  0.10100000352E+00 0. -1.
</event>
<event>
 5   0  0.3731281E-03  0.1080925E+04  0.7818609E-02  0.9223986E-01
       -1   -1    0    0    0  501  0.00000000000E+00  0.00000000000E+00  0.30422772952E+03  0.30422772956E+03  0.50400001928E-02 0. -1.
        1   -1    0    0  501    0  0.00000000000E+00  0.00000000000E+00 -0.96013445258E+03  0.96013445259E+03  0.50400001928E-02 0.  1.
    10030    2    1    2    0    0  0.00000000000E+00  0.00000000000E+00 -0.65590672306E+03  0.12643621822E+04  0.10809246497E+04 0.  0.
        5    1    3    3  502    0 -0.33533509363E+03  0.32689755980E+02  0.16631997082E+03  0.37576943444E+03  0.46999998093E+01 0. -1.
       -5    1    3    3    0  502  0.33533509363E+03 -0.32689755980E+02 -0.82222669388E+03  0.88859274771E+03  0.46999998093E+01 0.  1.
</event>
<event>
 5   0  0.6349142E-03  0.1206208E+04  0.7818609E-02  0.9107440E-01
        2   -1    0    0  501    0  0.00000000000E+00  0.00000000000E+00  0.10288061610E+04  0.10288061610E+04  0.25500000920E-02 0.  1.
       -2   -1    0    0    0  501  0.00000000000E+00  0.00000000000E+00 -0.35354989061E+03  0.35354989062E+03  0.25500000920E-02 0. -1.
    10030    2    1    2    0    0  0.00000000000E+00  0.00000000000E+00  0.67525627038E+03  0.13823560516E+04  0.12062077859E+04 0.  0.
        1    1    3    3  502    0  0.32360265213E+03 -0.49756354692E+03  0.21501770091E+03  0.63128501600E+03  0.50400001928E-02 0. -1.
       -1    1    3    3    0  502 -0.32360265213E+03  0.49756354692E+03  0.46023856947E+03  0.75107103562E+03  0.50400001928E-02 0.  1.
</event>
<event>
 5   0  0.3648616E-03  0.1137908E+04  0.7818609E-02  0.9169012E-01
       -1   -1    0    0    0  501  0.00000000000E+00  0.00000000000E+00  0.17992982396E+03  0.17992982403E+03  0.50400001928E-02 0.  1.
        1   -1    0    0  501    0  0.00000000000E+00  0.00000000000E+00 -0.17990813071E+04  0.17990813071E+04  0.50400001928E-02 0. -1.
    10030    2    1    2    0    0  0.00000000000E+00  0.00000000000E+00 -0.16191514832E+04  0.19790111312E+04  0.11379075234E+04 0.  0.
        2    1    3    3  502    0 -0.70352858656E+02  0.55802860744E+03 -0.95880935289E+03  0.11116028187E+04  0.25500000920E-02 0.  1.
       -2    1    3    3    0  502  0.70352858656E+02 -0.55802860744E+03 -0.66034213028E+03  0.86740831243E+03  0.25500000920E-02 0. -1.
</event>
<event>
 5   0  0.6493047E-03  0.1158674E+04  0.7818609E-02  0.9149819E-01
       -2   -1    0    0    0  501  0.00000000000E+00  0.00000000000E+00  0.41320590525E+03  0.41320590526E+03  0.25500000920E-02 0. -1.
        2   -1    0    0  501    0  0.00000000000E+00  0.00000000000E+00 -0.81226122351E+03  0.81226122352E+03  0.25500000920E-02 0.  1.
    10030    2    1    2    0    0  0.00000000000E+00  0.00000000000E+00 -0.39905531826E+03  0.12254671288E+04  0.11586736109E+04 0.  0.
        3    1    3    3  502    0  0.38879721216E+03 -0.29831904439E+03  0.12727245449E+03  0.50631592144E+03  0.10100000352E+00 0. -1.
       -3    1    3    3    0  502 -0.38879721216E+03  0.29831904439E+03 -0.52632777276E+03  0.71915120733E+03  0.10100000352E+00 0.  1.
</event>
<event>
 5   0  0.6658994E-03  0.1179934E+04  0.7818609E-02  0.9130604E-01
       -2   -1    0    0    0  501  0.00000000000E+00  0.00000000000E+00  0.52305940041E+03  0.52305940042E+03  0.25500000920E-02 0.  1.
        2   -1    0    0  501    0  0.00000000000E+00  0.00000000000E+00 -0.66543284656E+03  0.66543284656E+03  0.25500000920E-02 0. -1.
    10030    2    1    2    0    0  0.00000000000E+00  0.00000000000E+00 -0.14237344615E+03  0.11884922470E+04  0.11799337367E+04 0.  0.
        4    1    3    3  502    0  0.26478462500E+03 -0.85512003576E+02  0.45281364432E+03  0.53147437359E+03  0.12699999809E+01 0.  1.
       -4    1    3    3    0  502 -0.26478462500E+03  0.85512003576E+02 -0.59518709047E+03  0.65701787339E+03  0.12699999809E+01 0. -1.
</event>
<event>
 5   0  0.6640844E-03  0.1171121E+04  0.7818609E-02  0.9138516E-01
       -2   -1    0    0    0  501  0.00000000000E+00  0.00000000000E+00  0.33413999256E+03  0.33413999257E+03  0.25500000920E-02 0. -1.
        2   -1    0    0  501    0  0.00000000000E+00  0.00000000000E+00 -0.10261606850E+04  0.10261606850E+04  0.25500000920E-02 0.  1.
    10030    2    1    2    0    0  0.00000000000E+00  0.00000000000E+00 -0.69202069243E+03  0.13603006776E+04  0.11711213834E+04 0.  0.
        5    1    3    3  502    0  0.35884561065E+03 -0.48169878981E+02  0.18850959704E+03  0.40822600076E+03  0.46999998093E+01 0. -1.
       -5    1    3    3    0  502 -0.35884561065E+03  0.48169878981E+02 -0.88053028948E+03  0.95207467680E+03  0.46999998093E+01 0.  1.
</event>
<event>
 5   0  0.3701879E-03  0.1115886E+04  0.7818609E-02  0.9189845E-01
        1   -1    0    0  501    0  0.00000000000E+00  0.00000000000E+00  0.75390611457E+03  0.75390611459E+03  0.50400001928E-02 0. -1.
       -1   -1    0    0    0  501  0.00000000000E+00  0.00000000000E+00 -0.41291670766E+03  0.41291670769E+03  0.50400001928E-02 0.  1.
    10030    2    1    2    0    0  0.00000000000E+00  0.00000000000E+00  0.34098940691E+03  0.11668228223E+04  0.11158860708E+04 0.  0.
        1    1    3    3  502    0  0.13519298637E+03 -0.13632409923E+03 -0.37728759522E+03  0.42332887112E+03  0.50400001928E-02 0.  1.
       -1    1    3    3    0  502 -0.13519298637E+03  0.13632409923E+03  0.71827700213E+03  0.74349395116E+03  0.50400001928E-02 0. -1.
</event>
<event>
 5   0  0.3772254E-03  0.1199901E+04  0.7818609E-02  0.9112943E-01
        1   -1    0    0  501    0  0.00000000000E+00  0.00000000000E+00  0.53158581197E+03  0.53158581199E+03  0.50400001928E-02 0. -1.
       -1   -1    0    0    0  501  0.00000000000E+00  0.00000000000E+00 -0.67710766600E+03  0.67710766602E+03  0.50400001928E-02 0.  1.
    10030    2    1    2    0    0  0.00000000000E+00  0.00000000000E+00 -0.14552185403E+03  0.12086934780E+04  0.11999013767E+04 0.  0.
        3    1    3    3  502    0 -0.53240830887E+03 -0.78128836444E+02 -0.33999349382E+03  0.63652046981E+03  0.10100000352E+00 0.  1.
       -3    1    3    3    0  502  0.53240830887E+03  0.78128836444E+02  0.19447163979E+03  0.57217300821E+03  0.10100000352E+00 0. -1.
</event>
<event>
 5   0  0.3944074E-03  0.7319736E+03  0.7818609E-02  0.9664063E-01
       -1   -1    0    0    0  501  0.00000000000E+00  0.00000000000E+00  0.22309783068E+03  0.22309783074E+03  0.50400001928E-02 0. -1.
        1   -1    0    0  501    0  0.00000000000E+00  0.00000000000E+00 -0.60039281112E+03  0.60039281114E+03  0.50400001928E-02 0.  1.
    10030    2    1    2    0    0  0.00000000000E+00  0.00000000000E+00 -0.37729498044E+03  0.82349064188E+03  0.73197358900E+03 0.  0.
        4    1    3    3  502    0  0.96278140848E+02  0.32929173272E+03 -0.33202651428E+03  0.47743663949E+03  0.12699999809E+01 0.  1.
       -4    1    3    3    0  502 -0.96278140848E+02 -0.32929173272E+03 -0.45268466162E+02  0.34605400239E+03  0.12699999809E+01 0. -1.
</event>
<event>
 5   0  0.3731281E-03  0.1158768E+04  0.7818609E-02  0.9149732E-01
        1   -1    0    0  501    0  0.00000000000E+00  0.00000000000E+00  0.25731258300E+03  0.25731258305E+03  0.50400001928E-02 0.  1.
       -1   -1    0    0    0  501  0.00000000000E+00  0.00000000000E+00 -0.13045844911E+04  0.13045844911E+04  0.50400001928E-02 0. -1.
    10030    2    1    2    0    0  0.00000000000E+00  0.00000000000E+00 -0.10472719081E+04  0.15618970742E+04  0.11587683206E+04 0.  0.
        5    1    3    3  502    0 -0.57858435750E+03 -0.19989129875E+02 -0.49336106396E+03  0.76064883716E+03  0.46999998093E+01 0.  1.
       -5    1    3    3    0  502  0.57858435750E+03  0.19989129875E+02 -0.55391084418E+03  0.80124823703E+03  0.46999998093E+01 0. -1.
</event>
<event>
 5   0  0.6493047E-03  0.1175814E+04  0.7818609E-02  0.9134294E-01
       -2   -1    0    0    0  501  0.00000000000E+00  0.00000000000E+00  0.13988751597E+04  0.13988751597E+04  0.25500000920E-02 0. -1.
        2   -1    0    0  501    0  0.00000000000E+00  0.00000000000E+00 -0.24708040085E+03  0.24708040086E+03  0.25500000920E-02 0.  1.
    10030    2    1    2    0    0  0.00000000000E+00  0.00000000000E+00  0.11517947589E+04  0.16459555606E+04  0.11758139908E+04 0.  0.
        3    1    3    3  502    0  0.19194848168E+03  0.44777356046E+03  0.10365485115E+04  0.11453288645E+04  0.10100000352E+00 0. -1.
       -3    1    3    3    0  502 -0.19194848168E+03 -0.44777356046E+03  0.11524624738E+03  0.50062669606E+03  0.10100000352E+00 0.  1.
</event>
<event>
 5   0  0.3648616E-03  0.1212881E+04  0.7818609E-02  0.9101656E-01
        1   -1    0    0  501    0  0.00000000000E+00  0.00000000000E+00  0.12137556757E+04  0.12137556757E+04  0.50400001928E-02 0.  1.
       -1   -1    0    0    0  501  0.00000000000E+00  0.00000000000E+00 -0.30300179653E+03  0.30300179657E+03  0.50400001928E-02 0. -1.
    10030    2    1    2    0    0  0.00000000000E+00  0.00000000000E+00  0.91075387913E+03  0.15167574722E+04  0.12128811159E+04 0.  0.
        2    1    3    3  502    0  0.30816201267E+02 -0.18974116658E+03 -0.26389480651E+03  0.32648402330E+03  0.25500000920E-02 0. -1.
       -2    1    3    3    0  502 -0.30816201267E+02  0.18974116658E+03  0.11746486856E+04  0.11902734489E+04  0.25500000920E-02 0.  1.
</event>
<event>
 5   0  0.3944074E-03  0.1209763E+04  0.7818609E-02  0.9104354E-01
       -1   -1    0    0    0  501  0.00000000000E+00  0.00000000000E+00  0.24792317296E+03  0.24792317301E+03  0.50400001928E-02 0.  1.
        1   -1    0    0  501    0  0.00000000000E+00  0.00000000000E+00 -0.14757860653E+04  0.14757860654E+04  0.50400001928E-02 0. -1.
    10030    2    1    2    0    0  0.00000000000E+00  0.00000000000E+00 -0.12278628924E+04  0.17237092384E+04  0.12097628924E+04 0.  0.
        4    1    3    3  502    0 -0.33768892429E+03  0.11224905708E+03 -0.13108569485E+04  0.13583008550E+04  0.12699999809E+01 0. -1.
       -4    1    3    3    0  502  0.33768892429E+03 -0.11224905708E+03  0.82994056083E+02  0.36540838339E+03  0.12699999809E+01 0.  1.
</event>
<event>
 5   0  0.3772254E-03  0.1193707E+04  0.7818609E-02  0.9118383E-01
        1   -1    0    0  501    0  0.00000000000E+00  0.00000000000E+00  0.15334572886E+04  0.15334572886E+04  0.50400001928E-02 0. -1.
       -1   -1    0    0    0  501  0.00000000000E+00  0.00000000000E+00 -0.23230761613E+03  0.23230761618E+03  0.50400001928E-02 0.  1.
    10030    2    1    2    0    0  0.00000000000E+00  0.00000000000E+00  0.13011496724E+04  0.17657649048E+04  0.11937065087E+04 0.  0.
        3    1    3    3  502    0  0.36967143559E+03  0.23824579220E+03  0.12474500598E+04  0.13227054433E+04  0.10100000352E+00 0. -1.
       -3    1    3    3    0  502 -0.36967143559E+03 -0.23824579220E+03  0.53699612623E+02  0.44305946146E+03  0.10100000352E+00 0.  1.
</event>
<event>
 5   0  0.3944074E-03  0.1220718E+04  0.7818609E-02  0.9094913E-01
       -1   -1    0    0    0  501  0.00000000000E+00  0.00000000000E+00  0.53416355777E+03  0.53416355780E+03  0.50400001928E-02 0. -1.
        1   -1    0    0  501    0  0.00000000000E+00  0.00000000000E+00 -0.69742299810E+03  0.69742299812E+03  0.50400001928E-02 0.  1.
    10030    2    1    2    0    0  0.00000000000E+00  0.00000000000E+00 -0.16325944033E+03  0.12315865559E+04  0.12207177396E+04 0.  0.
        4    1    3    3  502    0 -0.20122936164E+03 -0.34609874109E+03 -0.54644722722E+03  0.67740960991E+03  0.12699999809E+01 0.  1.
       -4    1    3    3    0  502  0.20122936164E+03  0.34609874109E+03  0.38318778689E+03  0.55417694601E+03  0.12699999809E+01 0. -1.
</event>
<event>
 5   0  0.6585930E-03  0.1188693E+04  0.7818609E-02  0.9122812E-01
       -2   -1    0    0    0  501  0.00000000000E+00  0.00000000000E+00  0.26104674007E+03  0.26104674008E+03  0.25500000920E-02 0. -1.
        2   -1    0    0  501    0  0.00000000000E+00  0.00000000000E+00 -0.13531963703E+04  0.13531963703E+04  0.25500000920E-02 0.  1.
    10030    2    1    2    0    0  0.00000000000E+00  0.00000000000E+00 -0.10921496302E+04  0.16142431104E+04  0.11886925610E+04 0.  0.
        2    1    3    3  502    0 -0.47278591370E+02  0.58414499416E+03 -0.68041969615E+03  0.89801536864E+03  0.25500000920E-02 0.  1.
       -2    1    3    3    0  502  0.47278591370E+02 -0.58414499416E+03 -0.41172993406E+03  0.71622774172E+03  0.25500000920E-02 0. -1.
</event>
<event>
 5   0  0.6640844E-03  0.1198035E+04  0.7818609E-02  0.9114578E-01
       -2   -1    0    0    0  501  0.00000000000E+00  0.00000000000E+00  0.10883408452E+04  0.10883408452E+04  0.25500000920E-02 0.  1.
        2   -1    0    0  501    0  0.00000000000E+00  0.00000000000E+00 -0.32969644667E+03  0.32969644668E+03  0.25500000920E-02 0. -1.
    10030    2    1    2    0    0  0.00000000000E+00  0.00000000000E+00  0.75864439855E+03  0.14180372919E+04  0.11980352406E+04 0.  0.
        5    1    3    3  502    0 -0.16070641751E+03 -0.46662125527E+02  0.10600888270E+04  0.10732261261E+04  0.46999998093E+01 0.  1.
       -5    1    3    3    0  502  0.16070641751E+03  0.46662125527E+02 -0.30144442848E+03  0.34481116578E+03  0.46999998093E+01 0. -1.
</event>
<event>
 5   0  0.6493047E-03  0.1221993E+04  0.7818609E-02  0.9093821E-01
       -2   -1    0    0    0  501  0.00000000000E+00  0.00000000000E+00  0.47692876869E+03  0.47692876869E+03  0.25500000920E-02 0. -1.
        2   -1    0    0  501    0  0.00000000000E+00  0.00000000000E+00 -0.78275198200E+03  0.78275198200E+03  0.25500000920E-02 0.  1.
    10030    2    1    2    0    0  0.00000000000E+00  0.00000000000E+00 -0.30582321331E+03  0.12596807507E+04  0.12219933534E+04 0.  0.
        3    1    3    3  502    0  0.68534378021E+02 -0.10422532951E+03 -0.76948637530E+03  0.77953137991E+03  0.10100000352E+00 0.  1.
       -3    1    3    3    0  502 -0.68534378021E+02  0.10422532951E+03  0.46366316199E+03  0.48014937079E+03  0.10100000352E+00 0. -1.
</event>
<event>
 5   0  0.6640844E-03  0.1180135E+04  0.7818609E-02  0.9130424E-01
       -2   -1    0    0    0  501  0.00000000000E+00  0.00000000000E+00  0.47497287537E+03  0.47497287538E+03  0.25500000920E-02 0.  1.
        2   -1    0    0  501    0  0.00000000000E+00  0.00000000000E+00 -0.73305198615E+03  0.73305198615E+03  0.25500000920E-02 0. -1.
    10030    2    1    2    0    0  0.00000000000E+00  0.00000000000E+00 -0.25807911078E+03  0.12080248615E+04  0.11801352629E+04 0.  0.
        5    1    3    3  502    0 -0.46647893587E+03 -0.18159087360E+03  0.19072050505E+03  0.53569977042E+03  0.46999998093E+01 0.  1.
       -5    1    3    3    0  502  0.46647893587E+03  0.18159087360E+03 -0.44879961582E+03  0.67232509112E+03  0.46999998093E+01 0. -1.
</event>
<event>
 5   0  0.3944074E-03  0.1218582E+04  0.7818609E-02  0.9096745E-01
       -1   -1    0    0    0  501  0.00000000000E+00  0.00000000000E+00  0.11960896588E+04  0.11960896588E+04  0.50400001928E-02 0.  1.
        1   -1    0    0  501    0  0.00000000000E+00  0.00000000000E+00 -0.31037437081E+03  0.31037437085E+03  0.50400001928E-02 0. -1.
    10030    2    1    2    0    0  0.00000000000E+00  0.00000000000E+00  0.88571528800E+03  0.15064640297E+04  0.12185820864E+04 0.  0.
        4    1    3    3  502    0 -0.55409067662E+02  0.41558523970E+03  0.98940125364E+03  0.10745686157E+04  0.12699999809E+01 0.  1.
       -4    1    3    3    0  502  0.55409067662E+02 -0.41558523970E+03 -0.10368596564E+03  0.43189541397E+03  0.12699999809E+01 0. -1.
</event>
<event>
 5   0  0.3772254E-03  0.1214130E+04  0.7818609E-02  0.9100578E-01
       -1   -1    0    0    0  501  0.00000000000E+00  0.00000000000E+00  0.44860478036E+03  0.44860478039E+03  0.50400001928E-02 0. -1.
        1   -1    0    0  501    0  0.00000000000E+00  0.00000000000E+00 -0.82149781399E+03  0.82149781400E+03  0.50400001928E-02 0.  1.
    10030    2    1    2    0    0  0.00000000000E+00  0.00000000000E+00 -0.37289303363E+03  0.12701025944E+04  0.12141298883E+04 0.  0.
        3    1    3    3  502    0  0.14140084327E+03 -0.27769803425E+03  0.35854849514E+03  0.47504466135E+03  0.10100000352E+00 0. -1.
       -3    1    3    3    0  502 -0.14140084327E+03  0.27769803425E+03 -0.73144152876E+03  0.79505793305E+03  0.10100000352E+00 0.  1.
</event>
<event>
 5   0  0.3772254E-03  0.1173481E+04  0.7818609E-02  0.9136391E-01
       -1   -1    0    0    0  501  0.00000000000E+00  0.00000000000E+00  0.85821051356E+03  0.85821051357E+03  0.50400001928E-02 0. -1.
        1   -1    0    0  501    0  0.00000000000E+00  0.00000000000E+00 -0.40114211556E+03  0.40114211559E+03  0.50400001928E-02 0.  1.
    10030    2    1    2    0    0  0.00000000000E+00  0.00000000000E+00  0.45706839800E+03  0.12593526292E+04  0.11734809432E+04 0.  0.
        3    1    3    3  502    0 -0.49361025446E+02  0.66092409433E+02  0.85195636541E+03  0.85594063824E+03  0.10100000352E+00 0. -1.
       -3    1    3    3    0  502  0.49361025446E+02 -0.66092409433E+02 -0.39488796741E+03  0.40341199093E+03  0.10100000352E+00 0.  1.
</event>
<event>
 5   0  0.3731281E-03  0.1012747E+04  0.7818609E-02  0.9294673E-01
       -1   -1    0    0    0  501  0.00000000000E+00  0.00000000000E+00  0.25547154373E+03  0.25547154378E+03  0.50400001928E-02 0. -1.
        1   -1    0    0  501    0  0.00000000000E+00  0.00000000000E+00 -0.10036898584E+04  0.10036898584E+04  0.50400001928E-02 0.  1.
    10030    2    1    2    0    0  0.00000000000E+00  0.00000000000E+00 -0.74821831470E+03  0.12591614022E+04  0.10127471503E+04 0.  0.
        5    1    3    3  502    0 -0.66799706802E+02 -0.12654834094E+03  0.22978181976E+03  0.27073687985E+03  0.46999998093E+01 0. -1.
       -5    1    3    3    0  502  0.66799706802E+02  0.12654834094E+03 -0.97800013446E+03  0.98842452237E+03  0.46999998093E+01 0.  1.
</event>
<event>
 5   0  0.6585930E-03  0.1213963E+04  0.7818609E-02  0.9100722E-01
        2   -1    0    0  501    0  0.00000000000E+00  0.00000000000E+00  0.12279314873E+04  0.12279314873E+04  0.25500000920E-02 0.  1.
       -2   -1    0    0    0  501  0.00000000000E+00  0.00000000000E+00 -0.30003847563E+03  0.30003847564E+03  0.25500000920E-02 0. -1.
    10030    2    1    2    0    0  0.00000000000E+00  0.00000000000E+00  0.92789301170E+03  0.15279699630E+04  0.12139632476E+04 0.  0.
        2    1    3    3  502    0 -0.22732131084E+03  0.11258423142E+03  0.11580124094E+04  0.11854716057E+04  0.25500000920E-02 0.  1.
       -2    1    3    3    0  502  0.22732131084E+03 -0.11258423142E+03 -0.23011939772E+03  0.34249835728E+03  0.25500000920E-02 0. -1.
</event>
<event>
 5   0  0.6493047E-03  0.1310376E+04  0.7818609E-02  0.9021377E-01
        2   -1    0    0  501    0  0.00000000000E+00  0.00000000000E+00  0.55107366635E+03  0.55107366636E+03  0.25500000920E-02 0.  1.
       -2   -1    0    0    0  501  0.00000000000E+00  0.00000000000E+00 -0.77897273036E+03  0.77897273037E+03  0.25500000920E-02 0. -1.
    10030    2    1    2    0    0  0.00000000000E+00  0.00000000000E+00 -0.22789906401E+03  0.13300463967E+04  0.13103760659E+04 0.  0.
        3    1    3    3  502    0  0.61511322242E+03 -0.20790683555E+03 -0.24987869089E+02  0.64977991079E+03  0.10100000352E+00 0.  1.
       -3    1    3    3    0  502 -0.61511322242E+03  0.20790683555E+03 -0.20291119492E+03  0.68026648594E+03  0.10100000352E+00 0. -1.
</event>
<event>
 5   0  0.6493047E-03  0.1016981E+04  0.7818609E-02  0.9290114E-01
       -2   -1    0    0    0  501  0.00000000000E+00  0.00000000000E+00  0.22940425109E+03  0.22940425110E+03  0.25500000920E-02 0. -1.
        2   -1    0    0  501    0  0.00000000000E+00  0.00000000000E+00 -0.11271048921E+04  0.11271048921E+04  0.25500000920E-02 0.  1.
    10030    2    1    2    0    0  0.00000000000E+00  0.00000000000E+00 -0.89770064103E+03  0.13565091432E+04  0.10169811280E+04 0.  0.
        3    1    3    3  502    0 -0.20819796460E+03 -0.31780474203E+03 -0.89964009847E+03  0.97657491443E+03  0.10100000352E+00 0.  1.
       -3    1    3    3    0  502  0.20819796460E+03  0.31780474203E+03  0.19394574326E+01  0.37993422880E+03  0.10100000352E+00 0. -1.
</event>
<event>
 5   0  0.3648616E-03  0.1201116E+04  0.7818609E-02  0.9111881E-01
       -1   -1    0    0    0  501  0.00000000000E+00  0.00000000000E+00  0.28829195397E+03  0.28829195402E+03  0.50400001928E-02 0. -1.
        1   -1    0    0  501    0  0.00000000000E+00  0.00000000000E+00 -0.12510569576E+04  0.12510569576E+04  0.50400001928E-02 0.  1.
    10030    2    1    2    0    0  0.00000000000E+00  0.00000000000E+00 -0.96276500366E+03  0.15393489117E+04  0.12011155729E+04 0.  0.
        2    1    3    3  502    0 -0.40829610244E+03  0.41970197341E+03 -0.31032763043E+03  0.66269049486E+03  0.25500000920E-02 0. -1.
       -2    1    3    3    0  502  0.40829610244E+03 -0.41970197341E+03 -0.65243737323E+03  0.87665841680E+03  0.25500000920E-02 0.  1.
</event>
<event>
 5   0  0.6658994E-03  0.1159358E+04  0.7818609E-02  0.9149194E-01
       -2   -1    0    0    0  501  0.00000000000E+00  0.00000000000E+00  0.30756731000E+03  0.30756731001E+03  0.25500000920E-02 0. -1.
        2   -1    0    0  501    0  0.00000000000E+00  0.00000000000E+00 -0.10925332778E+04  0.10925332778E+04  0.25500000920E-02 0.  1.
    10030    2    1    2    0    0  0.00000000000E+00  0.00000000000E+00 -0.78496596778E+03  0.14001005878E+04  0.11593576176E+04 0.  0.
        4    1    3    3  502    0 -0.79208238118E+02  0.16008968544E+03  0.27350536859E+03  0.32666412708E+03  0.12699999809E+01 0. -1.
       -4    1    3    3    0  502  0.79208238118E+02 -0.16008968544E+03 -0.10584713364E+04  0.10734364607E+04  0.12699999809E+01 0.  1.
</event>
<event>
 5   0  0.6493047E-03  0.1207604E+04  0.7818609E-02  0.9106227E-01
        2   -1    0    0  501    0  0.00000000000E+00  0.00000000000E+00  0.66486592002E+03  0.66486592002E+03  0.25500000920E-02 0.  1.
       -2   -1    0    0    0  501  0.00000000000E+00  0.00000000000E+00 -0.54834654364E+03  0.54834654365E+03  0.25500000920E-02 0. -1.
    10030    2    1    2    0    0  0.00000000000E+00  0.00000000000E+00  0.11651937638E+03  0.12132124637E+04  0.12076041226E+04 0.  0.
        3    1    3    3  502    0 -0.45729208757E+03  0.26770442110E+03 -0.23255870429E+03  0.57867544580E+03  0.10100000352E+00 0. -1.
       -3    1    3    3    0  502  0.45729208757E+03 -0.26770442110E+03  0.34907808067E+03  0.63453701786E+03  0.10100000352E+00 0.  1.
</event>
<event>
 5   0  0.6493047E-03  0.1175637E+04  0.7818609E-02  0.9134453E-01
        2   -1    0    0  501    0  0.00000000000E+00  0.00000000000E+00  0.48199904704E+03  0.48199904705E+03  0.25500000920E-02 0. -1.
       -2   -1    0    0    0  501  0.00000000000E+00  0.00000000000E+00 -0.71686931278E+03  0.71686931278E+03  0.25500000920E-02 0.  1.
    10030    2    1    2    0    0  0.00000000000E+00  0.00000000000E+00 -0.23487026573E+03  0.11988683598E+04  0.11756365520E+04 0.  0.
        3    1    3    3  502    0  0.17356897253E+03  0.55462470797E+03 -0.27397909908E+02  0.58179499017E+03  0.10100000352E+00 0. -1.
       -3    1    3    3    0  502 -0.17356897253E+03 -0.55462470797E+03 -0.20747235582E+03  0.61707336966E+03  0.10100000352E+00 0.  1.
</event>
<event>
 5   0  0.2537625E-03  0.1058280E+04  0.7818609E-02  0.9246837E-01
       -3   -1    0    0    0  501  0.00000000000E+00  0.00000000000E+00  0.31793851306E+04  0.31793851322E+04  0.10100000352E+00 0.  1.
        3   -1    0    0  501    0  0.00000000000E+00  0.00000000000E+00 -0.88063952975E+02  0.88064010893E+02  0.10100000352E+00 0. -1.
    10030    2    1    2    0    0  0.00000000000E+00  0.00000000000E+00  0.30913211776E+04  0.32674491431E+04  0.10582803407E+04 0.  0.
        3    1    3    3  502    0  0.27232337612E+03 -0.48612794192E+01  0.14498757410E+03  0.30855317218E+03  0.10100000352E+00 0. -1.
       -3    1    3    3    0  502 -0.27232337612E+03  0.48612794192E+01  0.29463336035E+04  0.29588959709E+04  0.10100000352E+00 0.  1.
</event>
<event>
 5   0  0.6493047E-03  0.1246414E+04  0.7818609E-02  0.9073173E-01
       -2   -1    0    0    0  501  0.00000000000E+00  0.00000000000E+00  0.68911698310E+03  0.68911698310E+03  0.25500000920E-02 0.  1.
        2   -1    0    0  501    0  0.00000000000E+00  0.00000000000E+00 -0.56360057344E+03  0.56360057345E+03  0.25500000920E-02 0. -1.
    10030    2    1    2    0    0  0.00000000000E+00  0.00000000000E+00  0.12551640965E+03  0.12527175566E+04  0.12464136181E+04 0.  0.
        3    1    3    3  502    0  0.59388892069E+03  0.10405894372E+03  0.22120835110E+03  0.64223473800E+03  0.10100000352E+00 0. -1.
       -3    1    3    3    0  502 -0.59388892069E+03 -0.10405894372E+03 -0.95691941448E+02  0.61048281856E+03  0.10100000352E+00 0.  1.
</event>
<event>
 5   0  0.6640844E-03  0.1197581E+04  0.7818609E-02  0.9114976E-01
       -2   -1    0    0    0  501  0.00000000000E+00  0.00000000000E+00  0.31123024431E+03  0.31123024432E+03  0.25500000920E-02 0. -1.
        2   -1    0    0  501    0  0.00000000000E+00  0.00000000000E+00 -0.11520414218E+04  0.11520414218E+04  0.25500000920E-02 0.  1.
    10030    2    1    2    0    0  0.00000000000E+00  0.00000000000E+00 -0.84081117748E+03  0.14632716661E+04  0.11975811174E+04 0.  0.
        5    1    3    3  502    0  0.36247928252E+02  0.81660997682E+02  0.30301737630E+03  0.31594944403E+03  0.46999998093E+01 0. -1.
       -5    1    3    3    0  502 -0.36247928252E+02 -0.81660997682E+02 -0.11438285538E+04  0.11473222221E+04  0.46999998093E+01 0.  1.
</event>
<event>
 5   0  0.3772254E-03  0.1271473E+04  0.7818609E-02  0.9052498E-01
       -1   -1    0    0    0  501  0.00000000000E+00  0.00000000000E+00  0.43616115590E+03  0.43616115593E+03  0.50400001928E-02 0.  1.
        1   -1    0    0  501    0  0.00000000000E+00  0.00000000000E+00 -0.92663183602E+03  0.92663183603E+03  0.50400001928E-02 0. -1.
    10030    2    1    2    0    0  0.00000000000E+00  0.00000000000E+00 -0.49047068012E+03  0.13627929920E+04  0.12714728668E+04 0.  0.
        3    1    3    3  502    0 -0.33972999642E+03  0.51116762804E+03 -0.67648943152E+02  0.61748295857E+03  0.10100000352E+00 0.  1.
       -3    1    3    3    0  502  0.33972999642E+03 -0.51116762804E+03 -0.42282173697E+03  0.74531003339E+03  0.10100000352E+00 0. -1.
</event>
<event>
 5   0  0.2537625E-03  0.6171665E+03  0.7818609E-02  0.9870417E-01
       -3   -1    0    0    0  501  0.00000000000E+00  0.00000000000E+00  0.97208640336E+03  0.97208640860E+03  0.10100000352E+00 0.  1.
        3   -1    0    0  501    0  0.00000000000E+00  0.00000000000E+00 -0.97957963171E+02  0.97958015239E+02  0.10100000352E+00 0. -1.
    10030    2    1    2    0    0  0.00000000000E+00  0.00000000000E+00  0.87412844019E+03  0.10700444238E+04  0.61716654078E+03 0.  0.
        1    1    3    3  502    0  0.12594972147E+03  0.24050060639E+03  0.69140626235E+03  0.74279640122E+03  0.50400001928E-02 0.  1.
       -1    1    3    3    0  502 -0.12594972147E+03 -0.24050060639E+03  0.18272217783E+03  0.32724802263E+03  0.50400001928E-02 0. -1.
</event>
<event>
 5   0  0.3648616E-03  0.1188831E+04  0.7818609E-02  0.9122689E-01
       -1   -1    0    0    0  501  0.00000000000E+00  0.00000000000E+00  0.45991480641E+03  0.45991480644E+03  0.50400001928E-02 0.  1.
        1   -1    0    0  501    0  0.00000000000E+00  0.00000000000E+00 -0.76825022932E+03  0.76825022934E+03  0.50400001928E-02 0. -1.
    10030    2    1    2    0    0  0.00000000000E+00  0.00000000000E+00 -0.30833542291E+03  0.12281650358E+04  0.11888307794E+04 0.  0.
        2    1    3    3  502    0 -0.43218289990E+02 -0.59139852714E+03 -0.19688327164E+03  0.62480641894E+03  0.25500000920E-02 0. -1.
       -2    1    3    3    0  502  0.43218289990E+02  0.59139852714E+03 -0.11145215127E+03  0.60335861684E+03  0.25500000920E-02 0.  1.
</event>
<event>
 5   0  0.3944074E-03  0.1215083E+04  0.7818609E-02  0.9099756E-01
        1   -1    0    0  501    0  0.00000000000E+00  0.00000000000E+00  0.37469873162E+03  0.37469873166E+03  0.50400001928E-02 0.  1.
       -1   -1    0    0    0  501  0.00000000000E+00  0.00000000000E+00 -0.98507544691E+03  0.98507544692E+03  0.50400001928E-02 0. -1.
    10030    2    1    2    0    0  0.00000000000E+00  0.00000000000E+00 -0.61037671529E+03  0.13597741786E+04  0.12150827470E+04 0.  0.
        4    1    3    3  502    0 -0.40857649481E+03 -0.43150037111E+03 -0.16373394248E+03  0.61639089805E+03  0.12699999809E+01 0. -1.
       -4    1    3    3    0  502  0.40857649481E+03  0.43150037111E+03 -0.44664277281E+03  0.74338328053E+03  0.12699999809E+01 0.  1.
</event>
<event>
 5   0  0.6493047E-03  0.1198984E+04  0.7818609E-02  0.9113746E-01
       -2   -1    0    0    0  501  0.00000000000E+00  0.00000000000E+00  0.28287122285E+03  0.28287122286E+03  0.25500000920E-02 0. -1.
        2   -1    0    0  501    0  0.00000000000E+00  0.00000000000E+00 -0.12705108219E+04  0.12705108219E+04  0.25500000920E-02 0.  1.
    10030    2    1    2    0    0  0.00000000000E+00  0.00000000000E+00 -0.98763959910E+03  0.15533820448E+04  0.11989844867E+04 0.  0.
        3    1    3    3  502    0 -0.35848642917E+02 -0.51806390091E+03 -0.10575994029E+03  0.52996274001E+03  0.10100000352E+00 0. -1.
       -3    1    3    3    0  502  0.35848642917E+02  0.51806390091E+03 -0.88187965881E+03  0.10234193048E+04  0.10100000352E+00 0.  1.
</event>
<event>
 5   0  0.6493047E-03  0.1182144E+04  0.7818609E-02  0.9128631E-01
       -2   -1    0    0    0  501  0.00000000000E+00  0.00000000000E+00  0.53424698366E+03  0.53424698367E+03  0.25500000920E-02 0. -1.
        2   -1    0    0  501    0  0.00000000000E+00  0.00000000000E+00 -0.65394140376E+03  0.65394140376E+03  0.25500000920E-02 0.  1.
    10030    2    1    2    0    0  0.00000000000E+00  0.00000000000E+00 -0.11969442010E+03  0.11881883874E+04  0.11821441916E+04 0.  0.
        3    1    3    3  502    0  0.46483620732E+03  0.32455950967E+03 -0.22789847344E+03  0.61102315778E+03  0.10100000352E+00 0.  1.
       -3    1    3    3    0  502 -0.46483620732E+03 -0.32455950967E+03  0.10820405334E+03  0.57716522965E+03  0.10100000352E+00 0. -1.
</event>
<event>
 5   0  0.6349142E-03  0.1183360E+04  0.7818609E-02  0.9127547E-01
       -2   -1    0    0    0  501  0.00000000000E+00  0.00000000000E+00  0.41628335753E+03  0.41628335754E+03  0.25500000920E-02 0. -1.
        2   -1    0    0  501    0  0.00000000000E+00  0.00000000000E+00 -0.84097845052E+03  0.84097845052E+03  0.25500000920E-02 0.  1.
    10030    2    1    2    0    0  0.00000000000E+00  0.00000000000E+00 -0.42469509299E+03  0.12572618081E+04  0.11833601869E+04 0.  0.
        1    1    3    3  502    0 -0.20659191436E+03 -0.34919192151E+03  0.24521001945E+03  0.47407084997E+03  0.50400001928E-02 0. -1.
       -1    1    3    3    0  502  0.20659191436E+03  0.34919192151E+03 -0.66990511244E+03  0.78319095808E+03  0.50400001928E-02 0.  1.
</event>
<event>
 5   0  0.3701879E-03  0.1182096E+04  0.7818609E-02  0.9128674E-01
       -1   -1    0    0    0  501  0.00000000000E+00  0.00000000000E+00  0.33009003231E+03  0.33009003235E+03  0.50400001928E-02 0.  1.
        1   -1    0    0  501    0  0.00000000000E+00  0.00000000000E+00 -0.10583110800E+04  0.10583110800E+04  0.50400001928E-02 0. -1.
    10030    2    1    2    0    0  0.00000000000E+00  0.00000000000E+00 -0.72822104765E+03  0.13884011123E+04  0.11820963389E+04 0.  0.
        1    1    3    3  502    0 -0.53702254470E+03  0.19581260066E+03 -0.54068867355E+03  0.78681638889E+03  0.50400001928E-02 0. -1.
       -1    1    3    3    0  502  0.53702254470E+03 -0.19581260066E+03 -0.18753237410E+03  0.60158472343E+03  0.50400001928E-02 0.  1.
</event>
<event>
 5   0  0.6585930E-03  0.1207299E+04  0.7818609E-02  0.9106491E-01
        2   -1    0    0  501    0  0.00000000000E+00  0.00000000000E+00  0.97706937636E+03  0.97706937636E+03  0.25500000920E-02 0.  1.
       -2   -1    0    0    0  501  0.00000000000E+00  0.00000000000E+00 -0.37294468447E+03  0.37294468448E+03  0.25500000920E-02 0. -1.
    10030    2    1    2    0    0  0.00000000000E+00  0.00000000000E+00  0.60412469189E+03  0.13500140608E+04  0.12072991846E+04 0.  0.
        2    1    3    3  502    0  0.48044363105E+03 -0.26602109994E+03  0.58228391061E+03  0.80040481058E+03  0.25500000920E-02 0.  1.
       -2    1    3    3    0  502 -0.48044363105E+03  0.26602109994E+03  0.21840781274E+02  0.54960925026E+03  0.25500000920E-02 0. -1.
</event>
<event>
 5   0  0.6493047E-03  0.1204943E+04  0.7818609E-02  0.9108541E-01
        2   -1    0    0  501    0  0.00000000000E+00  0.00000000000E+00  0.47999227666E+03  0.47999227667E+03  0.25500000920E-02 0.  1.
       -2   -1    0    0    0  501  0.00000000000E+00  0.00000000000E+00 -0.75620343338E+03  0.75620343339E+03  0.25500000920E-02 0. -1.
    10030    2    1    2    0    0  0.00000000000E+00  0.00000000000E+00 -0.27621115672E+03  0.12361957101E+04  0.12049428329E+04 0.  0.
        3    1    3    3  502    0 -0.46880121247E+03  0.66973691345E+01  0.25006271155E+03  0.53136691794E+03  0.10100000352E+00 0.  1.
       -3    1    3    3    0  502  0.46880121247E+03 -0.66973691345E+01 -0.52627386827E+03  0.70482879212E+03  0.10100000352E+00 0. -1.
</event>
<event>
 5   0  0.3701879E-03  0.1352834E+04  0.7818609E-02  0.8988685E-01
       -1   -1    0    0    0  501  0.00000000000E+00  0.00000000000E+00  0.24591412831E+03  0.24591412836E+03  0.50400001928E-02 0.  1.
        1   -1    0    0  501    0  0.00000000000E+00  0.00000000000E+00 -0.18605685876E+04  0.18605685877E+04  0.50400001928E-02 0. -1.
    10030    2    1    2    0    0  0.00000000000E+00  0.00000000000E+00 -0.16146544593E+04  0.21064827160E+04  0.13528342137E+04 0.  0.
        1    1    3    3  502    0 -0.44502497575E+03 -0.26275209786E+03 -0.14868571888E+04  0.15741125099E+04  0.50400001928E-02 0. -1.
       -1    1    3    3    0  502  0.44502497575E+03  0.26275209786E+03 -0.12779727054E+03  0.53237020611E+03  0.50400001928E-02 0.  1.
</event>
<event>
 5   0  0.6658994E-03  0.1212044E+04  0.7818609E-02  0.9102379E-01
       -2   -1    0    0    0  501  0.00000000000E+00  0.00000000000E+00  0.20895030728E+03  0.20895030729E+03  0.25500000920E-02 0. -1.
        2   -1    0    0  501    0  0.00000000000E+00  0.00000000000E+00 -0.17576554384E+04  0.17576554384E+04  0.25500000920E-02 0.  1.
    10030    2    1    2    0    0  0.00000000000E+00  0.00000000000E+00 -0.15487051311E+04  0.19666057457E+04  0.12120439661E+04 0.  0.
        4    1    3    3  502    0 -0.11250130487E+03 -0.55426429130E+03 -0.11275909290E+04  0.12614786421E+04  0.12699999809E+01 0.  1.
       -4    1    3    3    0  502  0.11250130487E+03  0.55426429130E+03 -0.42111420211E+03  0.70512710367E+03  0.12699999809E+01 0. -1.
</event>
<event>
 5   0  0.3731281E-03  0.1204527E+04  0.7818609E-02  0.9108903E-01
        1   -1    0    0  501    0  0.00000000000E+00  0.00000000000E+00  0.12805004634E+04  0.12805004634E+04  0.50400001928E-02 0. -1.
       -1   -1    0    0    0  501  0.00000000000E+00  0.00000000000E+00 -0.28326544138E+03  0.28326544143E+03  0.50400001928E-02 0.  1.
    10030    2    1    2    0    0  0.00000000000E+00  0.00000000000E+00  0.99723502204E+03  0.15637659049E+04  0.12045273413E+04 0.  0.
        5    1    3    3  502    0  0.49094944905E+03 -0.33600228702E+03  0.37703579767E+03  0.70434862187E+03  0.46999998093E+01 0.  1.
       -5    1    3    3    0  502 -0.49094944905E+03  0.33600228702E+03  0.62019922438E+03  0.85941728300E+03  0.46999998093E+01 0. -1.
</event>
<event>
 5   0  0.6640844E-03  0.1202068E+04  0.7818609E-02  0.9111049E-01
        2   -1    0    0  501    0  0.00000000000E+00  0.00000000000E+00  0.73429289977E+03  0.73429289977E+03  0.25500000920E-02 0. -1.
       -2   -1    0    0    0  501  0.00000000000E+00  0.00000000000E+00 -0.49195854455E+03  0.49195854456E+03  0.25500000920E-02 0.  1.
    10030    2    1    2    0    0  0.00000000000E+00  0.00000000000E+00  0.24233435522E+03  0.12262514443E+04  0.12020676624E+04 0.  0.
        5    1    3    3  502    0  0.13932866830E+03 -0.61309381499E+01 -0.47520486477E+03  0.49526944152E+03  0.46999998093E+01 0.  1.
       -5    1    3    3    0  502 -0.13932866830E+03  0.61309381499E+01  0.71753921999E+03  0.73098200281E+03  0.46999998093E+01 0. -1.
</event>
<event>
 5   0  0.6658994E-03  0.1201057E+04  0.7818609E-02  0.9111932E-01
        2   -1    0    0  501    0  0.00000000000E+00  0.00000000000E+00  0.17961124936E+04  0.17961124936E+04  0.25500000920E-02 0. -1.
       -2   -1    0    0    0  501  0.00000000000E+00  0.00000000000E+00 -0.20078619917E+03  0.20078619918E+03  0.25500000920E-02 0.  1.
    10030    2    1    2    0    0  0.00000000000E+00  0.00000000000E+00  0.15953262944E+04  0.19968986927E+04  0.12010572024E+04 0.  0.
        4    1    3    3  502    0  0.25121577803E+03  0.35261419726E+03  0.14895734473E+04  0.15512178464E+04  0.12699999809E+01 0. -1.
       -4    1    3    3    0  502 -0.25121577803E+03 -0.35261419726E+03  0.10575284713E+03  0.44568084636E+03  0.12699999809E+01 0.  1.
</event>
<event>
 5   0  0.6493047E-03  0.1204671E+04  0.7818609E-02  0.9108778E-01
        2   -1    0    0  501    0  0.00000000000E+00  0.00000000000E+00  0.73058474730E+03  0.73058474730E+03  0.25500000920E-02 0. -1.
       -2   -1    0    0    0  501  0.00000000000E+00  0.00000000000E+00 -0.49659967760E+03  0.49659967761E+03  0.25500000920E-02 0.  1.
    10030    2    1    2    0    0  0.00000000000E+00  0.00000000000E+00  0.23398506970E+03  0.12271844249E+04  0.12046711584E+04 0.  0.
        3    1    3    3  502    0  0.31966384915E+03 -0.13254880933E+03 -0.38522594276E+03  0.51783510936E+03  0.10100000352E+00 0.  1.
       -3    1    3    3    0  502 -0.31966384915E+03  0.13254880933E+03  0.61921101246E+03  0.70934931555E+03  0.10100000352E+00 0. -1.
</event>
<event>
 5   0  0.6493047E-03  0.1152304E+04  0.7818609E-02  0.9155661E-01
       -2   -1    0    0    0  501  0.00000000000E+00  0.00000000000E+00  0.52668856092E+03  0.52668856093E+03  0.25500000920E-02 0. -1.
        2   -1    0    0  501    0  0.00000000000E+00  0.00000000000E+00 -0.63026051258E+03  0.63026051259E+03  0.25500000920E-02 0.  1.
    10030    2    1    2    0    0  0.00000000000E+00  0.00000000000E+00 -0.10357195166E+03  0.11569490735E+04  0.11523037835E+04 0.  0.
        3    1    3    3  502    0 -0.34086415233E+02 -0.50833373736E+03  0.21834494800E+03  0.55429197970E+03  0.10100000352E+00 0.  1.
       -3    1    3    3    0  502  0.34086415233E+02  0.50833373736E+03 -0.32191689967E+03  0.60265709382E+03  0.10100000352E+00 0. -1.
</event>
<event>
 5   0  0.6658994E-03  0.1421207E+04  0.7818609E-02  0.8938609E-01
       -2   -1    0    0    0  501  0.00000000000E+00  0.00000000000E+00  0.86993659855E+03  0.86993659855E+03  0.25500000920E-02 0.  1.
        2   -1    0    0  501    0  0.00000000000E+00  0.00000000000E+00 -0.58045315408E+03  0.58045315408E+03  0.25500000920E-02 0. -1.
    10030    2    1    2    0    0  0.00000000000E+00  0.00000000000E+00  0.28948344447E+03  0.14503897526E+04  0.14212071524E+04 0.  0.
        4    1    3    3  502    0  0.50120242138E+03 -0.18459481858E+03 -0.33357917094E+03  0.62972675855E+03  0.12699999809E+01 0. -1.
       -4    1    3    3    0  502 -0.50120242138E+03  0.18459481858E+03  0.62306261541E+03  0.82066299409E+03  0.12699999809E+01 0.  1.
</event>
<event>
 5   0  0.6493047E-03  0.1208363E+04  0.7818609E-02  0.9105568E-01
       -2   -1    0    0    0  501  0.00000000000E+00  0.00000000000E+00  0.28987285179E+03  0.28987285180E+03  0.25500000920E-02 0.  1.
        2   -1    0    0  501    0  0.00000000000E+00  0.00000000000E+00 -0.12592948172E+04  0.12592948172E+04  0.25500000920E-02 0. -1.
    10030    2    1    2    0    0  0.00000000000E+00  0.00000000000E+00 -0.96942196537E+03  0.15491676690E+04  0.12083631572E+04 0.  0.
        3    1    3    3  502    0 -0.35110123484E+03  0.13892758320E+03  0.11997413130E+03  0.39619029880E+03  0.10100000352E+00 0.  1.
       -3    1    3    3    0  502  0.35110123484E+03 -0.13892758320E+03 -0.10893960967E+04  0.11529773702E+04  0.10100000352E+00 0. -1.
</event>
<event>
 5   0  0.2537625E-03  0.1228985E+04  0.7818609E-02  0.9087857E-01
       -3   -1    0    0    0  501  0.00000000000E+00  0.00000000000E+00  0.32740125881E+03  0.32740127439E+03  0.10100000352E+00 0.  1.
        3   -1    0    0  501    0  0.00000000000E+00  0.00000000000E+00 -0.11533288630E+04  0.11533288675E+04  0.10100000352E+00 0. -1.
    10030    2    1    2    0    0  0.00000000000E+00  0.00000000000E+00 -0.82592760422E+03  0.14807301418E+04  0.12289854944E+04 0.  0.
        1    1    3    3  502    0 -0.33308387810E+03 -0.50386120356E+03 -0.54917117065E+03  0.81633936387E+03  0.50400001928E-02 0. -1.
       -1    1    3    3    0  502  0.33308387810E+03  0.50386120356E+03 -0.27675643357E+03  0.66439077797E+03  0.50400001928E-02 0.  1.
</event>
<event>
 5   0  0.3731281E-03  0.1163861E+04  0.7818609E-02  0.9145091E-01
       -1   -1    0    0    0  501  0.00000000000E+00  0.00000000000E+00  0.15936444262E+04  0.15936444262E+04  0.50400001928E-02 0. -1.
        1   -1    0    0  501    0  0.00000000000E+00  0.00000000000E+00 -0.21249591856E+03  0.21249591862E+03  0.50400001928E-02 0.  1.
    10030    2    1    2    0    0  0.00000000000E+00  0.00000000000E+00  0.13811485076E+04  0.18061403448E+04  0.11638607069E+04 0.  0.
        5    1    3    3  502    0 -0.17842682506E+03 -0.18461334876E+03 -0.11981775057E+03  0.28336655376E+03  0.46999998093E+01 0.  1.
       -5    1    3    3    0  502  0.17842682506E+03  0.18461334876E+03  0.15009662582E+04  0.15227737910E+04  0.46999998093E+01 0. -1.
</event>
<event>
 5   0  0.6349142E-03  0.1191904E+04  0.7818609E-02  0.9119973E-01
       -2   -1    0    0    0  501  0.00000000000E+00  0.00000000000E+00  0.48503958983E+03  0.48503958983E+03  0.25500000920E-02 0.  1.
        2   -1    0    0  501    0  0.00000000000E+00  0.00000000000E+00 -0.73222589015E+03  0.73222589016E+03  0.25500000920E-02 0. -1.
    10030    2    1    2    0    0  0.00000000000E+00  0.00000000000E+00 -0.24718630033E+03  0.12172654800E+04  0.11919035958E+04 0.  0.
        1    1    3    3  502    0  0.21171204430E+03 -0.35265805936E+03 -0.56401035635E+03  0.69806688693E+03  0.50400001928E-02 0. -1.
       -1    1    3    3    0  502 -0.21171204430E+03  0.35265805936E+03  0.31682405602E+03  0.51919859306E+03  0.50400001928E-02 0.  1.
</event>
<event>
 5   0  0.3701879E-03  0.1110952E+04  0.7818609E-02  0.9194582E-01
       -1   -1    0    0    0  501  0.00000000000E+00  0.00000000000E+00  0.24657789236E+03  0.24657789242E+03  0.50400001928E-02 0.  1.
        1   -1    0    0  501    0  0.00000000000E+00  0.00000000000E+00 -0.12513435755E+04  0.12513435755E+04  0.50400001928E-02 0. -1.
    10030    2    1    2    0    0  0.00000000000E+00  0.00000000000E+00 -0.10047656831E+04  0.14979214679E+04  0.11109521349E+04 0.  0.
        1    1    3    3  502    0 -0.45295137627E+03  0.24915933279E+03 -0.77642196132E+03  0.93277885076E+03  0.50400001928E-02 0. -1.
       -1    1    3    3    0  502  0.45295137627E+03 -0.24915933279E+03 -0.22834372177E+03  0.56514261711E+03  0.50400001928E-02 0.  1.
</event>
<event>
 5   0  0.6658994E-03  0.1243586E+04  0.7818609E-02  0.9075539E-01
        2   -1    0    0  501    0  0.00000000000E+00  0.00000000000E+00  0.16930734589E+04  0.16930734589E+04  0.25500000920E-02 0. -1.
       -2   -1    0    0    0  501  0.00000000000E+00  0.00000000000E+00 -0.22835766429E+03  0.22835766430E+03  0.25500000920E-02 0.  1.
    10030    2    1    2    0    0  0.00000000000E+00  0.00000000000E+00  0.14647157946E+04  0.19214311232E+04  0.12435856232E+04 0.  0.
        4    1    3    3  502    0  0.15018914585E+03  0.23282729839E+03  0.15924232175E+04  0.16163473164E+04  0.12699999809E+01 0. -1.
       -4    1    3    3    0  502 -0.15018914585E+03 -0.23282729839E+03 -0.12770742296E+03  0.30508380682E+03  0.12699999809E+01 0.  1.
</event>
<event>
 5   0  0.6658994E-03  0.1241838E+04  0.7818609E-02  0.9077004E-01
        2   -1    0    0  501    0  0.00000000000E+00  0.00000000000E+00  0.13698490306E+04  0.13698490306E+04  0.25500000920E-02 0. -1.
       -2   -1    0    0    0  501  0.00000000000E+00  0.00000000000E+00 -0.28144728468E+03  0.28144728469E+03  0.25500000920E-02 0.  1.
    10030    2    1    2    0    0  0.00000000000E+00  0.00000000000E+00  0.10884017459E+04  0.16512963153E+04  0.12418378156E+04 0.  0.
        4    1    3    3  502    0 -0.49829929050E+03  0.23786122558E+03  0.16655452689E+03  0.57673405386E+03  0.12699999809E+01 0.  1.
       -4    1    3    3    0  502  0.49829929050E+03 -0.23786122558E+03  0.92184721903E+03  0.10745622614E+04  0.12699999809E+01 0. -1.
</event>
<event>
 5   0  0.2537625E-03  0.1204493E+04  0.7818609E-02  0.9108933E-01
        3   -1    0    0  501    0  0.00000000000E+00  0.00000000000E+00  0.10994096392E+04  0.10994096438E+04  0.10100000352E+00 0.  1.
       -3   -1    0    0    0  501  0.00000000000E+00  0.00000000000E+00 -0.32990495668E+03  0.32990497214E+03  0.10100000352E+00 0. -1.
    10030    2    1    2    0    0  0.00000000000E+00  0.00000000000E+00  0.76950468250E+03  0.14293146160E+04  0.12044927625E+04 0.  0.
        2    1    3    3  502    0  0.27584804708E+03 -0.47201120602E+03  0.84986904986E+02  0.55327163104E+03  0.25500000920E-02 0.  1.
       -2    1    3    3    0  502 -0.27584804708E+03  0.47201120602E+03  0.68451777752E+03  0.87604298492E+03  0.25500000920E-02 0. -1.
</event>
<event>
 5   0  0.6658994E-03  0.1046433E+04  0.7818609E-02  0.9259035E-01
       -2   -1    0    0    0  501  0.00000000000E+00  0.00000000000E+00  0.26057452181E+03  0.26057452182E+03  0.25500000920E-02 0. -1.
        2   -1    0    0  501    0  0.00000000000E+00  0.00000000000E+00 -0.10505841561E+04  0.10505841561E+04  0.25500000920E-02 0.  1.
    10030    2    1    2    0    0  0.00000000000E+00  0.00000000000E+00 -0.79000963424E+03  0.13111586779E+04  0.10464329202E+04 0.  0.
        4    1    3    3  502    0  0.34258654843E+03  0.15809391144E+02  0.10010174456E+03  0.35726384113E+03  0.12699999809E+01 0. -1.
       -4    1    3    3    0  502 -0.34258654843E+03 -0.15809391144E+02 -0.89011137880E+03  0.95389483675E+03  0.12699999809E+01 0.  1.
</event>
<event>
 5   0  0.6349142E-03  0.1204192E+04  0.7818609E-02  0.9109196E-01
       -2   -1    0    0    0  501  0.00000000000E+00  0.00000000000E+00  0.30659310594E+03  0.30659310595E+03  0.25500000920E-02 0. -1.
        2   -1    0    0  501    0  0.00000000000E+00  0.00000000000E+00 -0.11824119528E+04  0.11824119528E+04  0.25500000920E-02 0.  1.
    10030    2    1    2    0    0  0.00000000000E+00  0.00000000000E+00 -0.87581884689E+03  0.14890050588E+04  0.12041916013E+04 0.  0.
        1    1    3    3  502    0 -0.54196376015E+03  0.26008576958E+03 -0.39597652956E+03  0.71983799347E+03  0.50400001928E-02 0. -1.
       -1    1    3    3    0  502  0.54196376015E+03 -0.26008576958E+03 -0.47984231733E+03  0.76916706532E+03  0.50400001928E-02 0.  1.
</event>
<event>
 5   0  0.3944074E-03  0.1374801E+04  0.7818609E-02  0.8972264E-01
        1   -1    0    0  501    0  0.00000000000E+00  0.00000000000E+00  0.54690733801E+03  0.54690733803E+03  0.50400001928E-02 0. -1.
       -1   -1    0    0    0  501  0.00000000000E+00  0.00000000000E+00 -0.86398436271E+03  0.86398436272E+03  0.50400001928E-02 0.  1.
    10030    2    1    2    0    0  0.00000000000E+00  0.00000000000E+00 -0.31707702470E+03  0.14108917008E+04  0.13748009135E+04 0.  0.
        4    1    3    3  502    0  0.38559911828E+02  0.47504142781E+03  0.34980998617E+03  0.59120205028E+03  0.12699999809E+01 0. -1.
       -4    1    3    3    0  502 -0.38559911828E+02 -0.47504142781E+03 -0.66688701087E+03  0.81968965047E+03  0.12699999809E+01 0.  1.
</event>
<event>
 5   0  0.2537625E-03  0.1190552E+04  0.7818609E-02  0.9121167E-01
        3   -1    0    0  501    0  0.00000000000E+00  0.00000000000E+00  0.26254470773E+03  0.26254472716E+03  0.10100000352E+00 0.  1.
       -3   -1    0    0    0  501  0.00000000000E+00  0.00000000000E+00 -0.13496871708E+04  0.13496871746E+04  0.10100000352E+00 0. -1.
    10030    2    1    2    0    0  0.00000000000E+00  0.00000000000E+00 -0.10871424631E+04  0.16122319018E+04  0.11905515402E+04 0.  0.
        4    1    3    3  502    0  0.47749968467E+03  0.34844460852E+03 -0.44846862779E+03  0.74198741032E+03  0.12699999809E+01 0. -1.
       -4    1    3    3    0  502 -0.47749968467E+03 -0.34844460852E+03 -0.63867383531E+03  0.87024449144E+03  0.12699999809E+01 0.  1.
</event>
<event>
 5   0  0.3772254E-03  0.1203394E+04  0.7818609E-02  0.9109891E-01
       -1   -1    0    0    0  501  0.00000000000E+00  0.00000000000E+00  0.21349425774E+04  0.21349425774E+04  0.50400001928E-02 0.  1.
        1   -1    0    0  501    0  0.00000000000E+00  0.00000000000E+00 -0.16957798261E+03  0.16957798269E+03  0.50400001928E-02 0. -1.
    10030    2    1    2    0    0  0.00000000000E+00  0.00000000000E+00  0.19653645948E+04  0.23045205601E+04  0.12033939594E+04 0.  0.
        3    1    3    3  502    0  0.96092209392E+02  0.25139430784E+03 -0.47886201374E+02  0.27336040167E+03  0.10100000352E+00 0. -1.
       -3    1    3    3    0  502 -0.96092209392E+02 -0.25139430784E+03  0.20132507962E+04  0.20311601584E+04  0.10100000352E+00 0.  1.
</event>
<event>
 5   0  0.6658994E-03  0.1198385E+04  0.7818609E-02  0.9114272E-01
       -2   -1    0    0    0  501  0.00000000000E+00  0.00000000000E+00  0.56780551317E+03  0.56780551317E+03  0.25500000920E-02 0. -1.
        2   -1    0    0  501    0  0.00000000000E+00  0.00000000000E+00 -0.63231405146E+03  0.63231405146E+03  0.25500000920E-02 0.  1.
    10030    2    1    2    0    0  0.00000000000E+00  0.00000000000E+00 -0.64508538291E+02  0.12001195646E+04  0.11983845868E+04 0.  0.
        4    1    3    3  502    0 -0.33522563805E+02 -0.55554366893E+03  0.19005193447E+03  0.58811043271E+03  0.12699999809E+01 0. -1.
       -4    1    3    3    0  502  0.33522563805E+02  0.55554366893E+03 -0.25456047276E+03  0.61200913193E+03  0.12699999809E+01 0.  1.
</event>
<event>
 5   0  0.6349142E-03  0.1208112E+04  0.7818609E-02  0.9105785E-01
        2   -1    0    0  501    0  0.00000000000E+00  0.00000000000E+00  0.10231130179E+04  0.10231130179E+04  0.25500000920E-02 0.  1.
       -2   -1    0    0    0  501  0.00000000000E+00  0.00000000000E+00 -0.35664082640E+03  0.35664082641E+03  0.25500000920E-02 0. -1.
    10030    2    1    2    0    0  0.00000000000E+00  0.00000000000E+00  0.66647219154E+03  0.13797538444E+04  0.12081123660E+04 0.  0.
        1    1    3    3  502    0 -0.34509421378E+03  0.43077979736E+03  0.52967709367E+02  0.55449691475E+03  0.50400001928E-02 0. -1.
       -1    1    3    3    0  502  0.34509421378E+03 -0.43077979736E+03  0.61350448217E+03  0.82525692961E+03  0.50400001928E-02 0.  1.
</event>
<event>
 5   0  0.6585930E-03  0.1129791E+04  0.7818609E-02  0.9176632E-01
       -2   -1    0    0    0  501  0.00000000000E+00  0.00000000000E+00  0.14947412679E+03  0.14947412681E+03  0.25500000920E-02 0. -1.
        2   -1    0    0  501    0  0.00000000000E+00  0.00000000000E+00 -0.21348647258E+04  0.21348647258E+04  0.25500000920E-02 0.  1.
    10030    2    1    2    0    0  0.00000000000E+00  0.00000000000E+00 -0.19853905990E+04  0.22843388526E+04  0.11297912032E+04 0.  0.
        2    1    3    3  502    0 -0.23004765070E+03  0.31132916900E+03 -0.16085766283E+03  0.41919322604E+03  0.25500000920E-02 0. -1.
       -2    1    3    3    0  502  0.23004765070E+03 -0.31132916900E+03 -0.18245329362E+04  0.18651456266E+04  0.25500000920E-02 0.  1.
</event>
<event>
 5   0  0.6640844E-03  0.1104484E+04  0.7818609E-02  0.9200833E-01
       -2   -1    0    0    0  501  0.00000000000E+00  0.00000000000E+00  0.49277994693E+03  0.49277994694E+03  0.25500000920E-02 0. -1.
        2   -1    0    0  501    0  0.00000000000E+00  0.00000000000E+00 -0.61887887561E+03  0.61887887562E+03  0.25500000920E-02 0.  1.
    10030    2    1    2    0    0  0.00000000000E+00  0.00000000000E+00 -0.12609892868E+03  0.11116588226E+04  0.11044837699E+04 0.  0.
        5    1    3    3  502    0  0.33923617035E+03  0.14330280604E+03  0.35112362173E+03  0.50884846588E+03  0.46999998093E+01 0. -1.
       -5    1    3    3    0  502 -0.33923617035E+03 -0.14330280604E+03 -0.47722255041E+03  0.60281035667E+03  0.46999998093E+01 0.  1.
</event>
<event>
 5   0  0.6585930E-03  0.1219461E+04  0.7818609E-02  0.9095991E-01
        2   -1    0    0  501    0  0.00000000000E+00  0.00000000000E+00  0.13597459163E+04  0.13597459163E+04  0.25500000920E-02 0.  1.
       -2   -1    0    0    0  501  0.00000000000E+00  0.00000000000E+00 -0.27341215805E+03  0.27341215806E+03  0.25500000920E-02 0. -1.
    10030    2    1    2    0    0  0.00000000000E+00  0.00000000000E+00  0.10863337583E+04  0.16331580744E+04  0.12194606437E+04 0.  0.
        2    1    3    3  502    0  0.40665184209E+03  0.22216302102E+03  0.10739021301E+04  0.11696101545E+04  0.25500000920E-02 0.  1.
       -2    1    3    3    0  502 -0.40665184209E+03 -0.22216302102E+03  0.12431628154E+02  0.46354791982E+03  0.25500000920E-02 0. -1.
</event>
<event>
 5   0  0.3772254E-03  0.6678551E+03  0.7818609E-02  0.9773840E-01
        1   -1    0    0  501    0  0.00000000000E+00  0.00000000000E+00  0.33151430703E+03  0.33151430707E+03  0.50400001928E-02 0.  1.
       -1   -1    0    0    0  501  0.00000000000E+00  0.00000000000E+00 -0.33635832633E+03  0.33635832637E+03  0.50400001928E-02 0. -1.
    10030    2    1    2    0    0  0.00000000000E+00  0.00000000000E+00 -0.48440193002E+01  0.66787263343E+03  0.66785506659E+03 0.  0.
        3    1    3    3  502    0 -0.99851987969E+02  0.30352972336E+02  0.31478637297E+03  0.33163563325E+03  0.10100000352E+00 0.  1.
       -3    1    3    3    0  502  0.99851987969E+02 -0.30352972336E+02 -0.31963039227E+03  0.33623700019E+03  0.10100000352E+00 0. -1.
</event>
<event>
 5   0  0.6349142E-03  0.1187003E+04  0.7818609E-02  0.9124309E-01
        2   -1    0    0  501    0  0.00000000000E+00  0.00000000000E+00  0.63168423005E+03  0.63168423005E+03  0.25500000920E-02 0.  1.
       -2   -1    0    0    0  501  0.00000000000E+00  0.00000000000E+00 -0.55762708229E+03  0.55762708229E+03  0.25500000920E-02 0. -1.
    10030    2    1    2    0    0  0.00000000000E+00  0.00000000000E+00  0.74057147762E+02  0.11893113123E+04  0.11870033431E+04 0.  0.
        1    1    3    3  502    0 -0.61546483312E+02 -0.37158120000E+03 -0.42253926390E+03  0.56603885676E+03  0.50400001928E-02 0. -1.
       -1    1    3    3    0  502  0.61546483312E+02  0.37158120000E+03  0.49659641166E+03  0.62327245559E+03  0.50400001928E-02 0.  1.
</event>
<event>
 5   0  0.3648616E-03  0.1207391E+04  0.7818609E-02  0.9106412E-01
       -1   -1    0    0    0  501  0.00000000000E+00  0.00000000000E+00  0.15220211109E+04  0.15220211109E+04  0.50400001928E-02 0.  1.
        1   -1    0    0  501    0  0.00000000000E+00  0.00000000000E+00 -0.23945007921E+03  0.23945007926E+03  0.50400001928E-02 0. -1.
    10030    2    1    2    0    0  0.00000000000E+00  0.00000000000E+00  0.12825710317E+04  0.17614711902E+04  0.12073907000E+04 0.  0.
        2    1    3    3  502    0  0.43512081121E+03 -0.26613477679E+03  0.17014598744E+03  0.53768717375E+03  0.25500000920E-02 0. -1.
       -2    1    3    3    0  502 -0.43512081121E+03  0.26613477679E+03  0.11124250443E+04  0.12237840165E+04  0.25500000920E-02 0.  1.
</event>
<event>
 5   0  0.3944074E-03  0.1220445E+04  0.7818609E-02  0.9095147E-01
       -1   -1    0    0    0  501  0.00000000000E+00  0.00000000000E+00  0.28394361944E+03  0.28394361948E+03  0.50400001928E-02 0.  1.
        1   -1    0    0  501    0  0.00000000000E+00  0.00000000000E+00 -0.13114283470E+04  0.13114283470E+04  0.50400001928E-02 0. -1.
    10030    2    1    2    0    0  0.00000000000E+00  0.00000000000E+00 -0.10274847275E+04  0.15953719665E+04  0.12204453474E+04 0.  0.
        4    1    3    3  502    0 -0.34734595883E+03  0.44620115264E+03 -0.21386658646E+03  0.60455373081E+03  0.12699999809E+01 0.  1.
       -4    1    3    3    0  502  0.34734595883E+03 -0.44620115264E+03 -0.81361814107E+03  0.99081823566E+03  0.12699999809E+01 0. -1.
</event>
<event>
 5   0  0.6493047E-03  0.1027730E+04  0.7818609E-02  0.9278643E-01
        2   -1    0    0  501    0  0.00000000000E+00  0.00000000000E+00  0.10165151281E+04  0.10165151281E+04  0.25500000920E-02 0.  1.
       -2   -1    0    0    0  501  0.00000000000E+00  0.00000000000E+00 -0.25976714574E+03  0.25976714575E+03  0.25500000920E-02 0. -1.
    10030    2    1    2    0    0  0.00000000000E+00  0.00000000000E+00  0.75674798240E+03  0.12762822739E+04  0.10277299907E+04 0.  0.
        3    1    3    3  502    0 -0.24771829000E+03 -0.45013396115E+03  0.36781544818E+03  0.63188064404E+03  0.10100000352E+00 0. -1.
       -3    1    3    3    0  502  0.24771829000E+03  0.45013396115E+03  0.38893253422E+03  0.64440162985E+03  0.10100000352E+00 0.  1.
</event>
<event>
 5   0  0.6640844E-03  0.1247651E+04  0.7818609E-02  0.9072141E-01
        2   -1    0    0  501    0  0.00000000000E+00  0.00000000000E+00  0.10307152003E+04  0.10307152003E+04  0.25500000920E-02 0.  1.
       -2   -1    0    0    0  501  0.00000000000E+00  0.00000000000E+00 -0.37756140163E+03  0.37756140164E+03  0.25500000920E-02 0. -1.
    10030    2    1    2    0    0  0.00000000000E+00  0.00000000000E+00  0.65315379866E+03  0.14082766019E+04  0.12476510341E+04 0.  0.
        5    1    3    3  502    0  0.53983014001E+03 -0.26556452273E+03  0.51271705910E+03  0.79046946082E+03  0.46999998093E+01 0. -1.
       -5    1    3    3    0  502 -0.53983014001E+03  0.26556452273E+03  0.14043673956E+03  0.61780714111E+03  0.46999998093E+01 0.  1.
</event>
<event>
 5   0  0.2537625E-03  0.1205472E+04  0.7818609E-02  0.9108080E-01
       -3   -1    0    0    0  501  0.00000000000E+00  0.00000000000E+00  0.80845634398E+03  0.80845635029E+03  0.10100000352E+00 0. -1.
        3   -1    0    0  501    0  0.00000000000E+00  0.00000000000E+00 -0.44936368582E+03  0.44936369717E+03  0.10100000352E+00 0.  1.
    10030    2    1    2    0    0  0.00000000000E+00  0.00000000000E+00  0.35909265816E+03  0.12578200475E+04  0.12054724114E+04 0.  0.
        3    1    3    3  502    0 -0.30656218463E+03  0.38337145594E+03 -0.18540918690E+03  0.52471956612E+03  0.10100000352E+00 0.  1.
       -3    1    3    3    0  502  0.30656218463E+03 -0.38337145594E+03  0.54450184506E+03  0.73310048135E+03  0.10100000352E+00 0. -1.
</event>
<event>
 5   0  0.2537625E-03  0.1205493E+04  0.7818609E-02  0.9108062E-01
       -3   -1    0    0    0  501  0.00000000000E+00  0.00000000000E+00  0.28844497683E+03  0.28844499451E+03  0.10100000352E+00 0. -1.
        3   -1    0    0  501    0  0.00000000000E+00  0.00000000000E+00 -0.12595244101E+04  0.12595244142E+04  0.10100000352E+00 0.  1.
    10030    2    1    2    0    0  0.00000000000E+00  0.00000000000E+00 -0.97107943328E+03  0.15479694087E+04  0.12054932702E+04 0.  0.
        2    1    3    3  502    0  0.51183086272E+03  0.15250608048E+03 -0.12673975936E+03  0.54890063147E+03  0.25500000920E-02 0. -1.
       -2    1    3    3    0  502 -0.51183086272E+03 -0.15250608048E+03 -0.84433967392E+03  0.99906877720E+03  0.25500000920E-02 0.  1.
</event>
<event>
 5   0  0.6640844E-03  0.1142222E+04  0.7818609E-02  0.9164990E-01
       -2   -1    0    0    0  501  0.00000000000E+00  0.00000000000E+00  0.15174741789E+03  0.15174741791E+03  0.25500000920E-02 0. -1.
        2   -1    0    0  501    0  0.00000000000E+00  0.00000000000E+00 -0.21494105206E+04  0.21494105206E+04  0.25500000920E-02 0.  1.
    10030    2    1    2    0    0  0.00000000000E+00  0.00000000000E+00 -0.19976631027E+04  0.23011579385E+04  0.11422215136E+04 0.  0.
        5    1    3    3  502    0  0.18917473173E+03  0.12510976349E+03  0.57086136311E+02  0.23392402400E+03  0.46999998093E+01 0. -1.
       -5    1    3    3    0  502 -0.18917473173E+03 -0.12510976349E+03 -0.20547492390E+04  0.20672339145E+04  0.46999998093E+01 0.  1.
</event>
<event>
 5   0  0.6349142E-03  0.1205688E+04  0.7818609E-02  0.9107892E-01
        2   -1    0    0  501    0  0.00000000000E+00  0.00000000000E+00  0.11476239565E+04  0.11476239565E+04  0.25500000920E-02 0.  1.
       -2   -1    0    0    0  501  0.00000000000E+00  0.00000000000E+00 -0.31667254923E+03  0.31667254924E+03  0.25500000920E-02 0. -1.
    10030    2    1    2    0    0  0.00000000000E+00  0.00000000000E+00  0.83095140726E+03  0.14642965057E+04  0.12056881916E+04 0.  0.
        1    1    3    3  502    0  0.13214905856E+03 -0.51113348987E+03  0.76893238845E+03  0.93272602418E+03  0.50400001928E-02 0.  1.
       -1    1    3    3    0  502 -0.13214905856E+03  0.51113348987E+03  0.62019018805E+02  0.53157048156E+03  0.50400001928E-02 0. -1.
</event>
<event>
 5   0  0.3944074E-03  0.1190577E+04  0.7818609E-02  0.9121145E-01
        1   -1    0    0  501    0  0.00000000000E+00  0.00000000000E+00  0.82704994183E+03  0.82704994184E+03  0.50400001928E-02 0.  1.
       -1   -1    0    0    0  501  0.00000000000E+00  0.00000000000E+00 -0.42847276714E+03  0.42847276717E+03  0.50400001928E-02 0. -1.
    10030    2    1    2    0    0  0.00000000000E+00  0.00000000000E+00  0.39857717469E+03  0.12555227090E+04  0.11905769646E+04 0.  0.
        4    1    3    3  502    0 -0.45147731132E+03 -0.38752443187E+03  0.17928501622E+03  0.62141103778E+03  0.12699999809E+01 0.  1.
       -4    1    3    3    0  502  0.45147731132E+03  0.38752443187E+03  0.21929215847E+03  0.63411167123E+03  0.12699999809E+01 0. -1.
</event>
<event>
 5   0  0.3731281E-03  0.1215037E+04  0.7818609E-02  0.9099796E-01
       -1   -1    0    0    0  501  0.00000000000E+00  0.00000000000E+00  0.60165415476E+03  0.60165415478E+03  0.50400001928E-02 0.  1.
        1   -1    0    0  501    0  0.00000000000E+00  0.00000000000E+00 -0.61343972098E+03  0.61343972100E+03  0.50400001928E-02 0. -1.
    10030    2    1    2    0    0  0.00000000000E+00  0.00000000000E+00 -0.11785566222E+02  0.12150938758E+04  0.12150367185E+04 0.  0.
        5    1    3    3  502    0 -0.19125557843E+03  0.36604338639E+03 -0.45143591779E+03  0.61186839669E+03  0.46999998093E+01 0. -1.
       -5    1    3    3    0  502  0.19125557843E+03 -0.36604338639E+03  0.43965035156E+03  0.60322547910E+03  0.46999998093E+01 0.  1.
</event>
<event>
 5   0  0.6640844E-03  0.1205377E+04  0.7818609E-02  0.9108163E-01
        2   -1    0    0  501    0  0.00000000000E+00  0.00000000000E+00  0.19120012797E+04  0.19120012797E+04  0.25500000920E-02 0.  1.
       -2   -1    0    0    0  501  0.00000000000E+00  0.00000000000E+00 -0.18997555460E+03  0.18997555461E+03  0.25500000920E-02 0. -1.
    10030    2    1    2    0    0  0.00000000000E+00  0.00000000000E+00  0.17220257251E+04  0.21019768343E+04  0.12053771252E+04 0.  0.
        5    1    3    3  502    0 -0.49471686925E+02  0.59918943138E+03  0.78835565236E+03  0.99146464743E+03  0.46999998093E+01 0.  1.
       -5    1    3    3    0  502  0.49471686925E+02 -0.59918943138E+03  0.93367007274E+03  0.11105121869E+04  0.46999998093E+01 0. -1.
</event>
<event>
 5   0  0.6585930E-03  0.1197125E+04  0.7818609E-02  0.9115377E-01
       -2   -1    0    0    0  501  0.00000000000E+00  0.00000000000E+00  0.60577673917E+03  0.60577673917E+03  0.25500000920E-02 0.  1.
        2   -1    0    0  501    0  0.00000000000E+00  0.00000000000E+00 -0.59143426333E+03  0.59143426334E+03  0.25500000920E-02 0. -1.
    10030    2    1    2    0    0  0.00000000000E+00  0.00000000000E+00  0.14342475837E+02  0.11972110025E+04  0.11971250887E+04 0.  0.
        2    1    3    3  502    0  0.33837604892E+03 -0.41240125528E+03  0.27867547916E+03  0.60185809667E+03  0.25500000920E-02 0.  1.
       -2    1    3    3    0  502 -0.33837604892E+03  0.41240125528E+03 -0.26433300332E+03  0.59535290584E+03  0.25500000920E-02 0. -1.
</event>
<event>
 5   0  0.6493047E-03  0.1139014E+04  0.7818609E-02  0.9167978E-01
       -2   -1    0    0    0  501  0.00000000000E+00  0.00000000000E+00  0.36636345524E+03  0.36636345524E+03  0.25500000920E-02 0. -1.
        2   -1    0    0  501    0  0.00000000000E+00  0.00000000000E+00 -0.88529162693E+03  0.88529162693E+03  0.25500000920E-02 0.  1.
    10030    2    1    2    0    0  0.00000000000E+00  0.00000000000E+00 -0.51892817169E+03  0.12516550822E+04  0.11390144851E+04 0.  0.
        3    1    3    3  502    0  0.35027292993E+03 -0.10953829398E+03 -0.73801746210E+03  0.82423270249E+03  0.10100000352E+00 0.  1.
       -3    1    3    3    0  502 -0.35027292993E+03  0.10953829398E+03  0.21908929041E+03  0.42742237969E+03  0.10100000352E+00 0. -1.
</event>
<event>
 5   0  0.3701879E-03  0.1223801E+04  0.7818609E-02  0.9092275E-01
       -1   -1    0    0    0  501  0.00000000000E+00  0.00000000000E+00  0.36530754344E+03  0.36530754347E+03  0.50400001928E-02 0. -1.
        1   -1    0    0  501    0  0.00000000000E+00  0.00000000000E+00 -0.10249506919E+04  0.10249506919E+04  0.50400001928E-02 0.  1.
    10030    2    1    2    0    0  0.00000000000E+00  0.00000000000E+00 -0.65964314845E+03  0.13902582354E+04  0.12238009960E+04 0.  0.
        1    1    3    3  502    0 -0.50799678691E+03  0.98941454284E+02 -0.70067848803E+03  0.87109155116E+03  0.50400001928E-02 0.  1.
       -1    1    3    3    0  502  0.50799678691E+03 -0.98941454284E+02  0.41035339577E+02  0.51916668422E+03  0.50400001928E-02 0. -1.
</event>
<event>
 5   0  0.6493047E-03  0.1174492E+04  0.7818609E-02  0.9135481E-01
       -2   -1    0    0    0  501  0.00000000000E+00  0.00000000000E+00  0.58612068779E+03  0.58612068779E+03  0.25500000920E-02 0.  1.
        2   -1    0    0  501    0  0.00000000000E+00  0.00000000000E+00 -0.58837391089E+03  0.58837391089E+03  0.25500000920E-02 0. -1.
    10030    2    1    2    0    0  0.00000000000E+00  0.00000000000E+00 -0.22532231027E+01  0.11744945987E+04  0.11744924373E+04 0.  0.
        3    1    3    3  502    0  0.26796094152E+03 -0.10593283440E+02 -0.52356687786E+03  0.58824958107E+03  0.10100000352E+00 0. -1.
       -3    1    3    3    0  502 -0.26796094152E+03  0.10593283440E+02  0.52131365476E+03  0.58624501761E+03  0.10100000352E+00 0.  1.
</event>
<event>
 5   0  0.6640844E-03  0.1201344E+04  0.7818609E-02  0.9111681E-01
        2   -1    0    0  501    0  0.00000000000E+00  0.00000000000E+00  0.20434741181E+04  0.20434741181E+04  0.25500000920E-02 0. -1.
       -2   -1    0    0    0  501  0.00000000000E+00  0.00000000000E+00 -0.17656529816E+03  0.17656529818E+03  0.25500000920E-02 0.  1.
    10030    2    1    2    0    0  0.00000000000E+00  0.00000000000E+00  0.18669088199E+04  0.22200394163E+04  0.12013436094E+04 0.  0.
        5    1    3    3  502    0  0.97967386597E+02  0.36752656162E+03  0.17925312770E+04  0.18324475030E+04  0.46999998093E+01 0. -1.
       -5    1    3    3    0  502 -0.97967386597E+02 -0.36752656162E+03  0.74377542952E+02  0.38759191326E+03  0.46999998093E+01 0.  1.
</event>
<event>
 5   0  0.3701879E-03  0.1197841E+04  0.7818609E-02  0.9114748E-01
       -1   -1    0    0    0  501  0.00000000000E+00  0.00000000000E+00  0.31894043845E+03  0.31894043849E+03  0.50400001928E-02 0. -1.
        1   -1    0    0  501    0  0.00000000000E+00  0.00000000000E+00 -0.11246793379E+04  0.11246793379E+04  0.50400001928E-02 0.  1.
    10030    2    1    2    0    0  0.00000000000E+00  0.00000000000E+00 -0.80573889944E+03  0.14436197764E+04  0.11978409263E+04 0.  0.
        1    1    3    3  502    0 -0.47363840464E+03 -0.36633822936E+03 -0.41852222265E+03  0.73054629388E+03  0.50400001928E-02 0.  1.
       -1    1    3    3    0  502  0.47363840464E+03  0.36633822936E+03 -0.38721667679E+03  0.71307348250E+03  0.50400001928E-02 0. -1.
</event>
<event>
 5   0  0.3648616E-03  0.1224958E+04  0.7818609E-02  0.9091287E-01
        1   -1    0    0  501    0  0.00000000000E+00  0.00000000000E+00  0.71189737966E+03  0.71189737968E+03  0.50400001928E-02 0.  1.
       -1   -1    0    0    0  501  0.00000000000E+00  0.00000000000E+00 -0.52694501966E+03  0.52694501969E+03  0.50400001928E-02 0. -1.
    10030    2    1    2    0    0  0.00000000000E+00  0.00000000000E+00  0.18495236000E+03  0.12388423994E+04  0.12249584136E+04 0.  0.
        2    1    3    3  502    0 -0.60120669850E+03  0.92094084477E+02  0.19548082337E+02  0.60853343560E+03  0.25500000920E-02 0. -1.
       -2    1    3    3    0  502  0.60120669850E+03 -0.92094084477E+02  0.16540427766E+03  0.63030896376E+03  0.25500000920E-02 0.  1.
</event>
<event>
 5   0  0.6658994E-03  0.1176091E+04  0.7818609E-02  0.9134045E-01
       -2   -1    0    0    0  501  0.00000000000E+00  0.00000000000E+00  0.37027758217E+03  0.37027758218E+03  0.25500000920E-02 0. -1.
        2   -1    0    0  501    0  0.00000000000E+00  0.00000000000E+00 -0.93388704970E+03  0.93388704971E+03  0.25500000920E-02 0.  1.
    10030    2    1    2    0    0  0.00000000000E+00  0.00000000000E+00 -0.56360946753E+03  0.13041646319E+04  0.11760908788E+04 0.  0.
        4    1    3    3  502    0 -0.38277332542E+03  0.38690019968E+03 -0.52873973206E+03  0.75879806294E+03  0.12699999809E+01 0.  1.
       -4    1    3    3    0  502  0.38277332542E+03 -0.38690019968E+03 -0.34869735476E+02  0.54536656894E+03  0.12699999809E+01 0. -1.
</event>
<event>
 5   0  0.6658994E-03  0.1189222E+04  0.7818609E-02  0.9122343E-01
       -2   -1    0    0    0  501  0.00000000000E+00  0.00000000000E+00  0.45746789135E+03  0.45746789136E+03  0.25500000920E-02 0.  1.
        2   -1    0    0  501    0  0.00000000000E+00  0.00000000000E+00 -0.77286758629E+03  0.77286758630E+03  0.25500000920E-02 0. -1.
    10030    2    1    2    0    0  0.00000000000E+00  0.00000000000E+00 -0.31539969494E+03  0.12303354777E+04  0.11892217707E+04 0.  0.
        4    1    3    3  502    0  0.16071424008E+03 -0.43842522499E+03 -0.53854986154E+03  0.71279962902E+03  0.12699999809E+01 0. -1.
       -4    1    3    3    0  502 -0.16071424008E+03  0.43842522499E+03  0.22315016660E+03  0.51753584863E+03  0.12699999809E+01 0.  1.
</event>
<event>
 5   0  0.6585930E-03  0.1260048E+04  0.7818609E-02  0.9061862E-01
        2   -1    0    0  501    0  0.00000000000E+00  0.00000000000E+00  0.15950510344E+04  0.15950510344E+04  0.25500000920E-02 0. -1.
       -2   -1    0    0    0  501  0.00000000000E+00  0.00000000000E+00 -0.24885098580E+03  0.24885098581E+03  0.25500000920E-02 0.  1.
    10030    2    1    2    0    0  0.00000000000E+00  0.00000000000E+00  0.13462000486E+04  0.18439020202E+04  0.12600476536E+04 0.  0.
        2    1    3    3  502    0 -0.34114501519E+03 -0.48564721522E+02  0.14449321515E+04  0.14854519097E+04  0.25500000920E-02 0. -1.
       -2    1    3    3    0  502  0.34114501519E+03  0.48564721522E+02 -0.98732102919E+02  0.35845011050E+03  0.25500000920E-02 0.  1.
</event>
<event>
 5   0  0.6349142E-03  0.1198001E+04  0.7818609E-02  0.9114608E-01
        2   -1    0    0  501    0  0.00000000000E+00  0.00000000000E+00  0.65125301175E+03  0.65125301175E+03  0.25500000920E-02 0.  1.
       -2   -1    0    0    0  501  0.00000000000E+00  0.00000000000E+00 -0.55093998935E+03  0.55093998936E+03  0.25500000920E-02 0. -1.
    10030    2    1    2    0    0  0.00000000000E+00  0.00000000000E+00  0.10031302240E+03  0.12021930011E+04  0.11980005465E+04 0.  0.
        1    1    3    3  502    0  0.16667079957E+03 -0.21001275369E+03  0.58767719410E+03  0.64594813773E+03  0.50400001928E-02 0.  1.
       -1    1    3    3    0  502 -0.16667079957E+03  0.21001275369E+03 -0.48736417171E+03  0.55624486338E+03  0.50400001928E-02 0. -1.
</event>
<event>
 5   0  0.6658994E-03  0.1200508E+04  0.7818609E-02  0.9112412E-01
        2   -1    0    0  501    0  0.00000000000E+00  0.00000000000E+00  0.11259827408E+04  0.11259827408E+04  0.25500000920E-02 0. -1.
       -2   -1    0    0    0  501  0.00000000000E+00  0.00000000000E+00 -0.31999171584E+03  0.31999171585E+03  0.25500000920E-02 0.  1.
    10030    2    1    2    0    0  0.00000000000E+00  0.00000000000E+00  0.80599102493E+03  0.14459744566E+04  0.12005084743E+04 0.  0.
        4    1    3    3  502    0  0.31907287120E+02 -0.43881340401E+02 -0.31703067746E+03  0.32164220860E+03  0.12699999809E+01 0.  1.
       -4    1    3    3    0  502 -0.31907287120E+02  0.43881340401E+02  0.11230217024E+04  0.11243322480E+04  0.12699999809E+01 0. -1.
</event>
<event>
 5   0  0.6493047E-03  0.1154027E+04  0.7818609E-02  0.9154076E-01
       -2   -1    0    0    0  501  0.00000000000E+00  0.00000000000E+00  0.97093041977E+03  0.97093041977E+03  0.25500000920E-02 0.  1.
        2   -1    0    0  501    0  0.00000000000E+00  0.00000000000E+00 -0.34291313034E+03  0.34291313035E+03  0.25500000920E-02 0. -1.
    10030    2    1    2    0    0  0.00000000000E+00  0.00000000000E+00  0.62801728942E+03  0.13138435501E+04  0.11540273647E+04 0.  0.
        3    1    3    3  502    0  0.53507743414E+03  0.20493036931E+03  0.39156335589E+03  0.69399293128E+03  0.10100000352E+00 0. -1.
       -3    1    3    3    0  502 -0.53507743414E+03 -0.20493036931E+03  0.23645393353E+03  0.61985061884E+03  0.10100000352E+00 0.  1.
</event>
<event>
 5   0  0.3701879E-03  0.1233928E+04  0.7818609E-02  0.9083667E-01
       -1   -1    0    0    0  501  0.00000000000E+00  0.00000000000E+00  0.48083125179E+03  0.48083125182E+03  0.50400001928E-02 0.  1.
        1   -1    0    0  501    0  0.00000000000E+00  0.00000000000E+00 -0.79163854167E+03  0.79163854168E+03  0.50400001928E-02 0. -1.
    10030    2    1    2    0    0  0.00000000000E+00  0.00000000000E+00 -0.31080728987E+03  0.12724697935E+04  0.12339279574E+04 0.  0.
        1    1    3    3  502    0  0.17695975869E+03  0.50177928632E+03  0.16667757220E+03  0.55756490338E+03  0.50400001928E-02 0.  1.
       -1    1    3    3    0  502 -0.17695975869E+03 -0.50177928632E+03 -0.47748486208E+03  0.71490489012E+03  0.50400001928E-02 0. -1.
</event>
<event>
 5   0  0.3701879E-03  0.1198596E+04  0.7818609E-02  0.9114086E-01
       -1   -1    0    0    0  501  0.00000000000E+00  0.00000000000E+00  0.63305275022E+03  0.63305275024E+03  0.50400001928E-02 0.  1.
        1   -1    0    0  501    0  0.00000000000E+00  0.00000000000E+00 -0.56734333066E+03  0.56734333069E+03  0.50400001928E-02 0. -1.
    10030    2    1    2    0    0  0.00000000000E+00  0.00000000000E+00  0.65709419554E+02  0.12003960809E+04  0.11985962720E+04 0.  0.
        1    1    3    3  502    0  0.50115148792E+03  0.31091358649E+03 -0.73786089259E+02  0.59436054639E+03  0.50400001928E-02 0. -1.
       -1    1    3    3    0  502 -0.50115148792E+03 -0.31091358649E+03  0.13949550881E+03  0.60603553453E+03  0.50400001928E-02 0.  1.
</event>
<event>
 5   0  0.3944074E-03  0.1175132E+04  0.7818609E-02  0.9134906E-01
        1   -1    0    0  501    0  0.00000000000E+00  0.00000000000E+00  0.76027047282E+03  0.76027047284E+03  0.50400001928E-02 0. -1.
       -1   -1    0    0    0  501  0.00000000000E+00  0.00000000000E+00 -0.45409322181E+03  0.45409322184E+03  0.50400001928E-02 0.  1.
    10030    2    1    2    0    0  0.00000000000E+00  0.00000000000E+00  0.30617725101E+03  0.12143636947E+04  0.11751317687E+04 0.  0.
        4    1    3    3  502    0  0.34262435508E+03  0.23692434388E+03  0.58129861281E+03  0.71514633717E+03  0.12699999809E+01 0. -1.
       -4    1    3    3    0  502 -0.34262435508E+03 -0.23692434388E+03 -0.27512136180E+03  0.49921735751E+03  0.12699999809E+01 0.  1.
</event>
<event>
 5   0  0.3701879E-03  0.1195174E+04  0.7818609E-02  0.9117092E-01
        1   -1    0    0  501    0  0.00000000000E+00  0.00000000000E+00  0.77148102564E+03  0.77148102565E+03  0.50400001928E-02 0. -1.
       -1   -1    0    0    0  501  0.00000000000E+00  0.00000000000E+00 -0.46288885032E+03  0.46288885035E+03  0.50400001928E-02 0.  1.
    10030    2    1    2    0    0  0.00000000000E+00  0.00000000000E+00  0.30859217531E+03  0.12343698760E+04  0.11951735690E+04 0.  0.
        1    1    3    3  502    0  0.32270018951E+03 -0.36499834214E+03 -0.20310303226E+03  0.52783524306E+03  0.50400001928E-02 0.  1.
       -1    1    3    3    0  502 -0.32270018951E+03  0.36499834214E+03  0.51169520757E+03  0.70653463295E+03  0.50400001928E-02 0. -1.
</event>
<event>
 5   0  0.6349142E-03  0.1218930E+04  0.7818609E-02  0.9096447E-01
        2   -1    0    0  501    0  0.00000000000E+00  0.00000000000E+00  0.14601049703E+04  0.14601049703E+04  0.25500000920E-02 0.  1.
       -2   -1    0    0    0  501  0.00000000000E+00  0.00000000000E+00 -0.25439788752E+03  0.25439788754E+03  0.25500000920E-02 0. -1.
    10030    2    1    2    0    0  0.00000000000E+00  0.00000000000E+00  0.12057070827E+04  0.17145028578E+04  0.12189300554E+04 0.  0.
        1    1    3    3  502    0  0.57738896917E+02 -0.44886765962E+03  0.28686587383E+02  0.45347422903E+03  0.50400001928E-02 0.  1.
       -1    1    3    3    0  502 -0.57738896917E+02  0.44886765962E+03  0.11770204953E+04  0.12610286288E+04  0.50400001928E-02 0. -1.
</event>
<event>
 5   0  0.6658994E-03  0.1183422E+04  0.7818609E-02  0.9127492E-01
        2   -1    0    0  501    0  0.00000000000E+00  0.00000000000E+00  0.54557937238E+03  0.54557937239E+03  0.25500000920E-02 0.  1.
       -2   -1    0    0    0  501  0.00000000000E+00  0.00000000000E+00 -0.64174322177E+03  0.64174322178E+03  0.25500000920E-02 0. -1.
    10030    2    1    2    0    0  0.00000000000E+00  0.00000000000E+00 -0.96163849387E+02  0.11873225942E+04  0.11834219267E+04 0.  0.
        4    1    3    3  502    0  0.59103396277E+03 -0.27594455388E+02 -0.54238285541E+02  0.59415991419E+03  0.12699999809E+01 0.  1.
       -4    1    3    3    0  502 -0.59103396277E+03  0.27594455388E+02 -0.41925563846E+02  0.59316267998E+03  0.12699999809E+01 0. -1.
</event>
<event>
 5   0  0.6585930E-03  0.1184571E+04  0.7818609E-02  0.9126470E-01
       -2   -1    0    0    0  501  0.00000000000E+00  0.00000000000E+00  0.30675450969E+03  0.30675450970E+03  0.25500000920E-02 0.  1.
        2   -1    0    0  501    0  0.00000000000E+00  0.00000000000E+00 -0.11435928084E+04  0.11435928085E+04  0.25500000920E-02 0. -1.
    10030    2    1    2    0    0  0.00000000000E+00  0.00000000000E+00 -0.83683829875E+03  0.14503473182E+04  0.11845712326E+04 0.  0.
        2    1    3    3  502    0  0.18562095005E+03 -0.28725043223E+03 -0.10104780928E+04  0.10667867284E+04  0.25500000920E-02 0. -1.
       -2    1    3    3    0  502 -0.18562095005E+03  0.28725043223E+03  0.17363979404E+03  0.38356058973E+03  0.25500000920E-02 0.  1.
</event>
<event>
 5   0  0.3731281E-03  0.1202239E+04  0.7818609E-02  0.9110899E-01
       -1   -1    0    0    0  501  0.00000000000E+00  0.00000000000E+00  0.32561092570E+03  0.32561092574E+03  0.50400001928E-02 0. -1.
        1   -1    0    0  501    0  0.00000000000E+00  0.00000000000E+00 -0.11097435468E+04  0.11097435468E+04  0.50400001928E-02 0.  1.
    10030    2    1    2    0    0  0.00000000000E+00  0.00000000000E+00 -0.78413262110E+03  0.14353544725E+04  0.12022389506E+04 0.  0.
        5    1    3    3  502    0  0.33826760309E+03  0.21942321252E+03 -0.92432535679E+03  0.10084497869E+04  0.46999998093E+01 0.  1.
       -5    1    3    3    0  502 -0.33826760309E+03 -0.21942321252E+03  0.14019273569E+03  0.42690468565E+03  0.46999998093E+01 0. -1.
</event>
<event>
 5   0  0.3772254E-03  0.1224059E+04  0.7818609E-02  0.9092054E-01
       -1   -1    0    0    0  501  0.00000000000E+00  0.00000000000E+00  0.18930811588E+03  0.18930811594E+03  0.50400001928E-02 0.  1.
        1   -1    0    0  501    0  0.00000000000E+00  0.00000000000E+00 -0.19786809241E+04  0.19786809241E+04  0.50400001928E-02 0. -1.
    10030    2    1    2    0    0  0.00000000000E+00  0.00000000000E+00 -0.17893728082E+04  0.21679890400E+04  0.12240594066E+04 0.  0.
        3    1    3    3  502    0 -0.21893711364E+03  0.21407615274E+03  0.43884919168E+02  0.30933469775E+03  0.10100000352E+00 0.  1.
       -3    1    3    3    0  502  0.21893711364E+03 -0.21407615274E+03 -0.18332577274E+04  0.18586543423E+04  0.10100000352E+00 0. -1.
</event>
<event>
 5   0  0.6349142E-03  0.1219765E+04  0.7818609E-02  0.9095730E-01
        2   -1    0    0  501    0  0.00000000000E+00  0.00000000000E+00  0.90621534718E+03  0.90621534718E+03  0.25500000920E-02 0.  1.
       -2   -1    0    0    0  501  0.00000000000E+00  0.00000000000E+00 -0.41045078144E+03  0.41045078145E+03  0.25500000920E-02 0. -1.
    10030    2    1    2    0    0  0.00000000000E+00  0.00000000000E+00  0.49576456574E+03  0.13166661286E+04  0.12197652191E+04 0.  0.
        1    1    3    3  502    0  0.57540015549E+03  0.11255363444E+03  0.42916154834E+03  0.72659018309E+03  0.50400001928E-02 0.  1.
       -1    1    3    3    0  502 -0.57540015549E+03 -0.11255363444E+03  0.66603017397E+02  0.59007594555E+03  0.50400001928E-02 0. -1.
</event>
<event>
 5   0  0.3944074E-03  0.1117749E+04  0.7818609E-02  0.9188063E-01
       -1   -1    0    0    0  501  0.00000000000E+00  0.00000000000E+00  0.31514120097E+03  0.31514120101E+03  0.50400001928E-02 0.  1.
        1   -1    0    0  501    0  0.00000000000E+00  0.00000000000E+00 -0.99111376698E+03  0.99111376699E+03  0.50400001928E-02 0. -1.
    10030    2    1    2    0    0  0.00000000000E+00  0.00000000000E+00 -0.67597256601E+03  0.13062549680E+04  0.11177491362E+04 0.  0.
        4    1    3    3  502    0 -0.48295086721E+03  0.14125883516E+00 -0.66666023927E+03  0.82321263816E+03  0.12699999809E+01 0. -1.
       -4    1    3    3    0  502  0.48295086721E+03 -0.14125883516E+00 -0.93123267405E+01  0.48304232984E+03  0.12699999809E+01 0.  1.
</event>
<event>
 5   0  0.3772254E-03  0.1141722E+04  0.7818609E-02  0.9165455E-01
        1   -1    0    0  501    0  0.00000000000E+00  0.00000000000E+00  0.13570644676E+04  0.13570644676E+04  0.50400001928E-02 0. -1.
       -1   -1    0    0    0  501  0.00000000000E+00  0.00000000000E+00 -0.24013758410E+03  0.24013758416E+03  0.50400001928E-02 0.  1.
    10030    2    1    2    0    0  0.00000000000E+00  0.00000000000E+00  0.11169268835E+04  0.15972020517E+04  0.11417218274E+04 0.  0.
        3    1    3    3  502    0 -0.13584743202E+03 -0.36057631875E+03  0.11477024630E+04  0.12106571605E+04  0.10100000352E+00 0. -1.
       -3    1    3    3    0  502  0.13584743202E+03  0.36057631875E+03 -0.30775579573E+02  0.38654489123E+03  0.10100000352E+00 0.  1.
</event>
<event>
 5   0  0.3701879E-03  0.1193559E+04  0.7818609E-02  0.9118513E-01
       -1   -1    0    0    0  501  0.00000000000E+00  0.00000000000E+00  0.10918906214E+04  0.10918906214E+04  0.50400001928E-02 0.  1.
        1   -1    0    0  501    0  0.00000000000E+00  0.00000000000E+00 -0.32617375327E+03  0.32617375331E+03  0.50400001928E-02 0. -1.
    10030    2    1    2    0    0  0.00000000000E+00  0.00000000000E+00  0.76571686816E+03  0.14180643748E+04  0.11935594869E+04 0.  0.
        1    1    3    3  502    0 -0.55205756704E+03 -0.20710792142E+03  0.27341920289E+03  0.64993792702E+03  0.50400001928E-02 0. -1.
       -1    1    3    3    0  502  0.55205756704E+03  0.20710792142E+03  0.49229766527E+03  0.76812644773E+03  0.50400001928E-02 0.  1.
</event>
<event>
 5   0  0.2537625E-03  0.1209593E+04  0.7818609E-02  0.9104501E-01
        3   -1    0    0  501    0  0.00000000000E+00  0.00000000000E+00  0.10130770102E+04  0.10130770153E+04  0.10100000352E+00 0.  1.
       -3   -1    0    0    0  501  0.00000000000E+00  0.00000000000E+00 -0.36105704015E+03  0.36105705427E+03  0.10100000352E+00 0. -1.
    10030    2    1    2    0    0  0.00000000000E+00  0.00000000000E+00  0.65201997007E+03  0.13741340695E+04  0.12095926586E+04 0.  0.
        3    1    3    3  502    0  0.41427802180E+03  0.36930927024E+03  0.52977240226E+02  0.55751431786E+03  0.10100000352E+00 0.  1.
       -3    1    3    3    0  502 -0.41427802180E+03 -0.36930927024E+03  0.59904272985E+03  0.81661975167E+03  0.10100000352E+00 0. -1.
</event>
<event>
 5   0  0.3731281E-03  0.1229534E+04  0.7818609E-02  0.9087391E-01
       -1   -1    0    0    0  501  0.00000000000E+00  0.00000000000E+00  0.43497676221E+03  0.43497676224E+03  0.50400001928E-02 0. -1.
        1   -1    0    0  501    0  0.00000000000E+00  0.00000000000E+00 -0.86887084823E+03  0.86887084825E+03  0.50400001928E-02 0.  1.
    10030    2    1    2    0    0  0.00000000000E+00  0.00000000000E+00 -0.43389408602E+03  0.13038476105E+04  0.12295342669E+04 0.  0.
        5    1    3    3  502    0  0.53681995882E+03  0.23023083084E+02 -0.53368122462E+03  0.75732652803E+03  0.46999998093E+01 0. -1.
       -5    1    3    3    0  502 -0.53681995882E+03 -0.23023083084E+02  0.99787138600E+02  0.54652108246E+03  0.46999998093E+01 0.  1.
</event>
<event>
 5   0  0.3772254E-03  0.1181609E+04  0.7818609E-02  0.9129108E-01
       -1   -1    0    0    0  501  0.00000000000E+00  0.00000000000E+00  0.91640798827E+03  0.91640798829E+03  0.50400001928E-02 0. -1.
        1   -1    0    0  501    0  0.00000000000E+00  0.00000000000E+00 -0.38088937744E+03  0.38088937747E+03  0.50400001928E-02 0.  1.
    10030    2    1    2    0    0  0.00000000000E+00  0.00000000000E+00  0.53551861084E+03  0.12972973658E+04  0.11816091878E+04 0.  0.
        3    1    3    3  502    0 -0.59036276189E+01 -0.35627334520E+03  0.78515738191E+03  0.86222831889E+03  0.10100000352E+00 0. -1.
       -3    1    3    3    0  502  0.59036276189E+01  0.35627334520E+03 -0.24963877107E+03  0.43506904687E+03  0.10100000352E+00 0.  1.
</event>
<event>
 5   0  0.6658994E-03  0.1214989E+04  0.7818609E-02  0.9099837E-01
        2   -1    0    0  501    0  0.00000000000E+00  0.00000000000E+00  0.13657933904E+04  0.13657933904E+04  0.25500000920E-02 0.  1.
       -2   -1    0    0    0  501  0.00000000000E+00  0.00000000000E+00 -0.27020883383E+03  0.27020883384E+03  0.25500000920E-02 0. -1.
    10030    2    1    2    0    0  0.00000000000E+00  0.00000000000E+00  0.10955845566E+04  0.16360022243E+04  0.12149887889E+04 0.  0.
        4    1    3    3  502    0  0.10315205972E+03 -0.36770230260E+03 -0.88360081150E+02  0.39198781563E+03  0.12699999809E+01 0. -1.
       -4    1    3    3    0  502 -0.10315205972E+03  0.36770230260E+03  0.11839446377E+04  0.12440144086E+04  0.12699999809E+01 0.  1.
</event>
<event>
 5   0  0.6349142E-03  0.1216321E+04  0.7818609E-02  0.9098690E-01
       -2   -1    0    0    0  501  0.00000000000E+00  0.00000000000E+00  0.12287263140E+04  0.12287263140E+04  0.25500000920E-02 0.  1.
        2   -1    0    0  501    0  0.00000000000E+00  0.00000000000E+00 -0.30101010940E+03  0.30101010941E+03  0.25500000920E-02 0. -1.
    10030    2    1    2    0    0  0.00000000000E+00  0.00000000000E+00  0.92771620460E+03  0.15297364234E+04  0.12163207508E+04 0.  0.
        1    1    3    3  502    0 -0.51923356079E+02  0.28832827120E+03 -0.20641294028E+03  0.35837902954E+03  0.50400001928E-02 0. -1.
       -1    1    3    3    0  502  0.51923356079E+02 -0.28832827120E+03  0.11341291449E+04  0.11713573939E+04  0.50400001928E-02 0.  1.
</event>
<event>
 5   0  0.3944074E-03  0.1186476E+04  0.7818609E-02  0.9124777E-01
        1   -1    0    0  501    0  0.00000000000E+00  0.00000000000E+00  0.84630759062E+03  0.84630759064E+03  0.50400001928E-02 0.  1.
       -1   -1    0    0    0  501  0.00000000000E+00  0.00000000000E+00 -0.41584311061E+03  0.41584311064E+03  0.50400001928E-02 0. -1.
    10030    2    1    2    0    0  0.00000000000E+00  0.00000000000E+00  0.43046448001E+03  0.12621507013E+04  0.11864757579E+04 0.  0.
        4    1    3    3  502    0  0.39084809433E+03 -0.37867026030E+03  0.46646524068E+03  0.71675995462E+03  0.12699999809E+01 0.  1.
       -4    1    3    3    0  502 -0.39084809433E+03  0.37867026030E+03 -0.36000760667E+02  0.54539074667E+03  0.12699999809E+01 0. -1.
</event>
<event>
 5   0  0.6640844E-03  0.1217936E+04  0.7818609E-02  0.9097300E-01
       -2   -1    0    0    0  501  0.00000000000E+00  0.00000000000E+00  0.51592334291E+03  0.51592334292E+03  0.25500000920E-02 0. -1.
        2   -1    0    0  501    0  0.00000000000E+00  0.00000000000E+00 -0.71879327952E+03  0.71879327953E+03  0.25500000920E-02 0.  1.
    10030    2    1    2    0    0  0.00000000000E+00  0.00000000000E+00 -0.20286993661E+03  0.12347166224E+04  0.12179363393E+04 0.  0.
        5    1    3    3  502    0  0.14491105627E+03 -0.37813974689E+03 -0.56248790680E+03  0.69311154780E+03  0.46999998093E+01 0.  1.
       -5    1    3    3    0  502 -0.14491105627E+03  0.37813974689E+03  0.35961797019E+03  0.54160507465E+03  0.46999998093E+01 0. -1.
</event>
<event>
 5   0  0.3944074E-03  0.9160603E+03  0.7818609E-02  0.9405725E-01
       -1   -1    0    0    0  501  0.00000000000E+00  0.00000000000E+00  0.29664242431E+03  0.29664242435E+03  0.50400001928E-02 0. -1.
        1   -1    0    0  501    0  0.00000000000E+00  0.00000000000E+00 -0.70722054149E+03  0.70722054151E+03  0.50400001928E-02 0.  1.
    10030    2    1    2    0    0  0.00000000000E+00  0.00000000000E+00 -0.41057811718E+03  0.10038629659E+04  0.91606029491E+03 0.  0.
        4    1    3    3  502    0 -0.13889593378E+03  0.24116443817E+03  0.19336120886E+03  0.33888425259E+03  0.12699999809E+01 0. -1.
       -4    1    3    3    0  502  0.13889593378E+03 -0.24116443817E+03 -0.60393932605E+03  0.66497871327E+03  0.12699999809E+01 0.  1.
</event>
<event>
 5   0  0.3701879E-03  0.1303394E+04  0.7818609E-02  0.9026878E-01
       -1   -1    0    0    0  501  0.00000000000E+00  0.00000000000E+00  0.47471018961E+03  0.47471018964E+03  0.50400001928E-02 0. -1.
        1   -1    0    0  501    0  0.00000000000E+00  0.00000000000E+00 -0.89467070001E+03  0.89467070002E+03  0.50400001928E-02 0.  1.
    10030    2    1    2    0    0  0.00000000000E+00  0.00000000000E+00 -0.41996051039E+03  0.13693808897E+04  0.13033944877E+04 0.  0.
        1    1    3    3  502    0  0.51433017931E+03  0.15594403667E+01  0.21049532358E+03  0.55573936920E+03  0.50400001928E-02 0. -1.
       -1    1    3    3    0  502 -0.51433017931E+03 -0.15594403667E+01 -0.63045583398E+03  0.81364152046E+03  0.50400001928E-02 0.  1.
</event>
<event>
 5   0  0.3701879E-03  0.1185844E+04  0.7818609E-02  0.9125338E-01
        1   -1    0    0  501    0  0.00000000000E+00  0.00000000000E+00  0.13249501842E+04  0.13249501842E+04  0.50400001928E-02 0. -1.
       -1   -1    0    0    0  501  0.00000000000E+00  0.00000000000E+00 -0.26533580131E+03  0.26533580136E+03  0.50400001928E-02 0.  1.
    10030    2    1    2    0    0  0.00000000000E+00  0.00000000000E+00  0.10596143829E+04  0.15902859856E+04  0.11858443724E+04 0.  0.
        1    1    3    3  502    0  0.23775548790E+03  0.26096860184E+03 -0.10902702154E+03  0.36948501271E+03  0.50400001928E-02 0.  1.
       -1    1    3    3    0  502 -0.23775548790E+03 -0.26096860184E+03  0.11686414044E+04  0.12208009729E+04  0.50400001928E-02 0. -1.
</event>
<event>
 5   0  0.3772254E-03  0.1191144E+04  0.7818609E-02  0.9120643E-01
        1   -1    0    0  501    0  0.00000000000E+00  0.00000000000E+00  0.16827102571E+04  0.16827102571E+04  0.50400001928E-02 0.  1.
       -1   -1    0    0    0  501  0.00000000000E+00  0.00000000000E+00 -0.21079457090E+03  0.21079457096E+03  0.50400001928E-02 0. -1.
    10030    2    1    2    0    0  0.00000000000E+00  0.00000000000E+00  0.14719156862E+04  0.18935048281E+04  0.11911443013E+04 0.  0.
        3    1    3    3  502    0 -0.52604080143E+03  0.27084764625E+03  0.84411031372E+03  0.10308247204E+04  0.10100000352E+00 0.  1.
       -3    1    3    3    0  502  0.52604080143E+03 -0.27084764625E+03  0.62780537247E+03  0.86268010766E+03  0.10100000352E+00 0. -1.
</event>
<event>
 5   0  0.6640844E-03  0.1148638E+04  0.7818609E-02  0.9159041E-01
        2   -1    0    0  501    0  0.00000000000E+00  0.00000000000E+00  0.39019622931E+03  0.39019622932E+03  0.25500000920E-02 0. -1.
       -2   -1    0    0    0  501  0.00000000000E+00  0.00000000000E+00 -0.84532426939E+03  0.84532426939E+03  0.25500000920E-02 0.  1.
    10030    2    1    2    0    0  0.00000000000E+00  0.00000000000E+00 -0.45512804008E+03  0.12355204987E+04  0.11486380500E+04 0.  0.
        5    1    3    3  502    0  0.27605488021E+03 -0.16425404525E+03 -0.73963460487E+03  0.80639142293E+03  0.46999998093E+01 0.  1.
       -5    1    3    3    0  502 -0.27605488021E+03  0.16425404525E+03  0.28450656479E+03  0.42912907577E+03  0.46999998093E+01 0. -1.
</event>
<event>
 5   0  0.6349142E-03  0.1211953E+04  0.7818609E-02  0.9102458E-01
       -2   -1    0    0    0  501  0.00000000000E+00  0.00000000000E+00  0.37501679441E+03  0.37501679442E+03  0.25500000920E-02 0. -1.
        2   -1    0    0  501    0  0.00000000000E+00  0.00000000000E+00 -0.97917580451E+03  0.97917580452E+03  0.25500000920E-02 0.  1.
    10030    2    1    2    0    0  0.00000000000E+00  0.00000000000E+00 -0.60415901011E+03  0.13541925989E+04  0.12119527571E+04 0.  0.
        1    1    3    3  502    0 -0.73739529336E+02 -0.58689496788E+03 -0.44914835984E+03  0.74270954665E+03  0.50400001928E-02 0.  1.
       -1    1    3    3    0  502  0.73739529336E+02  0.58689496788E+03 -0.15501065027E+03  0.61148305229E+03  0.50400001928E-02 0. -1.
</event>
<event>
 5   0  0.3944074E-03  0.1274173E+04  0.7818609E-02  0.9050300E-01
        1   -1    0    0  501    0  0.00000000000E+00  0.00000000000E+00  0.40759796219E+03  0.40759796222E+03  0.50400001928E-02 0. -1.
       -1   -1    0    0    0  501  0.00000000000E+00  0.00000000000E+00 -0.99578380318E+03  0.99578380320E+03  0.50400001928E-02 0.  1.
    10030    2    1    2    0    0  0.00000000000E+00  0.00000000000E+00 -0.58818584099E+03  0.14033817654E+04  0.12741733775E+04 0.  0.
        4    1    3    3  502    0  0.13559310822E+02 -0.25065742775E+03 -0.93901727138E+03  0.97199179515E+03  0.12699999809E+01 0.  1.
       -4    1    3    3    0  502 -0.13559310822E+02  0.25065742775E+03  0.35083143039E+03  0.43138997027E+03  0.12699999809E+01 0. -1.
</event>
<event>
 5   0  0.3772254E-03  0.1191253E+04  0.7818609E-02  0.9120548E-01
       -1   -1    0    0    0  501  0.00000000000E+00  0.00000000000E+00  0.96027853938E+03  0.96027853940E+03  0.50400001928E-02 0. -1.
        1   -1    0    0  501    0  0.00000000000E+00  0.00000000000E+00 -0.36944575554E+03  0.36944575557E+03  0.50400001928E-02 0.  1.
    10030    2    1    2    0    0  0.00000000000E+00  0.00000000000E+00  0.59083278385E+03  0.13297242950E+04  0.11912528372E+04 0.  0.
        3    1    3    3  502    0  0.28927288758E+03 -0.14453887105E+03  0.85376028418E+03  0.91294957241E+03  0.10100000352E+00 0. -1.
       -3    1    3    3    0  502 -0.28927288758E+03  0.14453887105E+03 -0.26292750033E+03  0.41677472256E+03  0.10100000352E+00 0.  1.
</event>
<event>
 5   0  0.6640844E-03  0.1226613E+04  0.7818609E-02  0.9089876E-01
       -2   -1    0    0    0  501  0.00000000000E+00  0.00000000000E+00  0.31874119218E+03  0.31874119219E+03  0.25500000920E-02 0. -1.
        2   -1    0    0  501    0  0.00000000000E+00  0.00000000000E+00 -0.11800954866E+04  0.11800954866E+04  0.25500000920E-02 0.  1.
    10030    2    1    2    0    0  0.00000000000E+00  0.00000000000E+00 -0.86135429444E+03  0.14988366788E+04  0.12266132924E+04 0.  0.
        5    1    3    3  502    0 -0.57223905115E+03  0.10990160013E+03 -0.19694933405E+03  0.61509919814E+03  0.46999998093E+01 0.  1.
       -5    1    3    3    0  502  0.57223905115E+03 -0.10990160013E+03 -0.66440496039E+03  0.88373748068E+03  0.46999998093E+01 0. -1.
</event>
<event>
 5   0  0.3772254E-03  0.8517039E+03  0.7818609E-02  0.9488053E-01
        1   -1    0    0  501    0  0.00000000000E+00  0.00000000000E+00  0.61669765299E+03  0.61669765301E+03  0.50400001928E-02 0. -1.
       -1   -1    0    0    0  501  0.00000000000E+00  0.00000000000E+00 -0.29406612978E+03  0.29406612982E+03  0.50400001928E-02 0.  1.
    10030    2    1    2    0    0  0.00000000000E+00  0.00000000000E+00  0.32263152322E+03  0.91076378283E+03  0.85170392059E+03 0.  0.
        3    1    3    3  502    0 -0.28938533154E+03  0.28015627881E+03  0.30917337322E+03  0.50775938748E+03  0.10100000352E+00 0. -1.
       -3    1    3    3    0  502  0.28938533154E+03 -0.28015627881E+03  0.13458149993E+02  0.40300439535E+03  0.10100000352E+00 0.  1.
</event>
<event>
 5   0  0.3701879E-03  0.9693031E+03  0.7818609E-02  0.9342868E-01
       -1   -1    0    0    0  501  0.00000000000E+00  0.00000000000E+00  0.11105473308E+04  0.11105473309E+04  0.50400001928E-02 0. -1.
        1   -1    0    0  501    0  0.00000000000E+00  0.00000000000E+00 -0.21150574086E+03  0.21150574092E+03  0.50400001928E-02 0.  1.
    10030    2    1    2    0    0  0.00000000000E+00  0.00000000000E+00  0.89904158999E+03  0.13220530718E+04  0.96930312291E+03 0.  0.
        1    1    3    3  502    0  0.30027448659E+03 -0.35978155359E+03  0.28092555682E+03  0.54637597138E+03  0.50400001928E-02 0. -1.
       -1    1    3    3    0  502 -0.30027448659E+03  0.35978155359E+03  0.61811603316E+03  0.77567710040E+03  0.50400001928E-02 0.  1.
</event>
<event>
 5   0  0.6658994E-03  0.1191292E+04  0.7818609E-02  0.9120513E-01
       -2   -1    0    0    0  501  0.00000000000E+00  0.00000000000E+00  0.44589315134E+03  0.44589315134E+03  0.25500000920E-02 0.  1.
        2   -1    0    0  501    0  0.00000000000E+00  0.00000000000E+00 -0.79569354655E+03  0.79569354655E+03  0.25500000920E-02 0. -1.
    10030    2    1    2    0    0  0.00000000000E+00  0.00000000000E+00 -0.34980039521E+03  0.12415866979E+04  0.11912922445E+04 0.  0.
        4    1    3    3  502    0  0.46577131296E+03  0.21938232817E+03 -0.48708100269E+03  0.70874610261E+03  0.12699999809E+01 0. -1.
       -4    1    3    3    0  502 -0.46577131296E+03 -0.21938232817E+03  0.13728060748E+03  0.53284059528E+03  0.12699999809E+01 0.  1.
</event>
<event>
 5   0  0.6585930E-03  0.1049001E+04  0.7818609E-02  0.9256376E-01
       -2   -1    0    0    0  501  0.00000000000E+00  0.00000000000E+00  0.24224939247E+03  0.24224939248E+03  0.25500000920E-02 0. -1.
        2   -1    0    0  501    0  0.00000000000E+00  0.00000000000E+00 -0.11356106903E+04  0.11356106903E+04  0.25500000920E-02 0.  1.
    10030    2    1    2    0    0  0.00000000000E+00  0.00000000000E+00 -0.89336129784E+03  0.13778600828E+04  0.10490014296E+04 0.  0.
        2    1    3    3  502    0  0.36427219876E+03  0.24978679241E+03 -0.81822459830E+03  0.92982749460E+03  0.25500000920E-02 0.  1.
       -2    1    3    3    0  502 -0.36427219876E+03 -0.24978679241E+03 -0.75136699541E+02  0.44803258819E+03  0.25500000920E-02 0. -1.
</event>
<event>
 5   0  0.3648616E-03  0.1214633E+04  0.7818609E-02  0.9100144E-01
        1   -1    0    0  501    0  0.00000000000E+00  0.00000000000E+00  0.81230454292E+03  0.81230454293E+03  0.50400001928E-02 0.  1.
       -1   -1    0    0    0  501  0.00000000000E+00  0.00000000000E+00 -0.45405815553E+03  0.45405815556E+03  0.50400001928E-02 0. -1.
    10030    2    1    2    0    0  0.00000000000E+00  0.00000000000E+00  0.35824638739E+03  0.12663626985E+04  0.12146332821E+04 0.  0.
        2    1    3    3  502    0 -0.52082269068E+02  0.55075837321E+03  0.44036632063E+03  0.70708545789E+03  0.25500000920E-02 0.  1.
       -2    1    3    3    0  502  0.52082269068E+02 -0.55075837321E+03 -0.82119933243E+02  0.55927724060E+03  0.25500000920E-02 0. -1.
</event>
<event>
 5   0  0.6585930E-03  0.1175533E+04  0.7818609E-02  0.9134546E-01
       -2   -1    0    0    0  501  0.00000000000E+00  0.00000000000E+00  0.35925128993E+03  0.35925128994E+03  0.25500000920E-02 0. -1.
        2   -1    0    0  501    0  0.00000000000E+00  0.00000000000E+00 -0.96163710979E+03  0.96163710980E+03  0.25500000920E-02 0.  1.
    10030    2    1    2    0    0  0.00000000000E+00  0.00000000000E+00 -0.60238581986E+03  0.13208883997E+04  0.11755328530E+04 0.  0.
        2    1    3    3  502    0  0.56504909041E+03 -0.33738761078E+02 -0.47903737996E+03  0.74154945214E+03  0.25500000920E-02 0. -1.
       -2    1    3    3    0  502 -0.56504909041E+03  0.33738761078E+02 -0.12334843991E+03  0.57933894760E+03  0.25500000920E-02 0.  1.
</event>
<event>
 5   0  0.3648616E-03  0.1211216E+04  0.7818609E-02  0.9103095E-01
       -1   -1    0    0    0  501  0.00000000000E+00  0.00000000000E+00  0.28374741374E+03  0.28374741379E+03  0.50400001928E-02 0.  1.
        1   -1    0    0  501    0  0.00000000000E+00  0.00000000000E+00 -0.12925621741E+04  0.12925621741E+04  0.50400001928E-02 0. -1.
    10030    2    1    2    0    0  0.00000000000E+00  0.00000000000E+00 -0.10088147604E+04  0.15763095879E+04  0.12112162054E+04 0.  0.
        2    1    3    3  502    0  0.50598568570E+03  0.10297450688E+03 -0.91623433698E+03  0.10517179391E+04  0.25500000920E-02 0. -1.
       -2    1    3    3    0  502 -0.50598568570E+03 -0.10297450688E+03 -0.92580423409E+02  0.52459164881E+03  0.25500000920E-02 0.  1.
</event>
<event>
 5   0  0.2537625E-03  0.1211824E+04  0.7818609E-02  0.9102569E-01
       -3   -1    0    0    0  501  0.00000000000E+00  0.00000000000E+00  0.13078693290E+03  0.13078697190E+03  0.10100000352E+00 0. -1.
        3   -1    0    0  501    0  0.00000000000E+00  0.00000000000E+00 -0.28070794657E+04  0.28070794675E+04  0.10100000352E+00 0.  1.
    10030    2    1    2    0    0  0.00000000000E+00  0.00000000000E+00 -0.26762925328E+04  0.29378664394E+04  0.12118240362E+04 0.  0.
        2    1    3    3  502    0 -0.52764071283E+03  0.13683179668E+03 -0.19795726419E+04  0.20532499864E+04  0.25500000920E-02 0.  1.
       -2    1    3    3    0  502  0.52764071283E+03 -0.13683179668E+03 -0.69671989091E+03  0.88461645294E+03  0.25500000920E-02 0. -1.
</event>
<event>
 5   0  0.3701879E-03  0.1214898E+04  0.7818609E-02  0.9099915E-01
       -1   -1    0    0    0  501  0.00000000000E+00  0.00000000000E+00  0.67851742544E+03  0.67851742545E+03  0.50400001928E-02 0. -1.
        1   -1    0    0  501    0  0.00000000000E+00  0.00000000000E+00 -0.54382460613E+03  0.54382460615E+03  0.50400001928E-02 0.  1.
    10030    2    1    2    0    0  0.00000000000E+00  0.00000000000E+00  0.13469281931E+03  0.12223420316E+04  0.12148983030E+04 0.  0.
        1    1    3    3  502    0 -0.16828370167E+03  0.39586428730E+03 -0.36419475836E+03  0.56361845272E+03  0.50400001928E-02 0.  1.
       -1    1    3    3    0  502  0.16828370167E+03 -0.39586428730E+03  0.49888757767E+03  0.65872357889E+03  0.50400001928E-02 0. -1.
</event>
<event>
 5   0  0.6585930E-03  0.1173178E+04  0.7818609E-02  0.9136663E-01
       -2   -1    0    0    0  501  0.00000000000E+00  0.00000000000E+00  0.26543744050E+03  0.26543744051E+03  0.25500000920E-02 0.  1.
        2   -1    0    0  501    0  0.00000000000E+00  0.00000000000E+00 -0.12963010126E+04  0.12963010126E+04  0.25500000920E-02 0. -1.
    10030    2    1    2    0    0  0.00000000000E+00  0.00000000000E+00 -0.10308635721E+04  0.15617384531E+04  0.11731782864E+04 0.  0.
        2    1    3    3  502    0 -0.55317764699E+03  0.13369934878E+03 -0.32620514088E+03  0.65596556231E+03  0.25500000920E-02 0. -1.
       -2    1    3    3    0  502  0.55317764699E+03 -0.13369934878E+03 -0.70465843118E+03  0.90577289076E+03  0.25500000920E-02 0.  1.
</event>
<event>
 5   0  0.6658994E-03  0.1148326E+04  0.7818609E-02  0.9159329E-01
       -2   -1    0    0    0  501  0.00000000000E+00  0.00000000000E+00  0.24383125830E+03  0.24383125832E+03  0.25500000920E-02 0.  1.
        2   -1    0    0  501    0  0.00000000000E+00  0.00000000000E+00 -0.13520136276E+04  0.13520136276E+04  0.25500000920E-02 0. -1.
    10030    2    1    2    0    0  0.00000000000E+00  0.00000000000E+00 -0.11081823693E+04  0.15958448859E+04  0.11483260583E+04 0.  0.
        4    1    3    3  502    0 -0.44243232270E+03 -0.67275214835E+02 -0.54201051566E+02  0.45079006377E+03  0.12699999809E+01 0.  1.
       -4    1    3    3    0  502  0.44243232270E+03  0.67275214835E+02 -0.10539813177E+04  0.11450548221E+04  0.12699999809E+01 0. -1.
</event>
<event>
 5   0  0.6349142E-03  0.1214418E+04  0.7818609E-02  0.9100329E-01
       -2   -1    0    0    0  501  0.00000000000E+00  0.00000000000E+00  0.26973996628E+03  0.26973996630E+03  0.25500000920E-02 0.  1.
        2   -1    0    0  501    0  0.00000000000E+00  0.00000000000E+00 -0.13668816683E+04  0.13668816683E+04  0.25500000920E-02 0. -1.
    10030    2    1    2    0    0  0.00000000000E+00  0.00000000000E+00 -0.10971417020E+04  0.16366216346E+04  0.12144177455E+04 0.  0.
        1    1    3    3  502    0 -0.49047465262E+03  0.23945218742E+03 -0.18998227917E+03  0.57792387159E+03  0.50400001928E-02 0.  1.
       -1    1    3    3    0  502  0.49047465262E+03 -0.23945218742E+03 -0.90715942287E+03  0.10586977630E+04  0.50400001928E-02 0. -1.
</event>
<event>
 5   0  0.6349142E-03  0.1199724E+04  0.7818609E-02  0.9113098E-01
        2   -1    0    0  501    0  0.00000000000E+00  0.00000000000E+00  0.18926468408E+04  0.18926468408E+04  0.25500000920E-02 0.  1.
       -2   -1    0    0    0  501  0.00000000000E+00  0.00000000000E+00 -0.19012224777E+03  0.19012224779E+03  0.25500000920E-02 0. -1.
    10030    2    1    2    0    0  0.00000000000E+00  0.00000000000E+00  0.17025245930E+04  0.20827690886E+04  0.11997237543E+04 0.  0.
        1    1    3    3  502    0  0.42768950185E+03 -0.40375730021E+03  0.10559090376E+04  0.12086695839E+04  0.50400001928E-02 0.  1.
       -1    1    3    3    0  502 -0.42768950185E+03  0.40375730021E+03  0.64661555544E+03  0.87409950465E+03  0.50400001928E-02 0. -1.
</event>
<event>
 5   0  0.3648616E-03  0.1272326E+04  0.7818609E-02  0.9051804E-01
       -1   -1    0    0    0  501  0.00000000000E+00  0.00000000000E+00  0.22938083624E+03  0.22938083629E+03  0.50400001928E-02 0. -1.
        1   -1    0    0  501    0  0.00000000000E+00  0.00000000000E+00 -0.17643287566E+04  0.17643287566E+04  0.50400001928E-02 0.  1.
    10030    2    1    2    0    0  0.00000000000E+00  0.00000000000E+00 -0.15349479204E+04  0.19937095929E+04  0.12723257533E+04 0.  0.
        2    1    3    3  502    0 -0.25917387208E+03  0.44680155345E+03 -0.18557648617E+03  0.54885458580E+03  0.25500000920E-02 0. -1.
       -2    1    3    3    0  502  0.25917387208E+03 -0.44680155345E+03 -0.13493714342E+04  0.14448550071E+04  0.25500000920E-02 0.  1.
</event>
<event>
 5   0  0.2537625E-03  0.1211408E+04  0.7818609E-02  0.9102929E-01
        4   -1    0    0  501    0  0.00000000000E+00  0.00000000000E+00  0.54754799063E+03  0.54754946347E+03  0.12699999809E+01 0. -1.
       -4   -1    0    0    0  501  0.00000000000E+00  0.00000000000E+00 -0.67003393432E+03  0.67003513792E+03  0.12699999809E+01 0.  1.
    10030    2    1    2    0    0  0.00000000000E+00  0.00000000000E+00 -0.12248594369E+03  0.12175846014E+04  0.12114080465E+04 0.  0.
        2    1    3    3  502    0 -0.27448946566E+03  0.39265287462E+03  0.31126321142E+03  0.57131911704E+03  0.25500000920E-02 0. -1.
       -2    1    3    3    0  502  0.27448946566E+03 -0.39265287462E+03 -0.43374915511E+03  0.64626548435E+03  0.25500000920E-02 0.  1.
</event>
<event>
 5   0  0.6349142E-03  0.1206867E+04  0.7818609E-02  0.9106867E-01
       -2   -1    0    0    0  501  0.00000000000E+00  0.00000000000E+00  0.26004970693E+03  0.26004970694E+03  0.25500000920E-02 0. -1.
        2   -1    0    0  501    0  0.00000000000E+00  0.00000000000E+00 -0.14002390550E+04  0.14002390550E+04  0.25500000920E-02 0.  1.
    10030    2    1    2    0    0  0.00000000000E+00  0.00000000000E+00 -0.11401893481E+04  0.16602887619E+04  0.12068666138E+04 0.  0.
        1    1    3    3  502    0 -0.11642599680E+03 -0.12424186473E+03 -0.13665069443E+04  0.13770738116E+04  0.50400001928E-02 0.  1.
       -1    1    3    3    0  502  0.11642599680E+03  0.12424186473E+03  0.22631759627E+03  0.28321495033E+03  0.50400001928E-02 0. -1.
</event>
<event>
 5   0  0.6640844E-03  0.1224675E+04  0.7818609E-02  0.9091528E-01
       -2   -1    0    0    0  501  0.00000000000E+00  0.00000000000E+00  0.36680047109E+03  0.36680047110E+03  0.25500000920E-02 0. -1.
        2   -1    0    0  501    0  0.00000000000E+00  0.00000000000E+00 -0.10222380726E+04  0.10222380726E+04  0.25500000920E-02 0.  1.
    10030    2    1    2    0    0  0.00000000000E+00  0.00000000000E+00 -0.65543760154E+03  0.13890385437E+04  0.12246753147E+04 0.  0.
        5    1    3    3  502    0 -0.18926762785E+03 -0.10857075825E+03 -0.97662695918E+03  0.10007158198E+04  0.46999998093E+01 0.  1.
       -5    1    3    3    0  502  0.18926762785E+03  0.10857075825E+03  0.32118935764E+03  0.38832272398E+03  0.46999998093E+01 0. -1.
</event>
<event>
 5   0  0.6658994E-03  0.1153482E+04  0.7818609E-02  0.9154577E-01
       -2   -1    0    0    0  501  0.00000000000E+00  0.00000000000E+00  0.19828646082E+03  0.19828646084E+03  0.25500000920E-02 0. -1.
        2   -1    0    0  501    0  0.00000000000E+00  0.00000000000E+00 -0.16775231117E+04  0.16775231117E+04  0.25500000920E-02 0.  1.
    10030    2    1    2    0    0  0.00000000000E+00  0.00000000000E+00 -0.14792366509E+04  0.18758095725E+04  0.11534818954E+04 0.  0.
        4    1    3    3  502    0  0.66976028811E+02  0.26031599903E+03  0.90194912972E+02  0.28352591242E+03  0.12699999809E+01 0. -1.
       -4    1    3    3    0  502 -0.66976028811E+02 -0.26031599903E+03 -0.15694315638E+04  0.15922836601E+04  0.12699999809E+01 0.  1.
</event>
<event>
 5   0  0.3701879E-03  0.1197906E+04  0.7818609E-02  0.9114691E-01
        1   -1    0    0  501    0  0.00000000000E+00  0.00000000000E+00  0.20147611218E+04  0.20147611218E+04  0.50400001928E-02 0.  1.
       -1   -1    0    0    0  501  0.00000000000E+00  0.00000000000E+00 -0.17805828457E+03  0.17805828464E+03  0.50400001928E-02 0. -1.
    10030    2    1    2    0    0  0.00000000000E+00  0.00000000000E+00  0.18367028373E+04  0.21928194065E+04  0.11979063557E+04 0.  0.
        1    1    3    3  502    0 -0.37929061386E+03  0.24894362694E+03  0.16341631429E+04  0.16959727229E+04  0.50400001928E-02 0.  1.
       -1    1    3    3    0  502  0.37929061386E+03 -0.24894362694E+03  0.20253969433E+03  0.49684668356E+03  0.50400001928E-02 0. -1.
</event>
<event>
 5   0  0.6493047E-03  0.1211698E+04  0.7818609E-02  0.9102678E-01
       -2   -1    0    0    0  501  0.00000000000E+00  0.00000000000E+00  0.83164405918E+03  0.83164405918E+03  0.25500000920E-02 0.  1.
        2   -1    0    0  501    0  0.00000000000E+00  0.00000000000E+00 -0.44135849067E+03  0.44135849068E+03  0.25500000920E-02 0. -1.
    10030    2    1    2    0    0  0.00000000000E+00  0.00000000000E+00  0.39028556850E+03  0.12730025499E+04  0.12116982574E+04 0.  0.
        3    1    3    3  502    0 -0.40897763973E+03  0.19177187956E+03 -0.22903432976E+03  0.50645424077E+03  0.10100000352E+00 0. -1.
       -3    1    3    3    0  502  0.40897763973E+03 -0.19177187956E+03  0.61931989826E+03  0.76654830909E+03  0.10100000352E+00 0.  1.
</event>
<event>
 5   0  0.6349142E-03  0.1152777E+04  0.7818609E-02  0.9155226E-01
        2   -1    0    0  501    0  0.00000000000E+00  0.00000000000E+00  0.89324279423E+03  0.89324279424E+03  0.25500000920E-02 0.  1.
       -2   -1    0    0    0  501  0.00000000000E+00  0.00000000000E+00 -0.37192976540E+03  0.37192976541E+03  0.25500000920E-02 0. -1.
    10030    2    1    2    0    0  0.00000000000E+00  0.00000000000E+00  0.52131302883E+03  0.12651725596E+04  0.11527767918E+04 0.  0.
        1    1    3    3  502    0  0.48154108722E+03 -0.31498379123E+03  0.22381293892E+03  0.61740492311E+03  0.50400001928E-02 0.  1.
       -1    1    3    3    0  502 -0.48154108722E+03  0.31498379123E+03  0.29750008992E+03  0.64776763654E+03  0.50400001928E-02 0. -1.
</event>
<event>
 5   0  0.3944074E-03  0.1219194E+04  0.7818609E-02  0.9096220E-01
        1   -1    0    0  501    0  0.00000000000E+00  0.00000000000E+00  0.66809263478E+03  0.66809263480E+03  0.50400001928E-02 0.  1.
       -1   -1    0    0    0  501  0.00000000000E+00  0.00000000000E+00 -0.55622279797E+03  0.55622279799E+03  0.50400001928E-02 0. -1.
    10030    2    1    2    0    0  0.00000000000E+00  0.00000000000E+00  0.11186983681E+03  0.12243154328E+04  0.12191937576E+04 0.  0.
        4    1    3    3  502    0  0.39588463733E+03 -0.77848222031E+02 -0.40295493922E+03  0.57022739998E+03  0.12699999809E+01 0. -1.
       -4    1    3    3    0  502 -0.39588463733E+03  0.77848222031E+02  0.51482477604E+03  0.65408803281E+03  0.12699999809E+01 0.  1.
</event>
<event>
 5   0  0.6493047E-03  0.1195535E+04  0.7818609E-02  0.9116774E-01
        2   -1    0    0  501    0  0.00000000000E+00  0.00000000000E+00  0.16523494913E+04  0.16523494913E+04  0.25500000920E-02 0.  1.
       -2   -1    0    0    0  501  0.00000000000E+00  0.00000000000E+00 -0.21625332395E+03  0.21625332396E+03  0.25500000920E-02 0. -1.
    10030    2    1    2    0    0  0.00000000000E+00  0.00000000000E+00  0.14360961674E+04  0.18686028153E+04  0.11955351435E+04 0.  0.
        3    1    3    3  502    0 -0.34960013348E+03 -0.77479052949E+02 -0.30069483414E+02  0.35934306868E+03  0.10100000352E+00 0. -1.
       -3    1    3    3    0  502  0.34960013348E+03  0.77479052949E+02  0.14661656508E+04  0.15092597466E+04  0.10100000352E+00 0.  1.
</event>
<event>
 5   0  0.6349142E-03  0.1202025E+04  0.7818609E-02  0.9111086E-01
        2   -1    0    0  501    0  0.00000000000E+00  0.00000000000E+00  0.19434759579E+04  0.19434759579E+04  0.25500000920E-02 0. -1.
       -2   -1    0    0    0  501  0.00000000000E+00  0.00000000000E+00 -0.18586083613E+03  0.18586083615E+03  0.25500000920E-02 0.  1.
    10030    2    1    2    0    0  0.00000000000E+00  0.00000000000E+00  0.17576151218E+04  0.21293367941E+04  0.12020250689E+04 0.  0.
        1    1    3    3  502    0 -0.16249140004E+02 -0.60073406565E+03  0.86392158488E+03  0.10523810893E+04  0.50400001928E-02 0.  1.
       -1    1    3    3    0  502  0.16249140004E+02  0.60073406565E+03  0.89369353690E+03  0.10769557048E+04  0.50400001928E-02 0. -1.
</event>
<event>
 5   0  0.3648616E-03  0.1212899E+04  0.7818609E-02  0.9101640E-01
        1   -1    0    0  501    0  0.00000000000E+00  0.00000000000E+00  0.12332901005E+04  0.12332901005E+04  0.50400001928E-02 0.  1.
       -1   -1    0    0    0  501  0.00000000000E+00  0.00000000000E+00 -0.29821141169E+03  0.29821141173E+03  0.50400001928E-02 0. -1.
    10030    2    1    2    0    0  0.00000000000E+00  0.00000000000E+00  0.93507868878E+03  0.15315015122E+04  0.12128993065E+04 0.  0.
        2    1    3    3  502    0 -0.54126466162E+03  0.18906441845E+03  0.21796182730E+03  0.61336787201E+03  0.25500000920E-02 0. -1.
       -2    1    3    3    0  502  0.54126466162E+03 -0.18906441845E+03  0.71711686148E+03  0.91813364021E+03  0.25500000920E-02 0.  1.
</event>
<event>
 5   0  0.6640844E-03  0.1197390E+04  0.7818609E-02  0.9115145E-01
       -2   -1    0    0    0  501  0.00000000000E+00  0.00000000000E+00  0.16788814638E+04  0.16788814638E+04  0.25500000920E-02 0. -1.
        2   -1    0    0  501    0  0.00000000000E+00  0.00000000000E+00 -0.21349656310E+03  0.21349656311E+03  0.25500000920E-02 0.  1.
    10030    2    1    2    0    0  0.00000000000E+00  0.00000000000E+00  0.14653849007E+04  0.18923780269E+04  0.11973895313E+04 0.  0.
        5    1    3    3  502    0 -0.30597270226E+03 -0.50922597477E+03  0.84971764274E+03  0.10368088302E+04  0.46999998093E+01 0.  1.
       -5    1    3    3    0  502  0.30597270226E+03  0.50922597477E+03  0.61566725795E+03  0.85556919675E+03  0.46999998093E+01 0. -1.
</event>
<event>
 5   0  0.3701879E-03  0.1209350E+04  0.7818609E-02  0.9104711E-01
       -1   -1    0    0    0  501  0.00000000000E+00  0.00000000000E+00  0.44052849434E+03  0.44052849437E+03  0.50400001928E-02 0. -1.
        1   -1    0    0  501    0  0.00000000000E+00  0.00000000000E+00 -0.82998506972E+03  0.82998506974E+03  0.50400001928E-02 0.  1.
    10030    2    1    2    0    0  0.00000000000E+00  0.00000000000E+00 -0.38945657538E+03  0.12705135641E+04  0.12093503597E+04 0.  0.
        1    1    3    3  502    0 -0.28599127649E+03 -0.52869860318E+03 -0.26376994716E+03  0.65642045084E+03  0.50400001928E-02 0. -1.
       -1    1    3    3    0  502  0.28599127649E+03  0.52869860318E+03 -0.12568662823E+03  0.61409311327E+03  0.50400001928E-02 0.  1.
</event>
<event>
 5   0  0.6349142E-03  0.1196876E+04  0.7818609E-02  0.9115595E-01
       -2   -1    0    0    0  501  0.00000000000E+00  0.00000000000E+00  0.29976138919E+03  0.29976138920E+03  0.25500000920E-02 0.  1.
        2   -1    0    0  501    0  0.00000000000E+00  0.00000000000E+00 -0.11947103685E+04  0.11947103685E+04  0.25500000920E-02 0. -1.
    10030    2    1    2    0    0  0.00000000000E+00  0.00000000000E+00 -0.89494897933E+03  0.14944717577E+04  0.11968759999E+04 0.  0.
        1    1    3    3  502    0 -0.21599647262E+03 -0.31365258153E+03  0.12892795896E+03  0.40206322477E+03  0.50400001928E-02 0.  1.
       -1    1    3    3    0  502  0.21599647262E+03  0.31365258153E+03 -0.10238769383E+04  0.10924085330E+04  0.50400001928E-02 0. -1.
</event>
<event>
 5   0  0.6585930E-03  0.1197702E+04  0.7818609E-02  0.9114870E-01
        2   -1    0    0  501    0  0.00000000000E+00  0.00000000000E+00  0.94007700756E+03  0.94007700756E+03  0.25500000920E-02 0. -1.
       -2   -1    0    0    0  501  0.00000000000E+00  0.00000000000E+00 -0.38148229263E+03  0.38148229264E+03  0.25500000920E-02 0.  1.
    10030    2    1    2    0    0  0.00000000000E+00  0.00000000000E+00  0.55859471493E+03  0.13215593002E+04  0.11977023538E+04 0.  0.
        2    1    3    3  502    0 -0.51634037277E+03  0.23132103701E+03  0.62775593181E+02  0.56926055355E+03  0.25500000920E-02 0.  1.
       -2    1    3    3    0  502  0.51634037277E+03 -0.23132103701E+03  0.49581912175E+03  0.75229874665E+03  0.25500000920E-02 0. -1.
</event>
<event>
 5   0  0.3731281E-03  0.1173058E+04  0.7818609E-02  0.9136771E-01
       -1   -1    0    0    0  501  0.00000000000E+00  0.00000000000E+00  0.17237248442E+03  0.17237248449E+03  0.50400001928E-02 0. -1.
        1   -1    0    0  501    0  0.00000000000E+00  0.00000000000E+00 -0.19957726331E+04  0.19957726331E+04  0.50400001928E-02 0.  1.
    10030    2    1    2    0    0  0.00000000000E+00  0.00000000000E+00 -0.18234001487E+04  0.21681451176E+04  0.11730580330E+04 0.  0.
        5    1    3    3  502    0  0.16631924447E+03  0.42416765448E+03 -0.15943501974E+04  0.16581781967E+04  0.46999998093E+01 0.  1.
       -5    1    3    3    0  502 -0.16631924447E+03 -0.42416765448E+03 -0.22904995129E+03  0.50996692086E+03  0.46999998093E+01 0. -1.
</event>
<event>
 5   0  0.3772254E-03  0.1139364E+04  0.7818609E-02  0.9167652E-01
        1   -1    0    0  501    0  0.00000000000E+00  0.00000000000E+00  0.53723765948E+03  0.53723765950E+03  0.50400001928E-02 0.  1.
       -1   -1    0    0    0  501  0.00000000000E+00  0.00000000000E+00 -0.60408596583E+03  0.60408596585E+03  0.50400001928E-02 0. -1.
    10030    2    1    2    0    0  0.00000000000E+00  0.00000000000E+00 -0.66848306350E+02  0.11413236253E+04  0.11393642621E+04 0.  0.
        3    1    3    3  502    0 -0.26801353179E+03  0.24508927659E+03 -0.47308406818E+03  0.59641307203E+03  0.10100000352E+00 0. -1.
       -3    1    3    3    0  502  0.26801353179E+03 -0.24508927659E+03  0.40623576183E+03  0.54491055332E+03  0.10100000352E+00 0.  1.
</event>
<event>
 5   0  0.6493047E-03  0.1148650E+04  0.7818609E-02  0.9159030E-01
       -2   -1    0    0    0  501  0.00000000000E+00  0.00000000000E+00  0.31596167860E+03  0.31596167861E+03  0.25500000920E-02 0. -1.
        2   -1    0    0  501    0  0.00000000000E+00  0.00000000000E+00 -0.10439527913E+04  0.10439527913E+04  0.25500000920E-02 0.  1.
    10030    2    1    2    0    0  0.00000000000E+00  0.00000000000E+00 -0.72799111269E+03  0.13599144699E+04  0.11486497749E+04 0.  0.
        3    1    3    3  502    0  0.46098768027E+02  0.35078258483E+03  0.17162463936E+03  0.39322836275E+03  0.10100000352E+00 0. -1.
       -3    1    3    3    0  502 -0.46098768027E+02 -0.35078258483E+03 -0.89961575205E+03  0.96668610715E+03  0.10100000352E+00 0.  1.
</event>
<event>
 5   0  0.6640844E-03  0.1200951E+04  0.7818609E-02  0.9112024E-01
        2   -1    0    0  501    0  0.00000000000E+00  0.00000000000E+00  0.17778260649E+04  0.17778260649E+04  0.25500000920E-02 0. -1.
       -2   -1    0    0    0  501  0.00000000000E+00  0.00000000000E+00 -0.20281574607E+03  0.20281574609E+03  0.25500000920E-02 0.  1.
    10030    2    1    2    0    0  0.00000000000E+00  0.00000000000E+00  0.15750103188E+04  0.19806418110E+04  0.12009514890E+04 0.  0.
        5    1    3    3  502    0  0.74242796224E+02 -0.25399962386E+03  0.16764389464E+04  0.16972028260E+04  0.46999998093E+01 0. -1.
       -5    1    3    3    0  502 -0.74242796224E+02  0.25399962386E+03 -0.10142862756E+03  0.28343898496E+03  0.46999998093E+01 0.  1.
</event>
<event>
 5   0  0.3731281E-03  0.1205547E+04  0.7818609E-02  0.9108015E-01
        1   -1    0    0  501    0  0.00000000000E+00  0.00000000000E+00  0.10115327573E+04  0.10115327574E+04  0.50400001928E-02 0. -1.
       -1   -1    0    0    0  501  0.00000000000E+00  0.00000000000E+00 -0.35919313987E+03  0.35919313990E+03  0.50400001928E-02 0.  1.
    10030    2    1    2    0    0  0.00000000000E+00  0.00000000000E+00  0.65233961748E+03  0.13707258973E+04  0.12055465602E+04 0.  0.
        5    1    3    3  502    0  0.22614653911E+03 -0.43754068405E+03  0.72123903759E+03  0.87337961202E+03  0.46999998093E+01 0. -1.
       -5    1    3    3    0  502 -0.22614653911E+03  0.43754068405E+03 -0.68899420114E+02  0.49734628524E+03  0.46999998093E+01 0.  1.
</event>
<event>
 5   0  0.6349142E-03  0.1205945E+04  0.7818609E-02  0.9107669E-01
       -2   -1    0    0    0  501  0.00000000000E+00  0.00000000000E+00  0.53431970436E+03  0.53431970437E+03  0.25500000920E-02 0. -1.
        2   -1    0    0  501    0  0.00000000000E+00  0.00000000000E+00 -0.68044638101E+03  0.68044638101E+03  0.25500000920E-02 0.  1.
    10030    2    1    2    0    0  0.00000000000E+00  0.00000000000E+00 -0.14612667665E+03  0.12147660854E+04  0.12059451217E+04 0.  0.
        1    1    3    3  502    0 -0.34216324042E+03 -0.49441245102E+03 -0.11874429637E+03  0.61287809780E+03  0.50400001928E-02 0. -1.
       -1    1    3    3    0  502  0.34216324042E+03  0.49441245102E+03 -0.27382380279E+02  0.60188798758E+03  0.50400001928E-02 0.  1.
</event>
<event>
 5   0  0.3944074E-03  0.1237983E+04  0.7818609E-02  0.9080245E-01
       -1   -1    0    0    0  501  0.00000000000E+00  0.00000000000E+00  0.38325773302E+03  0.38325773306E+03  0.50400001928E-02 0. -1.
        1   -1    0    0  501    0  0.00000000000E+00  0.00000000000E+00 -0.99972021070E+03  0.99972021071E+03  0.50400001928E-02 0.  1.
    10030    2    1    2    0    0  0.00000000000E+00  0.00000000000E+00 -0.61646247768E+03  0.13829779438E+04  0.12379830397E+04 0.  0.
        4    1    3    3  502    0 -0.45019013391E+03 -0.15031594723E+03 -0.75211375076E+03  0.88934962059E+03  0.12699999809E+01 0.  1.
       -4    1    3    3    0  502  0.45019013391E+03  0.15031594723E+03  0.13565127308E+03  0.49362832318E+03  0.12699999809E+01 0. -1.
</event>
<event>
 5   0  0.6493047E-03  0.1158501E+04  0.7818609E-02  0.9149976E-01
       -2   -1    0    0    0  501  0.00000000000E+00  0.00000000000E+00  0.28547984794E+03  0.28547984796E+03  0.25500000920E-02 0.  1.
        2   -1    0    0  501    0  0.00000000000E+00  0.00000000000E+00 -0.11753238669E+04  0.11753238669E+04  0.25500000920E-02 0. -1.
    10030    2    1    2    0    0  0.00000000000E+00  0.00000000000E+00 -0.88984401900E+03  0.14608037149E+04  0.11585012366E+04 0.  0.
        3    1    3    3  502    0 -0.13831794023E+03  0.30765552316E+03  0.14885684048E+03  0.36870332610E+03  0.10100000352E+00 0.  1.
       -3    1    3    3    0  502  0.13831794023E+03 -0.30765552316E+03 -0.10387008595E+04  0.10921003888E+04  0.10100000352E+00 0. -1.
</event>
<event>
 5   0  0.6658994E-03  0.1194432E+04  0.7818609E-02  0.9117744E-01
       -2   -1    0    0    0  501  0.00000000000E+00  0.00000000000E+00  0.31956277965E+03  0.31956277966E+03  0.25500000920E-02 0. -1.
        2   -1    0    0  501    0  0.00000000000E+00  0.00000000000E+00 -0.11161088080E+04  0.11161088080E+04  0.25500000920E-02 0.  1.
    10030    2    1    2    0    0  0.00000000000E+00  0.00000000000E+00 -0.79654602837E+03  0.14356715877E+04  0.11944318031E+04 0.  0.
        4    1    3    3  502    0  0.58792432194E+03  0.10385490524E+03 -0.41627733092E+03  0.72782503310E+03  0.12699999809E+01 0.  1.
       -4    1    3    3    0  502 -0.58792432194E+03 -0.10385490524E+03 -0.38026869745E+03  0.70784655458E+03  0.12699999809E+01 0. -1.
</event>
<event>
 5   0  0.6585930E-03  0.1192915E+04  0.7818609E-02  0.9119081E-01
       -2   -1    0    0    0  501  0.00000000000E+00  0.00000000000E+00  0.48412359061E+03  0.48412359062E+03  0.25500000920E-02 0. -1.
        2   -1    0    0  501    0  0.00000000000E+00  0.00000000000E+00 -0.73485632317E+03  0.73485632317E+03  0.25500000920E-02 0.  1.
    10030    2    1    2    0    0  0.00000000000E+00  0.00000000000E+00 -0.25073273256E+03  0.12189799138E+04  0.11929145514E+04 0.  0.
        2    1    3    3  502    0  0.25717382095E+03 -0.40884340594E+03 -0.48297008906E+03  0.68304568786E+03  0.25500000920E-02 0.  1.
       -2    1    3    3    0  502 -0.25717382095E+03  0.40884340594E+03  0.23223735651E+03  0.53593422593E+03  0.25500000920E-02 0. -1.
</event>
<event>
 5   0  0.6585930E-03  0.1278111E+04  0.7818609E-02  0.9047106E-01
       -2   -1    0    0    0  501  0.00000000000E+00  0.00000000000E+00  0.11513803708E+04  0.11513803708E+04  0.25500000920E-02 0.  1.
        2   -1    0    0  501    0  0.00000000000E+00  0.00000000000E+00 -0.35469757267E+03  0.35469757268E+03  0.25500000920E-02 0. -1.
    10030    2    1    2    0    0  0.00000000000E+00  0.00000000000E+00  0.79668279811E+03  0.15060779435E+04  0.12781108289E+04 0.  0.
        2    1    3    3  502    0 -0.63522917679E+03 -0.28997276882E+02  0.32349103760E+03  0.71344474245E+03  0.25500000920E-02 0. -1.
       -2    1    3    3    0  502  0.63522917679E+03  0.28997276882E+02  0.47319176050E+03  0.79263320100E+03  0.25500000920E-02 0.  1.
</event>
<event>
 5   0  0.6349142E-03  0.1020615E+04  0.7818609E-02  0.9286220E-01
       -2   -1    0    0    0  501  0.00000000000E+00  0.00000000000E+00  0.16463421454E+03  0.16463421456E+03  0.25500000920E-02 0.  1.
        2   -1    0    0  501    0  0.00000000000E+00  0.00000000000E+00 -0.15817708563E+04  0.15817708563E+04  0.25500000920E-02 0. -1.
    10030    2    1    2    0    0  0.00000000000E+00  0.00000000000E+00 -0.14171366418E+04  0.17464050709E+04  0.10206147217E+04 0.  0.
        1    1    3    3  502    0 -0.27100538819E+03 -0.15845597740E+03 -0.20146255741E+02  0.31457604621E+03  0.50400001928E-02 0.  1.
       -1    1    3    3    0  502  0.27100538819E+03  0.15845597740E+03 -0.13969903861E+04  0.14318290247E+04  0.50400001928E-02 0. -1.
</event>
<event>
 5   0  0.3731281E-03  0.1168489E+04  0.7818609E-02  0.9140894E-01
       -1   -1    0    0    0  501  0.00000000000E+00  0.00000000000E+00  0.22743782223E+03  0.22743782228E+03  0.50400001928E-02 0.  1.
        1   -1    0    0  501    0  0.00000000000E+00  0.00000000000E+00 -0.15008127423E+04  0.15008127423E+04  0.50400001928E-02 0. -1.
    10030    2    1    2    0    0  0.00000000000E+00  0.00000000000E+00 -0.12733749201E+04  0.17282505646E+04  0.11684889075E+04 0.  0.
        5    1    3    3  502    0  0.40087703338E+03 -0.42251229616E+03 -0.56890164072E+03  0.81418069438E+03  0.46999998093E+01 0. -1.
       -5    1    3    3    0  502 -0.40087703338E+03  0.42251229616E+03 -0.70447327936E+03  0.91406987021E+03  0.46999998093E+01 0.  1.
</event>
<event>
 5   0  0.3701879E-03  0.1214179E+04  0.7818609E-02  0.9100535E-01
        1   -1    0    0  501    0  0.00000000000E+00  0.00000000000E+00  0.10272810710E+04  0.10272810710E+04  0.50400001928E-02 0.  1.
       -1   -1    0    0    0  501  0.00000000000E+00  0.00000000000E+00 -0.35877008997E+03  0.35877009000E+03  0.50400001928E-02 0. -1.
    10030    2    1    2    0    0  0.00000000000E+00  0.00000000000E+00  0.66851098102E+03  0.13860511610E+04  0.12141791009E+04 0.  0.
        1    1    3    3  502    0 -0.47750850993E+03  0.30681863578E+03  0.88342182992E+02  0.57441830894E+03  0.50400001928E-02 0. -1.
       -1    1    3    3    0  502  0.47750850993E+03 -0.30681863578E+03  0.58016879803E+03  0.81163285207E+03  0.50400001928E-02 0.  1.
</event>
<event>
 5   0  0.6349142E-03  0.1213269E+04  0.7818609E-02  0.9101321E-01
        2   -1    0    0  501    0  0.00000000000E+00  0.00000000000E+00  0.28813794849E+03  0.28813794851E+03  0.25500000920E-02 0. -1.
       -2   -1    0    0    0  501  0.00000000000E+00  0.00000000000E+00 -0.12771851598E+04  0.12771851598E+04  0.25500000920E-02 0.  1.
    10030    2    1    2    0    0  0.00000000000E+00  0.00000000000E+00 -0.98904721127E+03  0.15653231083E+04  0.12132691569E+04 0.  0.
        1    1    3    3  502    0  0.26281364628E+03 -0.34203312777E+03  0.55802721671E+02  0.43493863582E+03  0.50400001928E-02 0. -1.
       -1    1    3    3    0  502 -0.26281364628E+03  0.34203312777E+03 -0.10448499329E+04  0.11303844724E+04  0.50400001928E-02 0.  1.
</event>
<event>
 5   0  0.3648616E-03  0.1268615E+04  0.7818609E-02  0.9054831E-01
       -1   -1    0    0    0  501  0.00000000000E+00  0.00000000000E+00  0.35712508671E+03  0.35712508675E+03  0.50400001928E-02 0.  1.
        1   -1    0    0  501    0  0.00000000000E+00  0.00000000000E+00 -0.11266244388E+04  0.11266244389E+04  0.50400001928E-02 0. -1.
    10030    2    1    2    0    0  0.00000000000E+00  0.00000000000E+00 -0.76949935214E+03  0.14837495256E+04  0.12686147571E+04 0.  0.
        2    1    3    3  502    0  0.38088269566E+03  0.50099078778E+03 -0.47745303352E+03  0.78995240143E+03  0.25500000920E-02 0.  1.
       -2    1    3    3    0  502 -0.38088269566E+03 -0.50099078778E+03 -0.29204631861E+03  0.69379712418E+03  0.25500000920E-02 0. -1.
</event>
<event>
 5   0  0.3772254E-03  0.1044514E+04  0.7818609E-02  0.9261027E-01
       -1   -1    0    0    0  501  0.00000000000E+00  0.00000000000E+00  0.23941531161E+03  0.23941531166E+03  0.50400001928E-02 0. -1.
        1   -1    0    0  501    0  0.00000000000E+00  0.00000000000E+00 -0.11392429968E+04  0.11392429968E+04  0.50400001928E-02 0.  1.
    10030    2    1    2    0    0  0.00000000000E+00  0.00000000000E+00 -0.89982768515E+03  0.13786583084E+04  0.10445136995E+04 0.  0.
        3    1    3    3  502    0  0.10218983487E+03 -0.16647411454E+03 -0.10892107905E+04  0.11065877956E+04  0.10100000352E+00 0.  1.
       -3    1    3    3    0  502 -0.10218983487E+03  0.16647411454E+03  0.18938310531E+03  0.27207051281E+03  0.10100000352E+00 0. -1.
</event>
<event>
 5   0  0.3944074E-03  0.1222002E+04  0.7818609E-02  0.9093813E-01
        1   -1    0    0  501    0  0.00000000000E+00  0.00000000000E+00  0.85867757203E+03  0.85867757204E+03  0.50400001928E-02 0.  1.
       -1   -1    0    0    0  501  0.00000000000E+00  0.00000000000E+00 -0.43476409434E+03  0.43476409437E+03  0.50400001928E-02 0. -1.
    10030    2    1    2    0    0  0.00000000000E+00  0.00000000000E+00  0.42391347769E+03  0.12934416664E+04  0.12220019263E+04 0.  0.
        4    1    3    3  502    0 -0.40955810995E+03 -0.15879190936E+03  0.66148243114E+03  0.79404869845E+03  0.12699999809E+01 0.  1.
       -4    1    3    3    0  502  0.40955810995E+03  0.15879190936E+03 -0.23756895345E+03  0.49939296796E+03  0.12699999809E+01 0. -1.
</event>
<event>
 5   0  0.6349142E-03  0.1196386E+04  0.7818609E-02  0.9116026E-01
       -2   -1    0    0    0  501  0.00000000000E+00  0.00000000000E+00  0.45907047785E+03  0.45907047786E+03  0.25500000920E-02 0. -1.
        2   -1    0    0  501    0  0.00000000000E+00  0.00000000000E+00 -0.77947716785E+03  0.77947716785E+03  0.25500000920E-02 0.  1.
    10030    2    1    2    0    0  0.00000000000E+00  0.00000000000E+00 -0.32040668999E+03  0.12385476457E+04  0.11963861516E+04 0.  0.
        1    1    3    3  502    0 -0.64931717494E+02  0.11413728472E+03 -0.76437208186E+03  0.77556955023E+03  0.50400001928E-02 0.  1.
       -1    1    3    3    0  502  0.64931717494E+02 -0.11413728472E+03  0.44396539186E+03  0.46297809548E+03  0.50400001928E-02 0. -1.
</event>
<event>
 5   0  0.3648616E-03  0.1237005E+04  0.7818609E-02  0.9081069E-01
        1   -1    0    0  501    0  0.00000000000E+00  0.00000000000E+00  0.72936748549E+03  0.72936748551E+03  0.50400001928E-02 0. -1.
       -1   -1    0    0    0  501  0.00000000000E+00  0.00000000000E+00 -0.52448898924E+03  0.52448898926E+03  0.50400001928E-02 0.  1.
    10030    2    1    2    0    0  0.00000000000E+00  0.00000000000E+00  0.20487849625E+03  0.12538564748E+04  0.12370047943E+04 0.  0.
        2    1    3    3  502    0  0.76917349064E+02  0.58089671930E+03 -0.98216983247E+02  0.59414127351E+03  0.25500000920E-02 0.  1.
       -2    1    3    3    0  502 -0.76917349064E+02 -0.58089671930E+03  0.30309547950E+03  0.65971520126E+03  0.25500000920E-02 0. -1.
</event>
<event>
 5   0  0.3772254E-03  0.1215649E+04  0.7818609E-02  0.9099268E-01
        1   -1    0    0  501    0  0.00000000000E+00  0.00000000000E+00  0.10889484843E+04  0.10889484843E+04  0.50400001928E-02 0. -1.
       -1   -1    0    0    0  501  0.00000000000E+00  0.00000000000E+00 -0.33927268712E+03  0.33927268716E+03  0.50400001928E-02 0.  1.
    10030    2    1    2    0    0  0.00000000000E+00  0.00000000000E+00  0.74967579713E+03  0.14282211714E+04  0.12156487625E+04 0.  0.
        3    1    3    3  502    0  0.45182629736E+03 -0.39825829257E+03  0.47096008556E+03  0.76456529020E+03  0.10100000352E+00 0. -1.
       -3    1    3    3    0  502 -0.45182629736E+03  0.39825829257E+03  0.27871571157E+03  0.66365588122E+03  0.10100000352E+00 0.  1.
</event>
<event>
 5   0  0.3731281E-03  0.1198138E+04  0.7818609E-02  0.9114488E-01
        1   -1    0    0  501    0  0.00000000000E+00  0.00000000000E+00  0.49767073188E+03  0.49767073191E+03  0.50400001928E-02 0.  1.
       -1   -1    0    0    0  501  0.00000000000E+00  0.00000000000E+00 -0.72112613200E+03  0.72112613202E+03  0.50400001928E-02 0. -1.
    10030    2    1    2    0    0  0.00000000000E+00  0.00000000000E+00 -0.22345540012E+03  0.12187968639E+04  0.11981375045E+04 0.  0.
        5    1    3    3  502    0 -0.27366023993E+03 -0.42969852662E+03 -0.43232956176E+03  0.66817788849E+03  0.46999998093E+01 0. -1.
       -5    1    3    3    0  502  0.27366023993E+03  0.42969852662E+03  0.20887416164E+03  0.55061897543E+03  0.46999998093E+01 0.  1.
</event>
<event>
 5   0  0.6349142E-03  0.1212468E+04  0.7818609E-02  0.9102013E-01
        2   -1    0    0  501    0  0.00000000000E+00  0.00000000000E+00  0.15526927562E+04  0.15526927562E+04  0.25500000920E-02 0.  1.
       -2   -1    0    0    0  501  0.00000000000E+00  0.00000000000E+00 -0.23669820863E+03  0.23669820864E+03  0.25500000920E-02 0. -1.
    10030    2    1    2    0    0  0.00000000000E+00  0.00000000000E+00  0.13159945476E+04  0.17893909649E+04  0.12124678865E+04 0.  0.
        1    1    3    3  502    0 -0.32912180331E+02 -0.41588280818E+03  0.13071556223E+04  0.13721142601E+04  0.50400001928E-02 0.  1.
       -1    1    3    3    0  502  0.32912180331E+02  0.41588280818E+03  0.88389253163E+01  0.41727670482E+03  0.50400001928E-02 0. -1.
</event>
<event>
 5   0  0.2537625E-03  0.1150873E+04  0.7818609E-02  0.9156979E-01
       -3   -1    0    0    0  501  0.00000000000E+00  0.00000000000E+00  0.27030213783E+03  0.27030215670E+03  0.10100000352E+00 0. -1.
        3   -1    0    0  501    0  0.00000000000E+00  0.00000000000E+00 -0.12250254366E+04  0.12250254408E+04  0.10100000352E+00 0.  1.
    10030    2    1    2    0    0  0.00000000000E+00  0.00000000000E+00 -0.95472329878E+03  0.14953275975E+04  0.11508727325E+04 0.  0.
        4    1    3    3  502    0 -0.26672415043E+02 -0.33425422607E+03  0.13024373982E+03  0.35972538141E+03  0.12699999809E+01 0. -1.
       -4    1    3    3    0  502  0.26672415043E+02  0.33425422607E+03 -0.10849670386E+04  0.11356022161E+04  0.12699999809E+01 0.  1.
</event>
<event>
 5   0  0.3731281E-03  0.1266712E+04  0.7818609E-02  0.9056388E-01
        1   -1    0    0  501    0  0.00000000000E+00  0.00000000000E+00  0.14037854614E+04  0.14037854614E+04  0.50400001928E-02 0.  1.
       -1   -1    0    0    0  501  0.00000000000E+00  0.00000000000E+00 -0.28575558544E+03  0.28575558549E+03  0.50400001928E-02 0. -1.
    10030    2    1    2    0    0  0.00000000000E+00  0.00000000000E+00  0.11180298760E+04  0.16895410469E+04  0.12667115479E+04 0.  0.
        5    1    3    3  502    0  0.44686642081E+03  0.23629286604E+03  0.10679496291E+04  0.11815508524E+04  0.46999998093E+01 0.  1.
       -5    1    3    3    0  502 -0.44686642081E+03 -0.23629286604E+03  0.50080246898E+02  0.50799019451E+03  0.46999998093E+01 0. -1.
</event>
<event>
 5   0  0.6585930E-03  0.1294432E+04  0.7818609E-02  0.9033993E-01
        2   -1    0    0  501    0  0.00000000000E+00  0.00000000000E+00  0.11827810936E+04  0.11827810936E+04  0.25500000920E-02 0.  1.
       -2   -1    0    0    0  501  0.00000000000E+00  0.00000000000E+00 -0.35415539543E+03  0.35415539543E+03  0.25500000920E-02 0. -1.
    10030    2    1    2    0    0  0.00000000000E+00  0.00000000000E+00  0.82862569820E+03  0.15369364891E+04  0.12944316219E+04 0.  0.
        2    1    3    3  502    0 -0.46577712405E+03 -0.41537339532E+03  0.21070861652E+03  0.65869682549E+03  0.25500000920E-02 0. -1.
       -2    1    3    3    0  502  0.46577712405E+03  0.41537339532E+03  0.61791708167E+03  0.87823966357E+03  0.25500000920E-02 0.  1.
</event>
<event>
 5   0  0.3648616E-03  0.9823628E+03  0.7818609E-02  0.9328103E-01
       -1   -1    0    0    0  501  0.00000000000E+00  0.00000000000E+00  0.33421437960E+03  0.33421437964E+03  0.50400001928E-02 0. -1.
        1   -1    0    0  501    0  0.00000000000E+00  0.00000000000E+00 -0.72186943852E+03  0.72186943854E+03  0.50400001928E-02 0.  1.
    10030    2    1    2    0    0  0.00000000000E+00  0.00000000000E+00 -0.38765505892E+03  0.10560838182E+04  0.98236275699E+03 0.  0.
        2    1    3    3  502    0  0.26307178355E+03  0.22743098827E+03 -0.56674179545E+03  0.66492697377E+03  0.25500000920E-02 0.  1.
       -2    1    3    3    0  502 -0.26307178355E+03 -0.22743098827E+03  0.17908673653E+03  0.39115684441E+03  0.25500000920E-02 0. -1.
</event>
<event>
 5   0  0.6640844E-03  0.1194081E+04  0.7818609E-02  0.9118053E-01
        2   -1    0    0  501    0  0.00000000000E+00  0.00000000000E+00  0.44442655613E+03  0.44442655614E+03  0.25500000920E-02 0.  1.
       -2   -1    0    0    0  501  0.00000000000E+00  0.00000000000E+00 -0.80206149016E+03  0.80206149017E+03  0.25500000920E-02 0. -1.
    10030    2    1    2    0    0  0.00000000000E+00  0.00000000000E+00 -0.35763493404E+03  0.12464880463E+04  0.11940811126E+04 0.  0.
        5    1    3    3  502    0 -0.18317835659E+03 -0.67431322380E+02 -0.76779107056E+03  0.79222882527E+03  0.46999998093E+01 0. -1.
       -5    1    3    3    0  502  0.18317835659E+03  0.67431322380E+02  0.41015613653E+03  0.45425922103E+03  0.46999998093E+01 0.  1.
</event>
<event>
 5   0  0.6658994E-03  0.1181083E+04  0.7818609E-02  0.9129577E-01
        2   -1    0    0  501    0  0.00000000000E+00  0.00000000000E+00  0.40292923616E+03  0.40292923617E+03  0.25500000920E-02 0.  1.
       -2   -1    0    0    0  501  0.00000000000E+00  0.00000000000E+00 -0.86551037021E+03  0.86551037021E+03  0.25500000920E-02 0. -1.
    10030    2    1    2    0    0  0.00000000000E+00  0.00000000000E+00 -0.46258113405E+03  0.12684396064E+04  0.11810832864E+04 0.  0.
        4    1    3    3  502    0 -0.32295038719E+03 -0.40038141529E+03 -0.54280569396E+03  0.74782475526E+03  0.12699999809E+01 0. -1.
       -4    1    3    3    0  502  0.32295038719E+03  0.40038141529E+03  0.80224559908E+02  0.52061485112E+03  0.12699999809E+01 0.  1.
</event>
<event>
 5   0  0.6658994E-03  0.1122654E+04  0.7818609E-02  0.9183388E-01
       -2   -1    0    0    0  501  0.00000000000E+00  0.00000000000E+00  0.10634520169E+04  0.10634520169E+04  0.25500000920E-02 0. -1.
        2   -1    0    0  501    0  0.00000000000E+00  0.00000000000E+00 -0.29628818703E+03  0.29628818704E+03  0.25500000920E-02 0.  1.
    10030    2    1    2    0    0  0.00000000000E+00  0.00000000000E+00  0.76716382986E+03  0.13597402039E+04  0.11226544795E+04 0.  0.
        4    1    3    3  502    0  0.19076796909E+03  0.52668285068E+03  0.33992192927E+03  0.65523718921E+03  0.12699999809E+01 0. -1.
       -4    1    3    3    0  502 -0.19076796909E+03 -0.52668285068E+03  0.42724190059E+03  0.70450301472E+03  0.12699999809E+01 0.  1.
</event>
<event>
 5   0  0.3731281E-03  0.1187410E+04  0.7818609E-02  0.9123949E-01
       -1   -1    0    0    0  501  0.00000000000E+00  0.00000000000E+00  0.42858892832E+03  0.42858892835E+03  0.50400001928E-02 0. -1.
        1   -1    0    0  501    0  0.00000000000E+00  0.00000000000E+00 -0.82243263284E+03  0.82243263285E+03  0.50400001928E-02 0.  1.
    10030    2    1    2    0    0  0.00000000000E+00  0.00000000000E+00 -0.39384370451E+03  0.12510215612E+04  0.11874098210E+04 0.  0.
        5    1    3    3  502    0 -0.45620009105E+03  0.30479468020E+03 -0.43588790546E+03  0.70074151888E+03  0.46999998093E+01 0.  1.
       -5    1    3    3    0  502  0.45620009105E+03 -0.30479468020E+03  0.42044200950E+02  0.55028004232E+03  0.46999998093E+01 0. -1.
</event>
<event>
 5   0  0.3731281E-03  0.1149630E+04  0.7818609E-02  0.9158125E-01
       -1   -1    0    0    0  501  0.00000000000E+00  0.00000000000E+00  0.26054025754E+03  0.26054025759E+03  0.50400001928E-02 0. -1.
        1   -1    0    0  501    0  0.00000000000E+00  0.00000000000E+00 -0.12681819688E+04  0.12681819688E+04  0.50400001928E-02 0.  1.
    10030    2    1    2    0    0  0.00000000000E+00  0.00000000000E+00 -0.10076417113E+04  0.15287222264E+04  0.11496303002E+04 0.  0.
        5    1    3    3  502    0 -0.45208479280E+03  0.82058066081E+02 -0.44572890886E+02  0.46165248694E+03  0.46999998093E+01 0. -1.
       -5    1    3    3    0  502  0.45208479280E+03 -0.82058066081E+02 -0.96306882039E+03  0.10670697395E+04  0.46999998093E+01 0.  1.
</event>
<event>
 5   0  0.3731281E-03  0.1227643E+04  0.7818609E-02  0.9088999E-01
       -1   -1    0    0    0  501  0.00000000000E+00  0.00000000000E+00  0.14016374914E+03  0.14016374923E+03  0.50400001928E-02 0.  1.
        1   -1    0    0  501    0  0.00000000000E+00  0.00000000000E+00 -0.26881186107E+04  0.26881186107E+04  0.50400001928E-02 0. -1.
    10030    2    1    2    0    0  0.00000000000E+00  0.00000000000E+00 -0.25479548616E+04  0.28282823599E+04  0.12276429167E+04 0.  0.
        5    1    3    3  502    0  0.33464694654E+03 -0.10438640545E+03 -0.11318105036E+03  0.36839807359E+03  0.46999998093E+01 0.  1.
       -5    1    3    3    0  502 -0.33464694654E+03  0.10438640545E+03 -0.24347738112E+04  0.24598842863E+04  0.46999998093E+01 0. -1.
</event>
<event>
 5   0  0.6658994E-03  0.1201133E+04  0.7818609E-02  0.9111866E-01
        2   -1    0    0  501    0  0.00000000000E+00  0.00000000000E+00  0.47995187796E+03  0.47995187796E+03  0.25500000920E-02 0. -1.
       -2   -1    0    0    0  501  0.00000000000E+00  0.00000000000E+00 -0.75149206119E+03  0.75149206120E+03  0.25500000920E-02 0.  1.
    10030    2    1    2    0    0  0.00000000000E+00  0.00000000000E+00 -0.27154018323E+03  0.12314439392E+04  0.12011328420E+04 0.  0.
        4    1    3    3  502    0 -0.15615162127E+03 -0.31010255203E+03 -0.63816839369E+03  0.72650356723E+03  0.12699999809E+01 0.  1.
       -4    1    3    3    0  502  0.15615162127E+03  0.31010255203E+03  0.36662821046E+03  0.50494037193E+03  0.12699999809E+01 0. -1.
</event>
<event>
 5   0  0.6640844E-03  0.1198507E+04  0.7818609E-02  0.9114164E-01
        2   -1    0    0  501    0  0.00000000000E+00  0.00000000000E+00  0.45996772348E+03  0.45996772348E+03  0.25500000920E-02 0.  1.
       -2   -1    0    0    0  501  0.00000000000E+00  0.00000000000E+00 -0.78071731373E+03  0.78071731374E+03  0.25500000920E-02 0. -1.
    10030    2    1    2    0    0  0.00000000000E+00  0.00000000000E+00 -0.32074959026E+03  0.12406850372E+04  0.11985070137E+04 0.  0.
        5    1    3    3  502    0  0.53509592371E+03 -0.34332498797E+02  0.11657790882E+03  0.54874298799E+03  0.46999998093E+01 0.  1.
       -5    1    3    3    0  502 -0.53509592371E+03  0.34332498797E+02 -0.43732749908E+03  0.69194204923E+03  0.46999998093E+01 0. -1.
</event>
<event>
 5   0  0.3772254E-03  0.1215608E+04  0.7818609E-02  0.9099304E-01
        1   -1    0    0  501    0  0.00000000000E+00  0.00000000000E+00  0.89972674312E+03  0.89972674314E+03  0.50400001928E-02 0.  1.
       -1   -1    0    0    0  501  0.00000000000E+00  0.00000000000E+00 -0.41059753793E+03  0.41059753796E+03  0.50400001928E-02 0. -1.
    10030    2    1    2    0    0  0.00000000000E+00  0.00000000000E+00  0.48912920519E+03  0.13103242811E+04  0.12156078077E+04 0.  0.
        3    1    3    3  502    0 -0.45308413840E+03 -0.29997118608E+03 -0.48972645464E+02  0.54558801229E+03  0.10100000352E+00 0. -1.
       -3    1    3    3    0  502  0.45308413840E+03  0.29997118608E+03  0.53810185066E+03  0.76473626881E+03  0.10100000352E+00 0.  1.
</event>
<event>
 5   0  0.6658994E-03  0.6714579E+03  0.7818609E-02  0.9767328E-01
       -2   -1    0    0    0  501  0.00000000000E+00  0.00000000000E+00  0.11871057265E+03  0.11871057268E+03  0.25500000920E-02 0. -1.
        2   -1    0    0  501    0  0.00000000000E+00  0.00000000000E+00 -0.94948514428E+03  0.94948514429E+03  0.25500000920E-02 0.  1.
    10030    2    1    2    0    0  0.00000000000E+00  0.00000000000E+00 -0.83077457163E+03  0.10681957170E+04  0.67145789211E+03 0.  0.
        4    1    3    3  502    0 -0.73818144956E+02 -0.29113259043E+03 -0.65404289216E+03  0.71970898384E+03  0.12699999809E+01 0.  1.
       -4    1    3    3    0  502  0.73818144956E+02  0.29113259043E+03 -0.17673167947E+03  0.34848673312E+03  0.12699999809E+01 0. -1.
</event>
<event>
 5   0  0.6349142E-03  0.1200109E+04  0.7818609E-02  0.9112761E-01
        2   -1    0    0  501    0  0.00000000000E+00  0.00000000000E+00  0.22603248705E+04  0.22603248705E+04  0.25500000920E-02 0.  1.
       -2   -1    0    0    0  501  0.00000000000E+00  0.00000000000E+00 -0.15929816907E+03  0.15929816909E+03  0.25500000920E-02 0. -1.
    10030    2    1    2    0    0  0.00000000000E+00  0.00000000000E+00  0.21010267014E+04  0.24196230396E+04  0.12001093507E+04 0.  0.
        1    1    3    3  502    0 -0.43529462247E+03  0.27941700522E+03  0.43728526760E+03  0.67732833725E+03  0.50400001928E-02 0. -1.
       -1    1    3    3    0  502  0.43529462247E+03 -0.27941700522E+03  0.16637414338E+04  0.17422947024E+04  0.50400001928E-02 0.  1.
</event>
<event>
 5   0  0.3701879E-03  0.7419240E+03  0.7818609E-02  0.9648106E-01
        1   -1    0    0  501    0  0.00000000000E+00  0.00000000000E+00  0.35214705891E+03  0.35214705895E+03  0.50400001928E-02 0. -1.
       -1   -1    0    0    0  501  0.00000000000E+00  0.00000000000E+00 -0.39078221764E+03  0.39078221767E+03  0.50400001928E-02 0.  1.
    10030    2    1    2    0    0  0.00000000000E+00  0.00000000000E+00 -0.38635158728E+02  0.74292927662E+03  0.74192400862E+03 0.  0.
        1    1    3    3  502    0  0.12763114042E+02 -0.28697997897E+03  0.21571816040E+03  0.35924188252E+03  0.50400001928E-02 0. -1.
       -1    1    3    3    0  502 -0.12763114042E+02  0.28697997897E+03 -0.25435331913E+03  0.38368739409E+03  0.50400001928E-02 0.  1.
</event>
<event>
 5   0  0.6493047E-03  0.1245305E+04  0.7818609E-02  0.9074100E-01
       -2   -1    0    0    0  501  0.00000000000E+00  0.00000000000E+00  0.37633002349E+03  0.37633002350E+03  0.25500000920E-02 0. -1.
        2   -1    0    0  501    0  0.00000000000E+00  0.00000000000E+00 -0.10302031791E+04  0.10302031791E+04  0.25500000920E-02 0.  1.
    10030    2    1    2    0    0  0.00000000000E+00  0.00000000000E+00 -0.65387315561E+03  0.14065332026E+04  0.12453054029E+04 0.  0.
        3    1    3    3  502    0  0.36421529753E+03 -0.40323747157E+03  0.16472244958E+02  0.54362173107E+03  0.10100000352E+00 0. -1.
       -3    1    3    3    0  502 -0.36421529753E+03  0.40323747157E+03 -0.67034540057E+03  0.86291147153E+03  0.10100000352E+00 0.  1.
</event>
<event>
 5   0  0.3772254E-03  0.1190190E+04  0.7818609E-02  0.9121486E-01
       -1   -1    0    0    0  501  0.00000000000E+00  0.00000000000E+00  0.28622264216E+03  0.28622264221E+03  0.50400001928E-02 0.  1.
        1   -1    0    0  501    0  0.00000000000E+00  0.00000000000E+00 -0.12372825791E+04  0.12372825792E+04  0.50400001928E-02 0. -1.
    10030    2    1    2    0    0  0.00000000000E+00  0.00000000000E+00 -0.95105993698E+03  0.15235052214E+04  0.11901903864E+04 0.  0.
        3    1    3    3  502    0  0.42872451863E+03  0.13323190491E+03 -0.97554186253E+03  0.10738889091E+04  0.10100000352E+00 0. -1.
       -3    1    3    3    0  502 -0.42872451863E+03 -0.13323190491E+03  0.24481925551E+02  0.44961631225E+03  0.10100000352E+00 0.  1.
</event>
<event>
 5   0  0.3731281E-03  0.1205511E+04  0.7818609E-02  0.9108047E-01
       -1   -1    0    0    0  501  0.00000000000E+00  0.00000000000E+00  0.55396050151E+03  0.55396050153E+03  0.50400001928E-02 0.  1.
        1   -1    0    0  501    0  0.00000000000E+00  0.00000000000E+00 -0.65584836364E+03  0.65584836366E+03  0.50400001928E-02 0. -1.
    10030    2    1    2    0    0  0.00000000000E+00  0.00000000000E+00 -0.10188786214E+03  0.12098088652E+04  0.12055108269E+04 0.  0.
        5    1    3    3  502    0  0.57037826736E+03 -0.53611905663E+02 -0.23892539021E+03  0.62073588296E+03  0.46999998093E+01 0. -1.
       -5    1    3    3    0  502 -0.57037826736E+03  0.53611905663E+02  0.13703752807E+03  0.58907298224E+03  0.46999998093E+01 0.  1.
</event>
<event>
 5   0  0.3701879E-03  0.1119344E+04  0.7818609E-02  0.9186540E-01
       -1   -1    0    0    0  501  0.00000000000E+00  0.00000000000E+00  0.95818862615E+03  0.95818862617E+03  0.50400001928E-02 0.  1.
        1   -1    0    0  501    0  0.00000000000E+00  0.00000000000E+00 -0.32690110821E+03  0.32690110825E+03  0.50400001928E-02 0. -1.
    10030    2    1    2    0    0  0.00000000000E+00  0.00000000000E+00  0.63128751794E+03  0.12850897344E+04  0.11193443149E+04 0.  0.
        1    1    3    3  502    0 -0.15791806259E+03 -0.41556035502E+03  0.70599623612E+03  0.83430162926E+03  0.50400001928E-02 0.  1.
       -1    1    3    3    0  502  0.15791806259E+03  0.41556035502E+03 -0.74708718178E+02  0.45078810516E+03  0.50400001928E-02 0. -1.
</event>
<event>
 5   0  0.3701879E-03  0.1172599E+04  0.7818609E-02  0.9137184E-01
        1   -1    0    0  501    0  0.00000000000E+00  0.00000000000E+00  0.10256539255E+04  0.10256539255E+04  0.50400001928E-02 0.  1.
       -1   -1    0    0    0  501  0.00000000000E+00  0.00000000000E+00 -0.33514927481E+03  0.33514927485E+03  0.50400001928E-02 0. -1.
    10030    2    1    2    0    0  0.00000000000E+00  0.00000000000E+00  0.69050465069E+03  0.13608032004E+04  0.11725991120E+04 0.  0.
        1    1    3    3  502    0  0.27152897964E+03 -0.18386778463E+02  0.94791046093E+03  0.98620500018E+03  0.50400001928E-02 0.  1.
       -1    1    3    3    0  502 -0.27152897964E+03  0.18386778463E+02 -0.25740581025E+03  0.37459820018E+03  0.50400001928E-02 0. -1.
</event>
<event>
 5   0  0.6493047E-03  0.1212204E+04  0.7818609E-02  0.9102241E-01
        2   -1    0    0  501    0  0.00000000000E+00  0.00000000000E+00  0.77822404047E+03  0.77822404047E+03  0.25500000920E-02 0.  1.
       -2   -1    0    0    0  501  0.00000000000E+00  0.00000000000E+00 -0.47204895660E+03  0.47204895661E+03  0.25500000920E-02 0. -1.
    10030    2    1    2    0    0  0.00000000000E+00  0.00000000000E+00  0.30617508387E+03  0.12502729971E+04  0.12122043496E+04 0.  0.
        3    1    3    3  502    0  0.21761585868E+03  0.41283186297E+03  0.55197984383E+03  0.72281987191E+03  0.10100000352E+00 0. -1.
       -3    1    3    3    0  502 -0.21761585868E+03 -0.41283186297E+03 -0.24580475996E+03  0.52745312517E+03  0.10100000352E+00 0.  1.
</event>
<event>
 5   0  0.3701879E-03  0.1196141E+04  0.7818609E-02  0.9116241E-01
       -1   -1    0    0    0  501  0.00000000000E+00  0.00000000000E+00  0.27810279810E+03  0.27810279815E+03  0.50400001928E-02 0. -1.
        1   -1    0    0  501    0  0.00000000000E+00  0.00000000000E+00 -0.12861730054E+04  0.12861730054E+04  0.50400001928E-02 0.  1.
    10030    2    1    2    0    0  0.00000000000E+00  0.00000000000E+00 -0.10080702073E+04  0.15642758036E+04  0.11961409811E+04 0.  0.
        1    1    3    3  502    0 -0.17355135987E+03  0.31460573992E+03 -0.11292955605E+04  0.11850760773E+04  0.50400001928E-02 0.  1.
       -1    1    3    3    0  502  0.17355135987E+03 -0.31460573992E+03  0.12122535318E+03  0.37919972624E+03  0.50400001928E-02 0. -1.
</event>
<event>
 5   0  0.3648616E-03  0.1222904E+04  0.7818609E-02  0.9093041E-01
        1   -1    0    0  501    0  0.00000000000E+00  0.00000000000E+00  0.11320639230E+04  0.11320639230E+04  0.50400001928E-02 0.  1.
       -1   -1    0    0    0  501  0.00000000000E+00  0.00000000000E+00 -0.33025853894E+03  0.33025853898E+03  0.50400001928E-02 0. -1.
    10030    2    1    2    0    0  0.00000000000E+00  0.00000000000E+00  0.80180538410E+03  0.14623224620E+04  0.12229043744E+04 0.  0.
        2    1    3    3  502    0  0.59102468003E+03 -0.91388312990E+02  0.24864963628E+03  0.64767942516E+03  0.25500000920E-02 0. -1.
       -2    1    3    3    0  502 -0.59102468003E+03  0.91388312990E+02  0.55315574781E+03  0.81464303686E+03  0.25500000920E-02 0.  1.
</event>
<event>
 5   0  0.3772254E-03  0.1196403E+04  0.7818609E-02  0.9116010E-01
       -1   -1    0    0    0  501  0.00000000000E+00  0.00000000000E+00  0.59506241116E+03  0.59506241118E+03  0.50400001928E-02 0. -1.
        1   -1    0    0  501    0  0.00000000000E+00  0.00000000000E+00 -0.60135756694E+03  0.60135756696E+03  0.50400001928E-02 0.  1.
    10030    2    1    2    0    0  0.00000000000E+00  0.00000000000E+00 -0.62951557811E+01  0.11964199781E+04  0.11964034165E+04 0.  0.
        3    1    3    3  502    0  0.12461387261E+03  0.92519257774E+02  0.57457734248E+03  0.59517019666E+03  0.10100000352E+00 0. -1.
       -3    1    3    3    0  502 -0.12461387261E+03 -0.92519257774E+02 -0.58087249826E+03  0.60124978149E+03  0.10100000352E+00 0.  1.
</event>
<event>
 5   0  0.6658994E-03  0.1198243E+04  0.7818609E-02  0.9114396E-01
       -2   -1    0    0    0  501  0.00000000000E+00  0.00000000000E+00  0.23857085200E+03  0.23857085201E+03  0.25500000920E-02 0.  1.
        2   -1    0    0  501    0  0.00000000000E+00  0.00000000000E+00 -0.15045697760E+04  0.15045697760E+04  0.25500000920E-02 0. -1.
    10030    2    1    2    0    0  0.00000000000E+00  0.00000000000E+00 -0.12659989240E+04  0.17431406280E+04  0.11982428692E+04 0.  0.
        4    1    3    3  502    0  0.50960073408E+03 -0.12175298510E+03 -0.10556985330E+04  0.11785659519E+04  0.12699999809E+01 0. -1.
       -4    1    3    3    0  502 -0.50960073408E+03  0.12175298510E+03 -0.21030039103E+03  0.56457467612E+03  0.12699999809E+01 0.  1.
</event>
<event>
 5   0  0.6493047E-03  0.1205096E+04  0.7818609E-02  0.9108408E-01
        2   -1    0    0  501    0  0.00000000000E+00  0.00000000000E+00  0.60963625481E+03  0.60963625482E+03  0.25500000920E-02 0. -1.
       -2   -1    0    0    0  501  0.00000000000E+00  0.00000000000E+00 -0.59554223903E+03  0.59554223904E+03  0.25500000920E-02 0.  1.
    10030    2    1    2    0    0  0.00000000000E+00  0.00000000000E+00  0.14094015781E+02  0.12051784939E+04  0.12050960795E+04 0.  0.
        3    1    3    3  502    0  0.14985088372E+03 -0.52548106036E+03  0.26099053957E+03  0.60555900133E+03  0.10100000352E+00 0.  1.
       -3    1    3    3    0  502 -0.14985088372E+03  0.52548106036E+03 -0.24689652378E+03  0.59961949252E+03  0.10100000352E+00 0. -1.
</event>
<event>
 5   0  0.3944074E-03  0.1167043E+04  0.7818609E-02  0.9142203E-01
       -1   -1    0    0    0  501  0.00000000000E+00  0.00000000000E+00  0.20047963686E+03  0.20047963692E+03  0.50400001928E-02 0.  1.
        1   -1    0    0  501    0  0.00000000000E+00  0.00000000000E+00 -0.16984131648E+04  0.16984131648E+04  0.50400001928E-02 0. -1.
    10030    2    1    2    0    0  0.00000000000E+00  0.00000000000E+00 -0.14979335280E+04  0.18988928018E+04  0.11670428520E+04 0.  0.
        4    1    3    3  502    0 -0.37369212090E+03 -0.25786692113E+03 -0.13453696549E+04  0.14199162903E+04  0.12699999809E+01 0. -1.
       -4    1    3    3    0  502  0.37369212090E+03  0.25786692113E+03 -0.15256387304E+03  0.47897651142E+03  0.12699999809E+01 0.  1.
</event>
<event>
 5   0  0.3648616E-03  0.1135168E+04  0.7818609E-02  0.9171577E-01
       -1   -1    0    0    0  501  0.00000000000E+00  0.00000000000E+00  0.21071742589E+03  0.21071742595E+03  0.50400001928E-02 0. -1.
        1   -1    0    0  501    0  0.00000000000E+00  0.00000000000E+00 -0.15288319646E+04  0.15288319646E+04  0.50400001928E-02 0.  1.
    10030    2    1    2    0    0  0.00000000000E+00  0.00000000000E+00 -0.13181145387E+04  0.17395493906E+04  0.11351678929E+04 0.  0.
        2    1    3    3  502    0 -0.79463101423E+02 -0.54207644536E+03 -0.88630106581E+03  0.10419648921E+04  0.25500000920E-02 0. -1.
       -2    1    3    3    0  502  0.79463101423E+02  0.54207644536E+03 -0.43181347290E+03  0.69758449846E+03  0.25500000920E-02 0.  1.
</event>
<event>
 5   0  0.3944074E-03  0.1176831E+04  0.7818609E-02  0.9133382E-01
        1   -1    0    0  501    0  0.00000000000E+00  0.00000000000E+00  0.70946723833E+03  0.70946723835E+03  0.50400001928E-02 0. -1.
       -1   -1    0    0    0  501  0.00000000000E+00  0.00000000000E+00 -0.48801768819E+03  0.48801768822E+03  0.50400001928E-02 0.  1.
    10030    2    1    2    0    0  0.00000000000E+00  0.00000000000E+00  0.22144955014E+03  0.11974849266E+04  0.11768305936E+04 0.  0.
        4    1    3    3  502    0  0.42185724362E+03  0.62242561583E+02  0.52329523880E+03  0.67503865839E+03  0.12699999809E+01 0. -1.
       -4    1    3    3    0  502 -0.42185724362E+03 -0.62242561583E+02 -0.30184568866E+03  0.52244626818E+03  0.12699999809E+01 0.  1.
</event>
<event>
 5   0  0.3701879E-03  0.1217284E+04  0.7818609E-02  0.9097861E-01
        1   -1    0    0  501    0  0.00000000000E+00  0.00000000000E+00  0.16010112396E+04  0.16010112396E+04  0.50400001928E-02 0. -1.
       -1   -1    0    0    0  501  0.00000000000E+00  0.00000000000E+00 -0.23138198164E+03  0.23138198169E+03  0.50400001928E-02 0.  1.
    10030    2    1    2    0    0  0.00000000000E+00  0.00000000000E+00  0.13696292580E+04  0.18323932213E+04  0.12172841136E+04 0.  0.
        1    1    3    3  502    0  0.45182381001E+03  0.22609244817E+03  0.11956961174E+04  0.12980569154E+04  0.50400001928E-02 0. -1.
       -1    1    3    3    0  502 -0.45182381001E+03 -0.22609244817E+03  0.17393314058E+03  0.53433630592E+03  0.50400001928E-02 0.  1.
</event>
<event>
 5   0  0.2537625E-03  0.1256370E+04  0.7818609E-02  0.9064898E-01
       -3   -1    0    0    0  501  0.00000000000E+00  0.00000000000E+00  0.94531542265E+03  0.94531542804E+03  0.10100000352E+00 0.  1.
        3   -1    0    0  501    0  0.00000000000E+00  0.00000000000E+00 -0.41744438128E+03  0.41744439350E+03  0.10100000352E+00 0. -1.
    10030    2    1    2    0    0  0.00000000000E+00  0.00000000000E+00  0.52787104137E+03  0.13627598215E+04  0.12563703653E+04 0.  0.
        2    1    3    3  502    0 -0.19949674701E+03 -0.15888704028E+03 -0.35876205191E+03  0.44017525321E+03  0.25500000920E-02 0. -1.
       -2    1    3    3    0  502  0.19949674701E+03  0.15888704028E+03  0.88663309328E+03  0.92258456834E+03  0.25500000920E-02 0.  1.
</event>
<event>
 5   0  0.3944074E-03  0.1137096E+04  0.7818609E-02  0.9169772E-01
        1   -1    0    0  501    0  0.00000000000E+00  0.00000000000E+00  0.74571953198E+03  0.74571953200E+03  0.50400001928E-02 0. -1.
       -1   -1    0    0    0  501  0.00000000000E+00  0.00000000000E+00 -0.43346935732E+03  0.43346935734E+03  0.50400001928E-02 0.  1.
    10030    2    1    2    0    0  0.00000000000E+00  0.00000000000E+00  0.31225017467E+03  0.11791888893E+04  0.11370955392E+04 0.  0.
        4    1    3    3  502    0  0.12228733864E+03 -0.28126293835E+02 -0.41892907459E+03  0.43731963601E+03  0.12699999809E+01 0.  1.
       -4    1    3    3    0  502 -0.12228733864E+03  0.28126293835E+02  0.73117924926E+03  0.74186925334E+03  0.12699999809E+01 0. -1.
</event>
<event>
 5   0  0.6658994E-03  0.1208637E+04  0.7818609E-02  0.9105330E-01
        2   -1    0    0  501    0  0.00000000000E+00  0.00000000000E+00  0.14880049881E+04  0.14880049881E+04  0.25500000920E-02 0.  1.
       -2   -1    0    0    0  501  0.00000000000E+00  0.00000000000E+00 -0.24542965609E+03  0.24542965611E+03  0.25500000920E-02 0. -1.
    10030    2    1    2    0    0  0.00000000000E+00  0.00000000000E+00  0.12425753320E+04  0.17334346442E+04  0.12086365086E+04 0.  0.
        4    1    3    3  502    0  0.48590435499E+03 -0.35048071562E+03  0.50782056034E+03  0.78538086851E+03  0.12699999809E+01 0.  1.
       -4    1    3    3    0  502 -0.48590435499E+03  0.35048071562E+03  0.73475477165E+03  0.94805377568E+03  0.12699999809E+01 0. -1.
</event>
<event>
 5   0  0.2537625E-03  0.1194707E+04  0.7818609E-02  0.9117502E-01
       -3   -1    0    0    0  501  0.00000000000E+00  0.00000000000E+00  0.26331746054E+03  0.26331747991E+03  0.10100000352E+00 0.  1.
        3   -1    0    0  501    0  0.00000000000E+00  0.00000000000E+00 -0.13551359823E+04  0.13551359860E+04  0.10100000352E+00 0. -1.
    10030    2    1    2    0    0  0.00000000000E+00  0.00000000000E+00 -0.10918185217E+04  0.16184534659E+04  0.11947066322E+04 0.  0.
        1    1    3    3  502    0 -0.69658534918E+02  0.56603543016E+03 -0.30516128823E+03  0.64681669084E+03  0.50400001928E-02 0.  1.
       -1    1    3    3    0  502  0.69658534918E+02 -0.56603543016E+03 -0.78665723349E+03  0.97163677509E+03  0.50400001928E-02 0. -1.
</event>
<event>
 5   0  0.6658994E-03  0.1169238E+04  0.7818609E-02  0.9140217E-01
        2   -1    0    0  501    0  0.00000000000E+00  0.00000000000E+00  0.82020225006E+03  0.82020225007E+03  0.25500000920E-02 0.  1.
       -2   -1    0    0    0  501  0.00000000000E+00  0.00000000000E+00 -0.41670141416E+03  0.41670141416E+03  0.25500000920E-02 0. -1.
    10030    2    1    2    0    0  0.00000000000E+00  0.00000000000E+00  0.40350083591E+03  0.12369036642E+04  0.11692381066E+04 0.  0.
        4    1    3    3  502    0  0.36684073905E+03 -0.42762672566E+03  0.36705240311E+02  0.56461104478E+03  0.12699999809E+01 0.  1.
       -4    1    3    3    0  502 -0.36684073905E+03  0.42762672566E+03  0.36679559559E+03  0.67229261945E+03  0.12699999809E+01 0. -1.
</event>
<event>
 5   0  0.3701879E-03  0.1200314E+04  0.7818609E-02  0.9112582E-01
       -1   -1    0    0    0  501  0.00000000000E+00  0.00000000000E+00  0.41859235532E+03  0.41859235535E+03  0.50400001928E-02 0. -1.
        1   -1    0    0  501    0  0.00000000000E+00  0.00000000000E+00 -0.86047568085E+03  0.86047568087E+03  0.50400001928E-02 0.  1.
    10030    2    1    2    0    0  0.00000000000E+00  0.00000000000E+00 -0.44188332553E+03  0.12790680362E+04  0.12003141955E+04 0.  0.
        1    1    3    3  502    0 -0.40990891191E+02 -0.44247184637E+03 -0.65080306527E+03  0.78803947730E+03  0.50400001928E-02 0.  1.
       -1    1    3    3    0  502  0.40990891191E+02  0.44247184637E+03  0.20891973974E+03  0.49102855892E+03  0.50400001928E-02 0. -1.
</event>
<event>
 5   0  0.3944074E-03  0.1235233E+04  0.7818609E-02  0.9082564E-01
        1   -1    0    0  501    0  0.00000000000E+00  0.00000000000E+00  0.12430204775E+04  0.12430204776E+04  0.50400001928E-02 0. -1.
       -1   -1    0    0    0  501  0.00000000000E+00  0.00000000000E+00 -0.30687378603E+03  0.30687378608E+03  0.50400001928E-02 0.  1.
    10030    2    1    2    0    0  0.00000000000E+00  0.00000000000E+00  0.93614669151E+03  0.15498942636E+04  0.12352334194E+04 0.  0.
        4    1    3    3  502    0 -0.26178241760E+03  0.48936724208E+03  0.12804524877E+03  0.56956784532E+03  0.12699999809E+01 0.  1.
       -4    1    3    3    0  502  0.26178241760E+03 -0.48936724208E+03  0.80810144274E+03  0.98032641831E+03  0.12699999809E+01 0. -1.
</event>
<event>
 5   0  0.6658994E-03  0.1225615E+04  0.7818609E-02  0.9090727E-01
       -2   -1    0    0    0  501  0.00000000000E+00  0.00000000000E+00  0.43385252022E+03  0.43385252022E+03  0.25500000920E-02 0. -1.
        2   -1    0    0  501    0  0.00000000000E+00  0.00000000000E+00 -0.86557775186E+03  0.86557775186E+03  0.25500000920E-02 0.  1.
    10030    2    1    2    0    0  0.00000000000E+00  0.00000000000E+00 -0.43172523164E+03  0.12994302721E+04  0.12256150931E+04 0.  0.
        4    1    3    3  502    0 -0.19857014526E+03  0.10906204242E+02  0.39868729764E+03  0.44553588192E+03  0.12699999809E+01 0. -1.
       -4    1    3    3    0  502  0.19857014526E+03 -0.10906204242E+02 -0.83041252928E+03  0.85389439017E+03  0.12699999809E+01 0.  1.
</event>
<event>
 5   0  0.6658994E-03  0.1157529E+04  0.7818609E-02  0.9150866E-01
        2   -1    0    0  501    0  0.00000000000E+00  0.00000000000E+00  0.10261248950E+04  0.10261248950E+04  0.25500000920E-02 0.  1.
       -2   -1    0    0    0  501  0.00000000000E+00  0.00000000000E+00 -0.32644007918E+03  0.32644007919E+03  0.25500000920E-02 0. -1.
    10030    2    1    2    0    0  0.00000000000E+00  0.00000000000E+00  0.69968481582E+03  0.13525649742E+04  0.11575289059E+04 0.  0.
        4    1    3    3  502    0 -0.27188712203E+03  0.49087594667E+03  0.51544261646E+03  0.76194783674E+03  0.12699999809E+01 0.  1.
       -4    1    3    3    0  502  0.27188712203E+03 -0.49087594667E+03  0.18424219936E+03  0.59061713747E+03  0.12699999809E+01 0. -1.
</event>
<event>
 5   0  0.6640844E-03  0.1188190E+04  0.7818609E-02  0.9123257E-01
        2   -1    0    0  501    0  0.00000000000E+00  0.00000000000E+00  0.14287678646E+04  0.14287678646E+04  0.25500000920E-02 0.  1.
       -2   -1    0    0    0  501  0.00000000000E+00  0.00000000000E+00 -0.24703039243E+03  0.24703039245E+03  0.25500000920E-02 0. -1.
    10030    2    1    2    0    0  0.00000000000E+00  0.00000000000E+00  0.11817374722E+04  0.16757982571E+04  0.11881903657E+04 0.  0.
        5    1    3    3  502    0 -0.28558286324E+03 -0.48283698727E+03  0.86666129474E+03  0.10323822053E+04  0.46999998093E+01 0.  1.
       -5    1    3    3    0  502  0.28558286324E+03  0.48283698727E+03  0.31507617744E+03  0.64341605175E+03  0.46999998093E+01 0. -1.
</event>
<event>
 5   0  0.6349142E-03  0.1219869E+04  0.7818609E-02  0.9095640E-01
        2   -1    0    0  501    0  0.00000000000E+00  0.00000000000E+00  0.14140462832E+04  0.14140462832E+04  0.25500000920E-02 0. -1.
       -2   -1    0    0    0  501  0.00000000000E+00  0.00000000000E+00 -0.26308923804E+03  0.26308923805E+03  0.25500000920E-02 0.  1.
    10030    2    1    2    0    0  0.00000000000E+00  0.00000000000E+00  0.11509570451E+04  0.16771355212E+04  0.12198694343E+04 0.  0.
        1    1    3    3  502    0 -0.40098053766E+03  0.16976385240E+03 -0.11720497254E+02  0.43559445273E+03  0.50400001928E-02 0.  1.
       -1    1    3    3    0  502  0.40098053766E+03 -0.16976385240E+03  0.11626775424E+04  0.12415410685E+04  0.50400001928E-02 0. -1.
</event>
<event>
 5   0  0.3731281E-03  0.1246376E+04  0.7818609E-02  0.9073205E-01
        1   -1    0    0  501    0  0.00000000000E+00  0.00000000000E+00  0.43798846589E+03  0.43798846592E+03  0.50400001928E-02 0.  1.
       -1   -1    0    0    0  501  0.00000000000E+00  0.00000000000E+00 -0.88669680870E+03  0.88669680871E+03  0.50400001928E-02 0. -1.
    10030    2    1    2    0    0  0.00000000000E+00  0.00000000000E+00 -0.44870834280E+03  0.13246852746E+04  0.12463755052E+04 0.  0.
        5    1    3    3  502    0 -0.25966474263E+03  0.21675483489E+03 -0.78062404825E+03  0.85076696676E+03  0.46999998093E+01 0. -1.
       -5    1    3    3    0  502  0.25966474263E+03 -0.21675483489E+03  0.33191570545E+03  0.47391830788E+03  0.46999998093E+01 0.  1.
</event>
<event>
 5   0  0.6640844E-03  0.1191393E+04  0.7818609E-02  0.9120424E-01
       -2   -1    0    0    0  501  0.00000000000E+00  0.00000000000E+00  0.15761745338E+03  0.15761745340E+03  0.25500000920E-02 0.  1.
        2   -1    0    0  501    0  0.00000000000E+00  0.00000000000E+00 -0.22513628976E+04  0.22513628976E+04  0.25500000920E-02 0. -1.
    10030    2    1    2    0    0  0.00000000000E+00  0.00000000000E+00 -0.20937454442E+04  0.24089803510E+04  0.11913926080E+04 0.  0.
        5    1    3    3  502    0  0.52709849958E+03  0.13566540507E+03 -0.55742628084E+03  0.77909182960E+03  0.46999998093E+01 0.  1.
       -5    1    3    3    0  502 -0.52709849958E+03 -0.13566540507E+03 -0.15363191634E+04  0.16298885214E+04  0.46999998093E+01 0. -1.
</event>
<event>
 5   0  0.2537625E-03  0.1124351E+04  0.7818609E-02  0.9181777E-01
       -4   -1    0    0    0  501  0.00000000000E+00  0.00000000000E+00  0.10123255461E+04  0.10123263427E+04  0.12699999809E+01 0.  1.
        4   -1    0    0  501    0  0.00000000000E+00  0.00000000000E+00 -0.31219115286E+03  0.31219373604E+03  0.12699999809E+01 0. -1.
    10030    2    1    2    0    0  0.00000000000E+00  0.00000000000E+00  0.70013439322E+03  0.13245200788E+04  0.11243510441E+04 0.  0.
        3    1    3    3  502    0 -0.48607859875E+03 -0.17686136358E+03  0.90662365936E+02  0.52514000123E+03  0.10100000352E+00 0. -1.
       -3    1    3    3    0  502  0.48607859875E+03  0.17686136358E+03  0.60947202728E+03  0.79938007752E+03  0.10100000352E+00 0.  1.
</event>
<event>
 5   0  0.6640844E-03  0.1194350E+04  0.7818609E-02  0.9117816E-01
        2   -1    0    0  501    0  0.00000000000E+00  0.00000000000E+00  0.12410792560E+04  0.12410792560E+04  0.25500000920E-02 0.  1.
       -2   -1    0    0    0  501  0.00000000000E+00  0.00000000000E+00 -0.28734509557E+03  0.28734509558E+03  0.25500000920E-02 0. -1.
    10030    2    1    2    0    0  0.00000000000E+00  0.00000000000E+00  0.95373416047E+03  0.15284243516E+04  0.11943500951E+04 0.  0.
        5    1    3    3  502    0  0.43629019503E+02  0.62835613215E+02  0.12347594121E+04  0.12371356843E+04  0.46999998093E+01 0.  1.
       -5    1    3    3    0  502 -0.43629019503E+02 -0.62835613215E+02 -0.28102525165E+03  0.29128866729E+03  0.46999998093E+01 0. -1.
</event>
<event>
 5   0  0.3772254E-03  0.1212934E+04  0.7818609E-02  0.9101610E-01
        1   -1    0    0  501    0  0.00000000000E+00  0.00000000000E+00  0.16162863352E+04  0.16162863352E+04  0.50400001928E-02 0.  1.
       -1   -1    0    0    0  501  0.00000000000E+00  0.00000000000E+00 -0.22755995311E+03  0.22755995317E+03  0.50400001928E-02 0. -1.
    10030    2    1    2    0    0  0.00000000000E+00  0.00000000000E+00  0.13887263821E+04  0.18438462884E+04  0.12129337042E+04 0.  0.
        3    1    3    3  502    0  0.32008002152E+03  0.34551881872E+03  0.12751487656E+04  0.13593523674E+04  0.10100000352E+00 0.  1.
       -3    1    3    3    0  502 -0.32008002152E+03 -0.34551881872E+03  0.11357761650E+03  0.48449392095E+03  0.10100000352E+00 0. -1.
</event>
<event>
 5   0  0.3648616E-03  0.1146651E+04  0.7818609E-02  0.9160879E-01
       -1   -1    0    0    0  501  0.00000000000E+00  0.00000000000E+00  0.45721295896E+03  0.45721295899E+03  0.50400001928E-02 0. -1.
        1   -1    0    0  501    0  0.00000000000E+00  0.00000000000E+00 -0.71892554027E+03  0.71892554028E+03  0.50400001928E-02 0.  1.
    10030    2    1    2    0    0  0.00000000000E+00  0.00000000000E+00 -0.26171258131E+03  0.11761384993E+04  0.11466509034E+04 0.  0.
        2    1    3    3  502    0 -0.15243511228E+03 -0.10157241184E+03  0.42639059903E+03  0.46407150446E+03  0.25500000920E-02 0. -1.
       -2    1    3    3    0  502  0.15243511228E+03  0.10157241184E+03 -0.68810318034E+03  0.71206699481E+03  0.25500000920E-02 0.  1.
</event>
<event>
 5   0  0.3772254E-03  0.1082546E+04  0.7818609E-02  0.9222373E-01
       -1   -1    0    0    0  501  0.00000000000E+00  0.00000000000E+00  0.43164764829E+03  0.43164764832E+03  0.50400001928E-02 0.  1.
        1   -1    0    0  501    0  0.00000000000E+00  0.00000000000E+00 -0.67873936664E+03  0.67873936666E+03  0.50400001928E-02 0. -1.
    10030    2    1    2    0    0  0.00000000000E+00  0.00000000000E+00 -0.24709171835E+03  0.11103870150E+04  0.10825456137E+04 0.  0.
        3    1    3    3  502    0 -0.32340396796E+03 -0.42550402900E+03 -0.21137776606E+03  0.57473852783E+03  0.10100000352E+00 0. -1.
       -3    1    3    3    0  502  0.32340396796E+03  0.42550402900E+03 -0.35713952288E+02  0.53564848714E+03  0.10100000352E+00 0.  1.
</event>
<event>
 5   0  0.3772254E-03  0.1189006E+04  0.7818609E-02  0.9122534E-01
       -1   -1    0    0    0  501  0.00000000000E+00  0.00000000000E+00  0.32778699364E+03  0.32778699368E+03  0.50400001928E-02 0.  1.
        1   -1    0    0  501    0  0.00000000000E+00  0.00000000000E+00 -0.10782430711E+04  0.10782430711E+04  0.50400001928E-02 0. -1.
    10030    2    1    2    0    0  0.00000000000E+00  0.00000000000E+00 -0.75045607742E+03  0.14060300647E+04  0.11890063998E+04 0.  0.
        3    1    3    3  502    0 -0.46180771239E+03  0.30045193741E+03 -0.63937441040E+03  0.84400081563E+03  0.10100000352E+00 0. -1.
       -3    1    3    3    0  502  0.46180771239E+03 -0.30045193741E+03 -0.11108166702E+03  0.56202924912E+03  0.10100000352E+00 0.  1.
</event>
<event>
 5   0  0.6585930E-03  0.1207300E+04  0.7818609E-02  0.9106491E-01
        2   -1    0    0  501    0  0.00000000000E+00  0.00000000000E+00  0.17609383164E+04  0.17609383164E+04  0.25500000920E-02 0. -1.
       -2   -1    0    0    0  501  0.00000000000E+00  0.00000000000E+00 -0.20693133907E+03  0.20693133908E+03  0.25500000920E-02 0.  1.
    10030    2    1    2    0    0  0.00000000000E+00  0.00000000000E+00  0.15540069773E+04  0.19678696555E+04  0.12073000022E+04 0.  0.
        2    1    3    3  502    0 -0.15563088623E+03 -0.19868816078E+03  0.16708120188E+04  0.16897664809E+04  0.25500000920E-02 0. -1.
       -2    1    3    3    0  502  0.15563088623E+03  0.19868816078E+03 -0.11680504144E+03  0.27810317455E+03  0.25500000920E-02 0.  1.
</event>
<event>
 5   0  0.3731281E-03  0.1158037E+04  0.7818609E-02  0.9150401E-01
        1   -1    0    0  501    0  0.00000000000E+00  0.00000000000E+00  0.97439818687E+03  0.97439818689E+03  0.50400001928E-02 0. -1.
       -1   -1    0    0    0  501  0.00000000000E+00  0.00000000000E+00 -0.34407130204E+03  0.34407130208E+03  0.50400001928E-02 0.  1.
    10030    2    1    2    0    0  0.00000000000E+00  0.00000000000E+00  0.63032688483E+03  0.13184694890E+04  0.11580370510E+04 0.  0.
        5    1    3    3  502    0 -0.44826121957E+03 -0.28390102429E+03  0.51320986723E+02  0.53309834575E+03  0.46999998093E+01 0.  1.
       -5    1    3    3    0  502  0.44826121957E+03  0.28390102429E+03  0.57900589811E+03  0.78537114322E+03  0.46999998093E+01 0. -1.
</event>
<event>
 5   0  0.3648616E-03  0.1205640E+04  0.7818609E-02  0.9107934E-01
       -1   -1    0    0    0  501  0.00000000000E+00  0.00000000000E+00  0.19064317008E+03  0.19064317015E+03  0.50400001928E-02 0. -1.
        1   -1    0    0  501    0  0.00000000000E+00  0.00000000000E+00 -0.19061360544E+04  0.19061360544E+04  0.50400001928E-02 0.  1.
    10030    2    1    2    0    0  0.00000000000E+00  0.00000000000E+00 -0.17154928843E+04  0.20967792245E+04  0.12056397805E+04 0.  0.
        2    1    3    3  502    0  0.39796745694E+03  0.28935193498E+03 -0.14634305343E+04  0.15439337964E+04  0.25500000920E-02 0.  1.
       -2    1    3    3    0  502 -0.39796745694E+03 -0.28935193498E+03 -0.25206234998E+03  0.55284542808E+03  0.25500000920E-02 0. -1.
</event>
<event>
 5   0  0.3772254E-03  0.1158091E+04  0.7818609E-02  0.9150351E-01
       -1   -1    0    0    0  501  0.00000000000E+00  0.00000000000E+00  0.48451234570E+03  0.48451234573E+03  0.50400001928E-02 0.  1.
        1   -1    0    0  501    0  0.00000000000E+00  0.00000000000E+00 -0.69202307030E+03  0.69202307032E+03  0.50400001928E-02 0. -1.
    10030    2    1    2    0    0  0.00000000000E+00  0.00000000000E+00 -0.20751072459E+03  0.11765354160E+04  0.11580910519E+04 0.  0.
        3    1    3    3  502    0  0.31937128811E+03  0.42799702354E+03  0.12367208097E+03  0.54815532985E+03  0.10100000352E+00 0.  1.
       -3    1    3    3    0  502 -0.31937128811E+03 -0.42799702354E+03 -0.33118280557E+03  0.62838008620E+03  0.10100000352E+00 0. -1.
</event>
<event>
 5   0  0.6349142E-03  0.1222691E+04  0.7818609E-02  0.9093224E-01
        2   -1    0    0  501    0  0.00000000000E+00  0.00000000000E+00  0.11847969121E+04  0.11847969121E+04  0.25500000920E-02 0.  1.
       -2   -1    0    0    0  501  0.00000000000E+00  0.00000000000E+00 -0.31544937009E+03  0.31544937010E+03  0.25500000920E-02 0. -1.
    10030    2    1    2    0    0  0.00000000000E+00  0.00000000000E+00  0.86934754203E+03  0.15002462822E+04  0.12226911951E+04 0.  0.
        1    1    3    3  502    0  0.18259043539E+03  0.26444425367E+03 -0.20345461231E+03  0.38034695962E+03  0.50400001928E-02 0. -1.
       -1    1    3    3    0  502 -0.18259043539E+03 -0.26444425367E+03  0.10728021543E+04  0.11198993226E+04  0.50400001928E-02 0.  1.
</event>
<event>
 5   0  0.6585930E-03  0.1209985E+04  0.7818609E-02  0.9104161E-01
       -2   -1    0    0    0  501  0.00000000000E+00  0.00000000000E+00  0.69705182588E+03  0.69705182588E+03  0.25500000920E-02 0.  1.
        2   -1    0    0  501    0  0.00000000000E+00  0.00000000000E+00 -0.52509157542E+03  0.52509157543E+03  0.25500000920E-02 0. -1.
    10030    2    1    2    0    0  0.00000000000E+00  0.00000000000E+00  0.17196025046E+03  0.12221434013E+04  0.12099851923E+04 0.  0.
        2    1    3    3  502    0  0.13919906985E+03 -0.42399457753E+03  0.49857989242E+03  0.66912606582E+03  0.25500000920E-02 0. -1.
       -2    1    3    3    0  502 -0.13919906985E+03  0.42399457753E+03 -0.32661964197E+03  0.55301733549E+03  0.25500000920E-02 0.  1.
</event>
<event>
 5   0  0.3772254E-03  0.1194680E+04  0.7818609E-02  0.9117526E-01
        1   -1    0    0  501    0  0.00000000000E+00  0.00000000000E+00  0.44364615448E+03  0.44364615451E+03  0.50400001928E-02 0. -1.
       -1   -1    0    0    0  501  0.00000000000E+00  0.00000000000E+00 -0.80427879855E+03  0.80427879857E+03  0.50400001928E-02 0.  1.
    10030    2    1    2    0    0  0.00000000000E+00  0.00000000000E+00 -0.36063264407E+03  0.12479249531E+04  0.11946802018E+04 0.  0.
        3    1    3    3  502    0  0.21789157324E+03  0.31117142887E+03 -0.66185069690E+03  0.76311909360E+03  0.10100000352E+00 0.  1.
       -3    1    3    3    0  502 -0.21789157324E+03 -0.31117142887E+03  0.30121805282E+03  0.48480585948E+03  0.10100000352E+00 0. -1.
</event>
<event>
 5   0  0.6349142E-03  0.1195056E+04  0.7818609E-02  0.9117195E-01
       -2   -1    0    0    0  501  0.00000000000E+00  0.00000000000E+00  0.30789495767E+03  0.30789495768E+03  0.25500000920E-02 0. -1.
        2   -1    0    0  501    0  0.00000000000E+00  0.00000000000E+00 -0.11596151917E+04  0.11596151917E+04  0.25500000920E-02 0.  1.
    10030    2    1    2    0    0  0.00000000000E+00  0.00000000000E+00 -0.85172023399E+03  0.14675101493E+04  0.11950559323E+04 0.  0.
        1    1    3    3  502    0  0.76362895289E+02  0.34739813903E+03  0.16372963952E+03  0.39156628259E+03  0.50400001928E-02 0. -1.
       -1    1    3    3    0  502 -0.76362895289E+02 -0.34739813903E+03 -0.10154498735E+04  0.10759438668E+04  0.50400001928E-02 0.  1.
</event>
<event>
 5   0  0.3701879E-03  0.1326979E+04  0.7818609E-02  0.9008440E-01
        1   -1    0    0  501    0  0.00000000000E+00  0.00000000000E+00  0.10987763862E+04  0.10987763862E+04  0.50400001928E-02 0. -1.
       -1   -1    0    0    0  501  0.00000000000E+00  0.00000000000E+00 -0.40064400583E+03  0.40064400587E+03  0.50400001928E-02 0.  1.
    10030    2    1    2    0    0  0.00000000000E+00  0.00000000000E+00  0.69813238035E+03  0.14994203921E+04  0.13269787834E+04 0.  0.
        1    1    3    3  502    0  0.41129676629E+03  0.15647641601E+03 -0.21201799978E+03  0.48846855680E+03  0.50400001928E-02 0.  1.
       -1    1    3    3    0  502 -0.41129676629E+03 -0.15647641601E+03  0.91015038013E+03  0.10109518353E+04  0.50400001928E-02 0. -1.
</event>
<event>
 5   0  0.3772254E-03  0.1217429E+04  0.7818609E-02  0.9097737E-01
        1   -1    0    0  501    0  0.00000000000E+00  0.00000000000E+00  0.65451634892E+03  0.65451634894E+03  0.50400001928E-02 0. -1.
       -1   -1    0    0    0  501  0.00000000000E+00  0.00000000000E+00 -0.56611748334E+03  0.56611748336E+03  0.50400001928E-02 0.  1.
    10030    2    1    2    0    0  0.00000000000E+00  0.00000000000E+00  0.88398865581E+02  0.12206338323E+04  0.12174286809E+04 0.  0.
        3    1    3    3  502    0  0.76122313438E+02 -0.74091635488E+02  0.64515122488E+03  0.65383812234E+03  0.10100000352E+00 0. -1.
       -3    1    3    3    0  502 -0.76122313438E+02  0.74091635488E+02 -0.55675235930E+03  0.56679570997E+03  0.10100000352E+00 0.  1.
</event>
<event>
 5   0  0.6658994E-03  0.1196133E+04  0.7818609E-02  0.9116248E-01
        2   -1    0    0  501    0  0.00000000000E+00  0.00000000000E+00  0.44766398913E+03  0.44766398914E+03  0.25500000920E-02 0.  1.
       -2   -1    0    0    0  501  0.00000000000E+00  0.00000000000E+00 -0.79900040731E+03  0.79900040732E+03  0.25500000920E-02 0. -1.
    10030    2    1    2    0    0  0.00000000000E+00  0.00000000000E+00 -0.35133641818E+03  0.12466643965E+04  0.11961332863E+04 0.  0.
        4    1    3    3  502    0  0.12191783754E+03  0.36211034204E+03  0.30387141545E+03  0.48818778042E+03  0.12699999809E+01 0.  1.
       -4    1    3    3    0  502 -0.12191783754E+03 -0.36211034204E+03 -0.65520783363E+03  0.75847661604E+03  0.12699999809E+01 0. -1.
</event>
<event>
 5   0  0.6640844E-03  0.1245672E+04  0.7818609E-02  0.9073793E-01
        2   -1    0    0  501    0  0.00000000000E+00  0.00000000000E+00  0.26884263254E+03  0.26884263255E+03  0.25500000920E-02 0. -1.
       -2   -1    0    0    0  501  0.00000000000E+00  0.00000000000E+00 -0.14429432767E+04  0.14429432767E+04  0.25500000920E-02 0.  1.
    10030    2    1    2    0    0  0.00000000000E+00  0.00000000000E+00 -0.11741006441E+04  0.17117859092E+04  0.12456719779E+04 0.  0.
        5    1    3    3  502    0 -0.42717019950E+03 -0.21847620546E+03 -0.11327536087E+04  0.12301865955E+04  0.46999998093E+01 0.  1.
       -5    1    3    3    0  502  0.42717019950E+03  0.21847620546E+03 -0.41347035483E+02  0.48159931378E+03  0.46999998093E+01 0. -1.
</event>
<event>
 5   0  0.2537625E-03  0.1185553E+04  0.7818609E-02  0.9125597E-01
       -3   -1    0    0    0  501  0.00000000000E+00  0.00000000000E+00  0.18754136407E+04  0.18754136434E+04  0.10100000352E+00 0.  1.
        3   -1    0    0  501    0  0.00000000000E+00  0.00000000000E+00 -0.18736329987E+03  0.18736332709E+03  0.10100000352E+00 0. -1.
    10030    2    1    2    0    0  0.00000000000E+00  0.00000000000E+00  0.16880503408E+04  0.20627769705E+04  0.11855525618E+04 0.  0.
        4    1    3    3  502    0 -0.66361884029E+02  0.82858011052E+01  0.18688262871E+04  0.18700229567E+04  0.12699999809E+01 0.  1.
       -4    1    3    3    0  502  0.66361884029E+02 -0.82858011052E+01 -0.18077594634E+03  0.19275401378E+03  0.12699999809E+01 0. -1.
</event>
<event>
 5   0  0.6349142E-03  0.1188946E+04  0.7818609E-02  0.9122588E-01
       -2   -1    0    0    0  501  0.00000000000E+00  0.00000000000E+00  0.25278545681E+03  0.25278545682E+03  0.25500000920E-02 0. -1.
        2   -1    0    0  501    0  0.00000000000E+00  0.00000000000E+00 -0.13980159858E+04  0.13980159858E+04  0.25500000920E-02 0.  1.
    10030    2    1    2    0    0  0.00000000000E+00  0.00000000000E+00 -0.11452305290E+04  0.16508014426E+04  0.11889459359E+04 0.  0.
        1    1    3    3  502    0 -0.31010939205E+03 -0.26382842541E+03  0.28804777218E+02  0.40817029327E+03  0.50400001928E-02 0. -1.
       -1    1    3    3    0  502  0.31010939205E+03  0.26382842541E+03 -0.11740353062E+04  0.12426311494E+04  0.50400001928E-02 0.  1.
</event>
<event>
 5   0  0.6640844E-03  0.1208747E+04  0.7818609E-02  0.9105234E-01
       -2   -1    0    0    0  501  0.00000000000E+00  0.00000000000E+00  0.28104878794E+03  0.28104878795E+03  0.25500000920E-02 0. -1.
        2   -1    0    0  501    0  0.00000000000E+00  0.00000000000E+00 -0.12996584253E+04  0.12996584253E+04  0.25500000920E-02 0.  1.
    10030    2    1    2    0    0  0.00000000000E+00  0.00000000000E+00 -0.10186096374E+04  0.15807072133E+04  0.12087471616E+04 0.  0.
        5    1    3    3  502    0 -0.21890844330E+03  0.12824575787E+03 -0.12266212691E+04  0.12525931936E+04  0.46999998093E+01 0.  1.
       -5    1    3    3    0  502  0.21890844330E+03 -0.12824575787E+03  0.20801163171E+03  0.32811401964E+03  0.46999998093E+01 0. -1.
</event>
<event>
 5   0  0.6658994E-03  0.1216787E+04  0.7818609E-02  0.9098289E-01
       -2   -1    0    0    0  501  0.00000000000E+00  0.00000000000E+00  0.42132007728E+03  0.42132007728E+03  0.25500000920E-02 0.  1.
        2   -1    0    0  501    0  0.00000000000E+00  0.00000000000E+00 -0.87853024357E+03  0.87853024358E+03  0.25500000920E-02 0. -1.
    10030    2    1    2    0    0  0.00000000000E+00  0.00000000000E+00 -0.45721016630E+03  0.12998503209E+04  0.12167866372E+04 0.  0.
        4    1    3    3  502    0 -0.22725528223E+03  0.17999029134E+03  0.34279111817E+03  0.44894190256E+03  0.12699999809E+01 0.  1.
       -4    1    3    3    0  502  0.22725528223E+03 -0.17999029134E+03 -0.80000128447E+03  0.85090841830E+03  0.12699999809E+01 0. -1.
</event>
<event>
 5   0  0.3772254E-03  0.1200056E+04  0.7818609E-02  0.9112807E-01
       -1   -1    0    0    0  501  0.00000000000E+00  0.00000000000E+00  0.96129949950E+03  0.96129949951E+03  0.50400001928E-02 0. -1.
        1   -1    0    0  501    0  0.00000000000E+00  0.00000000000E+00 -0.37452806250E+03  0.37452806253E+03  0.50400001928E-02 0.  1.
    10030    2    1    2    0    0  0.00000000000E+00  0.00000000000E+00  0.58677143700E+03  0.13358275620E+04  0.12000560638E+04 0.  0.
        3    1    3    3  502    0 -0.27821765760E+03 -0.37379920199E+03  0.71417930559E+03  0.85275025602E+03  0.10100000352E+00 0. -1.
       -3    1    3    3    0  502  0.27821765760E+03  0.37379920199E+03 -0.12740786859E+03  0.48307730602E+03  0.10100000352E+00 0.  1.
</event>
<event>
 5   0  0.3772254E-03  0.1197827E+04  0.7818609E-02  0.9114761E-01
        1   -1    0    0  501    0  0.00000000000E+00  0.00000000000E+00  0.74926362076E+03  0.74926362078E+03  0.50400001928E-02 0. -1.
       -1   -1    0    0    0  501  0.00000000000E+00  0.00000000000E+00 -0.47873322700E+03  0.47873322703E+03  0.50400001928E-02 0.  1.
    10030    2    1    2    0    0  0.00000000000E+00  0.00000000000E+00  0.27053039376E+03  0.12279968478E+04  0.11978270177E+04 0.  0.
        3    1    3    3  502    0 -0.34395122138E+03  0.48183328710E+03  0.42251726825E+02  0.59350735283E+03  0.10100000352E+00 0. -1.
       -3    1    3    3    0  502  0.34395122138E+03 -0.48183328710E+03  0.22827866693E+03  0.63448949497E+03  0.10100000352E+00 0.  1.
</event>
<event>
 5   0  0.6493047E-03  0.1331167E+04  0.7818609E-02  0.9005208E-01
       -2   -1    0    0    0  501  0.00000000000E+00  0.00000000000E+00  0.48332378532E+03  0.48332378533E+03  0.25500000920E-02 0.  1.
        2   -1    0    0  501    0  0.00000000000E+00  0.00000000000E+00 -0.91657242461E+03  0.91657242462E+03  0.25500000920E-02 0. -1.
    10030    2    1    2    0    0  0.00000000000E+00  0.00000000000E+00 -0.43324863929E+03  0.13998962099E+04  0.13311667871E+04 0.  0.
        3    1    3    3  502    0  0.22836060850E+03  0.51544453949E+03  0.15543552588E+03  0.58480069571E+03  0.10100000352E+00 0.  1.
       -3    1    3    3    0  502 -0.22836060850E+03 -0.51544453949E+03 -0.58868416517E+03  0.81509551423E+03  0.10100000352E+00 0. -1.
</event>
<event>
 5   0  0.6658994E-03  0.1039778E+04  0.7818609E-02  0.9265962E-01
       -2   -1    0    0    0  501  0.00000000000E+00  0.00000000000E+00  0.17261676504E+04  0.17261676504E+04  0.25500000920E-02 0.  1.
        2   -1    0    0  501    0  0.00000000000E+00  0.00000000000E+00 -0.15658062570E+03  0.15658062572E+03  0.25500000920E-02 0. -1.
    10030    2    1    2    0    0  0.00000000000E+00  0.00000000000E+00  0.15695870247E+04  0.18827482761E+04  0.10397776893E+04 0.  0.
        4    1    3    3  502    0 -0.48806311394E+03  0.17559360917E+03  0.84866040141E+03  0.99461792090E+03  0.12699999809E+01 0.  1.
       -4    1    3    3    0  502  0.48806311394E+03 -0.17559360917E+03  0.72092662325E+03  0.88813035518E+03  0.12699999809E+01 0. -1.
</event>
<event>
 5   0  0.3648616E-03  0.1168587E+04  0.7818609E-02  0.9140805E-01
       -1   -1    0    0    0  501  0.00000000000E+00  0.00000000000E+00  0.72057707919E+03  0.72057707921E+03  0.50400001928E-02 0. -1.
        1   -1    0    0  501    0  0.00000000000E+00  0.00000000000E+00 -0.47378543315E+03  0.47378543317E+03  0.50400001928E-02 0.  1.
    10030    2    1    2    0    0  0.00000000000E+00  0.00000000000E+00  0.24679164604E+03  0.11943625124E+04  0.11685870504E+04 0.  0.
        2    1    3    3  502    0  0.38162541903E+02 -0.47034045680E+03 -0.22876531249E+03  0.52441404740E+03  0.25500000920E-02 0.  1.
       -2    1    3    3    0  502 -0.38162541903E+02  0.47034045680E+03  0.47555695853E+03  0.66994846498E+03  0.25500000920E-02 0. -1.
</event>
<event>
 5   0  0.3701879E-03  0.1206800E+04  0.7818609E-02  0.9106925E-01
        1   -1    0    0  501    0  0.00000000000E+00  0.00000000000E+00  0.16844470733E+04  0.16844470733E+04  0.50400001928E-02 0.  1.
       -1   -1    0    0    0  501  0.00000000000E+00  0.00000000000E+00 -0.21614902544E+03  0.21614902550E+03  0.50400001928E-02 0. -1.
    10030    2    1    2    0    0  0.00000000000E+00  0.00000000000E+00  0.14682980478E+04  0.19005960988E+04  0.12068000553E+04 0.  0.
        1    1    3    3  502    0 -0.51730530344E+03  0.10842922550E+03  0.27571915234E+03  0.59613985347E+03  0.50400001928E-02 0. -1.
       -1    1    3    3    0  502  0.51730530344E+03 -0.10842922550E+03  0.11925788955E+04  0.13044562453E+04  0.50400001928E-02 0.  1.
</event>
<event>
 5   0  0.3648616E-03  0.1166062E+04  0.7818609E-02  0.9143092E-01
       -1   -1    0    0    0  501  0.00000000000E+00  0.00000000000E+00  0.44735889368E+03  0.44735889371E+03  0.50400001928E-02 0.  1.
        1   -1    0    0  501    0  0.00000000000E+00  0.00000000000E+00 -0.75984919863E+03  0.75984919864E+03  0.50400001928E-02 0. -1.
    10030    2    1    2    0    0  0.00000000000E+00  0.00000000000E+00 -0.31249030495E+03  0.12072080923E+04  0.11660622571E+04 0.  0.
        2    1    3    3  502    0  0.29046158083E+03 -0.26291700578E+03  0.29076835490E+03  0.48789293711E+03  0.25500000920E-02 0.  1.
       -2    1    3    3    0  502 -0.29046158083E+03  0.26291700578E+03 -0.60325865985E+03  0.71931515524E+03  0.25500000920E-02 0. -1.
</event>
<event>
 5   0  0.2537625E-03  0.1098628E+04  0.7818609E-02  0.9206530E-01
        3   -1    0    0  501    0  0.00000000000E+00  0.00000000000E+00  0.25179548520E+03  0.25179550546E+03  0.10100000352E+00 0. -1.
       -3   -1    0    0    0  501  0.00000000000E+00  0.00000000000E+00 -0.11983777886E+04  0.11983777928E+04  0.10100000352E+00 0.  1.
    10030    2    1    2    0    0  0.00000000000E+00  0.00000000000E+00 -0.94658230338E+03  0.14501732983E+04  0.10986284804E+04 0.  0.
        1    1    3    3  502    0  0.48550887562E+03  0.96431368932E+02 -0.15890111682E+03  0.51987252493E+03  0.50400001928E-02 0. -1.
       -1    1    3    3    0  502 -0.48550887562E+03 -0.96431368932E+02 -0.78768118656E+03  0.93030077336E+03  0.50400001928E-02 0.  1.
</event>
<event>
 5   0  0.6658994E-03  0.1318548E+04  0.7818609E-02  0.9014984E-01
       -2   -1    0    0    0  501  0.00000000000E+00  0.00000000000E+00  0.35947682220E+03  0.35947682221E+03  0.25500000920E-02 0.  1.
        2   -1    0    0  501    0  0.00000000000E+00  0.00000000000E+00 -0.12090965540E+04  0.12090965540E+04  0.25500000920E-02 0. -1.
    10030    2    1    2    0    0  0.00000000000E+00  0.00000000000E+00 -0.84961973183E+03  0.15685733763E+04  0.13185479695E+04 0.  0.
        4    1    3    3  502    0 -0.21797659584E+03  0.11624255695E+03 -0.11519543850E+04  0.11781454267E+04  0.12699999809E+01 0. -1.
       -4    1    3    3    0  502  0.21797659584E+03 -0.11624255695E+03  0.30233465318E+03  0.39042794956E+03  0.12699999809E+01 0.  1.
</event>
<event>
 5   0  0.6658994E-03  0.1208798E+04  0.7818609E-02  0.9105191E-01
        2   -1    0    0  501    0  0.00000000000E+00  0.00000000000E+00  0.70399595164E+03  0.70399595165E+03  0.25500000920E-02 0. -1.
       -2   -1    0    0    0  501  0.00000000000E+00  0.00000000000E+00 -0.51889223553E+03  0.51889223554E+03  0.25500000920E-02 0.  1.
    10030    2    1    2    0    0  0.00000000000E+00  0.00000000000E+00  0.18510371611E+03  0.12228881872E+04  0.12087978047E+04 0.  0.
        4    1    3    3  502    0 -0.25069812808E+03 -0.54179146866E+02 -0.46110391183E+03  0.52763942402E+03  0.12699999809E+01 0.  1.
       -4    1    3    3    0  502  0.25069812808E+03  0.54179146866E+02  0.64620762794E+03  0.69524876316E+03  0.12699999809E+01 0. -1.
</event>
<event>
 5   0  0.6640844E-03  0.8905242E+03  0.7818609E-02  0.9437505E-01
       -2   -1    0    0    0  501  0.00000000000E+00  0.00000000000E+00  0.57649316663E+03  0.57649316663E+03  0.25500000920E-02 0. -1.
        2   -1    0    0  501    0  0.00000000000E+00  0.00000000000E+00 -0.34390402903E+03  0.34390402904E+03  0.25500000920E-02 0.  1.
    10030    2    1    2    0    0  0.00000000000E+00  0.00000000000E+00  0.23258913759E+03  0.92039719568E+03  0.89052416637E+03 0.  0.
        5    1    3    3  502    0  0.21178702222E+03  0.37253538190E+03 -0.85886857221E+01  0.42863995272E+03  0.46999998093E+01 0.  1.
       -5    1    3    3    0  502 -0.21178702222E+03 -0.37253538190E+03  0.24117782331E+03  0.49175724296E+03  0.46999998093E+01 0. -1.
</event>
<event>
 5   0  0.3772254E-03  0.1208383E+04  0.7818609E-02  0.9105551E-01
        1   -1    0    0  501    0  0.00000000000E+00  0.00000000000E+00  0.93128580277E+03  0.93128580279E+03  0.50400001928E-02 0. -1.
       -1   -1    0    0    0  501  0.00000000000E+00  0.00000000000E+00 -0.39198187798E+03  0.39198187801E+03  0.50400001928E-02 0.  1.
    10030    2    1    2    0    0  0.00000000000E+00  0.00000000000E+00  0.53930392480E+03  0.13232676808E+04  0.12083826512E+04 0.  0.
        3    1    3    3  502    0  0.52310325503E+03  0.20173383862E+03  0.51625896495E+03  0.76213967628E+03  0.10100000352E+00 0. -1.
       -3    1    3    3    0  502 -0.52310325503E+03 -0.20173383862E+03  0.23044959845E+02  0.56112800451E+03  0.10100000352E+00 0.  1.
</event>
<event>
 5   0  0.3648616E-03  0.1135815E+04  0.7818609E-02  0.9170970E-01
        1   -1    0    0  501    0  0.00000000000E+00  0.00000000000E+00  0.35453311628E+03  0.35453311632E+03  0.50400001928E-02 0. -1.
       -1   -1    0    0    0  501  0.00000000000E+00  0.00000000000E+00 -0.90970059472E+03  0.90970059473E+03  0.50400001928E-02 0.  1.
    10030    2    1    2    0    0  0.00000000000E+00  0.00000000000E+00 -0.55516747843E+03  0.12642337110E+04  0.11358151025E+04 0.  0.
        2    1    3    3  502    0  0.44504734526E+03  0.67931924769E+02  0.10773078033E+03  0.46291231023E+03  0.25500000920E-02 0. -1.
       -2    1    3    3    0  502 -0.44504734526E+03 -0.67931924769E+02 -0.66289825877E+03  0.80132140082E+03  0.25500000920E-02 0.  1.
</event>
<event>
 5   0  0.6349142E-03  0.1179320E+04  0.7818609E-02  0.9131153E-01
        2   -1    0    0  501    0  0.00000000000E+00  0.00000000000E+00  0.83803359500E+03  0.83803359501E+03  0.25500000920E-02 0. -1.
       -2   -1    0    0    0  501  0.00000000000E+00  0.00000000000E+00 -0.41489834044E+03  0.41489834045E+03  0.25500000920E-02 0.  1.
    10030    2    1    2    0    0  0.00000000000E+00  0.00000000000E+00  0.42313525456E+03  0.12529319355E+04  0.11793197154E+04 0.  0.
        1    1    3    3  502    0  0.33358953718E+02 -0.51372767048E+03  0.51703820477E+03  0.72962829196E+03  0.50400001928E-02 0. -1.
       -1    1    3    3    0  502 -0.33358953718E+02  0.51372767048E+03 -0.93902950208E+02  0.52330364349E+03  0.50400001928E-02 0.  1.
</event>
<event>
 5   0  0.3648616E-03  0.1266926E+04  0.7818609E-02  0.9056213E-01
       -1   -1    0    0    0  501  0.00000000000E+00  0.00000000000E+00  0.82382412761E+03  0.82382412763E+03  0.50400001928E-02 0.  1.
        1   -1    0    0  501    0  0.00000000000E+00  0.00000000000E+00 -0.48708836297E+03  0.48708836299E+03  0.50400001928E-02 0. -1.
    10030    2    1    2    0    0  0.00000000000E+00  0.00000000000E+00  0.33673576465E+03  0.13109124906E+04  0.12669256422E+04 0.  0.
        2    1    3    3  502    0  0.26032673720E+03  0.47985097765E+03  0.50084653574E+03  0.74086046137E+03  0.25500000920E-02 0.  1.
       -2    1    3    3    0  502 -0.26032673720E+03 -0.47985097765E+03 -0.16411077109E+03  0.57005202925E+03  0.25500000920E-02 0. -1.
</event>
<event>
 5   0  0.6658994E-03  0.1198819E+04  0.7818609E-02  0.9113891E-01
        2   -1    0    0  501    0  0.00000000000E+00  0.00000000000E+00  0.90110902435E+03  0.90110902435E+03  0.25500000920E-02 0.  1.
       -2   -1    0    0    0  501  0.00000000000E+00  0.00000000000E+00 -0.39872181295E+03  0.39872181296E+03  0.25500000920E-02 0. -1.
    10030    2    1    2    0    0  0.00000000000E+00  0.00000000000E+00  0.50238721140E+03  0.12998308373E+04  0.11988191254E+04 0.  0.
        4    1    3    3  502    0 -0.44661196588E+03 -0.29746499492E+03  0.54079953944E+03  0.76184868973E+03  0.12699999809E+01 0.  1.
       -4    1    3    3    0  502  0.44661196588E+03  0.29746499492E+03 -0.38412328045E+02  0.53798214759E+03  0.12699999809E+01 0. -1.
</event>
<event>
 5   0  0.2537625E-03  0.1251850E+04  0.7818609E-02  0.9068645E-01
       -3   -1    0    0    0  501  0.00000000000E+00  0.00000000000E+00  0.22139711482E+04  0.22139711505E+04  0.10100000352E+00 0. -1.
        3   -1    0    0  501    0  0.00000000000E+00  0.00000000000E+00 -0.17695908955E+03  0.17695911837E+03  0.10100000352E+00 0.  1.
    10030    2    1    2    0    0  0.00000000000E+00  0.00000000000E+00  0.20370120587E+04  0.23909302689E+04  0.12518503998E+04 0.  0.
        2    1    3    3  502    0  0.26309211037E+03  0.50445757080E+03  0.52014045654E+03  0.77087028339E+03  0.25500000920E-02 0.  1.
       -2    1    3    3    0  502 -0.26309211037E+03 -0.50445757080E+03  0.15168716021E+04  0.16200599855E+04  0.25500000920E-02 0. -1.
</event>
<event>
 5   0  0.6585930E-03  0.1184761E+04  0.7818609E-02  0.9126301E-01
       -2   -1    0    0    0  501  0.00000000000E+00  0.00000000000E+00  0.35428152917E+03  0.35428152918E+03  0.25500000920E-02 0. -1.
        2   -1    0    0  501    0  0.00000000000E+00  0.00000000000E+00 -0.99049694873E+03  0.99049694874E+03  0.25500000920E-02 0.  1.
    10030    2    1    2    0    0  0.00000000000E+00  0.00000000000E+00 -0.63621541956E+03  0.13447784779E+04  0.11847611973E+04 0.  0.
        2    1    3    3  502    0 -0.16079146839E+03 -0.24147408597E+03 -0.90434450382E+03  0.94973818082E+03  0.25500000920E-02 0.  1.
       -2    1    3    3    0  502  0.16079146839E+03  0.24147408597E+03  0.26812908426E+03  0.39504029710E+03  0.25500000920E-02 0. -1.
</event>
<event>
 5   0  0.3944074E-03  0.1212535E+04  0.7818609E-02  0.9101955E-01
       -1   -1    0    0    0  501  0.00000000000E+00  0.00000000000E+00  0.66702216140E+03  0.66702216142E+03  0.50400001928E-02 0.  1.
        1   -1    0    0  501    0  0.00000000000E+00  0.00000000000E+00 -0.55104618434E+03  0.55104618436E+03  0.50400001928E-02 0. -1.
    10030    2    1    2    0    0  0.00000000000E+00  0.00000000000E+00  0.11597597706E+03  0.12180683458E+04  0.12125345635E+04 0.  0.
        4    1    3    3  502    0  0.29191384394E+03  0.26672158044E+02 -0.47512533694E+03  0.55827483823E+03  0.12699999809E+01 0. -1.
       -4    1    3    3    0  502 -0.29191384394E+03 -0.26672158044E+02  0.59110131400E+03  0.65979350755E+03  0.12699999809E+01 0.  1.
</event>
<event>
 5   0  0.6658994E-03  0.1210044E+04  0.7818609E-02  0.9104111E-01
        2   -1    0    0  501    0  0.00000000000E+00  0.00000000000E+00  0.52089398955E+03  0.52089398955E+03  0.25500000920E-02 0.  1.
       -2   -1    0    0    0  501  0.00000000000E+00  0.00000000000E+00 -0.70273676094E+03  0.70273676094E+03  0.25500000920E-02 0. -1.
    10030    2    1    2    0    0  0.00000000000E+00  0.00000000000E+00 -0.18184277139E+03  0.12236307505E+04  0.12100435612E+04 0.  0.
        4    1    3    3  502    0  0.13156696680E+03 -0.37904234688E+03 -0.54884920489E+03  0.67986765630E+03  0.12699999809E+01 0. -1.
       -4    1    3    3    0  502 -0.13156696680E+03  0.37904234688E+03  0.36700643350E+03  0.54376309420E+03  0.12699999809E+01 0.  1.
</event>
<event>
 5   0  0.3772254E-03  0.1197988E+04  0.7818609E-02  0.9114619E-01
       -1   -1    0    0    0  501  0.00000000000E+00  0.00000000000E+00  0.32142521663E+03  0.32142521667E+03  0.50400001928E-02 0. -1.
        1   -1    0    0  501    0  0.00000000000E+00  0.00000000000E+00 -0.11162591770E+04  0.11162591770E+04  0.50400001928E-02 0.  1.
    10030    2    1    2    0    0  0.00000000000E+00  0.00000000000E+00 -0.79483396035E+03  0.14376843937E+04  0.11979880597E+04 0.  0.
        3    1    3    3  502    0 -0.59461492979E+02  0.47512042380E+03  0.34477241223E+02  0.48006642939E+03  0.10100000352E+00 0. -1.
       -3    1    3    3    0  502  0.59461492979E+02 -0.47512042380E+03 -0.82931120157E+03  0.95761796428E+03  0.10100000352E+00 0.  1.
</event>
<event>
 5   0  0.6640844E-03  0.1031031E+04  0.7818609E-02  0.9275151E-01
        2   -1    0    0  501    0  0.00000000000E+00  0.00000000000E+00  0.13035730864E+04  0.13035730864E+04  0.25500000920E-02 0.  1.
       -2   -1    0    0    0  501  0.00000000000E+00  0.00000000000E+00 -0.20386744514E+03  0.20386744516E+03  0.25500000920E-02 0. -1.
    10030    2    1    2    0    0  0.00000000000E+00  0.00000000000E+00  0.10997056413E+04  0.15074405316E+04  0.10310307749E+04 0.  0.
        5    1    3    3  502    0 -0.26083950288E+03 -0.26085098440E+03  0.10763072126E+04  0.11377784443E+04  0.46999998093E+01 0.  1.
       -5    1    3    3    0  502  0.26083950288E+03  0.26085098440E+03  0.23398428644E+02  0.36966208730E+03  0.46999998093E+01 0. -1.
</event>
<event>
 5   0  0.6640844E-03  0.1136754E+04  0.7818609E-02  0.9170091E-01
       -2   -1    0    0    0  501  0.00000000000E+00  0.00000000000E+00  0.17876288984E+03  0.17876288986E+03  0.25500000920E-02 0.  1.
        2   -1    0    0  501    0  0.00000000000E+00  0.00000000000E+00 -0.18071569753E+04  0.18071569753E+04  0.25500000920E-02 0. -1.
    10030    2    1    2    0    0  0.00000000000E+00  0.00000000000E+00 -0.16283940855E+04  0.19859198652E+04  0.11367543329E+04 0.  0.
        5    1    3    3  502    0  0.17516962588E+03 -0.48881614168E+03 -0.41047205027E+03  0.66191767785E+03  0.46999998093E+01 0.  1.
       -5    1    3    3    0  502 -0.17516962588E+03  0.48881614168E+03 -0.12179220352E+04  0.13240021873E+04  0.46999998093E+01 0. -1.
</event>
<event>
 5   0  0.6349142E-03  0.1168967E+04  0.7818609E-02  0.9140462E-01
       -2   -1    0    0    0  501  0.00000000000E+00  0.00000000000E+00  0.42980254099E+03  0.42980254100E+03  0.25500000920E-02 0.  1.
        2   -1    0    0  501    0  0.00000000000E+00  0.00000000000E+00 -0.79483259698E+03  0.79483259698E+03  0.25500000920E-02 0. -1.
    10030    2    1    2    0    0  0.00000000000E+00  0.00000000000E+00 -0.36503005599E+03  0.12246351380E+04  0.11689671849E+04 0.  0.
        1    1    3    3  502    0  0.22124358580E+03 -0.53999221103E+03 -0.14807459961E+03  0.60205182443E+03  0.50400001928E-02 0.  1.
       -1    1    3    3    0  502 -0.22124358580E+03  0.53999221103E+03 -0.21695545638E+03  0.62258331354E+03  0.50400001928E-02 0. -1.
</event>
<event>
 5   0  0.3648616E-03  0.7328819E+03  0.7818609E-02  0.9662595E-01
        1   -1    0    0  501    0  0.00000000000E+00  0.00000000000E+00  0.38523529207E+03  0.38523529210E+03  0.50400001928E-02 0.  1.
       -1   -1    0    0    0  501  0.00000000000E+00  0.00000000000E+00 -0.34856347485E+03  0.34856347488E+03  0.50400001928E-02 0. -1.
    10030    2    1    2    0    0  0.00000000000E+00  0.00000000000E+00  0.36671817221E+02  0.73379876699E+03  0.73288185150E+03 0.  0.
        2    1    3    3  502    0 -0.12179161564E+01 -0.36509358374E+03 -0.13074407077E+02  0.36532964339E+03  0.25500000920E-02 0. -1.
       -2    1    3    3    0  502  0.12179161564E+01  0.36509358374E+03  0.49746224299E+02  0.36846912360E+03  0.25500000920E-02 0.  1.
</event>
<event>
 5   0  0.3772254E-03  0.1207820E+04  0.7818609E-02  0.9106039E-01
        1   -1    0    0  501    0  0.00000000000E+00  0.00000000000E+00  0.42066782777E+03  0.42066782780E+03  0.50400001928E-02 0. -1.
       -1   -1    0    0    0  501  0.00000000000E+00  0.00000000000E+00 -0.86697283197E+03  0.86697283199E+03  0.50400001928E-02 0.  1.
    10030    2    1    2    0    0  0.00000000000E+00  0.00000000000E+00 -0.44630500420E+03  0.12876406598E+04  0.12078204800E+04 0.  0.
        3    1    3    3  502    0 -0.31880567074E+03  0.16611031061E+03  0.29417712193E+03  0.46451036615E+03  0.10100000352E+00 0. -1.
       -3    1    3    3    0  502  0.31880567074E+03 -0.16611031061E+03 -0.74048212613E+03  0.82313029364E+03  0.10100000352E+00 0.  1.
</event>
<event>
 5   0  0.3701879E-03  0.1235187E+04  0.7818609E-02  0.9082603E-01
       -1   -1    0    0    0  501  0.00000000000E+00  0.00000000000E+00  0.62305838548E+03  0.62305838550E+03  0.50400001928E-02 0.  1.
        1   -1    0    0  501    0  0.00000000000E+00  0.00000000000E+00 -0.61217649315E+03  0.61217649318E+03  0.50400001928E-02 0. -1.
    10030    2    1    2    0    0  0.00000000000E+00  0.00000000000E+00  0.10881892327E+02  0.12352348787E+04  0.12351869453E+04 0.  0.
        1    1    3    3  502    0  0.17708413599E+03 -0.17117863257E+03  0.57182039292E+03  0.62260700065E+03  0.50400001928E-02 0.  1.
       -1    1    3    3    0  502 -0.17708413599E+03  0.17117863257E+03 -0.56093850059E+03  0.61262787803E+03  0.50400001928E-02 0. -1.
</event>
<event>
 5   0  0.6658994E-03  0.1186154E+04  0.7818609E-02  0.9125063E-01
        2   -1    0    0  501    0  0.00000000000E+00  0.00000000000E+00  0.10159075568E+04  0.10159075568E+04  0.25500000920E-02 0.  1.
       -2   -1    0    0    0  501  0.00000000000E+00  0.00000000000E+00 -0.34623244356E+03  0.34623244357E+03  0.25500000920E-02 0. -1.
    10030    2    1    2    0    0  0.00000000000E+00  0.00000000000E+00  0.66967511326E+03  0.13621400004E+04  0.11861537098E+04 0.  0.
        4    1    3    3  502    0  0.22899865009E+03 -0.48798016999E+03  0.50808682399E+02  0.54143158677E+03  0.12699999809E+01 0. -1.
       -4    1    3    3    0  502 -0.22899865009E+03  0.48798016999E+03  0.61886643086E+03  0.82070841362E+03  0.12699999809E+01 0.  1.
</event>
<event>
 5   0  0.3731281E-03  0.1099122E+04  0.7818609E-02  0.9206048E-01
       -1   -1    0    0    0  501  0.00000000000E+00  0.00000000000E+00  0.32072381758E+03  0.32072381762E+03  0.50400001928E-02 0. -1.
        1   -1    0    0  501    0  0.00000000000E+00  0.00000000000E+00 -0.94167462226E+03  0.94167462228E+03  0.50400001928E-02 0.  1.
    10030    2    1    2    0    0  0.00000000000E+00  0.00000000000E+00 -0.62095080468E+03  0.12623984399E+04  0.10991223404E+04 0.  0.
        5    1    3    3  502    0 -0.27552057182E+03 -0.34426516360E+03 -0.68716750314E+03  0.81648720488E+03  0.46999998093E+01 0.  1.
       -5    1    3    3    0  502  0.27552057182E+03  0.34426516360E+03  0.66216698461E+02  0.44591123502E+03  0.46999998093E+01 0. -1.
</event>
<event>
 5   0  0.3944074E-03  0.9267781E+03  0.7818609E-02  0.9392713E-01
       -1   -1    0    0    0  501  0.00000000000E+00  0.00000000000E+00  0.32344687825E+03  0.32344687829E+03  0.50400001928E-02 0.  1.
        1   -1    0    0  501    0  0.00000000000E+00  0.00000000000E+00 -0.66387840089E+03  0.66387840091E+03  0.50400001928E-02 0. -1.
    10030    2    1    2    0    0  0.00000000000E+00  0.00000000000E+00 -0.34043152264E+03  0.98732527920E+03  0.92677806693E+03 0.  0.
        4    1    3    3  502    0  0.26812095564E+03 -0.25477486793E+02  0.23149991844E+03  0.35515035453E+03  0.12699999809E+01 0.  1.
       -4    1    3    3    0  502 -0.26812095564E+03  0.25477486793E+02 -0.57193144107E+03  0.63217492467E+03  0.12699999809E+01 0. -1.
</event>
<event>
 5   0  0.3648616E-03  0.1215792E+04  0.7818609E-02  0.9099145E-01
       -1   -1    0    0    0  501  0.00000000000E+00  0.00000000000E+00  0.80639717122E+03  0.80639717124E+03  0.50400001928E-02 0. -1.
        1   -1    0    0  501    0  0.00000000000E+00  0.00000000000E+00 -0.45825720059E+03  0.45825720062E+03  0.50400001928E-02 0.  1.
    10030    2    1    2    0    0  0.00000000000E+00  0.00000000000E+00  0.34813997063E+03  0.12646543719E+04  0.12157916109E+04 0.  0.
        2    1    3    3  502    0 -0.42393250396E+03  0.43558053025E+03  0.18383581552E+03  0.63501556935E+03  0.25500000920E-02 0. -1.
       -2    1    3    3    0  502  0.42393250396E+03 -0.43558053025E+03  0.16430415511E+03  0.62963880251E+03  0.25500000920E-02 0.  1.
</event>
<event>
 5   0  0.6493047E-03  0.1214917E+04  0.7818609E-02  0.9099899E-01
       -2   -1    0    0    0  501  0.00000000000E+00  0.00000000000E+00  0.98028596206E+03  0.98028596206E+03  0.25500000920E-02 0.  1.
        2   -1    0    0  501    0  0.00000000000E+00  0.00000000000E+00 -0.37642644123E+03  0.37642644124E+03  0.25500000920E-02 0. -1.
    10030    2    1    2    0    0  0.00000000000E+00  0.00000000000E+00  0.60385952083E+03  0.13567124033E+04  0.12149165504E+04 0.  0.
        3    1    3    3  502    0  0.57421469528E+03  0.16128089099E+03  0.17328224138E+03  0.62109643974E+03  0.10100000352E+00 0.  1.
       -3    1    3    3    0  502 -0.57421469528E+03 -0.16128089099E+03  0.43057727945E+03  0.73561596357E+03  0.10100000352E+00 0. -1.
</event>
<event>
 5   0  0.6658994E-03  0.1285892E+04  0.7818609E-02  0.9040828E-01
       -2   -1    0    0    0  501  0.00000000000E+00  0.00000000000E+00  0.22668164433E+03  0.22668164435E+03  0.25500000920E-02 0.  1.
        2   -1    0    0  501    0  0.00000000000E+00  0.00000000000E+00 -0.18236140694E+04  0.18236140694E+04  0.25500000920E-02 0. -1.
    10030    2    1    2    0    0  0.00000000000E+00  0.00000000000E+00 -0.15969324250E+04  0.20502957137E+04  0.12858924308E+04 0.  0.
        4    1    3    3  502    0  0.16339719561E+03  0.49720366368E+03 -0.20301072722E+03  0.56136004041E+03  0.12699999809E+01 0. -1.
       -4    1    3    3    0  502 -0.16339719561E+03 -0.49720366368E+03 -0.13939216978E+04  0.14889356733E+04  0.12699999809E+01 0.  1.
</event>
<event>
 5   0  0.6349142E-03  0.1221779E+04  0.7818609E-02  0.9094004E-01
        2   -1    0    0  501    0  0.00000000000E+00  0.00000000000E+00  0.62267092299E+03  0.62267092300E+03  0.25500000920E-02 0.  1.
       -2   -1    0    0    0  501  0.00000000000E+00  0.00000000000E+00 -0.59933134834E+03  0.59933134835E+03  0.25500000920E-02 0. -1.
    10030    2    1    2    0    0  0.00000000000E+00  0.00000000000E+00  0.23339574647E+02  0.12220022713E+04  0.12217793645E+04 0.  0.
        1    1    3    3  502    0 -0.24476740753E+03 -0.26950248681E+03 -0.47897402015E+03  0.60163010745E+03  0.50400001928E-02 0. -1.
       -1    1    3    3    0  502  0.24476740753E+03  0.26950248681E+03  0.50231359480E+03  0.62037216389E+03  0.50400001928E-02 0.  1.
</event>
<event>
 5   0  0.6493047E-03  0.1203012E+04  0.7818609E-02  0.9110225E-01
        2   -1    0    0  501    0  0.00000000000E+00  0.00000000000E+00  0.10613363981E+04  0.10613363981E+04  0.25500000920E-02 0.  1.
       -2   -1    0    0    0  501  0.00000000000E+00  0.00000000000E+00 -0.34089968364E+03  0.34089968365E+03  0.25500000920E-02 0. -1.
    10030    2    1    2    0    0  0.00000000000E+00  0.00000000000E+00  0.72043671443E+03  0.14022360817E+04  0.12030116248E+04 0.  0.
        3    1    3    3  502    0 -0.14511701803E+03 -0.98804938103E+02  0.10308087873E+04  0.10456520123E+04  0.10100000352E+00 0.  1.
       -3    1    3    3    0  502  0.14511701803E+03  0.98804938103E+02 -0.31037207288E+03  0.35658406939E+03  0.10100000352E+00 0. -1.
</event>
<event>
 5   0  0.3731281E-03  0.1343281E+04  0.7818609E-02  0.8995930E-01
        1   -1    0    0  501    0  0.00000000000E+00  0.00000000000E+00  0.92848555233E+03  0.92848555234E+03  0.50400001928E-02 0.  1.
       -1   -1    0    0    0  501  0.00000000000E+00  0.00000000000E+00 -0.48584576101E+03  0.48584576104E+03  0.50400001928E-02 0. -1.
    10030    2    1    2    0    0  0.00000000000E+00  0.00000000000E+00  0.44263979132E+03  0.14143313134E+04  0.13432807149E+04 0.  0.
        5    1    3    3  502    0  0.55419744743E+03 -0.37045262803E+03  0.30755899098E+03  0.73415569417E+03  0.46999998093E+01 0. -1.
       -5    1    3    3    0  502 -0.55419744743E+03  0.37045262803E+03  0.13508080034E+03  0.68017561921E+03  0.46999998093E+01 0.  1.
</event>
<event>
 5   0  0.3944074E-03  0.1233092E+04  0.7818609E-02  0.9084375E-01
       -1   -1    0    0    0  501  0.00000000000E+00  0.00000000000E+00  0.21101363791E+03  0.21101363797E+03  0.50400001928E-02 0. -1.
        1   -1    0    0  501    0  0.00000000000E+00  0.00000000000E+00 -0.18014417665E+04  0.18014417665E+04  0.50400001928E-02 0.  1.
    10030    2    1    2    0    0  0.00000000000E+00  0.00000000000E+00 -0.15904281286E+04  0.20124554045E+04  0.12330916928E+04 0.  0.
        4    1    3    3  502    0  0.37900493157E+02  0.24584289536E+03  0.12548236347E+03  0.27860835060E+03  0.12699999809E+01 0. -1.
       -4    1    3    3    0  502 -0.37900493157E+02 -0.24584289536E+03 -0.17159104921E+04  0.17338470539E+04  0.12699999809E+01 0.  1.
</event>
<event>
 5   0  0.3731281E-03  0.1167294E+04  0.7818609E-02  0.9141976E-01
        1   -1    0    0  501    0  0.00000000000E+00  0.00000000000E+00  0.11630329434E+04  0.11630329434E+04  0.50400001928E-02 0.  1.
       -1   -1    0    0    0  501  0.00000000000E+00  0.00000000000E+00 -0.29289257978E+03  0.29289257982E+03  0.50400001928E-02 0. -1.
    10030    2    1    2    0    0  0.00000000000E+00  0.00000000000E+00  0.87014036359E+03  0.14559255232E+04  0.11672938262E+04 0.  0.
        5    1    3    3  502    0 -0.38251735864E+03  0.29331440744E+03  0.24667161519E+02  0.48268357143E+03  0.46999998093E+01 0. -1.
       -5    1    3    3    0  502  0.38251735864E+03 -0.29331440744E+03  0.84547320208E+03  0.97324195178E+03  0.46999998093E+01 0.  1.
</event>
<event>
 5   0  0.3701879E-03  0.1188298E+04  0.7818609E-02  0.9123161E-01
        1   -1    0    0  501    0  0.00000000000E+00  0.00000000000E+00  0.29006231246E+03  0.29006231251E+03  0.50400001928E-02 0.  1.
       -1   -1    0    0    0  501  0.00000000000E+00  0.00000000000E+00 -0.12170255438E+04  0.12170255438E+04  0.50400001928E-02 0. -1.
    10030    2    1    2    0    0  0.00000000000E+00  0.00000000000E+00 -0.92696323133E+03  0.15070878563E+04  0.11882983524E+04 0.  0.
        1    1    3    3  502    0  0.34781736687E+03 -0.21389277211E+03 -0.10108798889E+04  0.10902317132E+04  0.50400001928E-02 0. -1.
       -1    1    3    3    0  502 -0.34781736687E+03  0.21389277211E+03  0.83916657523E+02  0.41685614316E+03  0.50400001928E-02 0.  1.
</event>
<event>
 5   0  0.6658994E-03  0.1157281E+04  0.7818609E-02  0.9151092E-01
        2   -1    0    0  501    0  0.00000000000E+00  0.00000000000E+00  0.11498819960E+04  0.11498819960E+04  0.25500000920E-02 0.  1.
       -2   -1    0    0    0  501  0.00000000000E+00  0.00000000000E+00 -0.29118210276E+03  0.29118210277E+03  0.25500000920E-02 0. -1.
    10030    2    1    2    0    0  0.00000000000E+00  0.00000000000E+00  0.85869989328E+03  0.14410640988E+04  0.11572813963E+04 0.  0.
        4    1    3    3  502    0 -0.41270895823E+03  0.12468251982E+03 -0.51227257195E+02  0.43416616604E+03  0.12699999809E+01 0. -1.
       -4    1    3    3    0  502  0.41270895823E+03 -0.12468251982E+03  0.90992715047E+03  0.10068979328E+04  0.12699999809E+01 0.  1.
</event>
<event>
 5   0  0.6349142E-03  0.8963732E+03  0.7818609E-02  0.9430126E-01
        2   -1    0    0  501    0  0.00000000000E+00  0.00000000000E+00  0.46802254307E+03  0.46802254308E+03  0.25500000920E-02 0. -1.
       -2   -1    0    0    0  501  0.00000000000E+00  0.00000000000E+00 -0.42919136371E+03  0.42919136372E+03  0.25500000920E-02 0.  1.
    10030    2    1    2    0    0  0.00000000000E+00  0.00000000000E+00  0.38831179358E+02  0.89721390680E+03  0.89637321137E+03 0.  0.
        1    1    3    3  502    0  0.12126987836E+03  0.26016336671E+01 -0.41244947637E+03  0.42991594815E+03  0.50400001928E-02 0.  1.
       -1    1    3    3    0  502 -0.12126987836E+03 -0.26016336671E+01  0.45128065573E+03  0.46729795865E+03  0.50400001928E-02 0. -1.
</event>
<event>
 5   0  0.6585930E-03  0.1235084E+04  0.7818609E-02  0.9082690E-01
       -2   -1    0    0    0  501  0.00000000000E+00  0.00000000000E+00  0.25605749664E+03  0.25605749666E+03  0.25500000920E-02 0. -1.
        2   -1    0    0  501    0  0.00000000000E+00  0.00000000000E+00 -0.14893450698E+04  0.14893450698E+04  0.25500000920E-02 0.  1.
    10030    2    1    2    0    0  0.00000000000E+00  0.00000000000E+00 -0.12332875732E+04  0.17454025665E+04  0.12350837546E+04 0.  0.
        2    1    3    3  502    0 -0.47614307634E+03  0.37943646474E+03 -0.47064242483E+03  0.76953788210E+03  0.25500000920E-02 0.  1.
       -2    1    3    3    0  502  0.47614307634E+03 -0.37943646474E+03 -0.76264514834E+03  0.97586468438E+03  0.25500000920E-02 0. -1.
</event>
<event>
 5   0  0.3772254E-03  0.1149625E+04  0.7818609E-02  0.9158130E-01
       -1   -1    0    0    0  501  0.00000000000E+00  0.00000000000E+00  0.12366436511E+04  0.12366436511E+04  0.50400001928E-02 0.  1.
        1   -1    0    0  501    0  0.00000000000E+00  0.00000000000E+00 -0.26718238500E+03  0.26718238505E+03  0.50400001928E-02 0. -1.
    10030    2    1    2    0    0  0.00000000000E+00  0.00000000000E+00  0.96946126607E+03  0.15038260361E+04  0.11496249826E+04 0.  0.
        3    1    3    3  502    0  0.28383527045E+02 -0.49284835581E+03  0.99552491433E+02  0.50360285463E+03  0.10100000352E+00 0. -1.
       -3    1    3    3    0  502 -0.28383527045E+02  0.49284835581E+03  0.86990877463E+03  0.10002231815E+04  0.10100000352E+00 0.  1.
</event>
<event>
 5   0  0.6493047E-03  0.1238311E+04  0.7818609E-02  0.9079968E-01
        2   -1    0    0  501    0  0.00000000000E+00  0.00000000000E+00  0.10150544839E+04  0.10150544839E+04  0.25500000920E-02 0. -1.
       -2   -1    0    0    0  501  0.00000000000E+00  0.00000000000E+00 -0.37766794313E+03  0.37766794314E+03  0.25500000920E-02 0.  1.
    10030    2    1    2    0    0  0.00000000000E+00  0.00000000000E+00  0.63738654081E+03  0.13927224271E+04  0.12383110096E+04 0.  0.
        3    1    3    3  502    0  0.52066545763E+03 -0.31378838475E+03  0.45080479303E+03  0.75682272746E+03  0.10100000352E+00 0. -1.
       -3    1    3    3    0  502 -0.52066545763E+03  0.31378838475E+03  0.18658174778E+03  0.63589969963E+03  0.10100000352E+00 0.  1.
</event>
<event>
 5   0  0.6640844E-03  0.6731146E+03  0.7818609E-02  0.9764348E-01
        2   -1    0    0  501    0  0.00000000000E+00  0.00000000000E+00  0.11320386035E+04  0.11320386035E+04  0.25500000920E-02 0. -1.
       -2   -1    0    0    0  501  0.00000000000E+00  0.00000000000E+00 -0.10005914544E+03  0.10005914547E+03  0.25500000920E-02 0.  1.
    10030    2    1    2    0    0  0.00000000000E+00  0.00000000000E+00  0.10319794581E+04  0.12320977490E+04  0.67311459735E+03 0.  0.
        5    1    3    3  502    0 -0.10191458301E+03 -0.10541631845E+03  0.10704342675E+04  0.10804400925E+04  0.46999998093E+01 0. -1.
       -5    1    3    3    0  502  0.10191458301E+03  0.10541631845E+03 -0.38454809373E+02  0.15165765654E+03  0.46999998093E+01 0.  1.
</event>
<event>
 5   0  0.6349142E-03  0.1221724E+04  0.7818609E-02  0.9094052E-01
        2   -1    0    0  501    0  0.00000000000E+00  0.00000000000E+00  0.13588088985E+04  0.13588088985E+04  0.25500000920E-02 0. -1.
       -2   -1    0    0    0  501  0.00000000000E+00  0.00000000000E+00 -0.27461708204E+03  0.27461708206E+03  0.25500000920E-02 0.  1.
    10030    2    1    2    0    0  0.00000000000E+00  0.00000000000E+00  0.10841918165E+04  0.16334259806E+04  0.12217235936E+04 0.  0.
        1    1    3    3  502    0  0.19074426200E+03 -0.48626828390E+03  0.96554651923E+03  0.10977797130E+04  0.50400001928E-02 0.  1.
       -1    1    3    3    0  502 -0.19074426200E+03  0.48626828390E+03  0.11864529726E+03  0.53564626761E+03  0.50400001928E-02 0. -1.
</event>
<event>
 5   0  0.3772254E-03  0.1217886E+04  0.7818609E-02  0.9097344E-01
        1   -1    0    0  501    0  0.00000000000E+00  0.00000000000E+00  0.85254121222E+03  0.85254121223E+03  0.50400001928E-02 0. -1.
       -1   -1    0    0    0  501  0.00000000000E+00  0.00000000000E+00 -0.43494831671E+03  0.43494831674E+03  0.50400001928E-02 0.  1.
    10030    2    1    2    0    0  0.00000000000E+00  0.00000000000E+00  0.41759289551E+03  0.12874895290E+04  0.12178856518E+04 0.  0.
        3    1    3    3  502    0  0.22063896666E+03 -0.33701928328E+03 -0.27397324959E+03  0.48716003798E+03  0.10100000352E+00 0.  1.
       -3    1    3    3    0  502 -0.22063896666E+03  0.33701928328E+03  0.69156614510E+03  0.80032949100E+03  0.10100000352E+00 0. -1.
</event>
<event>
 5   0  0.3944074E-03  0.1196268E+04  0.7818609E-02  0.9116130E-01
       -1   -1    0    0    0  501  0.00000000000E+00  0.00000000000E+00  0.19092548572E+03  0.19092548578E+03  0.50400001928E-02 0.  1.
        1   -1    0    0  501    0  0.00000000000E+00  0.00000000000E+00 -0.18738413131E+04  0.18738413131E+04  0.50400001928E-02 0. -1.
    10030    2    1    2    0    0  0.00000000000E+00  0.00000000000E+00 -0.16829158273E+04  0.20647667989E+04  0.11962676338E+04 0.  0.
        4    1    3    3  502    0 -0.19654097656E+03 -0.46563757013E+03 -0.28936280812E+03  0.58239089090E+03  0.12699999809E+01 0.  1.
       -4    1    3    3    0  502  0.19654097656E+03  0.46563757013E+03 -0.13935530192E+04  0.14823759080E+04  0.12699999809E+01 0. -1.
</event>
<event>
 5   0  0.3772254E-03  0.1211732E+04  0.7818609E-02  0.9102649E-01
        1   -1    0    0  501    0  0.00000000000E+00  0.00000000000E+00  0.10807778768E+04  0.10807778768E+04  0.50400001928E-02 0. -1.
       -1   -1    0    0    0  501  0.00000000000E+00  0.00000000000E+00 -0.33963852297E+03  0.33963852301E+03  0.50400001928E-02 0.  1.
    10030    2    1    2    0    0  0.00000000000E+00  0.00000000000E+00  0.74113935386E+03  0.14204163998E+04  0.12117323166E+04 0.  0.
        3    1    3    3  502    0 -0.23704360985E+03  0.55269221755E+03  0.28430648751E+03  0.66519812789E+03  0.10100000352E+00 0.  1.
       -3    1    3    3    0  502  0.23704360985E+03 -0.55269221755E+03  0.45683286635E+03  0.75521827195E+03  0.10100000352E+00 0. -1.
</event>
<event>
 5   0  0.6658994E-03  0.1262134E+04  0.7818609E-02  0.9060144E-01
        2   -1    0    0  501    0  0.00000000000E+00  0.00000000000E+00  0.65745389730E+03  0.65745389730E+03  0.25500000920E-02 0.  1.
       -2   -1    0    0    0  501  0.00000000000E+00  0.00000000000E+00 -0.60573899462E+03  0.60573899462E+03  0.25500000920E-02 0. -1.
    10030    2    1    2    0    0  0.00000000000E+00  0.00000000000E+00  0.51714902679E+02  0.12631928919E+04  0.12621338483E+04 0.  0.
        4    1    3    3  502    0 -0.12924594012E+03  0.61388676620E+03  0.94342750974E+02  0.63440022251E+03  0.12699999809E+01 0.  1.
       -4    1    3    3    0  502  0.12924594012E+03 -0.61388676620E+03 -0.42627848296E+02  0.62879266941E+03  0.12699999809E+01 0. -1.
</event>
<event>
 5   0  0.6640844E-03  0.1183786E+04  0.7818609E-02  0.9127168E-01
       -2   -1    0    0    0  501  0.00000000000E+00  0.00000000000E+00  0.23551412228E+03  0.23551412229E+03  0.25500000920E-02 0. -1.
        2   -1    0    0  501    0  0.00000000000E+00  0.00000000000E+00 -0.14875435609E+04  0.14875435609E+04  0.25500000920E-02 0.  1.
    10030    2    1    2    0    0  0.00000000000E+00  0.00000000000E+00 -0.12520294387E+04  0.17230576832E+04  0.11837863255E+04 0.  0.
        5    1    3    3  502    0 -0.51242583880E+03  0.24172724620E+01 -0.19489396016E+03  0.54826255497E+03  0.46999998093E+01 0.  1.
       -5    1    3    3    0  502  0.51242583880E+03 -0.24172724620E+01 -0.10571354785E+04  0.11747951283E+04  0.46999998093E+01 0. -1.
</event>
<event>
 5   0  0.6585930E-03  0.1206532E+04  0.7818609E-02  0.9107158E-01
        2   -1    0    0  501    0  0.00000000000E+00  0.00000000000E+00  0.86121196378E+03  0.86121196378E+03  0.25500000920E-02 0. -1.
       -2   -1    0    0    0  501  0.00000000000E+00  0.00000000000E+00 -0.42257891928E+03  0.42257891929E+03  0.25500000920E-02 0.  1.
    10030    2    1    2    0    0  0.00000000000E+00  0.00000000000E+00  0.43863304449E+03  0.12837908831E+04  0.12065322556E+04 0.  0.
        2    1    3    3  502    0 -0.51164569254E+03  0.31532931531E+03  0.27477022591E+03  0.66084231769E+03  0.25500000920E-02 0. -1.
       -2    1    3    3    0  502  0.51164569254E+03 -0.31532931531E+03  0.16386281859E+03  0.62294856538E+03  0.25500000920E-02 0.  1.
</event>
<event>
 5   0  0.6493047E-03  0.1199919E+04  0.7818609E-02  0.9112927E-01
        2   -1    0    0  501    0  0.00000000000E+00  0.00000000000E+00  0.10260711114E+04  0.10260711114E+04  0.25500000920E-02 0. -1.
       -2   -1    0    0    0  501  0.00000000000E+00  0.00000000000E+00 -0.35080556533E+03  0.35080556534E+03  0.25500000920E-02 0.  1.
    10030    2    1    2    0    0  0.00000000000E+00  0.00000000000E+00  0.67526554605E+03  0.13768766767E+04  0.11999190911E+04 0.  0.
        3    1    3    3  502    0  0.37867017352E+03  0.45585450870E+03  0.44501219699E+03  0.74110073477E+03  0.10100000352E+00 0. -1.
       -3    1    3    3    0  502 -0.37867017352E+03 -0.45585450870E+03  0.23025334906E+03  0.63577594196E+03  0.10100000352E+00 0.  1.
</event>
<event>
 5   0  0.6585930E-03  0.1202223E+04  0.7818609E-02  0.9110913E-01
       -2   -1    0    0    0  501  0.00000000000E+00  0.00000000000E+00  0.29226273187E+03  0.29226273188E+03  0.25500000920E-02 0.  1.
        2   -1    0    0  501    0  0.00000000000E+00  0.00000000000E+00 -0.12363356048E+04  0.12363356048E+04  0.25500000920E-02 0. -1.
    10030    2    1    2    0    0  0.00000000000E+00  0.00000000000E+00 -0.94407287293E+03  0.15285983367E+04  0.12022226439E+04 0.  0.
        2    1    3    3  502    0  0.64293875157E+02  0.10252709396E+03 -0.12206862260E+04  0.12266704405E+04  0.25500000920E-02 0. -1.
       -2    1    3    3    0  502 -0.64293875157E+02 -0.10252709396E+03  0.27661335306E+03  0.30192789615E+03  0.25500000920E-02 0.  1.
</event>
<event>
 5   0  0.6493047E-03  0.1196168E+04  0.7818609E-02  0.9116217E-01
        2   -1    0    0  501    0  0.00000000000E+00  0.00000000000E+00  0.12876544744E+04  0.12876544744E+04  0.25500000920E-02 0.  1.
       -2   -1    0    0    0  501  0.00000000000E+00  0.00000000000E+00 -0.27779537285E+03  0.27779537286E+03  0.25500000920E-02 0. -1.
    10030    2    1    2    0    0  0.00000000000E+00  0.00000000000E+00  0.10098591015E+04  0.15654498472E+04  0.11961679729E+04 0.  0.
        3    1    3    3  502    0  0.10069609587E+03 -0.28738127835E+02 -0.26570459398E+03  0.28559503703E+03  0.10100000352E+00 0. -1.
       -3    1    3    3    0  502 -0.10069609587E+03  0.28738127835E+02  0.12755636955E+04  0.12798548102E+04  0.10100000352E+00 0.  1.
</event>
<event>
 5   0  0.6493047E-03  0.1235854E+04  0.7818609E-02  0.9082039E-01
       -2   -1    0    0    0  501  0.00000000000E+00  0.00000000000E+00  0.69436969228E+03  0.69436969228E+03  0.25500000920E-02 0.  1.
        2   -1    0    0  501    0  0.00000000000E+00  0.00000000000E+00 -0.54990021067E+03  0.54990021068E+03  0.25500000920E-02 0. -1.
    10030    2    1    2    0    0  0.00000000000E+00  0.00000000000E+00  0.14446948160E+03  0.12442699030E+04  0.12358544252E+04 0.  0.
        3    1    3    3  502    0 -0.58101387592E+03 -0.19991166315E+03  0.62734852057E+01  0.61447633306E+03  0.10100000352E+00 0. -1.
       -3    1    3    3    0  502  0.58101387592E+03  0.19991166315E+03  0.13819599639E+03  0.62979356990E+03  0.10100000352E+00 0.  1.
</event>
<event>
 5   0  0.6658994E-03  0.9945441E+03  0.7818609E-02  0.9314549E-01
       -2   -1    0    0    0  501  0.00000000000E+00  0.00000000000E+00  0.24404424457E+03  0.24404424458E+03  0.25500000920E-02 0. -1.
        2   -1    0    0  501    0  0.00000000000E+00  0.00000000000E+00 -0.10132568464E+04  0.10132568464E+04  0.25500000920E-02 0.  1.
    10030    2    1    2    0    0  0.00000000000E+00  0.00000000000E+00 -0.76921260178E+03  0.12573010909E+04  0.99454411995E+03 0.  0.
        4    1    3    3  502    0 -0.10409421228E+03  0.23950584775E+03 -0.91958667567E+03  0.95594974926E+03  0.12699999809E+01 0.  1.
       -4    1    3    3    0  502  0.10409421228E+03 -0.23950584775E+03  0.15037407388E+03  0.30135134168E+03  0.12699999809E+01 0. -1.
</event>
<event>
 5   0  0.3772254E-03  0.1225684E+04  0.7818609E-02  0.9090668E-01
        1   -1    0    0  501    0  0.00000000000E+00  0.00000000000E+00  0.56794816315E+03  0.56794816318E+03  0.50400001928E-02 0. -1.
       -1   -1    0    0    0  501  0.00000000000E+00  0.00000000000E+00 -0.66128465808E+03  0.66128465810E+03  0.50400001928E-02 0.  1.
    10030    2    1    2    0    0  0.00000000000E+00  0.00000000000E+00 -0.93336494929E+02  0.12292328213E+04  0.12256841468E+04 0.  0.
        3    1    3    3  502    0  0.15134410960E+03  0.19407615129E+03 -0.60954610897E+03  0.65735611443E+03  0.10100000352E+00 0.  1.
       -3    1    3    3    0  502 -0.15134410960E+03 -0.19407615129E+03  0.51620961404E+03  0.57187670685E+03  0.10100000352E+00 0. -1.
</event>
<event>
 5   0  0.3648616E-03  0.1187579E+04  0.7818609E-02  0.9123799E-01
       -1   -1    0    0    0  501  0.00000000000E+00  0.00000000000E+00  0.30945312151E+03  0.30945312155E+03  0.50400001928E-02 0. -1.
        1   -1    0    0  501    0  0.00000000000E+00  0.00000000000E+00 -0.11393834025E+04  0.11393834025E+04  0.50400001928E-02 0.  1.
    10030    2    1    2    0    0  0.00000000000E+00  0.00000000000E+00 -0.82993028102E+03  0.14488365241E+04  0.11875786299E+04 0.  0.
        2    1    3    3  502    0  0.29417233722E+03 -0.47422930581E+03 -0.66246107065E+03  0.86619020348E+03  0.25500000920E-02 0.  1.
       -2    1    3    3    0  502 -0.29417233722E+03  0.47422930581E+03 -0.16746921037E+03  0.58264632060E+03  0.25500000920E-02 0. -1.
</event>
<event>
 5   0  0.3648616E-03  0.1172593E+04  0.7818609E-02  0.9137190E-01
        1   -1    0    0  501    0  0.00000000000E+00  0.00000000000E+00  0.56141544819E+03  0.56141544821E+03  0.50400001928E-02 0. -1.
       -1   -1    0    0    0  501  0.00000000000E+00  0.00000000000E+00 -0.61228014329E+03  0.61228014331E+03  0.50400001928E-02 0.  1.
    10030    2    1    2    0    0  0.00000000000E+00  0.00000000000E+00 -0.50864695098E+02  0.11736955915E+04  0.11725929065E+04 0.  0.
        2    1    3    3  502    0 -0.57681122104E+03 -0.90886201611E+02 -0.78132069852E+02  0.58913165482E+03  0.25500000920E-02 0.  1.
       -2    1    3    3    0  502  0.57681122104E+03  0.90886201611E+02  0.27267374754E+02  0.58456393670E+03  0.25500000920E-02 0. -1.
</event>
<event>
 5   0  0.3772254E-03  0.1200848E+04  0.7818609E-02  0.9112114E-01
       -1   -1    0    0    0  501  0.00000000000E+00  0.00000000000E+00  0.22774348583E+03  0.22774348589E+03  0.50400001928E-02 0.  1.
        1   -1    0    0  501    0  0.00000000000E+00  0.00000000000E+00 -0.15829617674E+04  0.15829617674E+04  0.50400001928E-02 0. -1.
    10030    2    1    2    0    0  0.00000000000E+00  0.00000000000E+00 -0.13552182815E+04  0.18107052533E+04  0.12008484182E+04 0.  0.
        3    1    3    3  502    0  0.40859600740E+03  0.23714430583E+01 -0.14233664797E+02  0.40885074100E+03  0.10100000352E+00 0.  1.
       -3    1    3    3    0  502 -0.40859600740E+03 -0.23714430583E+01 -0.13409846167E+04  0.14018545123E+04  0.10100000352E+00 0. -1.
</event>
<event>
 5   0  0.6349142E-03  0.1241583E+04  0.7818609E-02  0.9077218E-01
       -2   -1    0    0    0  501  0.00000000000E+00  0.00000000000E+00  0.46491476795E+03  0.46491476796E+03  0.25500000920E-02 0. -1.
        2   -1    0    0  501    0  0.00000000000E+00  0.00000000000E+00 -0.82893038352E+03  0.82893038352E+03  0.25500000920E-02 0.  1.
    10030    2    1    2    0    0  0.00000000000E+00  0.00000000000E+00 -0.36401561557E+03  0.12938451515E+04  0.12415828235E+04 0.  0.
        1    1    3    3  502    0  0.50381562770E+03 -0.25107080260E+03 -0.45478007014E+03  0.72366542466E+03  0.50400001928E-02 0.  1.
       -1    1    3    3    0  502 -0.50381562770E+03  0.25107080260E+03  0.90764454568E+02  0.57017972682E+03  0.50400001928E-02 0. -1.
</event>
<event>
 5   0  0.3772254E-03  0.1218793E+04  0.7818609E-02  0.9096564E-01
       -1   -1    0    0    0  501  0.00000000000E+00  0.00000000000E+00  0.32889895709E+03  0.32889895713E+03  0.50400001928E-02 0.  1.
        1   -1    0    0  501    0  0.00000000000E+00  0.00000000000E+00 -0.11291134695E+04  0.11291134695E+04  0.50400001928E-02 0. -1.
    10030    2    1    2    0    0  0.00000000000E+00  0.00000000000E+00 -0.80021451240E+03  0.14580124266E+04  0.12187932435E+04 0.  0.
        3    1    3    3  502    0 -0.42913879152E+03  0.36468200016E+03 -0.12157495147E+03  0.57613673955E+03  0.10100000352E+00 0.  1.
       -3    1    3    3    0  502  0.42913879152E+03 -0.36468200016E+03 -0.67863956092E+03  0.88187568709E+03  0.10100000352E+00 0. -1.
</event>
<event>
 5   0  0.6493047E-03  0.1089999E+04  0.7818609E-02  0.9214995E-01
        2   -1    0    0  501    0  0.00000000000E+00  0.00000000000E+00  0.12492864063E+04  0.12492864063E+04  0.25500000920E-02 0.  1.
       -2   -1    0    0    0  501  0.00000000000E+00  0.00000000000E+00 -0.23775520199E+03  0.23775520201E+03  0.25500000920E-02 0. -1.
    10030    2    1    2    0    0  0.00000000000E+00  0.00000000000E+00  0.10115312043E+04  0.14870416083E+04  0.10899987925E+04 0.  0.
        3    1    3    3  502    0 -0.45573516446E+03 -0.29885334295E+03  0.51130237664E+03  0.74728708758E+03  0.10100000352E+00 0. -1.
       -3    1    3    3    0  502  0.45573516446E+03  0.29885334295E+03  0.50022882769E+03  0.73975452075E+03  0.10100000352E+00 0.  1.
</event>
<event>
 5   0  0.3701879E-03  0.1193925E+04  0.7818609E-02  0.9118191E-01
        1   -1    0    0  501    0  0.00000000000E+00  0.00000000000E+00  0.83453144412E+03  0.83453144413E+03  0.50400001928E-02 0.  1.
       -1   -1    0    0    0  501  0.00000000000E+00  0.00000000000E+00 -0.42702289539E+03  0.42702289542E+03  0.50400001928E-02 0. -1.
    10030    2    1    2    0    0  0.00000000000E+00  0.00000000000E+00  0.40750854872E+03  0.12615543396E+04  0.11939246770E+04 0.  0.
        1    1    3    3  502    0  0.54134901391E+03  0.17780124094E+03  0.39186079012E+03  0.69153952526E+03  0.50400001928E-02 0.  1.
       -1    1    3    3    0  502 -0.54134901391E+03 -0.17780124094E+03  0.15647758608E+02  0.57001481429E+03  0.50400001928E-02 0. -1.
</event>
<event>
 5   0  0.6658994E-03  0.1173772E+04  0.7818609E-02  0.9136129E-01
       -2   -1    0    0    0  501  0.00000000000E+00  0.00000000000E+00  0.28417065037E+03  0.28417065039E+03  0.25500000920E-02 0. -1.
        2   -1    0    0  501    0  0.00000000000E+00  0.00000000000E+00 -0.12120711018E+04  0.12120711018E+04  0.25500000920E-02 0.  1.
    10030    2    1    2    0    0  0.00000000000E+00  0.00000000000E+00 -0.92790045141E+03  0.14962417522E+04  0.11737717552E+04 0.  0.
        4    1    3    3  502    0 -0.11458419736E+03  0.58274803763E+02 -0.11939018412E+04  0.12008033604E+04  0.12699999809E+01 0.  1.
       -4    1    3    3    0  502  0.11458419736E+03 -0.58274803763E+02  0.26600138981E+03  0.29543839175E+03  0.12699999809E+01 0. -1.
</event>
<event>
 5   0  0.6658994E-03  0.1312040E+04  0.7818609E-02  0.9020072E-01
        2   -1    0    0  501    0  0.00000000000E+00  0.00000000000E+00  0.23435551211E+03  0.23435551213E+03  0.25500000920E-02 0. -1.
       -2   -1    0    0    0  501  0.00000000000E+00  0.00000000000E+00 -0.18363639253E+04  0.18363639253E+04  0.25500000920E-02 0.  1.
    10030    2    1    2    0    0  0.00000000000E+00  0.00000000000E+00 -0.16020084131E+04  0.20707194374E+04  0.13120396460E+04 0.  0.
        4    1    3    3  502    0  0.44031236286E+03 -0.30366807675E+03 -0.20153897467E+03  0.57158450726E+03  0.12699999809E+01 0. -1.
       -4    1    3    3    0  502 -0.44031236286E+03  0.30366807675E+03 -0.14004694385E+04  0.14991349301E+04  0.12699999809E+01 0.  1.
</event>
<event>
 5   0  0.3731281E-03  0.1197499E+04  0.7818609E-02  0.9115049E-01
        1   -1    0    0  501    0  0.00000000000E+00  0.00000000000E+00  0.44969734128E+03  0.44969734131E+03  0.50400001928E-02 0. -1.
       -1   -1    0    0    0  501  0.00000000000E+00  0.00000000000E+00 -0.79720433949E+03  0.79720433951E+03  0.50400001928E-02 0.  1.
    10030    2    1    2    0    0  0.00000000000E+00  0.00000000000E+00 -0.34750699821E+03  0.12469016808E+04  0.11974985127E+04 0.  0.
        5    1    3    3  502    0  0.35193206991E+03  0.48268403428E+03 -0.13160486335E+03  0.61170416774E+03  0.46999998093E+01 0.  1.
       -5    1    3    3    0  502 -0.35193206991E+03 -0.48268403428E+03 -0.21590213486E+03  0.63519751307E+03  0.46999998093E+01 0. -1.
</event>
<event>
 5   0  0.3772254E-03  0.1174802E+04  0.7818609E-02  0.9135203E-01
        1   -1    0    0  501    0  0.00000000000E+00  0.00000000000E+00  0.59730251379E+03  0.59730251382E+03  0.50400001928E-02 0.  1.
       -1   -1    0    0    0  501  0.00000000000E+00  0.00000000000E+00 -0.57766348876E+03  0.57766348879E+03  0.50400001928E-02 0. -1.
    10030    2    1    2    0    0  0.00000000000E+00  0.00000000000E+00  0.19639025030E+02  0.11749660026E+04  0.11748018624E+04 0.  0.
        3    1    3    3  502    0 -0.54191437285E+03  0.27542368060E+02  0.23481777350E+03  0.59124374542E+03  0.10100000352E+00 0. -1.
       -3    1    3    3    0  502  0.54191437285E+03 -0.27542368060E+02 -0.21517874847E+03  0.58372225719E+03  0.10100000352E+00 0.  1.
</event>
<event>
 5   0  0.3648616E-03  0.1206979E+04  0.7818609E-02  0.9106770E-01
       -1   -1    0    0    0  501  0.00000000000E+00  0.00000000000E+00  0.68216537530E+03  0.68216537532E+03  0.50400001928E-02 0. -1.
        1   -1    0    0  501    0  0.00000000000E+00  0.00000000000E+00 -0.53388758585E+03  0.53388758588E+03  0.50400001928E-02 0.  1.
    10030    2    1    2    0    0  0.00000000000E+00  0.00000000000E+00  0.14827778944E+03  0.12160529612E+04  0.12069790808E+04 0.  0.
        2    1    3    3  502    0 -0.14329066352E+03  0.49332797726E+03 -0.24493568831E+03  0.56912054858E+03  0.25500000920E-02 0.  1.
       -2    1    3    3    0  502  0.14329066352E+03 -0.49332797726E+03  0.39321347775E+03  0.64693241261E+03  0.25500000920E-02 0. -1.
</event>
<event>
 5   0  0.6658994E-03  0.1187748E+04  0.7818609E-02  0.9123649E-01
        2   -1    0    0  501    0  0.00000000000E+00  0.00000000000E+00  0.11461920308E+04  0.11461920308E+04  0.25500000920E-02 0.  1.
       -2   -1    0    0    0  501  0.00000000000E+00  0.00000000000E+00 -0.30770272089E+03  0.30770272090E+03  0.25500000920E-02 0. -1.
    10030    2    1    2    0    0  0.00000000000E+00  0.00000000000E+00  0.83848930992E+03  0.14538947517E+04  0.11877481325E+04 0.  0.
        4    1    3    3  502    0  0.27877057632E+03  0.38629946785E+03 -0.14818655376E+02  0.47661464364E+03  0.12699999809E+01 0. -1.
       -4    1    3    3    0  502 -0.27877057632E+03 -0.38629946785E+03  0.85330796529E+03  0.97728010806E+03  0.12699999809E+01 0.  1.
</event>
<event>
 5   0  0.3772254E-03  0.1113971E+04  0.7818609E-02  0.9191681E-01
        1   -1    0    0  501    0  0.00000000000E+00  0.00000000000E+00  0.95161482951E+03  0.95161482952E+03  0.50400001928E-02 0. -1.
       -1   -1    0    0    0  501  0.00000000000E+00  0.00000000000E+00 -0.32600675805E+03  0.32600675809E+03  0.50400001928E-02 0.  1.
    10030    2    1    2    0    0  0.00000000000E+00  0.00000000000E+00  0.62560807146E+03  0.12776215876E+04  0.11139710329E+04 0.  0.
        3    1    3    3  502    0 -0.70742669523E+02  0.86911028501E+02 -0.31294383586E+03  0.33240322918E+03  0.10100000352E+00 0.  1.
       -3    1    3    3    0  502  0.70742669523E+02 -0.86911028501E+02  0.93855190732E+03  0.94521835842E+03  0.10100000352E+00 0. -1.
</event>
<event>
 5   0  0.6585930E-03  0.1192494E+04  0.7818609E-02  0.9119452E-01
        2   -1    0    0  501    0  0.00000000000E+00  0.00000000000E+00  0.14620252198E+04  0.14620252198E+04  0.25500000920E-02 0. -1.
       -2   -1    0    0    0  501  0.00000000000E+00  0.00000000000E+00 -0.24316284115E+03  0.24316284117E+03  0.25500000920E-02 0.  1.
    10030    2    1    2    0    0  0.00000000000E+00  0.00000000000E+00  0.12188623787E+04  0.17051880610E+04  0.11924935326E+04 0.  0.
        2    1    3    3  502    0 -0.52340834377E+03  0.21308516461E+03  0.88130172301E+03  0.10469261238E+04  0.25500000920E-02 0.  1.
       -2    1    3    3    0  502  0.52340834377E+03 -0.21308516461E+03  0.33756065567E+03  0.65826193720E+03  0.25500000920E-02 0. -1.
</event>
<event>
 5   0  0.6658994E-03  0.1201600E+04  0.7818609E-02  0.9111457E-01
       -2   -1    0    0    0  501  0.00000000000E+00  0.00000000000E+00  0.20631543847E+03  0.20631543848E+03  0.25500000920E-02 0. -1.
        2   -1    0    0  501    0  0.00000000000E+00  0.00000000000E+00 -0.17495564945E+04  0.17495564945E+04  0.25500000920E-02 0.  1.
    10030    2    1    2    0    0  0.00000000000E+00  0.00000000000E+00 -0.15432410560E+04  0.19558719330E+04  0.12015997924E+04 0.  0.
        4    1    3    3  502    0 -0.25004816056E+03 -0.52779229270E+03 -0.54217438242E+03  0.79689614172E+03  0.12699999809E+01 0.  1.
       -4    1    3    3    0  502  0.25004816056E+03  0.52779229270E+03 -0.10010666736E+04  0.11589757913E+04  0.12699999809E+01 0. -1.
</event>
<event>
 5   0  0.3731281E-03  0.1202745E+04  0.7818609E-02  0.9110457E-01
       -1   -1    0    0    0  501  0.00000000000E+00  0.00000000000E+00  0.31109214122E+03  0.31109214126E+03  0.50400001928E-02 0. -1.
        1   -1    0    0  501    0  0.00000000000E+00  0.00000000000E+00 -0.11625142006E+04  0.11625142006E+04  0.50400001928E-02 0.  1.
    10030    2    1    2    0    0  0.00000000000E+00  0.00000000000E+00 -0.85142205939E+03  0.14736063419E+04  0.12027452464E+04 0.  0.
        5    1    3    3  502    0  0.40264197903E+02  0.15536923304E+03 -0.11357643178E+04  0.11470586209E+04  0.46999998093E+01 0.  1.
       -5    1    3    3    0  502 -0.40264197903E+02 -0.15536923304E+03  0.28434225837E+03  0.32654772102E+03  0.46999998093E+01 0. -1.
</event>
<event>
 5   0  0.2537625E-03  0.1073927E+04  0.7818609E-02  0.9230983E-01
       -4   -1    0    0    0  501  0.00000000000E+00  0.00000000000E+00  0.61437551880E+03  0.61437683143E+03  0.12699999809E+01 0.  1.
        4   -1    0    0  501    0  0.00000000000E+00  0.00000000000E+00 -0.46930321481E+03  0.46930493320E+03  0.12699999809E+01 0. -1.
    10030    2    1    2    0    0  0.00000000000E+00  0.00000000000E+00  0.14507230399E+03  0.10836817646E+04  0.10739274620E+04 0.  0.
        4    1    3    3  502    0 -0.44958458857E+03  0.28471525325E+03  0.14487660837E+03  0.55152508761E+03  0.12699999809E+01 0.  1.
       -4    1    3    3    0  502  0.44958458857E+03 -0.28471525325E+03  0.19569562604E+00  0.53215667703E+03  0.12699999809E+01 0. -1.
</event>
<event>
 5   0  0.6585930E-03  0.1190786E+04  0.7818609E-02  0.9120960E-01
        2   -1    0    0  501    0  0.00000000000E+00  0.00000000000E+00  0.17098100816E+04  0.17098100816E+04  0.25500000920E-02 0.  1.
       -2   -1    0    0    0  501  0.00000000000E+00  0.00000000000E+00 -0.20732892346E+03  0.20732892348E+03  0.25500000920E-02 0. -1.
    10030    2    1    2    0    0  0.00000000000E+00  0.00000000000E+00  0.15024811581E+04  0.19171390050E+04  0.11907864352E+04 0.  0.
        2    1    3    3  502    0  0.53232975770E+03 -0.26610925901E+03  0.72317082712E+03  0.93657095507E+03  0.25500000920E-02 0. -1.
       -2    1    3    3    0  502 -0.53232975770E+03  0.26610925901E+03  0.77931033098E+03  0.98056804998E+03  0.25500000920E-02 0.  1.
</event>
<event>
 5   0  0.6493047E-03  0.1193347E+04  0.7818609E-02  0.9118700E-01
       -2   -1    0    0    0  501  0.00000000000E+00  0.00000000000E+00  0.10476240860E+04  0.10476240860E+04  0.25500000920E-02 0.  1.
        2   -1    0    0  501    0  0.00000000000E+00  0.00000000000E+00 -0.33983503432E+03  0.33983503433E+03  0.25500000920E-02 0. -1.
    10030    2    1    2    0    0  0.00000000000E+00  0.00000000000E+00  0.70778905172E+03  0.13874591204E+04  0.11933471703E+04 0.  0.
        3    1    3    3  502    0  0.28074410426E+03  0.39859232340E+03  0.75383371883E+03  0.89775184667E+03  0.10100000352E+00 0.  1.
       -3    1    3    3    0  502 -0.28074410426E+03 -0.39859232340E+03 -0.46044667113E+02  0.48970727370E+03  0.10100000352E+00 0. -1.
</event>
<event>
 5   0  0.6640844E-03  0.1187623E+04  0.7818609E-02  0.9123760E-01
        2   -1    0    0  501    0  0.00000000000E+00  0.00000000000E+00  0.59502567301E+03  0.59502567301E+03  0.25500000920E-02 0.  1.
       -2   -1    0    0    0  501  0.00000000000E+00  0.00000000000E+00 -0.59259939800E+03  0.59259939801E+03  0.25500000920E-02 0. -1.
    10030    2    1    2    0    0  0.00000000000E+00  0.00000000000E+00  0.24262750045E+01  0.11876250710E+04  0.11876225926E+04 0.  0.
        5    1    3    3  502    0  0.14375164206E+03  0.57379070071E+03 -0.50647001697E+02  0.59370658712E+03  0.46999998093E+01 0. -1.
       -5    1    3    3    0  502 -0.14375164206E+03 -0.57379070071E+03  0.53073276701E+02  0.59391848390E+03  0.46999998093E+01 0.  1.
</event>
<event>
 5   0  0.3648616E-03  0.1209943E+04  0.7818609E-02  0.9104198E-01
        1   -1    0    0  501    0  0.00000000000E+00  0.00000000000E+00  0.70540587222E+03  0.70540587224E+03  0.50400001928E-02 0.  1.
       -1   -1    0    0    0  501  0.00000000000E+00  0.00000000000E+00 -0.51883651191E+03  0.51883651193E+03  0.50400001928E-02 0. -1.
    10030    2    1    2    0    0  0.00000000000E+00  0.00000000000E+00  0.18656936031E+03  0.12242423842E+04  0.12099426800E+04 0.  0.
        2    1    3    3  502    0 -0.29636180462E+03 -0.50538284493E+03 -0.59322852818E+02  0.58886444965E+03  0.25500000920E-02 0. -1.
       -2    1    3    3    0  502  0.29636180462E+03  0.50538284493E+03  0.24589221313E+03  0.63537793452E+03  0.25500000920E-02 0.  1.
</event>
<event>
 5   0  0.6585930E-03  0.1202986E+04  0.7818609E-02  0.9110247E-01
       -2   -1    0    0    0  501  0.00000000000E+00  0.00000000000E+00  0.38870234159E+03  0.38870234160E+03  0.25500000920E-02 0.  1.
        2   -1    0    0  501    0  0.00000000000E+00  0.00000000000E+00 -0.93077393485E+03  0.93077393485E+03  0.25500000920E-02 0. -1.
    10030    2    1    2    0    0  0.00000000000E+00  0.00000000000E+00 -0.54207159325E+03  0.13194762765E+04  0.12029862975E+04 0.  0.
        2    1    3    3  502    0 -0.12367880624E+03 -0.58837642356E+03 -0.29037074497E+03  0.66768138544E+03  0.25500000920E-02 0.  1.
       -2    1    3    3    0  502  0.12367880624E+03  0.58837642356E+03 -0.25170084828E+03  0.65179489101E+03  0.25500000920E-02 0. -1.
</event>
<event>
 5   0  0.3648616E-03  0.1212522E+04  0.7818609E-02  0.9101966E-01
        1   -1    0    0  501    0  0.00000000000E+00  0.00000000000E+00  0.65797829499E+03  0.65797829501E+03  0.50400001928E-02 0. -1.
       -1   -1    0    0    0  501  0.00000000000E+00  0.00000000000E+00 -0.55860848368E+03  0.55860848370E+03  0.50400001928E-02 0.  1.
    10030    2    1    2    0    0  0.00000000000E+00  0.00000000000E+00  0.99369811310E+02  0.12165867787E+04  0.12125217651E+04 0.  0.
        2    1    3    3  502    0  0.56780566295E+03 -0.20654263372E+03 -0.37350993483E+00  0.60420465898E+03  0.25500000920E-02 0.  1.
       -2    1    3    3    0  502 -0.56780566295E+03  0.20654263372E+03  0.99743321244E+02  0.61238211973E+03  0.25500000920E-02 0. -1.
</event>
<event>
 5   0  0.6640844E-03  0.1178302E+04  0.7818609E-02  0.9132064E-01
       -2   -1    0    0    0  501  0.00000000000E+00  0.00000000000E+00  0.54605216338E+03  0.54605216339E+03  0.25500000920E-02 0.  1.
        2   -1    0    0  501    0  0.00000000000E+00  0.00000000000E+00 -0.63565114290E+03  0.63565114291E+03  0.25500000920E-02 0. -1.
    10030    2    1    2    0    0  0.00000000000E+00  0.00000000000E+00 -0.89598979523E+02  0.11817033063E+04  0.11783016282E+04 0.  0.
        5    1    3    3  502    0  0.40460825054E+03  0.41059930435E+03 -0.16671097404E+03  0.60009521245E+03  0.46999998093E+01 0. -1.
       -5    1    3    3    0  502 -0.40460825054E+03 -0.41059930435E+03  0.77111994514E+02  0.58160809385E+03  0.46999998093E+01 0.  1.
</event>
<event>
 5   0  0.3944074E-03  0.1201623E+04  0.7818609E-02  0.9111437E-01
        1   -1    0    0  501    0  0.00000000000E+00  0.00000000000E+00  0.93999353384E+03  0.93999353386E+03  0.50400001928E-02 0.  1.
       -1   -1    0    0    0  501  0.00000000000E+00  0.00000000000E+00 -0.38401807048E+03  0.38401807051E+03  0.50400001928E-02 0. -1.
    10030    2    1    2    0    0  0.00000000000E+00  0.00000000000E+00  0.55597546336E+03  0.13240116044E+04  0.12016230743E+04 0.  0.
        4    1    3    3  502    0 -0.13329491850E+03 -0.34397740190E+03  0.80050865047E+03  0.88142140926E+03  0.12699999809E+01 0.  1.
       -4    1    3    3    0  502  0.13329491850E+03  0.34397740190E+03 -0.24453318711E+03  0.44259019511E+03  0.12699999809E+01 0. -1.
</event>
<event>
 5   0  0.3648616E-03  0.1218003E+04  0.7818609E-02  0.9097243E-01
        1   -1    0    0  501    0  0.00000000000E+00  0.00000000000E+00  0.58399378730E+03  0.58399378732E+03  0.50400001928E-02 0.  1.
       -1   -1    0    0    0  501  0.00000000000E+00  0.00000000000E+00 -0.63508020847E+03  0.63508020849E+03  0.50400001928E-02 0. -1.
    10030    2    1    2    0    0  0.00000000000E+00  0.00000000000E+00 -0.51086421168E+02  0.12190739958E+04  0.12180031136E+04 0.  0.
        2    1    3    3  502    0  0.26955474402E+03  0.81521192279E+02  0.51491064791E+03  0.58688878005E+03  0.25500000920E-02 0.  1.
       -2    1    3    3    0  502 -0.26955474402E+03 -0.81521192279E+02 -0.56599706907E+03  0.63218521576E+03  0.25500000920E-02 0. -1.
</event>
<event>
 5   0  0.3701879E-03  0.1196351E+04  0.7818609E-02  0.9116057E-01
        1   -1    0    0  501    0  0.00000000000E+00  0.00000000000E+00  0.99307693527E+03  0.99307693529E+03  0.50400001928E-02 0. -1.
       -1   -1    0    0    0  501  0.00000000000E+00  0.00000000000E+00 -0.36030812774E+03  0.36030812777E+03  0.50400001928E-02 0.  1.
    10030    2    1    2    0    0  0.00000000000E+00  0.00000000000E+00  0.63276880754E+03  0.13533850631E+04  0.11963506029E+04 0.  0.
        1    1    3    3  502    0 -0.85090725128E+02  0.96935224991E+02 -0.34438916985E+03  0.36775096150E+03  0.50400001928E-02 0.  1.
       -1    1    3    3    0  502  0.85090725128E+02 -0.96935224991E+02  0.97715797739E+03  0.98563410156E+03  0.50400001928E-02 0. -1.
</event>
<event>
 5   0  0.6640844E-03  0.1188451E+04  0.7818609E-02  0.9123026E-01
        2   -1    0    0  501    0  0.00000000000E+00  0.00000000000E+00  0.17629882375E+04  0.17629882375E+04  0.25500000920E-02 0. -1.
       -2   -1    0    0    0  501  0.00000000000E+00  0.00000000000E+00 -0.20028719087E+03  0.20028719088E+03  0.25500000920E-02 0.  1.
    10030    2    1    2    0    0  0.00000000000E+00  0.00000000000E+00  0.15627010466E+04  0.19632754284E+04  0.11884510283E+04 0.  0.
        5    1    3    3  502    0 -0.30245633865E+02 -0.19689411749E+02  0.17611453511E+04  0.17615213621E+04  0.46999998093E+01 0. -1.
       -5    1    3    3    0  502  0.30245633865E+02  0.19689411749E+02 -0.19844430447E+03  0.20175406632E+03  0.46999998093E+01 0.  1.
</event>
<event>
 5   0  0.3731281E-03  0.1209659E+04  0.7818609E-02  0.9104444E-01
       -1   -1    0    0    0  501  0.00000000000E+00  0.00000000000E+00  0.48345639574E+03  0.48345639576E+03  0.50400001928E-02 0. -1.
        1   -1    0    0  501    0  0.00000000000E+00  0.00000000000E+00 -0.75667373478E+03  0.75667373480E+03  0.50400001928E-02 0.  1.
    10030    2    1    2    0    0  0.00000000000E+00  0.00000000000E+00 -0.27321733905E+03  0.12401301306E+04  0.12096590538E+04 0.  0.
        5    1    3    3  502    0 -0.37995741158E+03  0.24676031794E+03  0.27415659731E+03  0.52956795501E+03  0.46999998093E+01 0. -1.
       -5    1    3    3    0  502  0.37995741158E+03 -0.24676031794E+03 -0.54737393636E+03  0.71056217555E+03  0.46999998093E+01 0.  1.
</event>
<event>
 5   0  0.3772254E-03  0.1210439E+04  0.7818609E-02  0.9103768E-01
        1   -1    0    0  501    0  0.00000000000E+00  0.00000000000E+00  0.58602335267E+03  0.58602335270E+03  0.50400001928E-02 0. -1.
       -1   -1    0    0    0  501  0.00000000000E+00  0.00000000000E+00 -0.62504416778E+03  0.62504416780E+03  0.50400001928E-02 0.  1.
    10030    2    1    2    0    0  0.00000000000E+00  0.00000000000E+00 -0.39020815111E+02  0.12110675205E+04  0.12104387284E+04 0.  0.
        3    1    3    3  502    0  0.49797742513E+03 -0.16324867990E+03 -0.32241975827E+03  0.61529355446E+03  0.10100000352E+00 0.  1.
       -3    1    3    3    0  502 -0.49797742513E+03  0.16324867990E+03  0.28339894316E+03  0.59577396604E+03  0.10100000352E+00 0. -1.
</event>
<event>
 5   0  0.6349142E-03  0.1182440E+04  0.7818609E-02  0.9128367E-01
        2   -1    0    0  501    0  0.00000000000E+00  0.00000000000E+00  0.44010497398E+03  0.44010497399E+03  0.25500000920E-02 0. -1.
       -2   -1    0    0    0  501  0.00000000000E+00  0.00000000000E+00 -0.79422194629E+03  0.79422194629E+03  0.25500000920E-02 0.  1.
    10030    2    1    2    0    0  0.00000000000E+00  0.00000000000E+00 -0.35411697230E+03  0.12343269203E+04  0.11824398996E+04 0.  0.
        1    1    3    3  502    0  0.50442397918E+03  0.29083472645E+03 -0.28408885535E+03  0.64786948272E+03  0.50400001928E-02 0.  1.
       -1    1    3    3    0  502 -0.50442397918E+03 -0.29083472645E+03 -0.70028116948E+02  0.58645743756E+03  0.50400001928E-02 0. -1.
</event>
<event>
 5   0  0.3701879E-03  0.1182031E+04  0.7818609E-02  0.9128732E-01
        1   -1    0    0  501    0  0.00000000000E+00  0.00000000000E+00  0.13657676516E+04  0.13657676516E+04  0.50400001928E-02 0.  1.
       -1   -1    0    0    0  501  0.00000000000E+00  0.00000000000E+00 -0.25575315871E+03  0.25575315876E+03  0.50400001928E-02 0. -1.
    10030    2    1    2    0    0  0.00000000000E+00  0.00000000000E+00  0.11100144929E+04  0.16215208104E+04  0.11820311181E+04 0.  0.
        1    1    3    3  502    0 -0.15849300033E+03 -0.38664467028E+03 -0.18345299902E+02  0.41827106314E+03  0.50400001928E-02 0. -1.
       -1    1    3    3    0  502  0.15849300033E+03  0.38664467028E+03  0.11283597928E+04  0.12032497473E+04  0.50400001928E-02 0.  1.
</event>
<event>
 5   0  0.6493047E-03  0.1157751E+04  0.7818609E-02  0.9150663E-01
       -2   -1    0    0    0  501  0.00000000000E+00  0.00000000000E+00  0.92862514331E+03  0.92862514332E+03  0.25500000920E-02 0.  1.
        2   -1    0    0  501    0  0.00000000000E+00  0.00000000000E+00 -0.36085255703E+03  0.36085255704E+03  0.25500000920E-02 0. -1.
    10030    2    1    2    0    0  0.00000000000E+00  0.00000000000E+00  0.56777258628E+03  0.12894777004E+04  0.11577508497E+04 0.  0.
        3    1    3    3  502    0 -0.10266174401E+03  0.45361212253E+03  0.66776568957E+03  0.81376557912E+03  0.10100000352E+00 0.  1.
       -3    1    3    3    0  502  0.10266174401E+03 -0.45361212253E+03 -0.99993103289E+02  0.47571212124E+03  0.10100000352E+00 0. -1.
</event>
<event>
 5   0  0.3701879E-03  0.1180869E+04  0.7818609E-02  0.9129769E-01
        1   -1    0    0  501    0  0.00000000000E+00  0.00000000000E+00  0.11694035365E+04  0.11694035365E+04  0.50400001928E-02 0.  1.
       -1   -1    0    0    0  501  0.00000000000E+00  0.00000000000E+00 -0.29811158942E+03  0.29811158946E+03  0.50400001928E-02 0. -1.
    10030    2    1    2    0    0  0.00000000000E+00  0.00000000000E+00  0.87129194709E+03  0.14675151260E+04  0.11808687429E+04 0.  0.
        1    1    3    3  502    0  0.10087463187E+03  0.23697463634E+03  0.10959152254E+04  0.11257721132E+04  0.50400001928E-02 0.  1.
       -1    1    3    3    0  502 -0.10087463187E+03 -0.23697463634E+03 -0.22462327828E+03  0.34174301279E+03  0.50400001928E-02 0. -1.
</event>
<event>
 5   0  0.3944074E-03  0.1220576E+04  0.7818609E-02  0.9095035E-01
       -1   -1    0    0    0  501  0.00000000000E+00  0.00000000000E+00  0.56919852878E+03  0.56919852880E+03  0.50400001928E-02 0. -1.
        1   -1    0    0  501    0  0.00000000000E+00  0.00000000000E+00 -0.65434329705E+03  0.65434329707E+03  0.50400001928E-02 0.  1.
    10030    2    1    2    0    0  0.00000000000E+00  0.00000000000E+00 -0.85144768272E+02  0.12235418259E+04  0.12205756708E+04 0.  0.
        4    1    3    3  502    0  0.40229859107E+03  0.40367014638E+02 -0.50082219343E+03  0.64365995260E+03  0.12699999809E+01 0.  1.
       -4    1    3    3    0  502 -0.40229859107E+03 -0.40367014638E+02  0.41567742516E+03  0.57988187326E+03  0.12699999809E+01 0. -1.
</event>
<event>
 5   0  0.6349142E-03  0.1161080E+04  0.7818609E-02  0.9147622E-01
        2   -1    0    0  501    0  0.00000000000E+00  0.00000000000E+00  0.10941384153E+04  0.10941384153E+04  0.25500000920E-02 0.  1.
       -2   -1    0    0    0  501  0.00000000000E+00  0.00000000000E+00 -0.30802928041E+03  0.30802928042E+03  0.25500000920E-02 0. -1.
    10030    2    1    2    0    0  0.00000000000E+00  0.00000000000E+00  0.78610913492E+03  0.14021676957E+04  0.11610799606E+04 0.  0.
        1    1    3    3  502    0  0.12415665950E+03  0.35101356579E+03  0.93096510344E+03  0.10026571814E+04  0.50400001928E-02 0.  1.
       -1    1    3    3    0  502 -0.12415665950E+03 -0.35101356579E+03 -0.14485596852E+03  0.39951051439E+03  0.50400001928E-02 0. -1.
</event>
<event>
 5   0  0.3701879E-03  0.9305541E+03  0.7818609E-02  0.9388173E-01
        1   -1    0    0  501    0  0.00000000000E+00  0.00000000000E+00  0.14961193833E+04  0.14961193833E+04  0.50400001928E-02 0.  1.
       -1   -1    0    0    0  501  0.00000000000E+00  0.00000000000E+00 -0.14469614928E+03  0.14469614937E+03  0.50400001928E-02 0. -1.
    10030    2    1    2    0    0  0.00000000000E+00  0.00000000000E+00  0.13514232340E+04  0.16408155327E+04  0.93055405799E+03 0.  0.
        1    1    3    3  502    0 -0.44145692137E+03  0.92653398689E+02  0.47456116363E+03  0.65473442231E+03  0.50400001928E-02 0.  1.
       -1    1    3    3    0  502  0.44145692137E+03 -0.92653398689E+02  0.87686207041E+03  0.98608111038E+03  0.50400001928E-02 0. -1.
</event>
<event>
 5   0  0.3701879E-03  0.1382234E+04  0.7818609E-02  0.8966779E-01
        1   -1    0    0  501    0  0.00000000000E+00  0.00000000000E+00  0.94569995354E+03  0.94569995355E+03  0.50400001928E-02 0. -1.
       -1   -1    0    0    0  501  0.00000000000E+00  0.00000000000E+00 -0.50506823597E+03  0.50506823599E+03  0.50400001928E-02 0.  1.
    10030    2    1    2    0    0  0.00000000000E+00  0.00000000000E+00  0.44063171757E+03  0.14507681895E+04  0.13822344335E+04 0.  0.
        1    1    3    3  502    0  0.23723643023E+03  0.46141653773E+03 -0.25889230322E+03  0.57983753742E+03  0.50400001928E-02 0.  1.
       -1    1    3    3    0  502 -0.23723643023E+03 -0.46141653773E+03  0.69952402079E+03  0.87093065212E+03  0.50400001928E-02 0. -1.
</event>
<event>
 5   0  0.6493047E-03  0.1201254E+04  0.7818609E-02  0.9111759E-01
       -2   -1    0    0    0  501  0.00000000000E+00  0.00000000000E+00  0.42995237405E+03  0.42995237406E+03  0.25500000920E-02 0. -1.
        2   -1    0    0  501    0  0.00000000000E+00  0.00000000000E+00 -0.83905350378E+03  0.83905350379E+03  0.25500000920E-02 0.  1.
    10030    2    1    2    0    0  0.00000000000E+00  0.00000000000E+00 -0.40910112973E+03  0.12690058778E+04  0.12012544209E+04 0.  0.
        3    1    3    3  502    0 -0.53110027411E+03  0.24121634235E+03 -0.53296241380E+02  0.58574168754E+03  0.10100000352E+00 0.  1.
       -3    1    3    3    0  502  0.53110027411E+03 -0.24121634235E+03 -0.35580488835E+03  0.68326419030E+03  0.10100000352E+00 0. -1.
</event>
<event>
 5   0  0.6640844E-03  0.1196516E+04  0.7818609E-02  0.9115912E-01
       -2   -1    0    0    0  501  0.00000000000E+00  0.00000000000E+00  0.36041286051E+03  0.36041286052E+03  0.25500000920E-02 0. -1.
        2   -1    0    0  501    0  0.00000000000E+00  0.00000000000E+00 -0.99306218819E+03  0.99306218820E+03  0.25500000920E-02 0.  1.
    10030    2    1    2    0    0  0.00000000000E+00  0.00000000000E+00 -0.63264932768E+03  0.13534750487E+04  0.11965155810E+04 0.  0.
        5    1    3    3  502    0 -0.19603378228E+03 -0.55845419162E+03 -0.41487357051E+03  0.72280183830E+03  0.46999998093E+01 0. -1.
       -5    1    3    3    0  502  0.19603378228E+03  0.55845419162E+03 -0.21777575717E+03  0.63067321042E+03  0.46999998093E+01 0.  1.
</event>
<event>
 5   0  0.6585930E-03  0.1192633E+04  0.7818609E-02  0.9119329E-01
        2   -1    0    0  501    0  0.00000000000E+00  0.00000000000E+00  0.14120852273E+04  0.14120852273E+04  0.25500000920E-02 0.  1.
       -2   -1    0    0    0  501  0.00000000000E+00  0.00000000000E+00 -0.25182155242E+03  0.25182155243E+03  0.25500000920E-02 0. -1.
    10030    2    1    2    0    0  0.00000000000E+00  0.00000000000E+00  0.11602636748E+04  0.16639067797E+04  0.11926332112E+04 0.  0.
        2    1    3    3  502    0  0.41572173357E+03 -0.40844492938E+03  0.40397923887E+03  0.70911990914E+03  0.25500000920E-02 0. -1.
       -2    1    3    3    0  502 -0.41572173357E+03  0.40844492938E+03  0.75628443596E+03  0.95478687055E+03  0.25500000920E-02 0.  1.
</event>
<event>
 5   0  0.6585930E-03  0.1204493E+04  0.7818609E-02  0.9108933E-01
        2   -1    0    0  501    0  0.00000000000E+00  0.00000000000E+00  0.75804727835E+03  0.75804727835E+03  0.25500000920E-02 0.  1.
       -2   -1    0    0    0  501  0.00000000000E+00  0.00000000000E+00 -0.47846705461E+03  0.47846705462E+03  0.25500000920E-02 0. -1.
    10030    2    1    2    0    0  0.00000000000E+00  0.00000000000E+00  0.27958022374E+03  0.12365143330E+04  0.12044926709E+04 0.  0.
        2    1    3    3  502    0  0.27652972685E+03 -0.47595764067E+03 -0.11103362756E+03  0.56154504005E+03  0.25500000920E-02 0. -1.
       -2    1    3    3    0  502 -0.27652972685E+03  0.47595764067E+03  0.39061385130E+03  0.67496929292E+03  0.25500000920E-02 0.  1.
</event>
<event>
 5   0  0.6493047E-03  0.1209589E+04  0.7818609E-02  0.9104505E-01
        2   -1    0    0  501    0  0.00000000000E+00  0.00000000000E+00  0.11194754609E+04  0.11194754609E+04  0.25500000920E-02 0.  1.
       -2   -1    0    0    0  501  0.00000000000E+00  0.00000000000E+00 -0.32673901055E+03  0.32673901056E+03  0.25500000920E-02 0. -1.
    10030    2    1    2    0    0  0.00000000000E+00  0.00000000000E+00  0.79273645031E+03  0.14462144714E+04  0.12095888631E+04 0.  0.
        3    1    3    3  502    0  0.32688985715E+03  0.14635307750E+03 -0.18630735158E+03  0.40371604062E+03  0.10100000352E+00 0. -1.
       -3    1    3    3    0  502 -0.32688985715E+03 -0.14635307750E+03  0.97904380189E+03  0.10424984308E+04  0.10100000352E+00 0.  1.
</event>
<event>
 5   0  0.3648616E-03  0.1193710E+04  0.7818609E-02  0.9118380E-01
        1   -1    0    0  501    0  0.00000000000E+00  0.00000000000E+00  0.20230150040E+04  0.20230150040E+04  0.50400001928E-02 0.  1.
       -1   -1    0    0    0  501  0.00000000000E+00  0.00000000000E+00 -0.17609169366E+03  0.17609169374E+03  0.50400001928E-02 0. -1.
    10030    2    1    2    0    0  0.00000000000E+00  0.00000000000E+00  0.18469233103E+04  0.21991066977E+04  0.11937104145E+04 0.  0.
        2    1    3    3  502    0 -0.59253541336E+03  0.70220611383E+02  0.94996617826E+03  0.11218132154E+04  0.25500000920E-02 0. -1.
       -2    1    3    3    0  502  0.59253541336E+03 -0.70220611383E+02  0.89695713204E+03  0.10772934823E+04  0.25500000920E-02 0.  1.
</event>
<event>
 5   0  0.6349142E-03  0.1201826E+04  0.7818609E-02  0.9111260E-01
        2   -1    0    0  501    0  0.00000000000E+00  0.00000000000E+00  0.25669366370E+04  0.25669366370E+04  0.25500000920E-02 0.  1.
       -2   -1    0    0    0  501  0.00000000000E+00  0.00000000000E+00 -0.14067211352E+03  0.14067211354E+03  0.25500000920E-02 0. -1.
    10030    2    1    2    0    0  0.00000000000E+00  0.00000000000E+00  0.24262645235E+04  0.27076087506E+04  0.12018259475E+04 0.  0.
        1    1    3    3  502    0  0.21876390955E+03  0.24934228078E+03  0.23419902377E+04  0.23653641358E+04  0.50400001928E-02 0.  1.
       -1    1    3    3    0  502 -0.21876390955E+03 -0.24934228078E+03  0.84274285801E+02  0.34224461483E+03  0.50400001928E-02 0. -1.
</event>
<event>
 5   0  0.3701879E-03  0.1217269E+04  0.7818609E-02  0.9097874E-01
       -1   -1    0    0    0  501  0.00000000000E+00  0.00000000000E+00  0.37388037034E+03  0.37388037037E+03  0.50400001928E-02 0.  1.
        1   -1    0    0  501    0  0.00000000000E+00  0.00000000000E+00 -0.99078711552E+03  0.99078711553E+03  0.50400001928E-02 0. -1.
    10030    2    1    2    0    0  0.00000000000E+00  0.00000000000E+00 -0.61690674518E+03  0.13646674859E+04  0.12172688343E+04 0.  0.
        1    1    3    3  502    0 -0.50099498707E+02 -0.55904760546E+03 -0.57230669425E+03  0.80161034004E+03  0.50400001928E-02 0. -1.
       -1    1    3    3    0  502  0.50099498707E+02  0.55904760546E+03 -0.44600050926E+02  0.56305714587E+03  0.50400001928E-02 0.  1.
</event>
<event>
 5   0  0.3772254E-03  0.1207112E+04  0.7818609E-02  0.9106654E-01
        1   -1    0    0  501    0  0.00000000000E+00  0.00000000000E+00  0.15756986975E+04  0.15756986975E+04  0.50400001928E-02 0. -1.
       -1   -1    0    0    0  501  0.00000000000E+00  0.00000000000E+00 -0.23118607654E+03  0.23118607659E+03  0.50400001928E-02 0.  1.
    10030    2    1    2    0    0  0.00000000000E+00  0.00000000000E+00  0.13445126210E+04  0.18068847741E+04  0.12071115934E+04 0.  0.
        3    1    3    3  502    0  0.29198326909E+03  0.32432516345E+03  0.48153582709E+02  0.43904421053E+03  0.10100000352E+00 0.  1.
       -3    1    3    3    0  502 -0.29198326909E+03 -0.32432516345E+03  0.12963590382E+04  0.13678405636E+04  0.10100000352E+00 0. -1.
</event>
<event>
 5   0  0.3944074E-03  0.1224201E+04  0.7818609E-02  0.9091934E-01
        1   -1    0    0  501    0  0.00000000000E+00  0.00000000000E+00  0.33687141492E+03  0.33687141496E+03  0.50400001928E-02 0. -1.
       -1   -1    0    0    0  501  0.00000000000E+00  0.00000000000E+00 -0.11121953282E+04  0.11121953282E+04  0.50400001928E-02 0.  1.
    10030    2    1    2    0    0  0.00000000000E+00  0.00000000000E+00 -0.77532391324E+03  0.14490667431E+04  0.12242006599E+04 0.  0.
        4    1    3    3  502    0 -0.27930670366E+03 -0.11928824824E+03 -0.10167132018E+04  0.10611075669E+04  0.12699999809E+01 0.  1.
       -4    1    3    3    0  502  0.27930670366E+03  0.11928824824E+03  0.24138928858E+03  0.38795917623E+03  0.12699999809E+01 0. -1.
</event>
<event>
 5   0  0.6658994E-03  0.1142907E+04  0.7818609E-02  0.9164352E-01
       -2   -1    0    0    0  501  0.00000000000E+00  0.00000000000E+00  0.43076342963E+03  0.43076342964E+03  0.25500000920E-02 0.  1.
        2   -1    0    0  501    0  0.00000000000E+00  0.00000000000E+00 -0.75809409226E+03  0.75809409226E+03  0.25500000920E-02 0. -1.
    10030    2    1    2    0    0  0.00000000000E+00  0.00000000000E+00 -0.32733066262E+03  0.11888575219E+04  0.11429071899E+04 0.  0.
        4    1    3    3  502    0  0.55481213454E+03  0.72379750859E+02 -0.28453634481E+03  0.62770843342E+03  0.12699999809E+01 0. -1.
       -4    1    3    3    0  502 -0.55481213454E+03 -0.72379750859E+02 -0.42794317809E+02  0.56114908848E+03  0.12699999809E+01 0.  1.
</event>
<event>
 5   0  0.3772254E-03  0.1198412E+04  0.7818609E-02  0.9114247E-01
       -1   -1    0    0    0  501  0.00000000000E+00  0.00000000000E+00  0.12322140078E+04  0.12322140078E+04  0.50400001928E-02 0. -1.
        1   -1    0    0  501    0  0.00000000000E+00  0.00000000000E+00 -0.29138455063E+03  0.29138455068E+03  0.50400001928E-02 0.  1.
    10030    2    1    2    0    0  0.00000000000E+00  0.00000000000E+00  0.94082945715E+03  0.15235985585E+04  0.11984124916E+04 0.  0.
        3    1    3    3  502    0 -0.30924777345E+03  0.10765836210E+03 -0.16757317660E+03  0.36783867120E+03  0.10100000352E+00 0.  1.
       -3    1    3    3    0  502  0.30924777345E+03 -0.10765836210E+03  0.11084026337E+04  0.11557598873E+04  0.10100000352E+00 0. -1.
</event>
<event>
 5   0  0.6640844E-03  0.1178038E+04  0.7818609E-02  0.9132300E-01
        2   -1    0    0  501    0  0.00000000000E+00  0.00000000000E+00  0.14430161869E+04  0.14430161869E+04  0.25500000920E-02 0. -1.
       -2   -1    0    0    0  501  0.00000000000E+00  0.00000000000E+00 -0.24042923469E+03  0.24042923470E+03  0.25500000920E-02 0.  1.
    10030    2    1    2    0    0  0.00000000000E+00  0.00000000000E+00  0.12025869522E+04  0.16834454216E+04  0.11780378219E+04 0.  0.
        5    1    3    3  502    0 -0.28649439707E+03  0.18250625299E+03  0.12889108376E+04  0.13329294090E+04  0.46999998093E+01 0. -1.
       -5    1    3    3    0  502  0.28649439707E+03 -0.18250625299E+03 -0.86323885408E+02  0.35051601265E+03  0.46999998093E+01 0.  1.
</event>
<event>
 5   0  0.3772254E-03  0.1190534E+04  0.7818609E-02  0.9121183E-01
        1   -1    0    0  501    0  0.00000000000E+00  0.00000000000E+00  0.38765014452E+03  0.38765014455E+03  0.50400001928E-02 0.  1.
       -1   -1    0    0    0  501  0.00000000000E+00  0.00000000000E+00 -0.91407905630E+03  0.91407905631E+03  0.50400001928E-02 0. -1.
    10030    2    1    2    0    0  0.00000000000E+00  0.00000000000E+00 -0.52642891178E+03  0.13017292009E+04  0.11905341294E+04 0.  0.
        3    1    3    3  502    0  0.49975636458E+03 -0.23047625571E+03 -0.15161838600E+02  0.55055028828E+03  0.10100000352E+00 0.  1.
       -3    1    3    3    0  502 -0.49975636458E+03  0.23047625571E+03 -0.51126707318E+03  0.75117891258E+03  0.10100000352E+00 0. -1.
</event>
<event>
 5   0  0.6349142E-03  0.1204629E+04  0.7818609E-02  0.9108815E-01
       -2   -1    0    0    0  501  0.00000000000E+00  0.00000000000E+00  0.27495129056E+03  0.27495129057E+03  0.25500000920E-02 0. -1.
        2   -1    0    0  501    0  0.00000000000E+00  0.00000000000E+00 -0.13194433375E+04  0.13194433375E+04  0.25500000920E-02 0.  1.
    10030    2    1    2    0    0  0.00000000000E+00  0.00000000000E+00 -0.10444920469E+04  0.15943946280E+04  0.12046288199E+04 0.  0.
        1    1    3    3  502    0  0.89079227754E+01  0.35347958663E+03 -0.11676146370E+04  0.12199799629E+04  0.50400001928E-02 0.  1.
       -1    1    3    3    0  502 -0.89079227754E+01 -0.35347958663E+03  0.12312259011E+03  0.37441466514E+03  0.50400001928E-02 0. -1.
</event>
<event>
 5   0  0.3772254E-03  0.1153030E+04  0.7818609E-02  0.9154993E-01
       -1   -1    0    0    0  501  0.00000000000E+00  0.00000000000E+00  0.10589645164E+04  0.10589645164E+04  0.50400001928E-02 0. -1.
        1   -1    0    0  501    0  0.00000000000E+00  0.00000000000E+00 -0.31386274700E+03  0.31386274704E+03  0.50400001928E-02 0.  1.
    10030    2    1    2    0    0  0.00000000000E+00  0.00000000000E+00  0.74510176939E+03  0.13728272634E+04  0.11530299426E+04 0.  0.
        3    1    3    3  502    0  0.38351734077E+01  0.19641955508E+03 -0.27277947997E+03  0.33616068340E+03  0.10100000352E+00 0.  1.
       -3    1    3    3    0  502 -0.38351734077E+01 -0.19641955508E+03  0.10178812494E+04  0.10366665800E+04  0.10100000352E+00 0. -1.
</event>
<event>
 5   0  0.6640844E-03  0.1099078E+04  0.7818609E-02  0.9206091E-01
       -2   -1    0    0    0  501  0.00000000000E+00  0.00000000000E+00  0.36766826961E+03  0.36766826962E+03  0.25500000920E-02 0. -1.
        2   -1    0    0  501    0  0.00000000000E+00  0.00000000000E+00 -0.82137324930E+03  0.82137324930E+03  0.25500000920E-02 0.  1.
    10030    2    1    2    0    0  0.00000000000E+00  0.00000000000E+00 -0.45370497969E+03  0.11890415189E+04  0.10990775792E+04 0.  0.
        5    1    3    3  502    0 -0.37373918713E+03 -0.76871659940E+02  0.20096649409E+03  0.43127700361E+03  0.46999998093E+01 0. -1.
       -5    1    3    3    0  502  0.37373918713E+03  0.76871659940E+02 -0.65467147377E+03  0.75776451532E+03  0.46999998093E+01 0.  1.
</event>
<event>
 5   0  0.6493047E-03  0.1219880E+04  0.7818609E-02  0.9095631E-01
        2   -1    0    0  501    0  0.00000000000E+00  0.00000000000E+00  0.21540148496E+04  0.21540148496E+04  0.25500000920E-02 0.  1.
       -2   -1    0    0    0  501  0.00000000000E+00  0.00000000000E+00 -0.17271321427E+03  0.17271321429E+03  0.25500000920E-02 0. -1.
    10030    2    1    2    0    0  0.00000000000E+00  0.00000000000E+00  0.19813016354E+04  0.23267280639E+04  0.12198800405E+04 0.  0.
        3    1    3    3  502    0  0.39199148249E+03 -0.58657589093E+02  0.10639934373E+03  0.41038867632E+03  0.10100000352E+00 0. -1.
       -3    1    3    3    0  502 -0.39199148249E+03  0.58657589093E+02  0.18749022916E+04  0.19163393876E+04  0.10100000352E+00 0.  1.
</event>
<event>
 5   0  0.6493047E-03  0.1165081E+04  0.7818609E-02  0.9143982E-01
       -2   -1    0    0    0  501  0.00000000000E+00  0.00000000000E+00  0.61147961930E+03  0.61147961931E+03  0.25500000920E-02 0. -1.
        2   -1    0    0  501    0  0.00000000000E+00  0.00000000000E+00 -0.55497115277E+03  0.55497115277E+03  0.25500000920E-02 0.  1.
    10030    2    1    2    0    0  0.00000000000E+00  0.00000000000E+00  0.56508466535E+02  0.11664507721E+04  0.11650811976E+04 0.  0.
        3    1    3    3  502    0  0.60936351819E+02 -0.23470204768E+03  0.55855153887E+03  0.60891552939E+03  0.10100000352E+00 0. -1.
       -3    1    3    3    0  502 -0.60936351819E+02  0.23470204768E+03 -0.50204307234E+03  0.55753524269E+03  0.10100000352E+00 0.  1.
</event>
<event>
 5   0  0.3944074E-03  0.1175989E+04  0.7818609E-02  0.9134137E-01
       -1   -1    0    0    0  501  0.00000000000E+00  0.00000000000E+00  0.31462124180E+03  0.31462124184E+03  0.50400001928E-02 0.  1.
        1   -1    0    0  501    0  0.00000000000E+00  0.00000000000E+00 -0.10989010539E+04  0.10989010539E+04  0.50400001928E-02 0. -1.
    10030    2    1    2    0    0  0.00000000000E+00  0.00000000000E+00 -0.78427981209E+03  0.14135222957E+04  0.11759891398E+04 0.  0.
        4    1    3    3  502    0 -0.47454988429E+03 -0.30669791248E+03 -0.19656384782E+03  0.59824757532E+03  0.12699999809E+01 0.  1.
       -4    1    3    3    0  502  0.47454988429E+03  0.30669791248E+03 -0.58771596427E+03  0.81527472042E+03  0.12699999809E+01 0. -1.
</event>
<event>
 5   0  0.3944074E-03  0.1200453E+04  0.7818609E-02  0.9112460E-01
       -1   -1    0    0    0  501  0.00000000000E+00  0.00000000000E+00  0.69577843275E+03  0.69577843277E+03  0.50400001928E-02 0.  1.
        1   -1    0    0  501    0  0.00000000000E+00  0.00000000000E+00 -0.51779682307E+03  0.51779682310E+03  0.50400001928E-02 0. -1.
    10030    2    1    2    0    0  0.00000000000E+00  0.00000000000E+00  0.17798160968E+03  0.12135752559E+04  0.12004530179E+04 0.  0.
        4    1    3    3  502    0  0.22106372653E+03  0.50974123005E+03 -0.14057059924E+03  0.57312040539E+03  0.12699999809E+01 0.  1.
       -4    1    3    3    0  502 -0.22106372653E+03 -0.50974123005E+03  0.31855220892E+03  0.64045485048E+03  0.12699999809E+01 0. -1.
</event>
<event>
 5   0  0.3701879E-03  0.1159956E+04  0.7818609E-02  0.9148648E-01
       -1   -1    0    0    0  501  0.00000000000E+00  0.00000000000E+00  0.59601851625E+03  0.59601851627E+03  0.50400001928E-02 0.  1.
        1   -1    0    0  501    0  0.00000000000E+00  0.00000000000E+00 -0.56436918545E+03  0.56436918547E+03  0.50400001928E-02 0. -1.
    10030    2    1    2    0    0  0.00000000000E+00  0.00000000000E+00  0.31649330800E+02  0.11603877017E+04  0.11599560070E+04 0.  0.
        1    1    3    3  502    0  0.20666798811E+03 -0.36813141866E+03  0.41364349042E+03  0.59104427575E+03  0.50400001928E-02 0.  1.
       -1    1    3    3    0  502 -0.20666798811E+03  0.36813141866E+03 -0.38199415962E+03  0.56934342599E+03  0.50400001928E-02 0. -1.
</event>
<event>
 5   0  0.3731281E-03  0.7558478E+03  0.7818609E-02  0.9626221E-01
       -1   -1    0    0    0  501  0.00000000000E+00  0.00000000000E+00  0.18891455421E+03  0.18891455427E+03  0.50400001928E-02 0. -1.
        1   -1    0    0  501    0  0.00000000000E+00  0.00000000000E+00 -0.75603740627E+03  0.75603740628E+03  0.50400001928E-02 0.  1.
    10030    2    1    2    0    0  0.00000000000E+00  0.00000000000E+00 -0.56712285206E+03  0.94495196055E+03  0.75584778787E+03 0.  0.
        5    1    3    3  502    0  0.32932649506E+03 -0.11580369241E+03 -0.10265982860E+03  0.36390598502E+03  0.46999998093E+01 0. -1.
       -5    1    3    3    0  502 -0.32932649506E+03  0.11580369241E+03 -0.46446302346E+03  0.58104597554E+03  0.46999998093E+01 0.  1.
</event>
<event>
 5   0  0.3772254E-03  0.1266763E+04  0.7818609E-02  0.9056346E-01
       -1   -1    0    0    0  501  0.00000000000E+00  0.00000000000E+00  0.73198404774E+03  0.73198404775E+03  0.50400001928E-02 0. -1.
        1   -1    0    0  501    0  0.00000000000E+00  0.00000000000E+00 -0.54806094359E+03  0.54806094361E+03  0.50400001928E-02 0.  1.
    10030    2    1    2    0    0  0.00000000000E+00  0.00000000000E+00  0.18392310415E+03  0.12800449914E+04  0.12667625948E+04 0.  0.
        3    1    3    3  502    0 -0.30978049047E+03  0.11072356384E+01 -0.46628624842E+03  0.55981073044E+03  0.10100000352E+00 0.  1.
       -3    1    3    3    0  502  0.30978049047E+03 -0.11072356384E+01  0.65020935256E+03  0.72023426093E+03  0.10100000352E+00 0. -1.
</event>
<event>
 5   0  0.3648616E-03  0.1165528E+04  0.7818609E-02  0.9143576E-01
       -1   -1    0    0    0  501  0.00000000000E+00  0.00000000000E+00  0.36515229907E+03  0.36515229910E+03  0.50400001928E-02 0. -1.
        1   -1    0    0  501    0  0.00000000000E+00  0.00000000000E+00 -0.93006132742E+03  0.93006132743E+03  0.50400001928E-02 0.  1.
    10030    2    1    2    0    0  0.00000000000E+00  0.00000000000E+00 -0.56490902835E+03  0.12952136265E+04  0.11655282614E+04 0.  0.
        2    1    3    3  502    0 -0.31933601799E+03 -0.28957870691E+03 -0.71823959113E+03  0.83767501464E+03  0.25500000920E-02 0.  1.
       -2    1    3    3    0  502  0.31933601799E+03  0.28957870691E+03  0.15333056278E+03  0.45753861189E+03  0.25500000920E-02 0. -1.
</event>
<event>
 5   0  0.3648616E-03  0.1293089E+04  0.7818609E-02  0.9035064E-01
       -1   -1    0    0    0  501  0.00000000000E+00  0.00000000000E+00  0.84804213142E+03  0.84804213143E+03  0.50400001928E-02 0.  1.
        1   -1    0    0  501    0  0.00000000000E+00  0.00000000000E+00 -0.49292343949E+03  0.49292343951E+03  0.50400001928E-02 0. -1.
    10030    2    1    2    0    0  0.00000000000E+00  0.00000000000E+00  0.35511869193E+03  0.13409655709E+04  0.12930890832E+04 0.  0.
        2    1    3    3  502    0  0.20307386057E+03  0.30581988607E+03 -0.37436304336E+03  0.52432097402E+03  0.25500000920E-02 0. -1.
       -2    1    3    3    0  502 -0.20307386057E+03 -0.30581988607E+03  0.72948173529E+03  0.81664459692E+03  0.25500000920E-02 0.  1.
</event>
<event>
 5   0  0.6585930E-03  0.7337260E+03  0.7818609E-02  0.9661233E-01
        2   -1    0    0  501    0  0.00000000000E+00  0.00000000000E+00  0.13527674224E+03  0.13527674227E+03  0.25500000920E-02 0.  1.
       -2   -1    0    0    0  501  0.00000000000E+00  0.00000000000E+00 -0.99491195078E+03  0.99491195078E+03  0.25500000920E-02 0. -1.
    10030    2    1    2    0    0  0.00000000000E+00  0.00000000000E+00 -0.85963520854E+03  0.11301886931E+04  0.73372596393E+03 0.  0.
        2    1    3    3  502    0  0.33962750831E+03 -0.42287830269E+02 -0.63331383844E+03  0.71987604694E+03  0.25500000920E-02 0.  1.
       -2    1    3    3    0  502 -0.33962750831E+03  0.42287830269E+02 -0.22632137010E+03  0.41031264611E+03  0.25500000920E-02 0. -1.
</event>
<event>
 5   0  0.3772254E-03  0.1230488E+04  0.7818609E-02  0.9086581E-01
       -1   -1    0    0    0  501  0.00000000000E+00  0.00000000000E+00  0.34520503119E+03  0.34520503123E+03  0.50400001928E-02 0.  1.
        1   -1    0    0  501    0  0.00000000000E+00  0.00000000000E+00 -0.10965222188E+04  0.10965222188E+04  0.50400001928E-02 0. -1.
    10030    2    1    2    0    0  0.00000000000E+00  0.00000000000E+00 -0.75131718762E+03  0.14417272500E+04  0.12304876867E+04 0.  0.
        3    1    3    3  502    0  0.25585000793E+03  0.34506973106E+02 -0.10299875348E+04  0.10618494666E+04  0.10100000352E+00 0. -1.
       -3    1    3    3    0  502 -0.25585000793E+03 -0.34506973106E+02  0.27867034717E+03  0.37987778343E+03  0.10100000352E+00 0.  1.
</event>
<event>
 5   0  0.3701879E-03  0.1258280E+04  0.7818609E-02  0.9063320E-01
       -1   -1    0    0    0  501  0.00000000000E+00  0.00000000000E+00  0.49098513299E+03  0.49098513302E+03  0.50400001928E-02 0.  1.
        1   -1    0    0  501    0  0.00000000000E+00  0.00000000000E+00 -0.80616925920E+03  0.80616925922E+03  0.50400001928E-02 0. -1.
    10030    2    1    2    0    0  0.00000000000E+00  0.00000000000E+00 -0.31518412621E+03  0.12971543922E+04  0.12582799704E+04 0.  0.
        1    1    3    3  502    0 -0.17077634604E+03 -0.47678353039E+03 -0.54239355374E+03  0.74207672271E+03  0.50400001928E-02 0. -1.
       -1    1    3    3    0  502  0.17077634604E+03  0.47678353039E+03  0.22720942754E+03  0.55507766953E+03  0.50400001928E-02 0.  1.
</event>
<event>
 5   0  0.6585930E-03  0.1207734E+04  0.7818609E-02  0.9106114E-01
       -2   -1    0    0    0  501  0.00000000000E+00  0.00000000000E+00  0.28148699446E+03  0.28148699447E+03  0.25500000920E-02 0.  1.
        2   -1    0    0  501    0  0.00000000000E+00  0.00000000000E+00 -0.12954602322E+04  0.12954602322E+04  0.25500000920E-02 0. -1.
    10030    2    1    2    0    0  0.00000000000E+00  0.00000000000E+00 -0.10139732377E+04  0.15769472267E+04  0.12077337574E+04 0.  0.
        2    1    3    3  502    0  0.26013493574E+03 -0.49348639239E+03 -0.20509920450E+03  0.59436073891E+03  0.25500000920E-02 0.  1.
       -2    1    3    3    0  502 -0.26013493574E+03  0.49348639239E+03 -0.80887403323E+03  0.98258648775E+03  0.25500000920E-02 0. -1.
</event>
<event>
 5   0  0.3648616E-03  0.1197894E+04  0.7818609E-02  0.9114702E-01
       -1   -1    0    0    0  501  0.00000000000E+00  0.00000000000E+00  0.60438363235E+03  0.60438363237E+03  0.50400001928E-02 0.  1.
        1   -1    0    0  501    0  0.00000000000E+00  0.00000000000E+00 -0.59355949059E+03  0.59355949062E+03  0.50400001928E-02 0. -1.
    10030    2    1    2    0    0  0.00000000000E+00  0.00000000000E+00  0.10824141758E+02  0.11979431230E+04  0.11978942207E+04 0.  0.
        2    1    3    3  502    0 -0.33343336193E+03  0.17177039383E+03  0.47239447937E+03  0.60319103042E+03  0.25500000920E-02 0.  1.
       -2    1    3    3    0  502  0.33343336193E+03 -0.17177039383E+03 -0.46157033761E+03  0.59475209256E+03  0.25500000920E-02 0. -1.
</event>
<event>
 5   0  0.3772254E-03  0.1138409E+04  0.7818609E-02  0.9168544E-01
        1   -1    0    0  501    0  0.00000000000E+00  0.00000000000E+00  0.14747037979E+04  0.14747037979E+04  0.50400001928E-02 0.  1.
       -1   -1    0    0    0  501  0.00000000000E+00  0.00000000000E+00 -0.21970091079E+03  0.21970091085E+03  0.50400001928E-02 0. -1.
    10030    2    1    2    0    0  0.00000000000E+00  0.00000000000E+00  0.12550028871E+04  0.16944047087E+04  0.11384090084E+04 0.  0.
        3    1    3    3  502    0 -0.46391050992E+03  0.28706823783E+03  0.38579095880E+03  0.66817348681E+03  0.10100000352E+00 0. -1.
       -3    1    3    3    0  502  0.46391050992E+03 -0.28706823783E+03  0.86921192827E+03  0.10262312219E+04  0.10100000352E+00 0.  1.
</event>
<event>
 5   0  0.6349142E-03  0.1253821E+04  0.7818609E-02  0.9067009E-01
       -2   -1    0    0    0  501  0.00000000000E+00  0.00000000000E+00  0.60930311092E+03  0.60930311092E+03  0.25500000920E-02 0.  1.
        2   -1    0    0  501    0  0.00000000000E+00  0.00000000000E+00 -0.64502639541E+03  0.64502639542E+03  0.25500000920E-02 0. -1.
    10030    2    1    2    0    0  0.00000000000E+00  0.00000000000E+00 -0.35723284496E+02  0.12543295063E+04  0.12538207039E+04 0.  0.
        1    1    3    3  502    0  0.33414927125E+03 -0.23606718008E+03  0.45733968571E+03  0.61363102687E+03  0.50400001928E-02 0.  1.
       -1    1    3    3    0  502 -0.33414927125E+03  0.23606718008E+03 -0.49306297020E+03  0.64069847947E+03  0.50400001928E-02 0. -1.
</event>
<event>
 5   0  0.6585930E-03  0.1175779E+04  0.7818609E-02  0.9134326E-01
       -2   -1    0    0    0  501  0.00000000000E+00  0.00000000000E+00  0.58917638003E+03  0.58917638004E+03  0.25500000920E-02 0. -1.
        2   -1    0    0  501    0  0.00000000000E+00  0.00000000000E+00 -0.58660517044E+03  0.58660517045E+03  0.25500000920E-02 0.  1.
    10030    2    1    2    0    0  0.00000000000E+00  0.00000000000E+00  0.25712095920E+01  0.11757815505E+04  0.11757787391E+04 0.  0.
        2    1    3    3  502    0 -0.16643176841E+03  0.32918611324E+03 -0.45648276704E+03  0.58688972328E+03  0.25500000920E-02 0.  1.
       -2    1    3    3    0  502  0.16643176841E+03 -0.32918611324E+03  0.45905397663E+03  0.58889182721E+03  0.25500000920E-02 0. -1.
</event>
<event>
 5   0  0.6658994E-03  0.8881650E+03  0.7818609E-02  0.9440498E-01
       -2   -1    0    0    0  501  0.00000000000E+00  0.00000000000E+00  0.14859319275E+03  0.14859319278E+03  0.25500000920E-02 0.  1.
        2   -1    0    0  501    0  0.00000000000E+00  0.00000000000E+00 -0.13271755254E+04  0.13271755254E+04  0.25500000920E-02 0. -1.
    10030    2    1    2    0    0  0.00000000000E+00  0.00000000000E+00 -0.11785823327E+04  0.14757687182E+04  0.88816495919E+03 0.  0.
        4    1    3    3  502    0 -0.37650845514E+03 -0.15343811675E+03 -0.29249435205E+03  0.50085569912E+03  0.12699999809E+01 0.  1.
       -4    1    3    3    0  502  0.37650845514E+03  0.15343811675E+03 -0.88608798060E+03  0.97491301906E+03  0.12699999809E+01 0. -1.
</event>
<event>
 5   0  0.6640844E-03  0.1210407E+04  0.7818609E-02  0.9103796E-01
        2   -1    0    0  501    0  0.00000000000E+00  0.00000000000E+00  0.10753212902E+04  0.10753212902E+04  0.25500000920E-02 0.  1.
       -2   -1    0    0    0  501  0.00000000000E+00  0.00000000000E+00 -0.34061552296E+03  0.34061552297E+03  0.25500000920E-02 0. -1.
    10030    2    1    2    0    0  0.00000000000E+00  0.00000000000E+00  0.73470576728E+03  0.14159368132E+04  0.12104067476E+04 0.  0.
        5    1    3    3  502    0  0.26550429891E+03  0.72128132129E+00 -0.26882608088E+03  0.37786585549E+03  0.46999998093E+01 0. -1.
       -5    1    3    3    0  502 -0.26550429891E+03 -0.72128132129E+00  0.10035318482E+04  0.10380709577E+04  0.46999998093E+01 0.  1.
</event>
<event>
 5   0  0.6658994E-03  0.1231212E+04  0.7818609E-02  0.9085967E-01
       -2   -1    0    0    0  501  0.00000000000E+00  0.00000000000E+00  0.88209013609E+03  0.88209013609E+03  0.25500000920E-02 0.  1.
        2   -1    0    0  501    0  0.00000000000E+00  0.00000000000E+00 -0.42962802829E+03  0.42962802830E+03  0.25500000920E-02 0. -1.
    10030    2    1    2    0    0  0.00000000000E+00  0.00000000000E+00  0.45246210779E+03  0.13117181644E+04  0.12312118355E+04 0.  0.
        4    1    3    3  502    0 -0.51931947178E+03  0.15945886094E+03 -0.82270381592E+02  0.54944505703E+03  0.12699999809E+01 0. -1.
       -4    1    3    3    0  502  0.51931947178E+03 -0.15945886094E+03  0.53473248939E+03  0.76227310736E+03  0.12699999809E+01 0.  1.
</event>
<event>
 5   0  0.6349142E-03  0.1197081E+04  0.7818609E-02  0.9115415E-01
       -2   -1    0    0    0  501  0.00000000000E+00  0.00000000000E+00  0.47755696319E+03  0.47755696320E+03  0.25500000920E-02 0. -1.
        2   -1    0    0  501    0  0.00000000000E+00  0.00000000000E+00 -0.75017409935E+03  0.75017409935E+03  0.25500000920E-02 0.  1.
    10030    2    1    2    0    0  0.00000000000E+00  0.00000000000E+00 -0.27261713615E+03  0.12277310625E+04  0.11970812249E+04 0.  0.
        1    1    3    3  502    0  0.27858738503E+03 -0.41583550141E+03 -0.47292037720E+03  0.68861003371E+03  0.50400001928E-02 0.  1.
       -1    1    3    3    0  502 -0.27858738503E+03  0.41583550141E+03  0.20030324105E+03  0.53912102883E+03  0.50400001928E-02 0. -1.
</event>
<event>
 5   0  0.3648616E-03  0.1001153E+04  0.7818609E-02  0.9307281E-01
       -1   -1    0    0    0  501  0.00000000000E+00  0.00000000000E+00  0.44506034056E+03  0.44506034059E+03  0.50400001928E-02 0. -1.
        1   -1    0    0  501    0  0.00000000000E+00  0.00000000000E+00 -0.56301783348E+03  0.56301783350E+03  0.50400001928E-02 0.  1.
    10030    2    1    2    0    0  0.00000000000E+00  0.00000000000E+00 -0.11795749292E+03  0.10080781741E+04  0.10011531526E+04 0.  0.
        2    1    3    3  502    0 -0.75645073812E+02  0.18433711452E+03  0.40340843635E+03  0.44993412352E+03  0.25500000920E-02 0. -1.
       -2    1    3    3    0  502  0.75645073812E+02 -0.18433711452E+03 -0.52136592927E+03  0.55814405057E+03  0.25500000920E-02 0.  1.
</event>
<event>
 5   0  0.6585930E-03  0.8768579E+03  0.7818609E-02  0.9454982E-01
       -2   -1    0    0    0  501  0.00000000000E+00  0.00000000000E+00  0.29836366691E+03  0.29836366692E+03  0.25500000920E-02 0.  1.
        2   -1    0    0  501    0  0.00000000000E+00  0.00000000000E+00 -0.64424717561E+03  0.64424717561E+03  0.25500000920E-02 0. -1.
    10030    2    1    2    0    0  0.00000000000E+00  0.00000000000E+00 -0.34588350870E+03  0.94261084253E+03  0.87685791259E+03 0.  0.
        2    1    3    3  502    0  0.27400535978E+03  0.10012175078E+03 -0.52477080113E+03  0.60040627569E+03  0.25500000920E-02 0. -1.
       -2    1    3    3    0  502 -0.27400535978E+03 -0.10012175078E+03  0.17888729243E+03  0.34220456684E+03  0.25500000920E-02 0.  1.
</event>
<event>
 5   0  0.6493047E-03  0.1167441E+04  0.7818609E-02  0.9141842E-01
       -2   -1    0    0    0  501  0.00000000000E+00  0.00000000000E+00  0.21703756994E+03  0.21703756996E+03  0.25500000920E-02 0. -1.
        2   -1    0    0  501    0  0.00000000000E+00  0.00000000000E+00 -0.15699115308E+04  0.15699115308E+04  0.25500000920E-02 0.  1.
    10030    2    1    2    0    0  0.00000000000E+00  0.00000000000E+00 -0.13528739609E+04  0.17869491008E+04  0.11674412768E+04 0.  0.
        3    1    3    3  502    0  0.18106753795E+03  0.18544209559E+03  0.12413410882E+03  0.28737347005E+03  0.10100000352E+00 0. -1.
       -3    1    3    3    0  502 -0.18106753795E+03 -0.18544209559E+03 -0.14770080697E+04  0.14995756307E+04  0.10100000352E+00 0.  1.
</event>
<event>
 5   0  0.6640844E-03  0.1325828E+04  0.7818609E-02  0.9009330E-01
       -2   -1    0    0    0  501  0.00000000000E+00  0.00000000000E+00  0.45743986254E+03  0.45743986255E+03  0.25500000920E-02 0. -1.
        2   -1    0    0  501    0  0.00000000000E+00  0.00000000000E+00 -0.96068424433E+03  0.96068424433E+03  0.25500000920E-02 0.  1.
    10030    2    1    2    0    0  0.00000000000E+00  0.00000000000E+00 -0.50324438179E+03  0.14181241069E+04  0.13258284485E+04 0.  0.
        5    1    3    3  502    0 -0.40030435527E+02  0.66098645997E+03 -0.28419965387E+03  0.72062269552E+03  0.46999998093E+01 0. -1.
       -5    1    3    3    0  502  0.40030435527E+02 -0.66098645997E+03 -0.21904472791E+03  0.69750141137E+03  0.46999998093E+01 0.  1.
</event>
<event>
 5   0  0.6349142E-03  0.1184793E+04  0.7818609E-02  0.9126273E-01
       -2   -1    0    0    0  501  0.00000000000E+00  0.00000000000E+00  0.85097202797E+03  0.85097202798E+03  0.25500000920E-02 0.  1.
        2   -1    0    0  501    0  0.00000000000E+00  0.00000000000E+00 -0.41239122685E+03  0.41239122685E+03  0.25500000920E-02 0. -1.
    10030    2    1    2    0    0  0.00000000000E+00  0.00000000000E+00  0.43858080113E+03  0.12633632548E+04  0.11847926378E+04 0.  0.
        1    1    3    3  502    0  0.30163632071E+03 -0.27266062449E+03 -0.24009888486E+03  0.47220309259E+03  0.50400001928E-02 0. -1.
       -1    1    3    3    0  502 -0.30163632071E+03  0.27266062449E+03  0.67867968599E+03  0.79116016224E+03  0.50400001928E-02 0.  1.
</event>
<event>
 5   0  0.3701879E-03  0.1214155E+04  0.7818609E-02  0.9100556E-01
       -1   -1    0    0    0  501  0.00000000000E+00  0.00000000000E+00  0.65737463615E+03  0.65737463617E+03  0.50400001928E-02 0. -1.
        1   -1    0    0  501    0  0.00000000000E+00  0.00000000000E+00 -0.56062862616E+03  0.56062862618E+03  0.50400001928E-02 0.  1.
    10030    2    1    2    0    0  0.00000000000E+00  0.00000000000E+00  0.96746009990E+02  0.12180032623E+04  0.12141549146E+04 0.  0.
        1    1    3    3  502    0 -0.30618593159E+03  0.88574213475E+02 -0.46993455236E+03  0.56783245727E+03  0.50400001928E-02 0.  1.
       -1    1    3    3    0  502  0.30618593159E+03 -0.88574213475E+02  0.56668056235E+03  0.65017080508E+03  0.50400001928E-02 0. -1.
</event>
<event>
 5   0  0.6585930E-03  0.1206159E+04  0.7818609E-02  0.9107482E-01
        2   -1    0    0  501    0  0.00000000000E+00  0.00000000000E+00  0.12441207907E+04  0.12441207907E+04  0.25500000920E-02 0.  1.
       -2   -1    0    0    0  501  0.00000000000E+00  0.00000000000E+00 -0.29233910712E+03  0.29233910713E+03  0.25500000920E-02 0. -1.
    10030    2    1    2    0    0  0.00000000000E+00  0.00000000000E+00  0.95178168354E+03  0.15364598978E+04  0.12061594606E+04 0.  0.
        2    1    3    3  502    0  0.31001369230E+02  0.22011277954E+03 -0.23825161183E+03  0.32584436646E+03  0.25500000920E-02 0. -1.
       -2    1    3    3    0  502 -0.31001369230E+02 -0.22011277954E+03  0.11900332954E+04  0.12106155313E+04  0.25500000920E-02 0.  1.
</event>
<event>
 5   0  0.3772254E-03  0.1193678E+04  0.7818609E-02  0.9118408E-01
       -1   -1    0    0    0  501  0.00000000000E+00  0.00000000000E+00  0.52850823516E+03  0.52850823519E+03  0.50400001928E-02 0.  1.
        1   -1    0    0  501    0  0.00000000000E+00  0.00000000000E+00 -0.67400443670E+03  0.67400443672E+03  0.50400001928E-02 0. -1.
    10030    2    1    2    0    0  0.00000000000E+00  0.00000000000E+00 -0.14549620154E+03  0.12025126719E+04  0.11936781733E+04 0.  0.
        3    1    3    3  502    0 -0.17982611288E+03  0.30766557654E+03 -0.55506217964E+03  0.65961319827E+03  0.10100000352E+00 0. -1.
       -3    1    3    3    0  502  0.17982611288E+03 -0.30766557654E+03  0.40956597810E+03  0.54289947364E+03  0.10100000352E+00 0.  1.
</event>
<event>
 5   0  0.6640844E-03  0.1274773E+04  0.7818609E-02  0.9049813E-01
        2   -1    0    0  501    0  0.00000000000E+00  0.00000000000E+00  0.12868640442E+04  0.12868640442E+04  0.25500000920E-02 0.  1.
       -2   -1    0    0    0  501  0.00000000000E+00  0.00000000000E+00 -0.31569883861E+03  0.31569883862E+03  0.25500000920E-02 0. -1.
    10030    2    1    2    0    0  0.00000000000E+00  0.00000000000E+00  0.97116520555E+03  0.16025628828E+04  0.12747728962E+04 0.  0.
        5    1    3    3  502    0  0.17495473016E+03 -0.57430176090E+02  0.12526745912E+04  0.12661449776E+04  0.46999998093E+01 0.  1.
       -5    1    3    3    0  502 -0.17495473016E+03  0.57430176090E+02 -0.28150938567E+03  0.33641790521E+03  0.46999998093E+01 0. -1.
</event>
<event>
 5   0  0.3648616E-03  0.1171889E+04  0.7818609E-02  0.9137825E-01
       -1   -1    0    0    0  501  0.00000000000E+00  0.00000000000E+00  0.33530150396E+03  0.33530150400E+03  0.50400001928E-02 0.  1.
        1   -1    0    0  501    0  0.00000000000E+00  0.00000000000E+00 -0.10239463302E+04  0.10239463302E+04  0.50400001928E-02 0. -1.
    10030    2    1    2    0    0  0.00000000000E+00  0.00000000000E+00 -0.68864482622E+03  0.13592478342E+04  0.11718886372E+04 0.  0.
        2    1    3    3  502    0 -0.55114679500E+03 -0.17899668001E+03 -0.24368574532E+03  0.62863768864E+03  0.25500000920E-02 0.  1.
       -2    1    3    3    0  502  0.55114679500E+03  0.17899668001E+03 -0.44495908090E+03  0.73061014555E+03  0.25500000920E-02 0. -1.
</event>
<event>
 5   0  0.6658994E-03  0.1224651E+04  0.7818609E-02  0.9091549E-01
       -2   -1    0    0    0  501  0.00000000000E+00  0.00000000000E+00  0.30544928782E+03  0.30544928783E+03  0.25500000920E-02 0.  1.
        2   -1    0    0  501    0  0.00000000000E+00  0.00000000000E+00 -0.12275105305E+04  0.12275105305E+04  0.25500000920E-02 0. -1.
    10030    2    1    2    0    0  0.00000000000E+00  0.00000000000E+00 -0.92206124266E+03  0.15329598183E+04  0.12246505091E+04 0.  0.
        4    1    3    3  502    0 -0.40050585356E+03 -0.42386950867E+03 -0.69477785453E+03  0.90707672177E+03  0.12699999809E+01 0. -1.
       -4    1    3    3    0  502  0.40050585356E+03  0.42386950867E+03 -0.22728338813E+03  0.62588309654E+03  0.12699999809E+01 0.  1.
</event>
<event>
 5   0  0.3701879E-03  0.1189704E+04  0.7818609E-02  0.9121917E-01
       -1   -1    0    0    0  501  0.00000000000E+00  0.00000000000E+00  0.28425806134E+03  0.28425806139E+03  0.50400001928E-02 0.  1.
        1   -1    0    0  501    0  0.00000000000E+00  0.00000000000E+00 -0.12448152531E+04  0.12448152531E+04  0.50400001928E-02 0. -1.
    10030    2    1    2    0    0  0.00000000000E+00  0.00000000000E+00 -0.96055719179E+03  0.15290733145E+04  0.11897037793E+04 0.  0.
        1    1    3    3  502    0  0.47198981803E+03  0.13186152887E+03 -0.91363449941E+03  0.10367689471E+04  0.50400001928E-02 0. -1.
       -1    1    3    3    0  502 -0.47198981803E+03 -0.13186152887E+03 -0.46922692383E+02  0.49230436744E+03  0.50400001928E-02 0.  1.
</event>
<event>
 5   0  0.6349142E-03  0.1213252E+04  0.7818609E-02  0.9101335E-01
       -2   -1    0    0    0  501  0.00000000000E+00  0.00000000000E+00  0.61412478665E+03  0.61412478665E+03  0.25500000920E-02 0. -1.
        2   -1    0    0  501    0  0.00000000000E+00  0.00000000000E+00 -0.59921892203E+03  0.59921892204E+03  0.25500000920E-02 0.  1.
    10030    2    1    2    0    0  0.00000000000E+00  0.00000000000E+00  0.14905864613E+02  0.12133437087E+04  0.12132521464E+04 0.  0.
        1    1    3    3  502    0 -0.32583391132E+03  0.43688705197E+03  0.27385088491E+03  0.60994453940E+03  0.50400001928E-02 0. -1.
       -1    1    3    3    0  502  0.32583391132E+03 -0.43688705197E+03 -0.25894502030E+03  0.60339916930E+03  0.50400001928E-02 0.  1.
</event>
<event>
 5   0  0.3944074E-03  0.1238019E+04  0.7818609E-02  0.9080214E-01
        1   -1    0    0  501    0  0.00000000000E+00  0.00000000000E+00  0.45299034410E+03  0.45299034413E+03  0.50400001928E-02 0.  1.
       -1   -1    0    0    0  501  0.00000000000E+00  0.00000000000E+00 -0.84587411660E+03  0.84587411661E+03  0.50400001928E-02 0. -1.
    10030    2    1    2    0    0  0.00000000000E+00  0.00000000000E+00 -0.39288377249E+03  0.12988644607E+04  0.12380190744E+04 0.  0.
        4    1    3    3  502    0  0.26684584962E+03 -0.42060445215E+03  0.18911996156E+03  0.53280651778E+03  0.12699999809E+01 0.  1.
       -4    1    3    3    0  502 -0.26684584962E+03  0.42060445215E+03 -0.58200373406E+03  0.76605794297E+03  0.12699999809E+01 0. -1.
</event>
<event>
 5   0  0.2537625E-03  0.1098544E+04  0.7818609E-02  0.9206612E-01
       -3   -1    0    0    0  501  0.00000000000E+00  0.00000000000E+00  0.10085828371E+04  0.10085828422E+04  0.10100000352E+00 0.  1.
        3   -1    0    0  501    0  0.00000000000E+00  0.00000000000E+00 -0.29913212750E+03  0.29913214455E+03  0.10100000352E+00 0. -1.
    10030    2    1    2    0    0  0.00000000000E+00  0.00000000000E+00  0.70945070964E+03  0.13077149867E+04  0.10985436619E+04 0.  0.
        4    1    3    3  502    0 -0.25277087900E+03  0.62768156518E+02 -0.22095096860E+03  0.34154633971E+03  0.12699999809E+01 0. -1.
       -4    1    3    3    0  502  0.25277087900E+03 -0.62768156518E+02  0.93040167824E+03  0.96616864704E+03  0.12699999809E+01 0.  1.
</event>
<event>
 5   0  0.6493047E-03  0.1205548E+04  0.7818609E-02  0.9108015E-01
       -2   -1    0    0    0  501  0.00000000000E+00  0.00000000000E+00  0.28498620006E+03  0.28498620007E+03  0.25500000920E-02 0.  1.
        2   -1    0    0  501    0  0.00000000000E+00  0.00000000000E+00 -0.12749255912E+04  0.12749255912E+04  0.25500000920E-02 0. -1.
    10030    2    1    2    0    0  0.00000000000E+00  0.00000000000E+00 -0.98993939114E+03  0.15599117913E+04  0.12055475098E+04 0.  0.
        3    1    3    3  502    0  0.59900468438E+03 -0.16569977210E+02 -0.41056508427E+03  0.72639168131E+03  0.10100000352E+00 0.  1.
       -3    1    3    3    0  502 -0.59900468438E+03  0.16569977210E+02 -0.57937430686E+03  0.83352010996E+03  0.10100000352E+00 0. -1.
</event>
<event>
 5   0  0.3772254E-03  0.1152279E+04  0.7818609E-02  0.9155683E-01
        1   -1    0    0  501    0  0.00000000000E+00  0.00000000000E+00  0.67222680230E+03  0.67222680232E+03  0.50400001928E-02 0. -1.
       -1   -1    0    0    0  501  0.00000000000E+00  0.00000000000E+00 -0.49378695286E+03  0.49378695288E+03  0.50400001928E-02 0.  1.
    10030    2    1    2    0    0  0.00000000000E+00  0.00000000000E+00  0.17843984944E+03  0.11660137552E+04  0.11522791751E+04 0.  0.
        3    1    3    3  502    0 -0.45586734237E+03 -0.34314512396E+03  0.17000383633E+03  0.59536956969E+03  0.10100000352E+00 0. -1.
       -3    1    3    3    0  502  0.45586734237E+03  0.34314512396E+03  0.84360131089E+01  0.57064418551E+03  0.10100000352E+00 0.  1.
</event>
<event>
 5   0  0.6349142E-03  0.1214382E+04  0.7818609E-02  0.9100361E-01
       -2   -1    0    0    0  501  0.00000000000E+00  0.00000000000E+00  0.22353610096E+03  0.22353610097E+03  0.25500000920E-02 0. -1.
        2   -1    0    0  501    0  0.00000000000E+00  0.00000000000E+00 -0.16493119136E+04  0.16493119136E+04  0.25500000920E-02 0.  1.
    10030    2    1    2    0    0  0.00000000000E+00  0.00000000000E+00 -0.14257758126E+04  0.18728480145E+04  0.12143817430E+04 0.  0.
        1    1    3    3  502    0  0.41238482365E+03 -0.39332925825E+03 -0.10360623182E+04  0.11824526525E+04  0.50400001928E-02 0.  1.
       -1    1    3    3    0  502 -0.41238482365E+03  0.39332925825E+03 -0.38971349436E+03  0.69039536200E+03  0.50400001928E-02 0. -1.
</event>
<event>
 5   0  0.3944074E-03  0.1180679E+04  0.7818609E-02  0.9129938E-01
        1   -1    0    0  501    0  0.00000000000E+00  0.00000000000E+00  0.10541024394E+04  0.10541024394E+04  0.50400001928E-02 0.  1.
       -1   -1    0    0    0  501  0.00000000000E+00  0.00000000000E+00 -0.33061362622E+03  0.33061362626E+03  0.50400001928E-02 0. -1.
    10030    2    1    2    0    0  0.00000000000E+00  0.00000000000E+00  0.72348881314E+03  0.13847160656E+04  0.11806788385E+04 0.  0.
        4    1    3    3  502    0  0.37828190723E+03 -0.21293296099E+03  0.83095976192E+03  0.93751447245E+03  0.12699999809E+01 0.  1.
       -4    1    3    3    0  502 -0.37828190723E+03  0.21293296099E+03 -0.10747094878E+03  0.44720159319E+03  0.12699999809E+01 0. -1.
</event>
<event>
 5   0  0.6493047E-03  0.1199494E+04  0.7818609E-02  0.9113299E-01
       -2   -1    0    0    0  501  0.00000000000E+00  0.00000000000E+00  0.58089794480E+03  0.58089794481E+03  0.25500000920E-02 0.  1.
        2   -1    0    0  501    0  0.00000000000E+00  0.00000000000E+00 -0.61920791286E+03  0.61920791287E+03  0.25500000920E-02 0. -1.
    10030    2    1    2    0    0  0.00000000000E+00  0.00000000000E+00 -0.38309968060E+02  0.12001058577E+04  0.11994942334E+04 0.  0.
        3    1    3    3  502    0 -0.17577916388E+03 -0.41279072198E+03 -0.41735553575E+03  0.61276434952E+03  0.10100000352E+00 0. -1.
       -3    1    3    3    0  502  0.17577916388E+03  0.41279072198E+03  0.37904556769E+03  0.58734150815E+03  0.10100000352E+00 0.  1.
</event>
<event>
 5   0  0.3944074E-03  0.1199775E+04  0.7818609E-02  0.9113053E-01
       -1   -1    0    0    0  501  0.00000000000E+00  0.00000000000E+00  0.68198562018E+03  0.68198562020E+03  0.50400001928E-02 0. -1.
        1   -1    0    0  501    0  0.00000000000E+00  0.00000000000E+00 -0.52767244749E+03  0.52767244752E+03  0.50400001928E-02 0.  1.
    10030    2    1    2    0    0  0.00000000000E+00  0.00000000000E+00  0.15431317269E+03  0.12096580677E+04  0.11997750145E+04 0.  0.
        4    1    3    3  502    0  0.27522741921E+03 -0.53293830107E+03  0.86723874920E+02  0.60604950987E+03  0.12699999809E+01 0. -1.
       -4    1    3    3    0  502 -0.27522741921E+03  0.53293830107E+03  0.67589297766E+02  0.60360855784E+03  0.12699999809E+01 0.  1.
</event>
<event>
 5   0  0.3731281E-03  0.1183372E+04  0.7818609E-02  0.9127537E-01
       -1   -1    0    0    0  501  0.00000000000E+00  0.00000000000E+00  0.13118581975E+04  0.13118581975E+04  0.50400001928E-02 0. -1.
        1   -1    0    0  501    0  0.00000000000E+00  0.00000000000E+00 -0.26686731443E+03  0.26686731448E+03  0.50400001928E-02 0.  1.
    10030    2    1    2    0    0  0.00000000000E+00  0.00000000000E+00  0.10449908831E+04  0.15787255120E+04  0.11833715801E+04 0.  0.
        5    1    3    3  502    0  0.25328362514E+03  0.36180326678E+03  0.10477543839E+04  0.11370424519E+04  0.46999998093E+01 0. -1.
       -5    1    3    3    0  502 -0.25328362514E+03 -0.36180326678E+03 -0.27635007689E+01  0.44168306007E+03  0.46999998093E+01 0.  1.
</event>
<event>
 5   0  0.3944074E-03  0.1221599E+04  0.7818609E-02  0.9094158E-01
       -1   -1    0    0    0  501  0.00000000000E+00  0.00000000000E+00  0.15318137041E+03  0.15318137049E+03  0.50400001928E-02 0. -1.
        1   -1    0    0  501    0  0.00000000000E+00  0.00000000000E+00 -0.24355192954E+04  0.24355192954E+04  0.50400001928E-02 0.  1.
    10030    2    1    2    0    0  0.00000000000E+00  0.00000000000E+00 -0.22823379250E+04  0.25887006659E+04  0.12215992525E+04 0.  0.
        4    1    3    3  502    0  0.22625176019E+03  0.31365878795E+03 -0.21430003530E+04  0.21776188418E+04  0.12699999809E+01 0.  1.
       -4    1    3    3    0  502 -0.22625176019E+03 -0.31365878795E+03 -0.13933757200E+03  0.41108182411E+03  0.12699999809E+01 0. -1.
</event>
<event>
 5   0  0.3772254E-03  0.1204343E+04  0.7818609E-02  0.9109064E-01
       -1   -1    0    0    0  501  0.00000000000E+00  0.00000000000E+00  0.39115088116E+03  0.39115088119E+03  0.50400001928E-02 0. -1.
        1   -1    0    0  501    0  0.00000000000E+00  0.00000000000E+00 -0.92703463175E+03  0.92703463176E+03  0.50400001928E-02 0.  1.
    10030    2    1    2    0    0  0.00000000000E+00  0.00000000000E+00 -0.53588375058E+03  0.13181855130E+04  0.12043428301E+04 0.  0.
        3    1    3    3  502    0 -0.50277018018E+03 -0.33018236962E+03 -0.29913400016E+03  0.67177333345E+03  0.10100000352E+00 0. -1.
       -3    1    3    3    0  502  0.50277018018E+03  0.33018236962E+03 -0.23674975043E+03  0.64641217950E+03  0.10100000352E+00 0.  1.
</event>
<event>
 5   0  0.6585930E-03  0.1202997E+04  0.7818609E-02  0.9110237E-01
       -2   -1    0    0    0  501  0.00000000000E+00  0.00000000000E+00  0.37184357833E+03  0.37184357834E+03  0.25500000920E-02 0. -1.
        2   -1    0    0  501    0  0.00000000000E+00  0.00000000000E+00 -0.97299121882E+03  0.97299121883E+03  0.25500000920E-02 0.  1.
    10030    2    1    2    0    0  0.00000000000E+00  0.00000000000E+00 -0.60114764049E+03  0.13448347972E+04  0.12029971513E+04 0.  0.
        2    1    3    3  502    0 -0.38762917124E+03  0.44825024130E+03 -0.41575523437E+03  0.72390404622E+03  0.25500000920E-02 0.  1.
       -2    1    3    3    0  502  0.38762917124E+03 -0.44825024130E+03 -0.18539240612E+03  0.62093075095E+03  0.25500000920E-02 0. -1.
</event>
<event>
 5   0  0.6658994E-03  0.1254078E+04  0.7818609E-02  0.9066796E-01
        2   -1    0    0  501    0  0.00000000000E+00  0.00000000000E+00  0.29777618362E+03  0.29777618363E+03  0.25500000920E-02 0.  1.
       -2   -1    0    0    0  501  0.00000000000E+00  0.00000000000E+00 -0.13203805591E+04  0.13203805591E+04  0.25500000920E-02 0. -1.
    10030    2    1    2    0    0  0.00000000000E+00  0.00000000000E+00 -0.10226043755E+04  0.16181567428E+04  0.12540779622E+04 0.  0.
        4    1    3    3  502    0 -0.46782683297E+02  0.37916390504E+03  0.13026175353E+03  0.40363798592E+03  0.12699999809E+01 0.  1.
       -4    1    3    3    0  502  0.46782683297E+02 -0.37916390504E+03 -0.11528661290E+04  0.12145187569E+04  0.12699999809E+01 0. -1.
</event>
<event>
 5   0  0.6640844E-03  0.1143627E+04  0.7818609E-02  0.9163683E-01
        2   -1    0    0  501    0  0.00000000000E+00  0.00000000000E+00  0.16565541155E+04  0.16565541155E+04  0.25500000920E-02 0. -1.
       -2   -1    0    0    0  501  0.00000000000E+00  0.00000000000E+00 -0.19737998623E+03  0.19737998625E+03  0.25500000920E-02 0.  1.
    10030    2    1    2    0    0  0.00000000000E+00  0.00000000000E+00  0.14591741292E+04  0.18539341017E+04  0.11436269121E+04 0.  0.
        5    1    3    3  502    0  0.48146526117E+03  0.24050738829E+03  0.41651761660E+03  0.68055978170E+03  0.46999998093E+01 0.  1.
       -5    1    3    3    0  502 -0.48146526117E+03 -0.24050738829E+03  0.10426565126E+04  0.11733743200E+04  0.46999998093E+01 0. -1.
</event>
<event>
 5   0  0.6640844E-03  0.1196233E+04  0.7818609E-02  0.9116160E-01
       -2   -1    0    0    0  501  0.00000000000E+00  0.00000000000E+00  0.28766423828E+03  0.28766423829E+03  0.25500000920E-02 0.  1.
        2   -1    0    0  501    0  0.00000000000E+00  0.00000000000E+00 -0.12436141942E+04  0.12436141942E+04  0.25500000920E-02 0. -1.
    10030    2    1    2    0    0  0.00000000000E+00  0.00000000000E+00 -0.95594995591E+03  0.15312784325E+04  0.11962329705E+04 0.  0.
        5    1    3    3  502    0 -0.52522021540E+03  0.26675083983E+03 -0.61044327035E+03  0.84833682080E+03  0.46999998093E+01 0. -1.
       -5    1    3    3    0  502  0.52522021540E+03 -0.26675083983E+03 -0.34550668556E+03  0.68294161169E+03  0.46999998093E+01 0.  1.
</event>
<event>
 5   0  0.3648616E-03  0.1198910E+04  0.7818609E-02  0.9113811E-01
       -1   -1    0    0    0  501  0.00000000000E+00  0.00000000000E+00  0.20229295092E+03  0.20229295098E+03  0.50400001928E-02 0.  1.
        1   -1    0    0  501    0  0.00000000000E+00  0.00000000000E+00 -0.17763654363E+04  0.17763654363E+04  0.50400001928E-02 0. -1.
    10030    2    1    2    0    0  0.00000000000E+00  0.00000000000E+00 -0.15740724853E+04  0.19786583872E+04  0.11989098483E+04 0.  0.
        2    1    3    3  502    0 -0.28477339604E+03 -0.29277355516E+03 -0.15112019737E+04  0.15654212363E+04  0.25500000920E-02 0. -1.
       -2    1    3    3    0  502  0.28477339604E+03  0.29277355516E+03 -0.62870511652E+02  0.41323715097E+03  0.25500000920E-02 0.  1.
</event>
<event>
 5   0  0.3701879E-03  0.1157168E+04  0.7818609E-02  0.9151196E-01
       -1   -1    0    0    0  501  0.00000000000E+00  0.00000000000E+00  0.20517729987E+03  0.20517729993E+03  0.50400001928E-02 0. -1.
        1   -1    0    0  501    0  0.00000000000E+00  0.00000000000E+00 -0.16315623433E+04  0.16315623433E+04  0.50400001928E-02 0.  1.
    10030    2    1    2    0    0  0.00000000000E+00  0.00000000000E+00 -0.14263850435E+04  0.18367396433E+04  0.11571681922E+04 0.  0.
        1    1    3    3  502    0  0.49971634346E+03 -0.20563874550E+03 -0.10414002680E+04  0.11732511393E+04  0.50400001928E-02 0.  1.
       -1    1    3    3    0  502 -0.49971634346E+03  0.20563874550E+03 -0.38498477542E+03  0.66348850397E+03  0.50400001928E-02 0. -1.
</event>
<event>
 5   0  0.6493047E-03  0.1220615E+04  0.7818609E-02  0.9095001E-01
       -2   -1    0    0    0  501  0.00000000000E+00  0.00000000000E+00  0.38219097769E+03  0.38219097770E+03  0.25500000920E-02 0.  1.
        2   -1    0    0  501    0  0.00000000000E+00  0.00000000000E+00 -0.97457939181E+03  0.97457939181E+03  0.25500000920E-02 0. -1.
    10030    2    1    2    0    0  0.00000000000E+00  0.00000000000E+00 -0.59238841412E+03  0.13567703695E+04  0.12206153376E+04 0.  0.
        3    1    3    3  502    0 -0.18330388887E+03  0.35113593183E+03 -0.81229013686E+03  0.90372121527E+03  0.10100000352E+00 0. -1.
       -3    1    3    3    0  502  0.18330388887E+03 -0.35113593183E+03  0.21990172274E+03  0.45304915424E+03  0.10100000352E+00 0.  1.
</event>
<event>
 5   0  0.6349142E-03  0.1139543E+04  0.7818609E-02  0.9167485E-01
        2   -1    0    0  501    0  0.00000000000E+00  0.00000000000E+00  0.19231257557E+04  0.19231257557E+04  0.25500000920E-02 0. -1.
       -2   -1    0    0    0  501  0.00000000000E+00  0.00000000000E+00 -0.16880842940E+03  0.16880842942E+03  0.25500000920E-02 0.  1.
    10030    2    1    2    0    0  0.00000000000E+00  0.00000000000E+00  0.17543173263E+04  0.20919341851E+04  0.11395434847E+04 0.  0.
        1    1    3    3  502    0  0.24630569412E+03  0.47904175008E+03  0.12180990705E+04  0.13318831927E+04  0.50400001928E-02 0.  1.
       -1    1    3    3    0  502 -0.24630569412E+03 -0.47904175008E+03  0.53621825578E+03  0.76005099246E+03  0.50400001928E-02 0. -1.
</event>
<event>
 5   0  0.2537625E-03  0.1114254E+04  0.7818609E-02  0.9191409E-01
       -3   -1    0    0    0  501  0.00000000000E+00  0.00000000000E+00  0.83727403591E+03  0.83727404200E+03  0.10100000352E+00 0.  1.
        3   -1    0    0  501    0  0.00000000000E+00  0.00000000000E+00 -0.37071549556E+03  0.37071550932E+03  0.10100000352E+00 0. -1.
    10030    2    1    2    0    0  0.00000000000E+00  0.00000000000E+00  0.46655854035E+03  0.12079895513E+04  0.11142539587E+04 0.  0.
        4    1    3    3  502    0 -0.31847992029E+03 -0.32501894969E+03 -0.11519888930E+03  0.46940299773E+03  0.12699999809E+01 0.  1.
       -4    1    3    3    0  502  0.31847992029E+03  0.32501894969E+03  0.58175742965E+03  0.73858655359E+03  0.12699999809E+01 0. -1.
</event>
<event>
 5   0  0.6640844E-03  0.1155080E+04  0.7818609E-02  0.9153109E-01
       -2   -1    0    0    0  501  0.00000000000E+00  0.00000000000E+00  0.39014297904E+03  0.39014297905E+03  0.25500000920E-02 0. -1.
        2   -1    0    0  501    0  0.00000000000E+00  0.00000000000E+00 -0.85494998383E+03  0.85494998383E+03  0.25500000920E-02 0.  1.
    10030    2    1    2    0    0  0.00000000000E+00  0.00000000000E+00 -0.46480700479E+03  0.12450929629E+04  0.11550804883E+04 0.  0.
        5    1    3    3  502    0 -0.24866062724E+03  0.52019634073E+03 -0.26806161586E+03  0.63585805047E+03  0.46999998093E+01 0. -1.
       -5    1    3    3    0  502  0.24866062724E+03 -0.52019634073E+03 -0.19674538892E+03  0.60923491242E+03  0.46999998093E+01 0.  1.
</event>
<event>
 5   0  0.3772254E-03  0.1209615E+04  0.7818609E-02  0.9104482E-01
       -1   -1    0    0    0  501  0.00000000000E+00  0.00000000000E+00  0.58009815424E+03  0.58009815426E+03  0.50400001928E-02 0.  1.
        1   -1    0    0  501    0  0.00000000000E+00  0.00000000000E+00 -0.63056972969E+03  0.63056972971E+03  0.50400001928E-02 0. -1.
    10030    2    1    2    0    0  0.00000000000E+00  0.00000000000E+00 -0.50471575454E+02  0.12106678840E+04  0.12096153708E+04 0.  0.
        3    1    3    3  502    0  0.40661711015E+03 -0.25356733329E+03  0.34408184173E+03  0.58993744651E+03  0.10100000352E+00 0.  1.
       -3    1    3    3    0  502 -0.40661711015E+03  0.25356733329E+03 -0.39455341719E+03  0.62073043746E+03  0.10100000352E+00 0. -1.
</event>
<event>
 5   0  0.2537625E-03  0.1116355E+04  0.7818609E-02  0.9189396E-01
        3   -1    0    0  501    0  0.00000000000E+00  0.00000000000E+00  0.32816942941E+03  0.32816944496E+03  0.10100000352E+00 0.  1.
       -3   -1    0    0    0  501  0.00000000000E+00  0.00000000000E+00 -0.94939356930E+03  0.94939357467E+03  0.10100000352E+00 0. -1.
    10030    2    1    2    0    0  0.00000000000E+00  0.00000000000E+00 -0.62122413988E+03  0.12775630196E+04  0.11163547094E+04 0.  0.
        1    1    3    3  502    0 -0.53563595429E+02  0.52888136268E+03 -0.50542145105E+03  0.73350896228E+03  0.50400001928E-02 0.  1.
       -1    1    3    3    0  502  0.53563595429E+02 -0.52888136268E+03 -0.11580268883E+03  0.54405405734E+03  0.50400001928E-02 0. -1.
</event>
<event>
 5   0  0.6585930E-03  0.1230575E+04  0.7818609E-02  0.9086507E-01
       -2   -1    0    0    0  501  0.00000000000E+00  0.00000000000E+00  0.48817122603E+03  0.48817122604E+03  0.25500000920E-02 0. -1.
        2   -1    0    0  501    0  0.00000000000E+00  0.00000000000E+00 -0.77550430181E+03  0.77550430181E+03  0.25500000920E-02 0.  1.
    10030    2    1    2    0    0  0.00000000000E+00  0.00000000000E+00 -0.28733307578E+03  0.12636755279E+04  0.12305752896E+04 0.  0.
        2    1    3    3  502    0  0.10777602231E+03 -0.56193023785E+03  0.88688601232E+02  0.57900512190E+03  0.25500000920E-02 0. -1.
       -2    1    3    3    0  502 -0.10777602231E+03  0.56193023785E+03 -0.37602167701E+03  0.68467040595E+03  0.25500000920E-02 0.  1.
</event>
<event>
 5   0  0.3701879E-03  0.1228026E+04  0.7818609E-02  0.9088673E-01
       -1   -1    0    0    0  501  0.00000000000E+00  0.00000000000E+00  0.22188953016E+03  0.22188953021E+03  0.50400001928E-02 0.  1.
        1   -1    0    0  501    0  0.00000000000E+00  0.00000000000E+00 -0.16990970189E+04  0.16990970189E+04  0.50400001928E-02 0. -1.
    10030    2    1    2    0    0  0.00000000000E+00  0.00000000000E+00 -0.14772074888E+04  0.19209865491E+04  0.12280257966E+04 0.  0.
        1    1    3    3  502    0  0.22716881172E+03 -0.32526466294E+03 -0.14716678750E+04  0.15242076972E+04  0.50400001928E-02 0. -1.
       -1    1    3    3    0  502 -0.22716881172E+03  0.32526466294E+03 -0.55396137646E+01  0.39677885191E+03  0.50400001928E-02 0.  1.
</event>
<event>
 5   0  0.6493047E-03  0.1184351E+04  0.7818609E-02  0.9126666E-01
        2   -1    0    0  501    0  0.00000000000E+00  0.00000000000E+00  0.35758832815E+03  0.35758832816E+03  0.25500000920E-02 0.  1.
       -2   -1    0    0    0  501  0.00000000000E+00  0.00000000000E+00 -0.98065740648E+03  0.98065740648E+03  0.25500000920E-02 0. -1.
    10030    2    1    2    0    0  0.00000000000E+00  0.00000000000E+00 -0.62306907833E+03  0.13382457346E+04  0.11843506955E+04 0.  0.
        3    1    3    3  502    0  0.32598632606E+03 -0.64952490437E+02 -0.86530417816E+03  0.92695050663E+03  0.10100000352E+00 0. -1.
       -3    1    3    3    0  502 -0.32598632606E+03  0.64952490437E+02  0.24223509983E+03  0.41129522801E+03  0.10100000352E+00 0.  1.
</event>
<event>
 5   0  0.6585930E-03  0.1188733E+04  0.7818609E-02  0.9122776E-01
        2   -1    0    0  501    0  0.00000000000E+00  0.00000000000E+00  0.12283941241E+04  0.12283941241E+04  0.25500000920E-02 0. -1.
       -2   -1    0    0    0  501  0.00000000000E+00  0.00000000000E+00 -0.28758826598E+03  0.28758826599E+03  0.25500000920E-02 0.  1.
    10030    2    1    2    0    0  0.00000000000E+00  0.00000000000E+00  0.94080585813E+03  0.15159823901E+04  0.11887333361E+04 0.  0.
        2    1    3    3  502    0  0.27719683996E+03 -0.49161973980E+03  0.23269283752E+03  0.61047032138E+03  0.25500000920E-02 0. -1.
       -2    1    3    3    0  502 -0.27719683996E+03  0.49161973980E+03  0.70811302060E+03  0.90551206872E+03  0.25500000920E-02 0.  1.
</event>
<event>
 5   0  0.3701879E-03  0.1158714E+04  0.7818609E-02  0.9149782E-01
        1   -1    0    0  501    0  0.00000000000E+00  0.00000000000E+00  0.15389590111E+04  0.15389590112E+04  0.50400001928E-02 0. -1.
       -1   -1    0    0    0  501  0.00000000000E+00  0.00000000000E+00 -0.21810485667E+03  0.21810485673E+03  0.50400001928E-02 0.  1.
    10030    2    1    2    0    0  0.00000000000E+00  0.00000000000E+00  0.13208541545E+04  0.17570638679E+04  0.11587138294E+04 0.  0.
        1    1    3    3  502    0 -0.27007853809E+03 -0.11405328297E+03  0.14181736683E+04  0.14481599089E+04  0.50400001928E-02 0. -1.
       -1    1    3    3    0  502  0.27007853809E+03  0.11405328297E+03 -0.97319513853E+02  0.30890395901E+03  0.50400001928E-02 0.  1.
</event>
<event>
 5   0  0.6640844E-03  0.1211553E+04  0.7818609E-02  0.9102804E-01
       -2   -1    0    0    0  501  0.00000000000E+00  0.00000000000E+00  0.26813358882E+03  0.26813358884E+03  0.25500000920E-02 0.  1.
        2   -1    0    0  501    0  0.00000000000E+00  0.00000000000E+00 -0.13685913983E+04  0.13685913983E+04  0.25500000920E-02 0. -1.
    10030    2    1    2    0    0  0.00000000000E+00  0.00000000000E+00 -0.11004578095E+04  0.16367249871E+04  0.12115532564E+04 0.  0.
        5    1    3    3  502    0  0.11666876621E+03 -0.11187082315E+03  0.23843786461E+03  0.28809961360E+03  0.46999998093E+01 0.  1.
       -5    1    3    3    0  502 -0.11666876621E+03  0.11187082315E+03 -0.13388956741E+04  0.13486253735E+04  0.46999998093E+01 0. -1.
</event>
<event>
 5   0  0.6585930E-03  0.1182167E+04  0.7818609E-02  0.9128611E-01
       -2   -1    0    0    0  501  0.00000000000E+00  0.00000000000E+00  0.22914871862E+03  0.22914871864E+03  0.25500000920E-02 0. -1.
        2   -1    0    0  501    0  0.00000000000E+00  0.00000000000E+00 -0.15246853853E+04  0.15246853853E+04  0.25500000920E-02 0.  1.
    10030    2    1    2    0    0  0.00000000000E+00  0.00000000000E+00 -0.12955366667E+04  0.17538341039E+04  0.11821669973E+04 0.  0.
        2    1    3    3  502    0  0.20346989751E+03  0.49571064320E+03 -0.10179216668E+04  0.11503449747E+04  0.25500000920E-02 0. -1.
       -2    1    3    3    0  502 -0.20346989751E+03 -0.49571064320E+03 -0.27761499983E+03  0.60348912924E+03  0.25500000920E-02 0.  1.
</event>
<event>
 5   0  0.6640844E-03  0.1155023E+04  0.7818609E-02  0.9153162E-01
       -2   -1    0    0    0  501  0.00000000000E+00  0.00000000000E+00  0.42344272590E+03  0.42344272591E+03  0.25500000920E-02 0. -1.
        2   -1    0    0  501    0  0.00000000000E+00  0.00000000000E+00 -0.78763837459E+03  0.78763837459E+03  0.25500000920E-02 0.  1.
    10030    2    1    2    0    0  0.00000000000E+00  0.00000000000E+00 -0.36419564869E+03  0.12110811005E+04  0.11550233597E+04 0.  0.
        5    1    3    3  502    0  0.57264146851E+02 -0.12322303188E+03  0.40642261911E+03  0.42856100315E+03  0.46999998093E+01 0. -1.
       -5    1    3    3    0  502 -0.57264146851E+02  0.12322303188E+03 -0.77061826779E+03  0.78252009735E+03  0.46999998093E+01 0.  1.
</event>
<event>
 5   0  0.3701879E-03  0.1212455E+04  0.7818609E-02  0.9102024E-01
       -1   -1    0    0    0  501  0.00000000000E+00  0.00000000000E+00  0.71887693954E+03  0.71887693956E+03  0.50400001928E-02 0. -1.
        1   -1    0    0  501    0  0.00000000000E+00  0.00000000000E+00 -0.51123009297E+03  0.51123009300E+03  0.50400001928E-02 0.  1.
    10030    2    1    2    0    0  0.00000000000E+00  0.00000000000E+00  0.20764684656E+03  0.12301070326E+04  0.12124545759E+04 0.  0.
        1    1    3    3  502    0 -0.33003485296E+03 -0.42753945735E+03  0.38314714779E+03  0.66220444626E+03  0.50400001928E-02 0. -1.
       -1    1    3    3    0  502  0.33003485296E+03  0.42753945735E+03 -0.17550030123E+03  0.56790258629E+03  0.50400001928E-02 0.  1.
</event>
<event>
 5   0  0.6658994E-03  0.1194774E+04  0.7818609E-02  0.9117443E-01
        2   -1    0    0  501    0  0.00000000000E+00  0.00000000000E+00  0.19928012702E+03  0.19928012704E+03  0.25500000920E-02 0. -1.
       -2   -1    0    0    0  501  0.00000000000E+00  0.00000000000E+00 -0.17908012276E+04  0.17908012276E+04  0.25500000920E-02 0.  1.
    10030    2    1    2    0    0  0.00000000000E+00  0.00000000000E+00 -0.15915211005E+04  0.19900813546E+04  0.11947737796E+04 0.  0.
        4    1    3    3  502    0 -0.19965719451E+03  0.20338179497E+03  0.78736011907E+02  0.29568246873E+03  0.12699999809E+01 0. -1.
       -4    1    3    3    0  502  0.19965719451E+03 -0.20338179497E+03 -0.16702571124E+04  0.16943988859E+04  0.12699999809E+01 0.  1.
</event>
<event>
 5   0  0.6493047E-03  0.1174706E+04  0.7818609E-02  0.9135289E-01
        2   -1    0    0  501    0  0.00000000000E+00  0.00000000000E+00  0.70069410012E+03  0.70069410013E+03  0.25500000920E-02 0.  1.
       -2   -1    0    0    0  501  0.00000000000E+00  0.00000000000E+00 -0.49234561956E+03  0.49234561957E+03  0.25500000920E-02 0. -1.
    10030    2    1    2    0    0  0.00000000000E+00  0.00000000000E+00  0.20834848056E+03  0.11930397197E+04  0.11747062115E+04 0.  0.
        3    1    3    3  502    0 -0.61698608314E+02  0.53315271454E+03 -0.13813927357E+03  0.55420303535E+03  0.10100000352E+00 0. -1.
       -3    1    3    3    0  502  0.61698608314E+02 -0.53315271454E+03  0.34648775413E+03  0.63883668434E+03  0.10100000352E+00 0.  1.
</event>
<event>
 5   0  0.6640844E-03  0.1209591E+04  0.7818609E-02  0.9104503E-01
        2   -1    0    0  501    0  0.00000000000E+00  0.00000000000E+00  0.63965577440E+03  0.63965577440E+03  0.25500000920E-02 0.  1.
       -2   -1    0    0    0  501  0.00000000000E+00  0.00000000000E+00 -0.57183504467E+03  0.57183504468E+03  0.25500000920E-02 0. -1.
    10030    2    1    2    0    0  0.00000000000E+00  0.00000000000E+00  0.67820729725E+02  0.12114908191E+04  0.12095909860E+04 0.  0.
        5    1    3    3  502    0  0.57092246202E+03  0.14696277835E+03 -0.10122739585E+03  0.59818023331E+03  0.46999998093E+01 0. -1.
       -5    1    3    3    0  502 -0.57092246202E+03 -0.14696277835E+03  0.16904812557E+03  0.61331058577E+03  0.46999998093E+01 0.  1.
</event>
<event>
 5   0  0.6493047E-03  0.1202712E+04  0.7818609E-02  0.9110486E-01
        2   -1    0    0  501    0  0.00000000000E+00  0.00000000000E+00  0.78277460689E+03  0.78277460689E+03  0.25500000920E-02 0. -1.
       -2   -1    0    0    0  501  0.00000000000E+00  0.00000000000E+00 -0.46198330589E+03  0.46198330590E+03  0.25500000920E-02 0.  1.
    10030    2    1    2    0    0  0.00000000000E+00  0.00000000000E+00  0.32079130100E+03  0.12447579128E+04  0.12027116041E+04 0.  0.
        3    1    3    3  502    0 -0.43836925976E+03 -0.35470105121E+03 -0.55830040817E+02  0.56665461023E+03  0.10100000352E+00 0.  1.
       -3    1    3    3    0  502  0.43836925976E+03  0.35470105121E+03  0.37662134181E+03  0.67810330256E+03  0.10100000352E+00 0. -1.
</event>
<event>
 5   0  0.3772254E-03  0.1192580E+04  0.7818609E-02  0.9119376E-01
        1   -1    0    0  501    0  0.00000000000E+00  0.00000000000E+00  0.61844150951E+03  0.61844150953E+03  0.50400001928E-02 0.  1.
       -1   -1    0    0    0  501  0.00000000000E+00  0.00000000000E+00 -0.57493165058E+03  0.57493165060E+03  0.50400001928E-02 0. -1.
    10030    2    1    2    0    0  0.00000000000E+00  0.00000000000E+00  0.43509858931E+02  0.11933731601E+04  0.11925797212E+04 0.  0.
        3    1    3    3  502    0  0.23702594626E+03 -0.36984373796E+03 -0.38174516259E+03  0.58197514472E+03  0.10100000352E+00 0. -1.
       -3    1    3    3    0  502 -0.23702594626E+03  0.36984373796E+03  0.42525502152E+03  0.61139801540E+03  0.10100000352E+00 0.  1.
</event>
<event>
 5   0  0.3772254E-03  0.1182975E+04  0.7818609E-02  0.9127890E-01
       -1   -1    0    0    0  501  0.00000000000E+00  0.00000000000E+00  0.13144411981E+04  0.13144411981E+04  0.50400001928E-02 0.  1.
        1   -1    0    0  501    0  0.00000000000E+00  0.00000000000E+00 -0.26616443702E+03  0.26616443707E+03  0.50400001928E-02 0. -1.
    10030    2    1    2    0    0  0.00000000000E+00  0.00000000000E+00  0.10482767611E+04  0.15806056352E+04  0.11829750657E+04 0.  0.
        3    1    3    3  502    0  0.35831958803E+03  0.44960595834E+03  0.33842603383E+03  0.66713614466E+03  0.10100000352E+00 0. -1.
       -3    1    3    3    0  502 -0.35831958803E+03 -0.44960595834E+03  0.70985072725E+03  0.91346949052E+03  0.10100000352E+00 0.  1.
</event>
<event>
 5   0  0.6658994E-03  0.1203881E+04  0.7818609E-02  0.9109466E-01
       -2   -1    0    0    0  501  0.00000000000E+00  0.00000000000E+00  0.29282420188E+03  0.29282420189E+03  0.25500000920E-02 0.  1.
        2   -1    0    0  501    0  0.00000000000E+00  0.00000000000E+00 -0.12373724254E+04  0.12373724254E+04  0.25500000920E-02 0. -1.
    10030    2    1    2    0    0  0.00000000000E+00  0.00000000000E+00 -0.94454822351E+03  0.15301966273E+04  0.12038813777E+04 0.  0.
        4    1    3    3  502    0 -0.17553385271E+03 -0.25937328471E+03  0.18110672892E+03  0.36178432032E+03  0.12699999809E+01 0.  1.
       -4    1    3    3    0  502  0.17553385271E+03  0.25937328471E+03 -0.11256549524E+04  0.11684123070E+04  0.12699999809E+01 0. -1.
</event>
<event>
 5   0  0.3731281E-03  0.1194048E+04  0.7818609E-02  0.9118082E-01
       -1   -1    0    0    0  501  0.00000000000E+00  0.00000000000E+00  0.62457255829E+03  0.62457255831E+03  0.50400001928E-02 0.  1.
        1   -1    0    0  501    0  0.00000000000E+00  0.00000000000E+00 -0.57069063980E+03  0.57069063982E+03  0.50400001928E-02 0. -1.
    10030    2    1    2    0    0  0.00000000000E+00  0.00000000000E+00  0.53881918493E+02  0.11952631981E+04  0.11940480944E+04 0.  0.
        5    1    3    3  502    0  0.17505927745E+01  0.36788345061E+03 -0.44372293302E+03  0.57641428599E+03  0.46999998093E+01 0. -1.
       -5    1    3    3    0  502 -0.17505927745E+01 -0.36788345061E+03  0.49760485151E+03  0.61884891214E+03  0.46999998093E+01 0.  1.
</event>
<event>
 5   0  0.2537625E-03  0.1027047E+04  0.7818609E-02  0.9279368E-01
       -3   -1    0    0    0  501  0.00000000000E+00  0.00000000000E+00  0.44252592581E+03  0.44252593733E+03  0.10100000352E+00 0.  1.
        3   -1    0    0  501    0  0.00000000000E+00  0.00000000000E+00 -0.59591171359E+03  0.59591172215E+03  0.10100000352E+00 0. -1.
    10030    2    1    2    0    0  0.00000000000E+00  0.00000000000E+00 -0.15338578779E+03  0.10384376595E+04  0.10270470158E+04 0.  0.
        2    1    3    3  502    0  0.35964191528E+02  0.11603732389E+01  0.44124971357E+03  0.44271444438E+03  0.25500000920E-02 0.  1.
       -2    1    3    3    0  502 -0.35964191528E+02 -0.11603732389E+01 -0.59463550135E+03  0.59572321510E+03  0.25500000920E-02 0. -1.
</event>
<event>
 5   0  0.3772254E-03  0.1061381E+04  0.7818609E-02  0.9243672E-01
       -1   -1    0    0    0  501  0.00000000000E+00  0.00000000000E+00  0.49271803173E+03  0.49271803175E+03  0.50400001928E-02 0. -1.
        1   -1    0    0  501    0  0.00000000000E+00  0.00000000000E+00 -0.57158936414E+03  0.57158936416E+03  0.50400001928E-02 0.  1.
    10030    2    1    2    0    0  0.00000000000E+00  0.00000000000E+00 -0.78871332410E+02  0.10643073959E+04  0.10613809617E+04 0.  0.
        3    1    3    3  502    0 -0.40855458464E+02 -0.15704074413E+03 -0.54610240561E+03  0.56970063316E+03  0.10100000352E+00 0.  1.
       -3    1    3    3    0  502  0.40855458464E+02  0.15704074413E+03  0.46723107320E+03  0.49460676276E+03  0.10100000352E+00 0. -1.
</event>
<event>
 5   0  0.3731281E-03  0.1205836E+04  0.7818609E-02  0.9107764E-01
       -1   -1    0    0    0  501  0.00000000000E+00  0.00000000000E+00  0.40511804085E+03  0.40511804088E+03  0.50400001928E-02 0. -1.
        1   -1    0    0  501    0  0.00000000000E+00  0.00000000000E+00 -0.89729443338E+03  0.89729443340E+03  0.50400001928E-02 0.  1.
    10030    2    1    2    0    0  0.00000000000E+00  0.00000000000E+00 -0.49217639254E+03  0.13024124743E+04  0.12058360800E+04 0.  0.
        5    1    3    3  502    0 -0.44874010045E+03  0.43113829338E+02 -0.67847755812E+03  0.81460442357E+03  0.46999998093E+01 0.  1.
       -5    1    3    3    0  502  0.44874010045E+03 -0.43113829338E+02  0.18630116558E+03  0.48780805070E+03  0.46999998093E+01 0. -1.
</event>
<event>
 5   0  0.3772254E-03  0.1198226E+04  0.7818609E-02  0.9114410E-01
       -1   -1    0    0    0  501  0.00000000000E+00  0.00000000000E+00  0.57778662899E+03  0.57778662901E+03  0.50400001928E-02 0.  1.
        1   -1    0    0  501    0  0.00000000000E+00  0.00000000000E+00 -0.62122690980E+03  0.62122690982E+03  0.50400001928E-02 0. -1.
    10030    2    1    2    0    0  0.00000000000E+00  0.00000000000E+00 -0.43440280813E+02  0.11990135388E+04  0.11982263594E+04 0.  0.
        3    1    3    3  502    0  0.76677391429E+02  0.11469572920E+03 -0.60511435179E+03  0.62064315157E+03  0.10100000352E+00 0. -1.
       -3    1    3    3    0  502 -0.76677391429E+02 -0.11469572920E+03  0.56167407098E+03  0.57837038726E+03  0.10100000352E+00 0.  1.
</event>
<event>
 5   0  0.6349142E-03  0.1204681E+04  0.7818609E-02  0.9108769E-01
        2   -1    0    0  501    0  0.00000000000E+00  0.00000000000E+00  0.11671719458E+04  0.11671719458E+04  0.25500000920E-02 0. -1.
       -2   -1    0    0    0  501  0.00000000000E+00  0.00000000000E+00 -0.31084888895E+03  0.31084888896E+03  0.25500000920E-02 0.  1.
    10030    2    1    2    0    0  0.00000000000E+00  0.00000000000E+00  0.85632305683E+03  0.14780208347E+04  0.12046810409E+04 0.  0.
        1    1    3    3  502    0 -0.47695862686E+03 -0.35590708839E+03  0.54230074101E+03  0.80513941714E+03  0.50400001928E-02 0.  1.
       -1    1    3    3    0  502  0.47695862686E+03  0.35590708839E+03  0.31402231582E+03  0.67288141761E+03  0.50400001928E-02 0. -1.
</event>
<event>
 5   0  0.3648616E-03  0.1209283E+04  0.7818609E-02  0.9104770E-01
        1   -1    0    0  501    0  0.00000000000E+00  0.00000000000E+00  0.18107590063E+04  0.18107590064E+04  0.50400001928E-02 0.  1.
       -1   -1    0    0    0  501  0.00000000000E+00  0.00000000000E+00 -0.20189953337E+03  0.20189953344E+03  0.50400001928E-02 0. -1.
    10030    2    1    2    0    0  0.00000000000E+00  0.00000000000E+00  0.16088594730E+04  0.20126585398E+04  0.12092830909E+04 0.  0.
        2    1    3    3  502    0  0.85150447511E+02  0.64399675032E+00 -0.19186996010E+03  0.20991687650E+03  0.25500000920E-02 0. -1.
       -2    1    3    3    0  502 -0.85150447511E+02 -0.64399675032E+00  0.18007294331E+04  0.18027416633E+04  0.25500000920E-02 0.  1.
</event>
<event>
 5   0  0.3772254E-03  0.1206952E+04  0.7818609E-02  0.9106793E-01
        1   -1    0    0  501    0  0.00000000000E+00  0.00000000000E+00  0.43693598672E+03  0.43693598675E+03  0.50400001928E-02 0. -1.
       -1   -1    0    0    0  501  0.00000000000E+00  0.00000000000E+00 -0.83349390549E+03  0.83349390550E+03  0.50400001928E-02 0.  1.
    10030    2    1    2    0    0  0.00000000000E+00  0.00000000000E+00 -0.39655791877E+03  0.12704298923E+04  0.12069523305E+04 0.  0.
        3    1    3    3  502    0  0.18076132010E+03 -0.18109658549E+03  0.37701198029E+03  0.45564094593E+03  0.10100000352E+00 0. -1.
       -3    1    3    3    0  502 -0.18076132010E+03  0.18109658549E+03 -0.77356989906E+03  0.81478894633E+03  0.10100000352E+00 0.  1.
</event>
<event>
 5   0  0.3648616E-03  0.1167703E+04  0.7818609E-02  0.9141605E-01
       -1   -1    0    0    0  501  0.00000000000E+00  0.00000000000E+00  0.44116745619E+03  0.44116745622E+03  0.50400001928E-02 0. -1.
        1   -1    0    0  501    0  0.00000000000E+00  0.00000000000E+00 -0.77268321235E+03  0.77268321237E+03  0.50400001928E-02 0.  1.
    10030    2    1    2    0    0  0.00000000000E+00  0.00000000000E+00 -0.33151575616E+03  0.12138506686E+04  0.11677031939E+04 0.  0.
        2    1    3    3  502    0 -0.55571868140E+03 -0.43688330059E+02 -0.34625985219E+03  0.65622237715E+03  0.25500000920E-02 0.  1.
       -2    1    3    3    0  502  0.55571868140E+03  0.43688330059E+02  0.14744096027E+02  0.55762829144E+03  0.25500000920E-02 0. -1.
</event>
<event>
 5   0  0.3772254E-03  0.1328852E+04  0.7818609E-02  0.9006993E-01
        1   -1    0    0  501    0  0.00000000000E+00  0.00000000000E+00  0.11277316701E+04  0.11277316701E+04  0.50400001928E-02 0. -1.
       -1   -1    0    0    0  501  0.00000000000E+00  0.00000000000E+00 -0.39146011809E+03  0.39146011812E+03  0.50400001928E-02 0.  1.
    10030    2    1    2    0    0  0.00000000000E+00  0.00000000000E+00  0.73627155205E+03  0.15191917883E+04  0.13288520953E+04 0.  0.
        3    1    3    3  502    0  0.79838872272E+01 -0.55619887429E+02  0.11250104909E+04  0.11264128592E+04  0.10100000352E+00 0. -1.
       -3    1    3    3    0  502 -0.79838872272E+01  0.55619887429E+02 -0.38873893890E+03  0.39277892911E+03  0.10100000352E+00 0.  1.
</event>
<event>
 5   0  0.6640844E-03  0.1151663E+04  0.7818609E-02  0.9156251E-01
       -2   -1    0    0    0  501  0.00000000000E+00  0.00000000000E+00  0.36769726014E+03  0.36769726015E+03  0.25500000920E-02 0. -1.
        2   -1    0    0  501    0  0.00000000000E+00  0.00000000000E+00 -0.90177993027E+03  0.90177993027E+03  0.25500000920E-02 0.  1.
    10030    2    1    2    0    0  0.00000000000E+00  0.00000000000E+00 -0.53408267013E+03  0.12694771904E+04  0.11516631619E+04 0.  0.
        5    1    3    3  502    0 -0.46542947179E+03 -0.33540751345E+03 -0.32145881766E+03  0.65763261381E+03  0.46999998093E+01 0. -1.
       -5    1    3    3    0  502  0.46542947179E+03  0.33540751345E+03 -0.21262385248E+03  0.61184457662E+03  0.46999998093E+01 0.  1.
</event>
<event>
 5   0  0.6349142E-03  0.1211128E+04  0.7818609E-02  0.9103172E-01
        2   -1    0    0  501    0  0.00000000000E+00  0.00000000000E+00  0.13905560609E+04  0.13905560609E+04  0.25500000920E-02 0. -1.
       -2   -1    0    0    0  501  0.00000000000E+00  0.00000000000E+00 -0.26371291090E+03  0.26371291091E+03  0.25500000920E-02 0.  1.
    10030    2    1    2    0    0  0.00000000000E+00  0.00000000000E+00  0.11268431500E+04  0.16542689719E+04  0.12111277168E+04 0.  0.
        1    1    3    3  502    0  0.47247611173E+03 -0.17486135586E+03  0.10447917430E+03  0.51451537180E+03  0.50400001928E-02 0.  1.
       -1    1    3    3    0  502 -0.47247611173E+03  0.17486135586E+03  0.10223639757E+04  0.11397536001E+04  0.50400001928E-02 0. -1.
</event>
<event>
 5   0  0.3701879E-03  0.1173478E+04  0.7818609E-02  0.9136393E-01
        1   -1    0    0  501    0  0.00000000000E+00  0.00000000000E+00  0.53960949729E+03  0.53960949731E+03  0.50400001928E-02 0.  1.
       -1   -1    0    0    0  501  0.00000000000E+00  0.00000000000E+00 -0.63798512043E+03  0.63798512045E+03  0.50400001928E-02 0. -1.
    10030    2    1    2    0    0  0.00000000000E+00  0.00000000000E+00 -0.98375623137E+02  0.11775946178E+04  0.11734783000E+04 0.  0.
        1    1    3    3  502    0  0.51327723520E+03 -0.21269946536E+03  0.14006920166E+03  0.57298687944E+03  0.50400001928E-02 0.  1.
       -1    1    3    3    0  502 -0.51327723520E+03  0.21269946536E+03 -0.23844482480E+03  0.60460773832E+03  0.50400001928E-02 0. -1.
</event>
<event>
 5   0  0.6585930E-03  0.1152974E+04  0.7818609E-02  0.9155045E-01
       -2   -1    0    0    0  501  0.00000000000E+00  0.00000000000E+00  0.87551090768E+03  0.87551090768E+03  0.25500000920E-02 0. -1.
        2   -1    0    0  501    0  0.00000000000E+00  0.00000000000E+00 -0.37959218148E+03  0.37959218149E+03  0.25500000920E-02 0.  1.
    10030    2    1    2    0    0  0.00000000000E+00  0.00000000000E+00  0.49591872620E+03  0.12551030892E+04  0.11529737124E+04 0.  0.
        2    1    3    3  502    0 -0.11217452236E+03 -0.34560651822E+02 -0.36644642179E+03  0.38478635913E+03  0.25500000920E-02 0.  1.
       -2    1    3    3    0  502  0.11217452236E+03  0.34560651822E+02  0.86236514799E+03  0.87031673005E+03  0.25500000920E-02 0. -1.
</event>
<event>
 5   0  0.6640844E-03  0.1194258E+04  0.7818609E-02  0.9117898E-01
        2   -1    0    0  501    0  0.00000000000E+00  0.00000000000E+00  0.14340803310E+04  0.14340803310E+04  0.25500000920E-02 0. -1.
       -2   -1    0    0    0  501  0.00000000000E+00  0.00000000000E+00 -0.24863521343E+03  0.24863521344E+03  0.25500000920E-02 0.  1.
    10030    2    1    2    0    0  0.00000000000E+00  0.00000000000E+00  0.11854451176E+04  0.16827155444E+04  0.11942577095E+04 0.  0.
        5    1    3    3  502    0 -0.40899695067E+03  0.26192966720E+02  0.12045882408E+04  0.12724069699E+04  0.46999998093E+01 0. -1.
       -5    1    3    3    0  502  0.40899695067E+03 -0.26192966720E+02 -0.19143123253E+02  0.41030857452E+03  0.46999998093E+01 0.  1.
</event>
<event>
 5   0  0.3648616E-03  0.1234202E+04  0.7818609E-02  0.9083435E-01
        1   -1    0    0  501    0  0.00000000000E+00  0.00000000000E+00  0.89574476664E+03  0.89574476666E+03  0.50400001928E-02 0.  1.
       -1   -1    0    0    0  501  0.00000000000E+00  0.00000000000E+00 -0.42513629211E+03  0.42513629214E+03  0.50400001928E-02 0. -1.
    10030    2    1    2    0    0  0.00000000000E+00  0.00000000000E+00  0.47060847453E+03  0.13208810588E+04  0.12342019426E+04 0.  0.
        2    1    3    3  502    0  0.53180257107E+03  0.28420491322E+03  0.94833826129E+02  0.61039320269E+03  0.25500000920E-02 0.  1.
       -2    1    3    3    0  502 -0.53180257107E+03 -0.28420491322E+03  0.37577464840E+03  0.71048785612E+03  0.25500000920E-02 0. -1.
</event>
<event>
 5   0  0.6585930E-03  0.1229547E+04  0.7818609E-02  0.9087380E-01
       -2   -1    0    0    0  501  0.00000000000E+00  0.00000000000E+00  0.38260444970E+03  0.38260444971E+03  0.25500000920E-02 0.  1.
        2   -1    0    0  501    0  0.00000000000E+00  0.00000000000E+00 -0.98782495010E+03  0.98782495010E+03  0.25500000920E-02 0. -1.
    10030    2    1    2    0    0  0.00000000000E+00  0.00000000000E+00 -0.60522050040E+03  0.13704293998E+04  0.12295466180E+04 0.  0.
        2    1    3    3  502    0 -0.31042336992E+03  0.46204805584E+02 -0.89181018479E+03  0.94542210592E+03  0.25500000920E-02 0. -1.
       -2    1    3    3    0  502  0.31042336992E+03 -0.46204805584E+02  0.28658968439E+03  0.42500729389E+03  0.25500000920E-02 0.  1.
</event>
<event>
 5   0  0.6493047E-03  0.1077648E+04  0.7818609E-02  0.9227256E-01
       -2   -1    0    0    0  501  0.00000000000E+00  0.00000000000E+00  0.21905229481E+03  0.21905229483E+03  0.25500000920E-02 0. -1.
        2   -1    0    0  501    0  0.00000000000E+00  0.00000000000E+00 -0.13253965968E+04  0.13253965968E+04  0.25500000920E-02 0.  1.
    10030    2    1    2    0    0  0.00000000000E+00  0.00000000000E+00 -0.11063443020E+04  0.15444488917E+04  0.10776477460E+04 0.  0.
        3    1    3    3  502    0  0.25712516995E+03  0.44842181047E+03 -0.33518149578E+03  0.61606989737E+03  0.10100000352E+00 0. -1.
       -3    1    3    3    0  502 -0.25712516995E+03 -0.44842181047E+03 -0.77116280625E+03  0.92837899431E+03  0.10100000352E+00 0.  1.
</event>
<event>
 5   0  0.3731281E-03  0.9853209E+03  0.7818609E-02  0.9324793E-01
       -1   -1    0    0    0  501  0.00000000000E+00  0.00000000000E+00  0.10797501763E+04  0.10797501763E+04  0.50400001928E-02 0.  1.
        1   -1    0    0  501    0  0.00000000000E+00  0.00000000000E+00 -0.22478748722E+03  0.22478748728E+03  0.50400001928E-02 0. -1.
    10030    2    1    2    0    0  0.00000000000E+00  0.00000000000E+00  0.85496268906E+03  0.13045376636E+04  0.98532092030E+03 0.  0.
        5    1    3    3  502    0 -0.32437691857E+02  0.39810607272E+03  0.45700444488E+02  0.40205878876E+03  0.46999998093E+01 0. -1.
       -5    1    3    3    0  502  0.32437691857E+02 -0.39810607272E+03  0.80926224457E+03  0.90247887481E+03  0.46999998093E+01 0.  1.
</event>
<event>
 5   0  0.3731281E-03  0.1194306E+04  0.7818609E-02  0.9117855E-01
       -1   -1    0    0    0  501  0.00000000000E+00  0.00000000000E+00  0.83024735197E+03  0.83024735199E+03  0.50400001928E-02 0.  1.
        1   -1    0    0  501    0  0.00000000000E+00  0.00000000000E+00 -0.42950036882E+03  0.42950036885E+03  0.50400001928E-02 0. -1.
    10030    2    1    2    0    0  0.00000000000E+00  0.00000000000E+00  0.40074698315E+03  0.12597477208E+04  0.11943057296E+04 0.  0.
        5    1    3    3  502    0 -0.14682716100E+02 -0.54394803282E+03  0.45976388219E+03  0.71239031572E+03  0.46999998093E+01 0.  1.
       -5    1    3    3    0  502  0.14682716100E+02  0.54394803282E+03 -0.59016899047E+02  0.54735740512E+03  0.46999998093E+01 0. -1.
</event>
<event>
 5   0  0.6349142E-03  0.1205611E+04  0.7818609E-02  0.9107959E-01
       -2   -1    0    0    0  501  0.00000000000E+00  0.00000000000E+00  0.19951857123E+03  0.19951857124E+03  0.25500000920E-02 0. -1.
        2   -1    0    0  501    0  0.00000000000E+00  0.00000000000E+00 -0.18212564805E+04  0.18212564805E+04  0.25500000920E-02 0.  1.
    10030    2    1    2    0    0  0.00000000000E+00  0.00000000000E+00 -0.16217379093E+04  0.20207750518E+04  0.12056110332E+04 0.  0.
        1    1    3    3  502    0  0.22317916409E+03  0.46719087830E+03 -0.13283008381E+04  0.14256434942E+04  0.50400001928E-02 0.  1.
       -1    1    3    3    0  502 -0.22317916409E+03 -0.46719087830E+03 -0.29343707125E+03  0.59513155761E+03  0.50400001928E-02 0. -1.
</event>
<event>
 5   0  0.3944074E-03  0.1188107E+04  0.7818609E-02  0.9123331E-01
       -1   -1    0    0    0  501  0.00000000000E+00  0.00000000000E+00  0.26180827475E+03  0.26180827480E+03  0.50400001928E-02 0. -1.
        1   -1    0    0  501    0  0.00000000000E+00  0.00000000000E+00 -0.13479314765E+04  0.13479314765E+04  0.50400001928E-02 0.  1.
    10030    2    1    2    0    0  0.00000000000E+00  0.00000000000E+00 -0.10861232018E+04  0.16097397513E+04  0.11881070901E+04 0.  0.
        4    1    3    3  502    0 -0.22432324190E+02 -0.52764010583E+03 -0.91160503781E+03  0.10535334111E+04  0.12699999809E+01 0.  1.
       -4    1    3    3    0  502  0.22432324190E+02  0.52764010583E+03 -0.17451816396E+03  0.55620634022E+03  0.12699999809E+01 0. -1.
</event>
<event>
 5   0  0.3648616E-03  0.1195550E+04  0.7818609E-02  0.9116761E-01
        1   -1    0    0  501    0  0.00000000000E+00  0.00000000000E+00  0.96997836039E+03  0.96997836040E+03  0.50400001928E-02 0.  1.
       -1   -1    0    0    0  501  0.00000000000E+00  0.00000000000E+00 -0.36839454962E+03  0.36839454965E+03  0.50400001928E-02 0. -1.
    10030    2    1    2    0    0  0.00000000000E+00  0.00000000000E+00  0.60158381077E+03  0.13383729101E+04  0.11955496497E+04 0.  0.
        2    1    3    3  502    0 -0.13170378513E+03  0.62148036292E+02  0.94981609261E+03  0.96091564418E+03  0.25500000920E-02 0.  1.
       -2    1    3    3    0  502  0.13170378513E+03 -0.62148036292E+02 -0.34823228185E+03  0.37745726587E+03  0.25500000920E-02 0. -1.
</event>
<event>
 5   0  0.6658994E-03  0.1218539E+04  0.7818609E-02  0.9096782E-01
       -2   -1    0    0    0  501  0.00000000000E+00  0.00000000000E+00  0.60181024725E+03  0.60181024725E+03  0.25500000920E-02 0. -1.
        2   -1    0    0  501    0  0.00000000000E+00  0.00000000000E+00 -0.61682116496E+03  0.61682116497E+03  0.25500000920E-02 0.  1.
    10030    2    1    2    0    0  0.00000000000E+00  0.00000000000E+00 -0.15010917713E+02  0.12186314122E+04  0.12185389576E+04 0.  0.
        4    1    3    3  502    0 -0.15694761610E+03 -0.33202918834E+02 -0.59531930966E+03  0.61655630836E+03  0.12699999809E+01 0.  1.
       -4    1    3    3    0  502  0.15694761610E+03  0.33202918834E+02  0.58030839195E+03  0.60207510386E+03  0.12699999809E+01 0. -1.
</event>
<event>
 5   0  0.6585930E-03  0.1183311E+04  0.7818609E-02  0.9127591E-01
        2   -1    0    0  501    0  0.00000000000E+00  0.00000000000E+00  0.36728298832E+03  0.36728298833E+03  0.25500000920E-02 0.  1.
       -2   -1    0    0    0  501  0.00000000000E+00  0.00000000000E+00 -0.95309744856E+03  0.95309744857E+03  0.25500000920E-02 0. -1.
    10030    2    1    2    0    0  0.00000000000E+00  0.00000000000E+00 -0.58581446024E+03  0.13203804369E+04  0.11833114198E+04 0.  0.
        2    1    3    3  502    0 -0.51865503630E+03  0.97146753000E+02  0.57031332363E+01  0.52770547091E+03  0.25500000920E-02 0. -1.
       -2    1    3    3    0  502  0.51865503630E+03 -0.97146753000E+02 -0.59151759348E+03  0.79267496598E+03  0.25500000920E-02 0.  1.
</event>
<event>
 5   0  0.6493047E-03  0.1206441E+04  0.7818609E-02  0.9107237E-01
       -2   -1    0    0    0  501  0.00000000000E+00  0.00000000000E+00  0.10794087449E+04  0.10794087449E+04  0.25500000920E-02 0.  1.
        2   -1    0    0  501    0  0.00000000000E+00  0.00000000000E+00 -0.33710581557E+03  0.33710581558E+03  0.25500000920E-02 0. -1.
    10030    2    1    2    0    0  0.00000000000E+00  0.00000000000E+00  0.74230292933E+03  0.14165145605E+04  0.12064409895E+04 0.  0.
        3    1    3    3  502    0 -0.35686391109E+03  0.43189267192E+03  0.63367270661E+03  0.84582754767E+03  0.10100000352E+00 0.  1.
       -3    1    3    3    0  502  0.35686391109E+03 -0.43189267192E+03  0.10863022272E+03  0.57068701281E+03  0.10100000352E+00 0. -1.
</event>
<event>
 5   0  0.2537625E-03  0.1184421E+04  0.7818609E-02  0.9126603E-01
       -4   -1    0    0    0  501  0.00000000000E+00  0.00000000000E+00  0.49370828878E+03  0.49370992223E+03  0.12699999809E+01 0.  1.
        4   -1    0    0  501    0  0.00000000000E+00  0.00000000000E+00 -0.71036213423E+03  0.71036326949E+03  0.12699999809E+01 0. -1.
    10030    2    1    2    0    0  0.00000000000E+00  0.00000000000E+00 -0.21665384545E+03  0.12040731917E+04  0.11844211085E+04 0.  0.
        4    1    3    3  502    0  0.55445737608E+03  0.12836989411E+03  0.58127169078E+02  0.57208582598E+03  0.12699999809E+01 0.  1.
       -4    1    3    3    0  502 -0.55445737608E+03 -0.12836989411E+03 -0.27478101453E+03  0.63198736574E+03  0.12699999809E+01 0. -1.
</event>
<event>
 5   0  0.6658994E-03  0.1201146E+04  0.7818609E-02  0.9111854E-01
       -2   -1    0    0    0  501  0.00000000000E+00  0.00000000000E+00  0.21365790078E+03  0.21365790080E+03  0.25500000920E-02 0.  1.
        2   -1    0    0  501    0  0.00000000000E+00  0.00000000000E+00 -0.16881572780E+04  0.16881572781E+04  0.25500000920E-02 0. -1.
    10030    2    1    2    0    0  0.00000000000E+00  0.00000000000E+00 -0.14744993773E+04  0.19018151788E+04  0.12011463528E+04 0.  0.
        4    1    3    3  502    0 -0.21199052118E+03 -0.17278961152E+03  0.10933827543E+03  0.29453811688E+03  0.12699999809E+01 0.  1.
       -4    1    3    3    0  502  0.21199052118E+03  0.17278961152E+03 -0.15838376527E+04  0.16072770620E+04  0.12699999809E+01 0. -1.
</event>
<event>
 5   0  0.6493047E-03  0.1102643E+04  0.7818609E-02  0.9202619E-01
        2   -1    0    0  501    0  0.00000000000E+00  0.00000000000E+00  0.56757939204E+03  0.56757939205E+03  0.25500000920E-02 0. -1.
       -2   -1    0    0    0  501  0.00000000000E+00  0.00000000000E+00 -0.53552960936E+03  0.53552960936E+03  0.25500000920E-02 0.  1.
    10030    2    1    2    0    0  0.00000000000E+00  0.00000000000E+00  0.32049782683E+02  0.11031090014E+04  0.11026433151E+04 0.  0.
        3    1    3    3  502    0  0.23821417675E+03 -0.29177754012E+03  0.41878085041E+03  0.56325619197E+03  0.10100000352E+00 0. -1.
       -3    1    3    3    0  502 -0.23821417675E+03  0.29177754012E+03 -0.38673106772E+03  0.53985280944E+03  0.10100000352E+00 0.  1.
</event>
<event>
 5   0  0.3772254E-03  0.1181915E+04  0.7818609E-02  0.9128835E-01
        1   -1    0    0  501    0  0.00000000000E+00  0.00000000000E+00  0.15324588967E+04  0.15324588967E+04  0.50400001928E-02 0.  1.
       -1   -1    0    0    0  501  0.00000000000E+00  0.00000000000E+00 -0.22788925855E+03  0.22788925860E+03  0.50400001928E-02 0. -1.
    10030    2    1    2    0    0  0.00000000000E+00  0.00000000000E+00  0.13045696382E+04  0.17603481553E+04  0.11819152622E+04 0.  0.
        3    1    3    3  502    0 -0.43950424860E+03  0.39335718774E+03  0.59782376580E+03  0.83981374533E+03  0.10100000352E+00 0.  1.
       -3    1    3    3    0  502  0.43950424860E+03 -0.39335718774E+03  0.70674587238E+03  0.92053441001E+03  0.10100000352E+00 0. -1.
</event>
<event>
 5   0  0.6493047E-03  0.1154461E+04  0.7818609E-02  0.9153678E-01
        2   -1    0    0  501    0  0.00000000000E+00  0.00000000000E+00  0.59675331048E+03  0.59675331048E+03  0.25500000920E-02 0. -1.
       -2   -1    0    0    0  501  0.00000000000E+00  0.00000000000E+00 -0.55834647868E+03  0.55834647869E+03  0.25500000920E-02 0.  1.
    10030    2    1    2    0    0  0.00000000000E+00  0.00000000000E+00  0.38406831795E+02  0.11550997892E+04  0.11544611029E+04 0.  0.
        3    1    3    3  502    0  0.31322736633E+03  0.29417483787E+02 -0.46502540851E+03  0.56144938519E+03  0.10100000352E+00 0.  1.
       -3    1    3    3    0  502 -0.31322736633E+03 -0.29417483787E+02  0.50343224030E+03  0.59365040398E+03  0.10100000352E+00 0. -1.
</event>
<event>
 5   0  0.3648616E-03  0.1195558E+04  0.7818609E-02  0.9116754E-01
        1   -1    0    0  501    0  0.00000000000E+00  0.00000000000E+00  0.53317762811E+03  0.53317762813E+03  0.50400001928E-02 0. -1.
       -1   -1    0    0    0  501  0.00000000000E+00  0.00000000000E+00 -0.67020761600E+03  0.67020761602E+03  0.50400001928E-02 0.  1.
    10030    2    1    2    0    0  0.00000000000E+00  0.00000000000E+00 -0.13702998789E+03  0.12033852441E+04  0.11955579569E+04 0.  0.
        2    1    3    3  502    0  0.31645343523E+02  0.14705587541E+03 -0.65084643601E+03  0.66800295024E+03  0.25500000920E-02 0.  1.
       -2    1    3    3    0  502 -0.31645343523E+02 -0.14705587541E+03  0.51381644812E+03  0.53538229390E+03  0.25500000920E-02 0. -1.
</event>
<event>
 5   0  0.3701879E-03  0.1133198E+04  0.7818609E-02  0.9173425E-01
       -1   -1    0    0    0  501  0.00000000000E+00  0.00000000000E+00  0.36161104820E+03  0.36161104824E+03  0.50400001928E-02 0.  1.
        1   -1    0    0  501    0  0.00000000000E+00  0.00000000000E+00 -0.88778951872E+03  0.88778951874E+03  0.50400001928E-02 0. -1.
    10030    2    1    2    0    0  0.00000000000E+00  0.00000000000E+00 -0.52617847052E+03  0.12494005670E+04  0.11331981265E+04 0.  0.
        1    1    3    3  502    0  0.39615333152E+03 -0.38042826037E+03 -0.41654248009E+03  0.68932630960E+03  0.50400001928E-02 0. -1.
       -1    1    3    3    0  502 -0.39615333152E+03  0.38042826037E+03 -0.10963599043E+03  0.56007425738E+03  0.50400001928E-02 0.  1.
</event>
<event>
 5   0  0.6658994E-03  0.1224115E+04  0.7818609E-02  0.9092006E-01
        2   -1    0    0  501    0  0.00000000000E+00  0.00000000000E+00  0.87446964849E+03  0.87446964849E+03  0.25500000920E-02 0. -1.
       -2   -1    0    0    0  501  0.00000000000E+00  0.00000000000E+00 -0.42839066465E+03  0.42839066466E+03  0.25500000920E-02 0.  1.
    10030    2    1    2    0    0  0.00000000000E+00  0.00000000000E+00  0.44607898384E+03  0.13028603131E+04  0.12241154095E+04 0.  0.
        4    1    3    3  502    0  0.11129647324E+03 -0.89271698985E+02  0.85652183462E+03  0.86832459787E+03  0.12699999809E+01 0. -1.
       -4    1    3    3    0  502 -0.11129647324E+03  0.89271698985E+02 -0.41044285078E+03  0.43453571528E+03  0.12699999809E+01 0.  1.
</event>
<event>
 5   0  0.6658994E-03  0.1104257E+04  0.7818609E-02  0.9201053E-01
       -2   -1    0    0    0  501  0.00000000000E+00  0.00000000000E+00  0.20329158609E+03  0.20329158610E+03  0.25500000920E-02 0.  1.
        2   -1    0    0  501    0  0.00000000000E+00  0.00000000000E+00 -0.14995489867E+04  0.14995489867E+04  0.25500000920E-02 0. -1.
    10030    2    1    2    0    0  0.00000000000E+00  0.00000000000E+00 -0.12962574006E+04  0.17028405728E+04  0.11042566585E+04 0.  0.
        4    1    3    3  502    0 -0.72674982310E+01  0.50480624847E+03 -0.30344281749E+03  0.58903422771E+03  0.12699999809E+01 0.  1.
       -4    1    3    3    0  502  0.72674982310E+01 -0.50480624847E+03 -0.99281458314E+03  0.11138063451E+04  0.12699999809E+01 0. -1.
</event>
<event>
 5   0  0.6658994E-03  0.1252187E+04  0.7818609E-02  0.9068365E-01
       -2   -1    0    0    0  501  0.00000000000E+00  0.00000000000E+00  0.18195072774E+03  0.18195072776E+03  0.25500000920E-02 0. -1.
        2   -1    0    0  501    0  0.00000000000E+00  0.00000000000E+00 -0.21543911918E+04  0.21543911918E+04  0.25500000920E-02 0.  1.
    10030    2    1    2    0    0  0.00000000000E+00  0.00000000000E+00 -0.19724404640E+04  0.23363419195E+04  0.12521869592E+04 0.  0.
        4    1    3    3  502    0  0.38893885261E+03  0.16464024088E+03 -0.12387804394E+03  0.44014454746E+03  0.12699999809E+01 0. -1.
       -4    1    3    3    0  502 -0.38893885261E+03 -0.16464024088E+03 -0.18485624201E+04  0.18961973721E+04  0.12699999809E+01 0.  1.
</event>
<event>
 5   0  0.2537625E-03  0.1203611E+04  0.7818609E-02  0.9109702E-01
        3   -1    0    0  501    0  0.00000000000E+00  0.00000000000E+00  0.32401006361E+03  0.32401007935E+03  0.10100000352E+00 0. -1.
       -3   -1    0    0    0  501  0.00000000000E+00  0.00000000000E+00 -0.11177728583E+04  0.11177728629E+04  0.10100000352E+00 0.  1.
    10030    2    1    2    0    0  0.00000000000E+00  0.00000000000E+00 -0.79376279471E+03  0.14417829422E+04  0.12036106838E+04 0.  0.
        4    1    3    3  502    0  0.18310390756E+03  0.47732465996E+02  0.28744620774E+03  0.34414003620E+03  0.12699999809E+01 0. -1.
       -4    1    3    3    0  502 -0.18310390756E+03 -0.47732465996E+02 -0.10812090025E+04  0.10976429060E+04  0.12699999809E+01 0.  1.
</event>
<event>
 5   0  0.3701879E-03  0.1222467E+04  0.7818609E-02  0.9093416E-01
       -1   -1    0    0    0  501  0.00000000000E+00  0.00000000000E+00  0.75984528987E+03  0.75984528989E+03  0.50400001928E-02 0.  1.
        1   -1    0    0  501    0  0.00000000000E+00  0.00000000000E+00 -0.49168718892E+03  0.49168718895E+03  0.50400001928E-02 0. -1.
    10030    2    1    2    0    0  0.00000000000E+00  0.00000000000E+00  0.26815810095E+03  0.12515324788E+04  0.12224666779E+04 0.  0.
        1    1    3    3  502    0  0.37264133503E+03  0.48408727454E+03  0.15466028228E+03  0.63017605229E+03  0.50400001928E-02 0. -1.
       -1    1    3    3    0  502 -0.37264133503E+03 -0.48408727454E+03  0.11349781867E+03  0.62135642655E+03  0.50400001928E-02 0.  1.
</event>
<event>
 5   0  0.2537625E-03  0.1103922E+04  0.7818609E-02  0.9201378E-01
       -3   -1    0    0    0  501  0.00000000000E+00  0.00000000000E+00  0.70383327871E+03  0.70383328596E+03  0.10100000352E+00 0. -1.
        3   -1    0    0  501    0  0.00000000000E+00  0.00000000000E+00 -0.43285926008E+03  0.43285927186E+03  0.10100000352E+00 0.  1.
    10030    2    1    2    0    0  0.00000000000E+00  0.00000000000E+00  0.27097401863E+03  0.11366925578E+04  0.11039216694E+04 0.  0.
        4    1    3    3  502    0  0.32633166576E+03 -0.12592999643E+03 -0.30416406000E+03  0.46353868056E+03  0.12699999809E+01 0.  1.
       -4    1    3    3    0  502 -0.32633166576E+03  0.12592999643E+03  0.57513807863E+03  0.67315387726E+03  0.12699999809E+01 0. -1.
</event>
<event>
 5   0  0.6493047E-03  0.1191726E+04  0.7818609E-02  0.9120130E-01
        2   -1    0    0  501    0  0.00000000000E+00  0.00000000000E+00  0.16703305291E+04  0.16703305291E+04  0.25500000920E-02 0.  1.
       -2   -1    0    0    0  501  0.00000000000E+00  0.00000000000E+00 -0.21256438371E+03  0.21256438373E+03  0.25500000920E-02 0. -1.
    10030    2    1    2    0    0  0.00000000000E+00  0.00000000000E+00  0.14577661454E+04  0.18828949128E+04  0.11917261087E+04 0.  0.
        3    1    3    3  502    0 -0.40202091065E+03  0.43462334221E+03  0.83527646907E+03  0.10238188571E+04  0.10100000352E+00 0.  1.
       -3    1    3    3    0  502  0.40202091065E+03 -0.43462334221E+03  0.62248967633E+03  0.85907605573E+03  0.10100000352E+00 0. -1.
</event>
<event>
 5   0  0.2537625E-03  0.1339944E+04  0.7818609E-02  0.8998476E-01
        3   -1    0    0  501    0  0.00000000000E+00  0.00000000000E+00  0.18270720069E+03  0.18270722861E+03  0.10100000352E+00 0.  1.
       -3   -1    0    0    0  501  0.00000000000E+00  0.00000000000E+00 -0.24567292968E+04  0.24567292988E+04  0.10100000352E+00 0. -1.
    10030    2    1    2    0    0  0.00000000000E+00  0.00000000000E+00 -0.22740220961E+04  0.26394365275E+04  0.13399435395E+04 0.  0.
        5    1    3    3  502    0 -0.60016750709E+03  0.15263497626E+03 -0.63348767116E+03  0.88590473080E+03  0.46999998093E+01 0.  1.
       -5    1    3    3    0  502  0.60016750709E+03 -0.15263497626E+03 -0.16405344249E+04  0.17535317967E+04  0.46999998093E+01 0. -1.
</event>
<event>
 5   0  0.6349142E-03  0.1146806E+04  0.7818609E-02  0.9160735E-01
        2   -1    0    0  501    0  0.00000000000E+00  0.00000000000E+00  0.15622710711E+04  0.15622710711E+04  0.25500000920E-02 0. -1.
       -2   -1    0    0    0  501  0.00000000000E+00  0.00000000000E+00 -0.21045721300E+03  0.21045721302E+03  0.25500000920E-02 0.  1.
    10030    2    1    2    0    0  0.00000000000E+00  0.00000000000E+00  0.13518138580E+04  0.17727282841E+04  0.11468063753E+04 0.  0.
        1    1    3    3  502    0 -0.45693060746E+03  0.32069150079E+02  0.12090993368E+04  0.12929559995E+04  0.50400001928E-02 0. -1.
       -1    1    3    3    0  502  0.45693060746E+03 -0.32069150079E+02  0.14271452125E+03  0.47977228455E+03  0.50400001928E-02 0.  1.
</event>
<event>
 5   0  0.2537625E-03  0.1198623E+04  0.7818609E-02  0.9114062E-01
        4   -1    0    0  501    0  0.00000000000E+00  0.00000000000E+00  0.36672508463E+03  0.36672728368E+03  0.12699999809E+01 0.  1.
       -4   -1    0    0    0  501  0.00000000000E+00  0.00000000000E+00 -0.97940516919E+03  0.97940599260E+03  0.12699999809E+01 0. -1.
    10030    2    1    2    0    0  0.00000000000E+00  0.00000000000E+00 -0.61268008456E+03  0.13461332763E+04  0.11986233401E+04 0.  0.
        4    1    3    3  502    0 -0.35387586362E+03  0.15870419232E+03 -0.81946908928E+03  0.90661256814E+03  0.12699999809E+01 0. -1.
       -4    1    3    3    0  502  0.35387586362E+03 -0.15870419232E+03  0.20678900472E+03  0.43952070814E+03  0.12699999809E+01 0.  1.
</event>
<event>
 5   0  0.3701879E-03  0.1252909E+04  0.7818609E-02  0.9067765E-01
        1   -1    0    0  501    0  0.00000000000E+00  0.00000000000E+00  0.62624537597E+03  0.62624537599E+03  0.50400001928E-02 0. -1.
       -1   -1    0    0    0  501  0.00000000000E+00  0.00000000000E+00 -0.62666398334E+03  0.62666398336E+03  0.50400001928E-02 0.  1.
    10030    2    1    2    0    0  0.00000000000E+00  0.00000000000E+00 -0.41860736534E+00  0.12529093594E+04  0.12529092894E+04 0.  0.
        1    1    3    3  502    0 -0.33630173158E+03 -0.27277997296E+03 -0.45290973047E+03  0.62660593063E+03  0.50400001928E-02 0.  1.
       -1    1    3    3    0  502  0.33630173158E+03  0.27277997296E+03  0.45249112311E+03  0.62630342872E+03  0.50400001928E-02 0. -1.
</event>
<event>
 5   0  0.3648616E-03  0.1206035E+04  0.7818609E-02  0.9107591E-01
       -1   -1    0    0    0  501  0.00000000000E+00  0.00000000000E+00  0.34696304320E+03  0.34696304324E+03  0.50400001928E-02 0.  1.
        1   -1    0    0  501    0  0.00000000000E+00  0.00000000000E+00 -0.10480367453E+04  0.10480367453E+04  0.50400001928E-02 0. -1.
    10030    2    1    2    0    0  0.00000000000E+00  0.00000000000E+00 -0.70107370209E+03  0.13949997885E+04  0.12060348562E+04 0.  0.
        2    1    3    3  502    0 -0.48938254624E+03 -0.14578782105E+03 -0.72154302651E+03  0.88395345152E+03  0.25500000920E-02 0. -1.
       -2    1    3    3    0  502  0.48938254624E+03  0.14578782105E+03  0.20469324425E+02  0.51104633702E+03  0.25500000920E-02 0.  1.
</event>
<event>
 5   0  0.6493047E-03  0.1057313E+04  0.7818609E-02  0.9247826E-01
        2   -1    0    0  501    0  0.00000000000E+00  0.00000000000E+00  0.32024159537E+03  0.32024159538E+03  0.25500000920E-02 0.  1.
       -2   -1    0    0    0  501  0.00000000000E+00  0.00000000000E+00 -0.87270967388E+03  0.87270967388E+03  0.25500000920E-02 0. -1.
    10030    2    1    2    0    0  0.00000000000E+00  0.00000000000E+00 -0.55246807851E+03  0.11929512693E+04  0.10573134602E+04 0.  0.
        3    1    3    3  502    0  0.49077161920E+03  0.19604833727E+03 -0.26083820224E+03  0.58934566318E+03  0.10100000352E+00 0.  1.
       -3    1    3    3    0  502 -0.49077161920E+03 -0.19604833727E+03 -0.29162987627E+03  0.60360560608E+03  0.10100000352E+00 0. -1.
</event>
<event>
 5   0  0.3648616E-03  0.1211331E+04  0.7818609E-02  0.9102996E-01
        1   -1    0    0  501    0  0.00000000000E+00  0.00000000000E+00  0.91373603121E+03  0.91373603122E+03  0.50400001928E-02 0. -1.
       -1   -1    0    0    0  501  0.00000000000E+00  0.00000000000E+00 -0.40146244796E+03  0.40146244799E+03  0.50400001928E-02 0.  1.
    10030    2    1    2    0    0  0.00000000000E+00  0.00000000000E+00  0.51227358325E+03  0.13151984792E+04  0.12113310099E+04 0.  0.
        2    1    3    3  502    0  0.31192399991E+03 -0.51908639615E+03  0.26605433137E+03  0.66146214981E+03  0.25500000920E-02 0. -1.
       -2    1    3    3    0  502 -0.31192399991E+03  0.51908639615E+03  0.24621925188E+03  0.65373632941E+03  0.25500000920E-02 0.  1.
</event>
<event>
 5   0  0.6585930E-03  0.1098437E+04  0.7818609E-02  0.9206716E-01
        2   -1    0    0  501    0  0.00000000000E+00  0.00000000000E+00  0.92885045521E+03  0.92885045521E+03  0.25500000920E-02 0. -1.
       -2   -1    0    0    0  501  0.00000000000E+00  0.00000000000E+00 -0.32474661810E+03  0.32474661811E+03  0.25500000920E-02 0.  1.
    10030    2    1    2    0    0  0.00000000000E+00  0.00000000000E+00  0.60410383711E+03  0.12535970733E+04  0.10984371517E+04 0.  0.
        2    1    3    3  502    0 -0.40189854307E+03 -0.35025613155E+03  0.15134033742E+03  0.55417117784E+03  0.25500000920E-02 0.  1.
       -2    1    3    3    0  502  0.40189854307E+03  0.35025613155E+03  0.45276349969E+03  0.69942589548E+03  0.25500000920E-02 0. -1.
</event>
<event>
 5   0  0.3772254E-03  0.1201499E+04  0.7818609E-02  0.9111546E-01
       -1   -1    0    0    0  501  0.00000000000E+00  0.00000000000E+00  0.24983660163E+03  0.24983660168E+03  0.50400001928E-02 0. -1.
        1   -1    0    0  501    0  0.00000000000E+00  0.00000000000E+00 -0.14445431358E+04  0.14445431359E+04  0.50400001928E-02 0.  1.
    10030    2    1    2    0    0  0.00000000000E+00  0.00000000000E+00 -0.11947065342E+04  0.16943797375E+04  0.12014986442E+04 0.  0.
        3    1    3    3  502    0  0.35694812331E+03 -0.66600528605E+02 -0.12722769154E+04  0.13230782867E+04  0.10100000352E+00 0.  1.
       -3    1    3    3    0  502 -0.35694812331E+03  0.66600528605E+02  0.77570381178E+02  0.37130145082E+03  0.10100000352E+00 0. -1.
</event>
<event>
 5   0  0.3701879E-03  0.1210992E+04  0.7818609E-02  0.9103289E-01
        1   -1    0    0  501    0  0.00000000000E+00  0.00000000000E+00  0.27956423280E+04  0.27956423280E+04  0.50400001928E-02 0. -1.
       -1   -1    0    0    0  501  0.00000000000E+00  0.00000000000E+00 -0.13114179923E+03  0.13114179933E+03  0.50400001928E-02 0.  1.
    10030    2    1    2    0    0  0.00000000000E+00  0.00000000000E+00  0.26645005288E+04  0.29267841273E+04  0.12109922627E+04 0.  0.
        1    1    3    3  502    0  0.29386673588E+03 -0.72066691759E+02  0.25998272043E+04  0.26173751659E+04  0.50400001928E-02 0. -1.
       -1    1    3    3    0  502 -0.29386673588E+03  0.72066691759E+02  0.64673324448E+02  0.30940896147E+03  0.50400001928E-02 0.  1.
</event>
<event>
 5   0  0.6658994E-03  0.1194714E+04  0.7818609E-02  0.9117496E-01
        2   -1    0    0  501    0  0.00000000000E+00  0.00000000000E+00  0.10279478945E+04  0.10279478945E+04  0.25500000920E-02 0. -1.
       -2   -1    0    0    0  501  0.00000000000E+00  0.00000000000E+00 -0.34713344780E+03  0.34713344781E+03  0.25500000920E-02 0.  1.
    10030    2    1    2    0    0  0.00000000000E+00  0.00000000000E+00  0.68081444668E+03  0.13750813423E+04  0.11947135167E+04 0.  0.
        4    1    3    3  502    0 -0.98399328218E+02  0.49443054951E+03  0.70923838463E+03  0.87015211039E+03  0.12699999809E+01 0. -1.
       -4    1    3    3    0  502  0.98399328218E+02 -0.49443054951E+03 -0.28423937945E+02  0.50492923190E+03  0.12699999809E+01 0.  1.
</event>
<event>
 5   0  0.6640844E-03  0.1222076E+04  0.7818609E-02  0.9093750E-01
       -2   -1    0    0    0  501  0.00000000000E+00  0.00000000000E+00  0.94078155281E+03  0.94078155282E+03  0.25500000920E-02 0.  1.
        2   -1    0    0  501    0  0.00000000000E+00  0.00000000000E+00 -0.39686927775E+03  0.39686927776E+03  0.25500000920E-02 0. -1.
    10030    2    1    2    0    0  0.00000000000E+00  0.00000000000E+00  0.54391227506E+03  0.13376508306E+04  0.12220757675E+04 0.  0.
        5    1    3    3  502    0 -0.20260390587E+03 -0.73439898110E+02 -0.35387098218E+03  0.41435313844E+03  0.46999998093E+01 0. -1.
       -5    1    3    3    0  502  0.20260390587E+03  0.73439898110E+02  0.89778325725E+03  0.92329769213E+03  0.46999998093E+01 0.  1.
</event>
<event>
 5   0  0.3648616E-03  0.1143638E+04  0.7818609E-02  0.9163673E-01
        1   -1    0    0  501    0  0.00000000000E+00  0.00000000000E+00  0.12383170802E+04  0.12383170802E+04  0.50400001928E-02 0. -1.
       -1   -1    0    0    0  501  0.00000000000E+00  0.00000000000E+00 -0.26404925735E+03  0.26404925740E+03  0.50400001928E-02 0.  1.
    10030    2    1    2    0    0  0.00000000000E+00  0.00000000000E+00  0.97426782280E+03  0.15023663376E+04  0.11436375395E+04 0.  0.
        2    1    3    3  502    0  0.54088293061E+03 -0.67391615894E+01  0.24356543577E+03  0.59323172743E+03  0.25500000920E-02 0.  1.
       -2    1    3    3    0  502 -0.54088293061E+03  0.67391615894E+01  0.73070238703E+03  0.90913461013E+03  0.25500000920E-02 0. -1.
</event>
<event>
 5   0  0.3648616E-03  0.1148224E+04  0.7818609E-02  0.9159424E-01
        1   -1    0    0  501    0  0.00000000000E+00  0.00000000000E+00  0.15743044215E+04  0.15743044215E+04  0.50400001928E-02 0. -1.
       -1   -1    0    0    0  501  0.00000000000E+00  0.00000000000E+00 -0.20936506888E+03  0.20936506894E+03  0.50400001928E-02 0.  1.
    10030    2    1    2    0    0  0.00000000000E+00  0.00000000000E+00  0.13649393526E+04  0.17836694904E+04  0.11482235910E+04 0.  0.
        2    1    3    3  502    0 -0.62216651120E+02  0.55028250216E+03  0.44727908195E+03  0.71185695263E+03  0.25500000920E-02 0.  1.
       -2    1    3    3    0  502  0.62216651120E+02 -0.55028250216E+03  0.91766027065E+03  0.10718125378E+04  0.25500000920E-02 0. -1.
</event>
<event>
 5   0  0.3701879E-03  0.1205669E+04  0.7818609E-02  0.9107909E-01
        1   -1    0    0  501    0  0.00000000000E+00  0.00000000000E+00  0.18956578727E+04  0.18956578728E+04  0.50400001928E-02 0.  1.
       -1   -1    0    0    0  501  0.00000000000E+00  0.00000000000E+00 -0.19170620400E+03  0.19170620407E+03  0.50400001928E-02 0. -1.
    10030    2    1    2    0    0  0.00000000000E+00  0.00000000000E+00  0.17039516687E+04  0.20873640768E+04  0.12056689014E+04 0.  0.
        1    1    3    3  502    0  0.46706628188E+03  0.32642819968E+03  0.51137713375E+03  0.76564538408E+03  0.50400001928E-02 0. -1.
       -1    1    3    3    0  502 -0.46706628188E+03 -0.32642819968E+03  0.11925745350E+04  0.13217186927E+04  0.50400001928E-02 0.  1.
</event>
<event>
 5   0  0.3731281E-03  0.1069809E+04  0.7818609E-02  0.9235128E-01
       -1   -1    0    0    0  501  0.00000000000E+00  0.00000000000E+00  0.38796970697E+03  0.38796970700E+03  0.50400001928E-02 0. -1.
        1   -1    0    0  501    0  0.00000000000E+00  0.00000000000E+00 -0.73748741435E+03  0.73748741437E+03  0.50400001928E-02 0.  1.
    10030    2    1    2    0    0  0.00000000000E+00  0.00000000000E+00 -0.34951770738E+03  0.11254571214E+04  0.10698089102E+04 0.  0.
        5    1    3    3  502    0 -0.32524306603E+03 -0.34906068295E+03  0.79634148649E+02  0.48372523193E+03  0.46999998093E+01 0. -1.
       -5    1    3    3    0  502  0.32524306603E+03  0.34906068295E+03 -0.42915185603E+03  0.64173188943E+03  0.46999998093E+01 0.  1.
</event>
<event>
 5   0  0.3772254E-03  0.1222599E+04  0.7818609E-02  0.9093302E-01
        1   -1    0    0  501    0  0.00000000000E+00  0.00000000000E+00  0.22769477244E+04  0.22769477244E+04  0.50400001928E-02 0. -1.
       -1   -1    0    0    0  501  0.00000000000E+00  0.00000000000E+00 -0.16411755108E+03  0.16411755115E+03  0.50400001928E-02 0.  1.
    10030    2    1    2    0    0  0.00000000000E+00  0.00000000000E+00  0.21128301733E+04  0.24410652755E+04  0.12225990096E+04 0.  0.
        3    1    3    3  502    0  0.57919296263E+03 -0.15170501430E+03  0.13026410834E+04  0.14336501322E+04  0.10100000352E+00 0. -1.
       -3    1    3    3    0  502 -0.57919296263E+03  0.15170501430E+03  0.81018908989E+03  0.10074151433E+04  0.10100000352E+00 0.  1.
</event>
<event>
 5   0  0.6349142E-03  0.1151419E+04  0.7818609E-02  0.9156475E-01
        2   -1    0    0  501    0  0.00000000000E+00  0.00000000000E+00  0.11968361598E+04  0.11968361598E+04  0.25500000920E-02 0. -1.
       -2   -1    0    0    0  501  0.00000000000E+00  0.00000000000E+00 -0.27693147143E+03  0.27693147144E+03  0.25500000920E-02 0.  1.
    10030    2    1    2    0    0  0.00000000000E+00  0.00000000000E+00  0.91990468841E+03  0.14737676313E+04  0.11514192960E+04 0.  0.
        1    1    3    3  502    0 -0.22725749581E+03  0.95970153569E+02  0.11257582719E+04  0.11524703583E+04  0.50400001928E-02 0. -1.
       -1    1    3    3    0  502  0.22725749581E+03 -0.95970153569E+02 -0.20585358353E+03  0.32129727303E+03  0.50400001928E-02 0.  1.
</event>
<event>
 5   0  0.3772254E-03  0.1187270E+04  0.7818609E-02  0.9124072E-01
        1   -1    0    0  501    0  0.00000000000E+00  0.00000000000E+00  0.68076972424E+03  0.68076972426E+03  0.50400001928E-02 0. -1.
       -1   -1    0    0    0  501  0.00000000000E+00  0.00000000000E+00 -0.51765327372E+03  0.51765327374E+03  0.50400001928E-02 0.  1.
    10030    2    1    2    0    0  0.00000000000E+00  0.00000000000E+00  0.16311645052E+03  0.11984229980E+04  0.11872702749E+04 0.  0.
        3    1    3    3  502    0  0.29176710908E+03 -0.43509488804E+03 -0.20029052618E+03  0.56084927799E+03  0.10100000352E+00 0.  1.
       -3    1    3    3    0  502 -0.29176710908E+03  0.43509488804E+03  0.36340697670E+03  0.63757372001E+03  0.10100000352E+00 0. -1.
</event>
<event>
 5   0  0.3701879E-03  0.1261358E+04  0.7818609E-02  0.9060783E-01
       -1   -1    0    0    0  501  0.00000000000E+00  0.00000000000E+00  0.39231287316E+03  0.39231287319E+03  0.50400001928E-02 0.  1.
        1   -1    0    0  501    0  0.00000000000E+00  0.00000000000E+00 -0.10138742034E+04  0.10138742034E+04  0.50400001928E-02 0. -1.
    10030    2    1    2    0    0  0.00000000000E+00  0.00000000000E+00 -0.62156133023E+03  0.14061870766E+04  0.12613578426E+04 0.  0.
        1    1    3    3  502    0  0.22519935820E+03  0.40972816251E+03  0.16109778645E+03  0.49451432225E+03  0.50400001928E-02 0.  1.
       -1    1    3    3    0  502 -0.22519935820E+03 -0.40972816251E+03 -0.78265911668E+03  0.91167275435E+03  0.50400001928E-02 0. -1.
</event>
<event>
 5   0  0.3701879E-03  0.1200055E+04  0.7818609E-02  0.9112808E-01
       -1   -1    0    0    0  501  0.00000000000E+00  0.00000000000E+00  0.24583538577E+03  0.24583538582E+03  0.50400001928E-02 0.  1.
        1   -1    0    0  501    0  0.00000000000E+00  0.00000000000E+00 -0.14645293684E+04  0.14645293684E+04  0.50400001928E-02 0. -1.
    10030    2    1    2    0    0  0.00000000000E+00  0.00000000000E+00 -0.12186939826E+04  0.17103647542E+04  0.12000552359E+04 0.  0.
        1    1    3    3  502    0  0.65337950506E+02  0.81442370167E+02 -0.14514822570E+04  0.14552328508E+04  0.50400001928E-02 0. -1.
       -1    1    3    3    0  502 -0.65337950506E+02 -0.81442370167E+02  0.23278827441E+03  0.25513190346E+03  0.50400001928E-02 0.  1.
</event>
<event>
 5   0  0.3648616E-03  0.1166343E+04  0.7818609E-02  0.9142837E-01
        1   -1    0    0  501    0  0.00000000000E+00  0.00000000000E+00  0.17908591883E+04  0.17908591883E+04  0.50400001928E-02 0.  1.
       -1   -1    0    0    0  501  0.00000000000E+00  0.00000000000E+00 -0.18990279401E+03  0.18990279408E+03  0.50400001928E-02 0. -1.
    10030    2    1    2    0    0  0.00000000000E+00  0.00000000000E+00  0.16009563943E+04  0.19807619824E+04  0.11663432833E+04 0.  0.
        2    1    3    3  502    0 -0.22457534388E+02  0.51746819005E+03  0.34538233865E+03  0.62254849483E+03  0.25500000920E-02 0. -1.
       -2    1    3    3    0  502  0.22457534388E+02 -0.51746819005E+03  0.12555740556E+04  0.13582134875E+04  0.25500000920E-02 0.  1.
</event>
<event>
 5   0  0.3772254E-03  0.1202811E+04  0.7818609E-02  0.9110399E-01
        1   -1    0    0  501    0  0.00000000000E+00  0.00000000000E+00  0.50189040750E+03  0.50189040753E+03  0.50400001928E-02 0. -1.
       -1   -1    0    0    0  501  0.00000000000E+00  0.00000000000E+00 -0.72065278170E+03  0.72065278172E+03  0.50400001928E-02 0.  1.
    10030    2    1    2    0    0  0.00000000000E+00  0.00000000000E+00 -0.21876237420E+03  0.12225431892E+04  0.12028112376E+04 0.  0.
        3    1    3    3  502    0 -0.30320886167E+03 -0.49329125044E+03 -0.27458008211E+03  0.64083235191E+03  0.10100000352E+00 0. -1.
       -3    1    3    3    0  502  0.30320886167E+03  0.49329125044E+03  0.55817707914E+02  0.58171083734E+03  0.10100000352E+00 0.  1.
</event>
<event>
 5   0  0.6349142E-03  0.6755019E+03  0.7818609E-02  0.9760069E-01
        2   -1    0    0  501    0  0.00000000000E+00  0.00000000000E+00  0.24296894823E+03  0.24296894825E+03  0.25500000920E-02 0.  1.
       -2   -1    0    0    0  501  0.00000000000E+00  0.00000000000E+00 -0.46950739590E+03  0.46950739591E+03  0.25500000920E-02 0. -1.
    10030    2    1    2    0    0  0.00000000000E+00  0.00000000000E+00 -0.22653844767E+03  0.71247634416E+03  0.67550194131E+03 0.  0.
        1    1    3    3  502    0  0.27121156461E+03  0.19104476580E+03 -0.46379464253E+02  0.33496995395E+03  0.50400001928E-02 0. -1.
       -1    1    3    3    0  502 -0.27121156461E+03 -0.19104476580E+03 -0.18015898342E+03  0.37750639021E+03  0.50400001928E-02 0.  1.
</event>
<event>
 5   0  0.6493047E-03  0.1270495E+04  0.7818609E-02  0.9053295E-01
       -2   -1    0    0    0  501  0.00000000000E+00  0.00000000000E+00  0.34703984317E+03  0.34703984318E+03  0.25500000920E-02 0. -1.
        2   -1    0    0  501    0  0.00000000000E+00  0.00000000000E+00 -0.11628049877E+04  0.11628049877E+04  0.25500000920E-02 0.  1.
    10030    2    1    2    0    0  0.00000000000E+00  0.00000000000E+00 -0.81576514453E+03  0.15098448309E+04  0.12704954318E+04 0.  0.
        3    1    3    3  502    0 -0.58906332932E+03 -0.16337069322E+03 -0.61321659555E+03  0.86586384184E+03  0.10100000352E+00 0.  1.
       -3    1    3    3    0  502  0.58906332932E+03  0.16337069322E+03 -0.20254854899E+03  0.64398098904E+03  0.10100000352E+00 0. -1.
</event>
<event>
 5   0  0.3772254E-03  0.1210084E+04  0.7818609E-02  0.9104075E-01
       -1   -1    0    0    0  501  0.00000000000E+00  0.00000000000E+00  0.55331434109E+03  0.55331434112E+03  0.50400001928E-02 0.  1.
        1   -1    0    0  501    0  0.00000000000E+00  0.00000000000E+00 -0.66160566517E+03  0.66160566519E+03  0.50400001928E-02 0. -1.
    10030    2    1    2    0    0  0.00000000000E+00  0.00000000000E+00 -0.10829132407E+03  0.12149200063E+04  0.12100841338E+04 0.  0.
        3    1    3    3  502    0 -0.54113021290E+03 -0.25023029085E+03 -0.15770235398E+03  0.61669048025E+03  0.10100000352E+00 0. -1.
       -3    1    3    3    0  502  0.54113021290E+03  0.25023029085E+03  0.49411029903E+02  0.59822952606E+03  0.10100000352E+00 0.  1.
</event>
<event>
 5   0  0.6640844E-03  0.1202238E+04  0.7818609E-02  0.9110900E-01
        2   -1    0    0  501    0  0.00000000000E+00  0.00000000000E+00  0.77427802745E+03  0.77427802745E+03  0.25500000920E-02 0. -1.
       -2   -1    0    0    0  501  0.00000000000E+00  0.00000000000E+00 -0.46668516489E+03  0.46668516490E+03  0.25500000920E-02 0.  1.
    10030    2    1    2    0    0  0.00000000000E+00  0.00000000000E+00  0.30759286256E+03  0.12409631923E+04  0.12022380279E+04 0.  0.
        5    1    3    3  502    0  0.30894098675E+03 -0.95336301398E+02  0.67686204412E+03  0.75013189535E+03  0.46999998093E+01 0. -1.
       -5    1    3    3    0  502 -0.30894098675E+03  0.95336301398E+02 -0.36926918156E+03  0.49083129699E+03  0.46999998093E+01 0.  1.
</event>
<event>
 5   0  0.3944074E-03  0.1199889E+04  0.7818609E-02  0.9112954E-01
        1   -1    0    0  501    0  0.00000000000E+00  0.00000000000E+00  0.51252608420E+03  0.51252608423E+03  0.50400001928E-02 0. -1.
       -1   -1    0    0    0  501  0.00000000000E+00  0.00000000000E+00 -0.70227298927E+03  0.70227298929E+03  0.50400001928E-02 0.  1.
    10030    2    1    2    0    0  0.00000000000E+00  0.00000000000E+00 -0.18974690507E+03  0.12147990735E+04  0.11998887036E+04 0.  0.
        4    1    3    3  502    0  0.86239880684E+02 -0.53540762941E+03  0.16489427635E+03  0.56682482472E+03  0.12699999809E+01 0.  1.
       -4    1    3    3    0  502 -0.86239880684E+02  0.53540762941E+03 -0.35464118141E+03  0.64797424880E+03  0.12699999809E+01 0. -1.
</event>
<event>
 5   0  0.3648616E-03  0.8607551E+03  0.7818609E-02  0.9476014E-01
       -1   -1    0    0    0  501  0.00000000000E+00  0.00000000000E+00  0.22190189885E+03  0.22190189890E+03  0.50400001928E-02 0. -1.
        1   -1    0    0  501    0  0.00000000000E+00  0.00000000000E+00 -0.83471500290E+03  0.83471500292E+03  0.50400001928E-02 0.  1.
    10030    2    1    2    0    0  0.00000000000E+00  0.00000000000E+00 -0.61281310406E+03  0.10566169018E+04  0.86075512006E+03 0.  0.
        2    1    3    3  502    0  0.22975437356E+03  0.10924845780E+03  0.11971750287E+03  0.28116645995E+03  0.25500000920E-02 0. -1.
       -2    1    3    3    0  502 -0.22975437356E+03 -0.10924845780E+03 -0.73253060693E+03  0.77545044187E+03  0.25500000920E-02 0.  1.
</event>
<event>
 5   0  0.3701879E-03  0.1184440E+04  0.7818609E-02  0.9126586E-01
       -1   -1    0    0    0  501  0.00000000000E+00  0.00000000000E+00  0.42743745419E+03  0.42743745422E+03  0.50400001928E-02 0. -1.
        1   -1    0    0  501    0  0.00000000000E+00  0.00000000000E+00 -0.82052882122E+03  0.82052882124E+03  0.50400001928E-02 0.  1.
    10030    2    1    2    0    0  0.00000000000E+00  0.00000000000E+00 -0.39309136703E+03  0.12479662755E+04  0.11844403750E+04 0.  0.
        1    1    3    3  502    0  0.50095055304E+03 -0.31151539732E+03 -0.14147932478E+03  0.60663802941E+03  0.50400001928E-02 0.  1.
       -1    1    3    3    0  502 -0.50095055304E+03  0.31151539732E+03 -0.25161204225E+03  0.64132824606E+03  0.50400001928E-02 0. -1.
</event>
<event>
 5   0  0.3731281E-03  0.1206538E+04  0.7818609E-02  0.9107153E-01
       -1   -1    0    0    0  501  0.00000000000E+00  0.00000000000E+00  0.35280362039E+03  0.35280362043E+03  0.50400001928E-02 0.  1.
        1   -1    0    0  501    0  0.00000000000E+00  0.00000000000E+00 -0.10315465742E+04  0.10315465742E+04  0.50400001928E-02 0. -1.
    10030    2    1    2    0    0  0.00000000000E+00  0.00000000000E+00 -0.67874295379E+03  0.13843501946E+04  0.12065378005E+04 0.  0.
        5    1    3    3  502    0 -0.38027423193E+03 -0.11958216228E+03 -0.85887084799E+03  0.94688415792E+03  0.46999998093E+01 0. -1.
       -5    1    3    3    0  502  0.38027423193E+03  0.11958216228E+03  0.18012789420E+03  0.43746603670E+03  0.46999998093E+01 0.  1.
</event>
<event>
 5   0  0.6640844E-03  0.1191098E+04  0.7818609E-02  0.9120684E-01
       -2   -1    0    0    0  501  0.00000000000E+00  0.00000000000E+00  0.21864869595E+03  0.21864869596E+03  0.25500000920E-02 0. -1.
        2   -1    0    0  501    0  0.00000000000E+00  0.00000000000E+00 -0.16221388922E+04  0.16221388922E+04  0.25500000920E-02 0.  1.
    10030    2    1    2    0    0  0.00000000000E+00  0.00000000000E+00 -0.14034901963E+04  0.18407875882E+04  0.11910979027E+04 0.  0.
        5    1    3    3  502    0  0.66494700686E+02  0.38906751274E+03 -0.12567025096E+02  0.39493682382E+03  0.46999998093E+01 0. -1.
       -5    1    3    3    0  502 -0.66494700686E+02 -0.38906751274E+03 -0.13909231712E+04  0.14458507644E+04  0.46999998093E+01 0.  1.
</event>
<event>
 5   0  0.6658994E-03  0.1397691E+04  0.7818609E-02  0.8955491E-01
        2   -1    0    0  501    0  0.00000000000E+00  0.00000000000E+00  0.94772688853E+03  0.94772688854E+03  0.25500000920E-02 0.  1.
       -2   -1    0    0    0  501  0.00000000000E+00  0.00000000000E+00 -0.51532266699E+03  0.51532266700E+03  0.25500000920E-02 0. -1.
    10030    2    1    2    0    0  0.00000000000E+00  0.00000000000E+00  0.43240422154E+03  0.14630495555E+04  0.13976911644E+04 0.  0.
        4    1    3    3  502    0  0.69835554163E+03  0.22682625592E+02  0.20261149695E+03  0.72750807255E+03  0.12699999809E+01 0. -1.
       -4    1    3    3    0  502 -0.69835554163E+03 -0.22682625592E+02  0.22979272459E+03  0.73554148299E+03  0.12699999809E+01 0.  1.
</event>
<event>
 5   0  0.3731281E-03  0.1234535E+04  0.7818609E-02  0.9083153E-01
       -1   -1    0    0    0  501  0.00000000000E+00  0.00000000000E+00  0.33549034955E+03  0.33549034959E+03  0.50400001928E-02 0.  1.
        1   -1    0    0  501    0  0.00000000000E+00  0.00000000000E+00 -0.11357091423E+04  0.11357091423E+04  0.50400001928E-02 0. -1.
    10030    2    1    2    0    0  0.00000000000E+00  0.00000000000E+00 -0.80021879270E+03  0.14711994919E+04  0.12345354708E+04 0.  0.
        5    1    3    3  502    0  0.25959802801E+03  0.42700904644E+03  0.31658072640E+02  0.50075162052E+03  0.46999998093E+01 0.  1.
       -5    1    3    3    0  502 -0.25959802801E+03 -0.42700904644E+03 -0.83187686534E+03  0.97044787133E+03  0.46999998093E+01 0. -1.
</event>
<event>
 5   0  0.3731281E-03  0.1189360E+04  0.7818609E-02  0.9122221E-01
        1   -1    0    0  501    0  0.00000000000E+00  0.00000000000E+00  0.12197991217E+04  0.12197991217E+04  0.50400001928E-02 0. -1.
       -1   -1    0    0    0  501  0.00000000000E+00  0.00000000000E+00 -0.28992007166E+03  0.28992007171E+03  0.50400001928E-02 0.  1.
    10030    2    1    2    0    0  0.00000000000E+00  0.00000000000E+00  0.92987905007E+03  0.15097191935E+04  0.11893599099E+04 0.  0.
        5    1    3    3  502    0  0.11779259618E+03  0.75796494430E+02  0.11985362520E+04  0.12067027147E+04  0.46999998093E+01 0. -1.
       -5    1    3    3    0  502 -0.11779259618E+03 -0.75796494430E+02 -0.26865720191E+03  0.30301647879E+03  0.46999998093E+01 0.  1.
</event>
<event>
 5   0  0.6349142E-03  0.1212219E+04  0.7818609E-02  0.9102228E-01
        2   -1    0    0  501    0  0.00000000000E+00  0.00000000000E+00  0.16705015351E+04  0.16705015351E+04  0.25500000920E-02 0.  1.
       -2   -1    0    0    0  501  0.00000000000E+00  0.00000000000E+00 -0.21991527982E+03  0.21991527984E+03  0.25500000920E-02 0. -1.
    10030    2    1    2    0    0  0.00000000000E+00  0.00000000000E+00  0.14505862553E+04  0.18904168150E+04  0.12122191428E+04 0.  0.
        1    1    3    3  502    0 -0.45359572645E+02 -0.58106641956E+03  0.46587182467E+03  0.74614491341E+03  0.50400001928E-02 0.  1.
       -1    1    3    3    0  502  0.45359572645E+02  0.58106641956E+03  0.98471443064E+03  0.11442719016E+04  0.50400001928E-02 0. -1.
</event>
<event>
 5   0  0.6658994E-03  0.7271507E+03  0.7818609E-02  0.9671895E-01
        2   -1    0    0  501    0  0.00000000000E+00  0.00000000000E+00  0.12017787125E+04  0.12017787125E+04  0.25500000920E-02 0. -1.
       -2   -1    0    0    0  501  0.00000000000E+00  0.00000000000E+00 -0.10999283305E+03  0.10999283308E+03  0.25500000920E-02 0.  1.
    10030    2    1    2    0    0  0.00000000000E+00  0.00000000000E+00  0.10917858794E+04  0.13117715455E+04  0.72715072800E+03 0.  0.
        4    1    3    3  502    0  0.53293786074E+02  0.18226444924E+03  0.11052017463E+04  0.11213978197E+04  0.12699999809E+01 0. -1.
       -4    1    3    3    0  502 -0.53293786074E+02 -0.18226444924E+03 -0.13415866943E+02  0.19037372580E+03  0.12699999809E+01 0.  1.
</event>
<event>
 5   0  0.6658994E-03  0.1175831E+04  0.7818609E-02  0.9134279E-01
       -2   -1    0    0    0  501  0.00000000000E+00  0.00000000000E+00  0.12250516104E+04  0.12250516104E+04  0.25500000920E-02 0.  1.
        2   -1    0    0  501    0  0.00000000000E+00  0.00000000000E+00 -0.28214686134E+03  0.28214686135E+03  0.25500000920E-02 0. -1.
    10030    2    1    2    0    0  0.00000000000E+00  0.00000000000E+00  0.94290474908E+03  0.15071984718E+04  0.11758307138E+04 0.  0.
        4    1    3    3  502    0 -0.56926256777E+03  0.35451128695E+02  0.65420084313E+03  0.86792684579E+03  0.12699999809E+01 0. -1.
       -4    1    3    3    0  502  0.56926256777E+03 -0.35451128695E+02  0.28870390594E+03  0.63927162599E+03  0.12699999809E+01 0.  1.
</event>
<event>
 5   0  0.3944074E-03  0.1183740E+04  0.7818609E-02  0.9127209E-01
       -1   -1    0    0    0  501  0.00000000000E+00  0.00000000000E+00  0.12727604399E+04  0.12727604399E+04  0.50400001928E-02 0.  1.
        1   -1    0    0  501    0  0.00000000000E+00  0.00000000000E+00 -0.27523633152E+03  0.27523633157E+03  0.50400001928E-02 0. -1.
    10030    2    1    2    0    0  0.00000000000E+00  0.00000000000E+00  0.99752410840E+03  0.15479967715E+04  0.11837396917E+04 0.  0.
        4    1    3    3  502    0  0.47104620830E+03  0.24779294133E+02  0.31246734702E+02  0.47273302730E+03  0.12699999809E+01 0. -1.
       -4    1    3    3    0  502 -0.47104620830E+03 -0.24779294133E+02  0.96627737370E+03  0.10752637442E+04  0.12699999809E+01 0.  1.
</event>
<event>
 5   0  0.3772254E-03  0.1171913E+04  0.7818609E-02  0.9137803E-01
        1   -1    0    0  501    0  0.00000000000E+00  0.00000000000E+00  0.48537535980E+03  0.48537535982E+03  0.50400001928E-02 0. -1.
       -1   -1    0    0    0  501  0.00000000000E+00  0.00000000000E+00 -0.70738038002E+03  0.70738038004E+03  0.50400001928E-02 0.  1.
    10030    2    1    2    0    0  0.00000000000E+00  0.00000000000E+00 -0.22200502022E+03  0.11927557399E+04  0.11719129771E+04 0.  0.
        3    1    3    3  502    0 -0.16731278370E+03 -0.51288275299E+03 -0.34376781650E+03  0.63970196792E+03  0.10100000352E+00 0.  1.
       -3    1    3    3    0  502  0.16731278370E+03  0.51288275299E+03  0.12176279628E+03  0.55305377194E+03  0.10100000352E+00 0. -1.
</event>
<event>
 5   0  0.3772254E-03  0.1242879E+04  0.7818609E-02  0.9076131E-01
       -1   -1    0    0    0  501  0.00000000000E+00  0.00000000000E+00  0.81262244092E+03  0.81262244093E+03  0.50400001928E-02 0.  1.
        1   -1    0    0  501    0  0.00000000000E+00  0.00000000000E+00 -0.47523582945E+03  0.47523582948E+03  0.50400001928E-02 0. -1.
    10030    2    1    2    0    0  0.00000000000E+00  0.00000000000E+00  0.33738661146E+03  0.12878582704E+04  0.12428793984E+04 0.  0.
        3    1    3    3  502    0  0.17579029610E+03 -0.23608682020E+03 -0.39842327932E+03  0.49535879379E+03  0.10100000352E+00 0. -1.
       -3    1    3    3    0  502 -0.17579029610E+03  0.23608682020E+03  0.73580989078E+03  0.79249947663E+03  0.10100000352E+00 0.  1.
</event>
<event>
 5   0  0.6658994E-03  0.1114254E+04  0.7818609E-02  0.9191409E-01
        2   -1    0    0  501    0  0.00000000000E+00  0.00000000000E+00  0.30262893665E+03  0.30262893666E+03  0.25500000920E-02 0. -1.
       -2   -1    0    0    0  501  0.00000000000E+00  0.00000000000E+00 -0.10256468132E+04  0.10256468132E+04  0.25500000920E-02 0.  1.
    10030    2    1    2    0    0  0.00000000000E+00  0.00000000000E+00 -0.72301787653E+03  0.13282757498E+04  0.11142538391E+04 0.  0.
        4    1    3    3  502    0 -0.22787852974E+03  0.27131816811E+03  0.15100993221E+03  0.38515942827E+03  0.12699999809E+01 0. -1.
       -4    1    3    3    0  502  0.22787852974E+03 -0.27131816811E+03 -0.87402780874E+03  0.94311632157E+03  0.12699999809E+01 0.  1.
</event>
<event>
 5   0  0.3944074E-03  0.1186389E+04  0.7818609E-02  0.9124855E-01
        1   -1    0    0  501    0  0.00000000000E+00  0.00000000000E+00  0.20309972341E+03  0.20309972347E+03  0.50400001928E-02 0. -1.
       -1   -1    0    0    0  501  0.00000000000E+00  0.00000000000E+00 -0.17325456015E+04  0.17325456015E+04  0.50400001928E-02 0.  1.
    10030    2    1    2    0    0  0.00000000000E+00  0.00000000000E+00 -0.15294458780E+04  0.19356453249E+04  0.11863886927E+04 0.  0.
        4    1    3    3  502    0 -0.91876980903E+02 -0.25136299558E+03 -0.16284450990E+04  0.16502908194E+04  0.12699999809E+01 0.  1.
       -4    1    3    3    0  502  0.91876980903E+02  0.25136299558E+03  0.98999220987E+02  0.28535450552E+03  0.12699999809E+01 0. -1.
</event>
<event>
 5   0  0.6349142E-03  0.1225188E+04  0.7818609E-02  0.9091091E-01
       -2   -1    0    0    0  501  0.00000000000E+00  0.00000000000E+00  0.32535887261E+03  0.32535887262E+03  0.25500000920E-02 0. -1.
        2   -1    0    0  501    0  0.00000000000E+00  0.00000000000E+00 -0.11534070661E+04  0.11534070661E+04  0.25500000920E-02 0.  1.
    10030    2    1    2    0    0  0.00000000000E+00  0.00000000000E+00 -0.82804819348E+03  0.14787659387E+04  0.12251876961E+04 0.  0.
        1    1    3    3  502    0  0.40691030980E+03  0.39392247174E+03 -0.69584679264E+03  0.89719210474E+03  0.50400001928E-02 0.  1.
       -1    1    3    3    0  502 -0.40691030980E+03 -0.39392247174E+03 -0.13220140084E+03  0.58157383398E+03  0.50400001928E-02 0. -1.
</event>
<event>
 5   0  0.3731281E-03  0.1203653E+04  0.7818609E-02  0.9109665E-01
       -1   -1    0    0    0  501  0.00000000000E+00  0.00000000000E+00  0.48708836980E+03  0.48708836982E+03  0.50400001928E-02 0.  1.
        1   -1    0    0  501    0  0.00000000000E+00  0.00000000000E+00 -0.74359207907E+03  0.74359207908E+03  0.50400001928E-02 0. -1.
    10030    2    1    2    0    0  0.00000000000E+00  0.00000000000E+00 -0.25650370927E+03  0.12306804489E+04  0.12036528629E+04 0.  0.
        5    1    3    3  502    0  0.14665809428E+03  0.37458144975E+03  0.32940722855E+03  0.51995295108E+03  0.46999998093E+01 0.  1.
       -5    1    3    3    0  502 -0.14665809428E+03 -0.37458144975E+03 -0.58591093782E+03  0.71072749783E+03  0.46999998093E+01 0. -1.
</event>
<event>
 5   0  0.6493047E-03  0.1187148E+04  0.7818609E-02  0.9124180E-01
        2   -1    0    0  501    0  0.00000000000E+00  0.00000000000E+00  0.43276970654E+03  0.43276970655E+03  0.25500000920E-02 0. -1.
       -2   -1    0    0    0  501  0.00000000000E+00  0.00000000000E+00 -0.81412894027E+03  0.81412894028E+03  0.25500000920E-02 0.  1.
    10030    2    1    2    0    0  0.00000000000E+00  0.00000000000E+00 -0.38135923373E+03  0.12468986468E+04  0.11871484197E+04 0.  0.
        3    1    3    3  502    0 -0.19173755061E+03  0.56038293080E+03 -0.14948823031E+03  0.61085109367E+03  0.10100000352E+00 0. -1.
       -3    1    3    3    0  502  0.19173755061E+03 -0.56038293080E+03 -0.23187100342E+03  0.63604755315E+03  0.10100000352E+00 0.  1.
</event>
<event>
 5   0  0.6349142E-03  0.1209831E+04  0.7818609E-02  0.9104294E-01
        2   -1    0    0  501    0  0.00000000000E+00  0.00000000000E+00  0.12052862226E+04  0.12052862226E+04  0.25500000920E-02 0. -1.
       -2   -1    0    0    0  501  0.00000000000E+00  0.00000000000E+00 -0.30359839855E+03  0.30359839856E+03  0.25500000920E-02 0.  1.
    10030    2    1    2    0    0  0.00000000000E+00  0.00000000000E+00  0.90168782409E+03  0.15088846212E+04  0.12098313387E+04 0.  0.
        1    1    3    3  502    0  0.30100840790E+03 -0.32349378800E+03  0.96608217797E+03  0.10623413139E+04  0.50400001928E-02 0. -1.
       -1    1    3    3    0  502 -0.30100840790E+03  0.32349378800E+03 -0.64394353885E+02  0.44654330735E+03  0.50400001928E-02 0.  1.
</event>
<event>
 5   0  0.3731281E-03  0.1178607E+04  0.7818609E-02  0.9131791E-01
       -1   -1    0    0    0  501  0.00000000000E+00  0.00000000000E+00  0.24089341276E+03  0.24089341281E+03  0.50400001928E-02 0. -1.
        1   -1    0    0  501    0  0.00000000000E+00  0.00000000000E+00 -0.14416270401E+04  0.14416270401E+04  0.50400001928E-02 0.  1.
    10030    2    1    2    0    0  0.00000000000E+00  0.00000000000E+00 -0.12007336273E+04  0.16825204529E+04  0.11786067328E+04 0.  0.
        5    1    3    3  502    0 -0.51712353070E+03  0.26141963188E+02 -0.10020040374E+04  0.11278893249E+04  0.46999998093E+01 0.  1.
       -5    1    3    3    0  502  0.51712353070E+03 -0.26141963188E+02 -0.19872958994E+03  0.55463112802E+03  0.46999998093E+01 0. -1.
</event>
<event>
 5   0  0.3648616E-03  0.1230245E+04  0.7818609E-02  0.9086787E-01
        1   -1    0    0  501    0  0.00000000000E+00  0.00000000000E+00  0.69341643218E+03  0.69341643219E+03  0.50400001928E-02 0. -1.
       -1   -1    0    0    0  501  0.00000000000E+00  0.00000000000E+00 -0.54566910825E+03  0.54566910827E+03  0.50400001928E-02 0.  1.
    10030    2    1    2    0    0  0.00000000000E+00  0.00000000000E+00  0.14774732393E+03  0.12390855405E+04  0.12302453840E+04 0.  0.
        2    1    3    3  502    0 -0.11393414295E+03  0.31268872600E+03  0.59491165733E+03  0.68167082109E+03  0.25500000920E-02 0. -1.
       -2    1    3    3    0  502  0.11393414295E+03 -0.31268872600E+03 -0.44716433340E+03  0.55741471937E+03  0.25500000920E-02 0.  1.
</event>
<event>
 5   0  0.6585930E-03  0.1214458E+04  0.7818609E-02  0.9100295E-01
        2   -1    0    0  501    0  0.00000000000E+00  0.00000000000E+00  0.74367204747E+03  0.74367204748E+03  0.25500000920E-02 0. -1.
       -2   -1    0    0    0  501  0.00000000000E+00  0.00000000000E+00 -0.49581909585E+03  0.49581909585E+03  0.25500000920E-02 0.  1.
    10030    2    1    2    0    0  0.00000000000E+00  0.00000000000E+00  0.24785295163E+03  0.12394911433E+04  0.12144575780E+04 0.  0.
        2    1    3    3  502    0  0.79985893169E+01  0.59369985611E+03  0.25376234706E+03  0.64570800318E+03  0.25500000920E-02 0. -1.
       -2    1    3    3    0  502 -0.79985893169E+01 -0.59369985611E+03 -0.59093954361E+01  0.59378314016E+03  0.25500000920E-02 0.  1.
</event>
<event>
 5   0  0.6585930E-03  0.1179899E+04  0.7818609E-02  0.9130635E-01
        2   -1    0    0  501    0  0.00000000000E+00  0.00000000000E+00  0.15387959619E+04  0.15387959619E+04  0.25500000920E-02 0.  1.
       -2   -1    0    0    0  501  0.00000000000E+00  0.00000000000E+00 -0.22617720980E+03  0.22617720982E+03  0.25500000920E-02 0. -1.
    10030    2    1    2    0    0  0.00000000000E+00  0.00000000000E+00  0.13126187521E+04  0.17649731718E+04  0.11798992790E+04 0.  0.
        2    1    3    3  502    0  0.54400954368E+02  0.55234034659E+03  0.95548760037E+03  0.11049868220E+04  0.25500000920E-02 0.  1.
       -2    1    3    3    0  502 -0.54400954368E+02 -0.55234034659E+03  0.35713115176E+03  0.65998634976E+03  0.25500000920E-02 0. -1.
</event>
<event>
 5   0  0.3701879E-03  0.1127392E+04  0.7818609E-02  0.9178898E-01
       -1   -1    0    0    0  501  0.00000000000E+00  0.00000000000E+00  0.27282720225E+03  0.27282720230E+03  0.50400001928E-02 0.  1.
        1   -1    0    0  501    0  0.00000000000E+00  0.00000000000E+00 -0.11646680235E+04  0.11646680236E+04  0.50400001928E-02 0. -1.
    10030    2    1    2    0    0  0.00000000000E+00  0.00000000000E+00 -0.89184082130E+03  0.14374952259E+04  0.11273918901E+04 0.  0.
        1    1    3    3  502    0 -0.97446582306E+02 -0.25841789953E+03  0.18064990256E+03  0.33001520347E+03  0.50400001928E-02 0.  1.
       -1    1    3    3    0  502  0.97446582306E+02  0.25841789953E+03 -0.10724907239E+04  0.11074800224E+04  0.50400001928E-02 0. -1.
</event>
<event>
 5   0  0.3648616E-03  0.1209534E+04  0.7818609E-02  0.9104552E-01
        1   -1    0    0  501    0  0.00000000000E+00  0.00000000000E+00  0.93416009105E+03  0.93416009107E+03  0.50400001928E-02 0. -1.
       -1   -1    0    0    0  501  0.00000000000E+00  0.00000000000E+00 -0.39152101000E+03  0.39152101004E+03  0.50400001928E-02 0.  1.
    10030    2    1    2    0    0  0.00000000000E+00  0.00000000000E+00  0.54263908105E+03  0.13256811011E+04  0.12095342945E+04 0.  0.
        2    1    3    3  502    0  0.35179444592E+03  0.27745838723E+03 -0.17388944519E+03  0.48060381603E+03  0.25500000920E-02 0.  1.
       -2    1    3    3    0  502 -0.35179444592E+03 -0.27745838723E+03  0.71652852624E+03  0.84507728508E+03  0.25500000920E-02 0. -1.
</event>
<event>
 5   0  0.6349142E-03  0.1202083E+04  0.7818609E-02  0.9111035E-01
        2   -1    0    0  501    0  0.00000000000E+00  0.00000000000E+00  0.24937629558E+04  0.24937629558E+04  0.25500000920E-02 0.  1.
       -2   -1    0    0    0  501  0.00000000000E+00  0.00000000000E+00 -0.14486174103E+03  0.14486174105E+03  0.25500000920E-02 0. -1.
    10030    2    1    2    0    0  0.00000000000E+00  0.00000000000E+00  0.23489012147E+04  0.26386246968E+04  0.12020829314E+04 0.  0.
        1    1    3    3  502    0  0.52919057007E+03 -0.12847655446E+03  0.17327946767E+04  0.18163497119E+04  0.50400001928E-02 0.  1.
       -1    1    3    3    0  502 -0.52919057007E+03  0.12847655446E+03  0.61610653806E+03  0.82227498488E+03  0.50400001928E-02 0. -1.
</event>
<event>
 5   0  0.3944074E-03  0.1196552E+04  0.7818609E-02  0.9115880E-01
       -1   -1    0    0    0  501  0.00000000000E+00  0.00000000000E+00  0.25553007745E+03  0.25553007750E+03  0.50400001928E-02 0.  1.
        1   -1    0    0  501    0  0.00000000000E+00  0.00000000000E+00 -0.14007511723E+04  0.14007511724E+04  0.50400001928E-02 0. -1.
    10030    2    1    2    0    0  0.00000000000E+00  0.00000000000E+00 -0.11452210949E+04  0.16562812499E+04  0.11965518051E+04 0.  0.
        4    1    3    3  502    0 -0.30409906345E+03  0.12839576941E+03  0.11806920444E+03  0.35057618848E+03  0.12699999809E+01 0.  1.
       -4    1    3    3    0  502  0.30409906345E+03 -0.12839576941E+03 -0.12632902993E+04  0.13057050614E+04  0.12699999809E+01 0. -1.
</event>
<event>
 5   0  0.6349142E-03  0.1203207E+04  0.7818609E-02  0.9110054E-01
        2   -1    0    0  501    0  0.00000000000E+00  0.00000000000E+00  0.99166659890E+03  0.99166659891E+03  0.25500000920E-02 0.  1.
       -2   -1    0    0    0  501  0.00000000000E+00  0.00000000000E+00 -0.36496834849E+03  0.36496834850E+03  0.25500000920E-02 0. -1.
    10030    2    1    2    0    0  0.00000000000E+00  0.00000000000E+00  0.62669825041E+03  0.13566349474E+04  0.12032072488E+04 0.  0.
        1    1    3    3  502    0  0.13142787992E+03  0.17803964818E+03 -0.31741047134E+03  0.38693773567E+03  0.50400001928E-02 0. -1.
       -1    1    3    3    0  502 -0.13142787992E+03 -0.17803964818E+03  0.94410872175E+03  0.96969721174E+03  0.50400001928E-02 0.  1.
</event>
<event>
 5   0  0.3701879E-03  0.1183857E+04  0.7818609E-02  0.9127105E-01
       -1   -1    0    0    0  501  0.00000000000E+00  0.00000000000E+00  0.34147023717E+03  0.34147023721E+03  0.50400001928E-02 0. -1.
        1   -1    0    0  501    0  0.00000000000E+00  0.00000000000E+00 -0.10260901284E+04  0.10260901284E+04  0.50400001928E-02 0.  1.
    10030    2    1    2    0    0  0.00000000000E+00  0.00000000000E+00 -0.68461989123E+03  0.13675603656E+04  0.11838568149E+04 0.  0.
        1    1    3    3  502    0 -0.36539961335E+02  0.19126805157E+03 -0.98803101979E+03  0.10070372051E+04  0.50400001928E-02 0.  1.
       -1    1    3    3    0  502  0.36539961335E+02 -0.19126805157E+03  0.30341112856E+03  0.36052316054E+03  0.50400001928E-02 0. -1.
</event>
<event>
 5   0  0.6658994E-03  0.1224104E+04  0.7818609E-02  0.9092016E-01
        2   -1    0    0  501    0  0.00000000000E+00  0.00000000000E+00  0.13799615923E+04  0.13799615923E+04  0.25500000920E-02 0. -1.
       -2   -1    0    0    0  501  0.00000000000E+00  0.00000000000E+00 -0.27146234625E+03  0.27146234626E+03  0.25500000920E-02 0.  1.
    10030    2    1    2    0    0  0.00000000000E+00  0.00000000000E+00  0.11084992461E+04  0.16514239386E+04  0.12241039361E+04 0.  0.
        4    1    3    3  502    0 -0.41715685750E+03  0.43535067098E+03  0.69610254278E+03  0.92092910338E+03  0.12699999809E+01 0. -1.
       -4    1    3    3    0  502  0.41715685750E+03 -0.43535067098E+03  0.41239670331E+03  0.73049483522E+03  0.12699999809E+01 0.  1.
</event>
<event>
 5   0  0.3731281E-03  0.1179216E+04  0.7818609E-02  0.9131246E-01
        1   -1    0    0  501    0  0.00000000000E+00  0.00000000000E+00  0.10074357501E+04  0.10074357501E+04  0.50400001928E-02 0. -1.
       -1   -1    0    0    0  501  0.00000000000E+00  0.00000000000E+00 -0.34507175245E+03  0.34507175248E+03  0.50400001928E-02 0.  1.
    10030    2    1    2    0    0  0.00000000000E+00  0.00000000000E+00  0.66236399768E+03  0.13525075026E+04  0.11792160443E+04 0.  0.
        5    1    3    3  502    0  0.52141115257E+03 -0.24489442898E+03  0.18713681153E+03  0.60571044865E+03  0.46999998093E+01 0.  1.
       -5    1    3    3    0  502 -0.52141115257E+03  0.24489442898E+03  0.47522718615E+03  0.74679705398E+03  0.46999998093E+01 0. -1.
</event>
<event>
 5   0  0.6493047E-03  0.1195828E+04  0.7818609E-02  0.9116516E-01
       -2   -1    0    0    0  501  0.00000000000E+00  0.00000000000E+00  0.72324348798E+03  0.72324348799E+03  0.25500000920E-02 0.  1.
        2   -1    0    0  501    0  0.00000000000E+00  0.00000000000E+00 -0.49430261696E+03  0.49430261696E+03  0.25500000920E-02 0. -1.
    10030    2    1    2    0    0  0.00000000000E+00  0.00000000000E+00  0.22894087103E+03  0.12175461050E+04  0.11958279957E+04 0.  0.
        3    1    3    3  502    0  0.47040719275E+03  0.97686916846E+02  0.47684939600E+03  0.67691285804E+03  0.10100000352E+00 0.  1.
       -3    1    3    3    0  502 -0.47040719275E+03 -0.97686916846E+02 -0.24790852497E+03  0.54063324691E+03  0.10100000352E+00 0. -1.
</event>
<event>
 5   0  0.6585930E-03  0.7357347E+03  0.7818609E-02  0.9658000E-01
       -2   -1    0    0    0  501  0.00000000000E+00  0.00000000000E+00  0.17600095758E+03  0.17600095760E+03  0.25500000920E-02 0. -1.
        2   -1    0    0  501    0  0.00000000000E+00  0.00000000000E+00 -0.76889583603E+03  0.76889583604E+03  0.25500000920E-02 0.  1.
    10030    2    1    2    0    0  0.00000000000E+00  0.00000000000E+00 -0.59289487845E+03  0.94489679364E+03  0.73573474414E+03 0.  0.
        2    1    3    3  502    0 -0.23400132152E+03  0.79029137510E+02  0.53681633872E+02  0.25275272674E+03  0.25500000920E-02 0. -1.
       -2    1    3    3    0  502  0.23400132152E+03 -0.79029137510E+02 -0.64657651233E+03  0.69214406690E+03  0.25500000920E-02 0.  1.
</event>
<event>
 5   0  0.6349142E-03  0.1201107E+04  0.7818609E-02  0.9111888E-01
       -2   -1    0    0    0  501  0.00000000000E+00  0.00000000000E+00  0.20779874866E+04  0.20779874866E+04  0.25500000920E-02 0.  1.
        2   -1    0    0  501    0  0.00000000000E+00  0.00000000000E+00 -0.17356429824E+03  0.17356429826E+03  0.25500000920E-02 0. -1.
    10030    2    1    2    0    0  0.00000000000E+00  0.00000000000E+00  0.19044231883E+04  0.22515517848E+04  0.12011068893E+04 0.  0.
        1    1    3    3  502    0  0.19706875261E+03  0.51842570493E+01 -0.11118262213E+03  0.22632840137E+03  0.50400001928E-02 0. -1.
       -1    1    3    3    0  502 -0.19706875261E+03 -0.51842570493E+01  0.20156058104E+04  0.20252233835E+04  0.50400001928E-02 0.  1.
</event>
<event>
 5   0  0.3648616E-03  0.1269624E+04  0.7818609E-02  0.9054007E-01
        1   -1    0    0  501    0  0.00000000000E+00  0.00000000000E+00  0.21603450832E+04  0.21603450832E+04  0.50400001928E-02 0.  1.
       -1   -1    0    0    0  501  0.00000000000E+00  0.00000000000E+00 -0.18653784451E+03  0.18653784458E+03  0.50400001928E-02 0. -1.
    10030    2    1    2    0    0  0.00000000000E+00  0.00000000000E+00  0.19738072387E+04  0.23468829278E+04  0.12696237479E+04 0.  0.
        2    1    3    3  502    0  0.56306042770E+03 -0.27632719133E+03  0.11679454672E+04  0.13257037287E+04  0.25500000920E-02 0.  1.
       -2    1    3    3    0  502 -0.56306042770E+03  0.27632719133E+03  0.80586177146E+03  0.10211791991E+04  0.25500000920E-02 0. -1.
</event>
<event>
 5   0  0.6585930E-03  0.1227611E+04  0.7818609E-02  0.9089026E-01
        2   -1    0    0  501    0  0.00000000000E+00  0.00000000000E+00  0.40325567101E+03  0.40325567102E+03  0.25500000920E-02 0. -1.
       -2   -1    0    0    0  501  0.00000000000E+00  0.00000000000E+00 -0.93428862528E+03  0.93428862529E+03  0.25500000920E-02 0.  1.
    10030    2    1    2    0    0  0.00000000000E+00  0.00000000000E+00 -0.53103295427E+03  0.13375442963E+04  0.12276109913E+04 0.  0.
        2    1    3    3  502    0 -0.37108877871E+03  0.10097179818E+03 -0.78674432264E+03  0.87571046295E+03  0.25500000920E-02 0.  1.
       -2    1    3    3    0  502  0.37108877871E+03 -0.10097179818E+03  0.25571136836E+03  0.46183383335E+03  0.25500000920E-02 0. -1.
</event>
<event>
 5   0  0.3772254E-03  0.1201317E+04  0.7818609E-02  0.9111704E-01
        1   -1    0    0  501    0  0.00000000000E+00  0.00000000000E+00  0.13522009063E+04  0.13522009063E+04  0.50400001928E-02 0.  1.
       -1   -1    0    0    0  501  0.00000000000E+00  0.00000000000E+00 -0.26681749310E+03  0.26681749315E+03  0.50400001928E-02 0. -1.
    10030    2    1    2    0    0  0.00000000000E+00  0.00000000000E+00  0.10853834132E+04  0.16190183995E+04  0.12013173703E+04 0.  0.
        3    1    3    3  502    0 -0.33667455875E+03 -0.39274072695E+03  0.13126524726E+03  0.53369055871E+03  0.10100000352E+00 0. -1.
       -3    1    3    3    0  502  0.33667455875E+03  0.39274072695E+03  0.95411816595E+03  0.10853278407E+04  0.10100000352E+00 0.  1.
</event>
<event>
 5   0  0.3944074E-03  0.7648868E+03  0.7818609E-02  0.9612280E-01
        1   -1    0    0  501    0  0.00000000000E+00  0.00000000000E+00  0.31761720222E+03  0.31761720226E+03  0.50400001928E-02 0.  1.
       -1   -1    0    0    0  501  0.00000000000E+00  0.00000000000E+00 -0.46050076227E+03  0.46050076230E+03  0.50400001928E-02 0. -1.
    10030    2    1    2    0    0  0.00000000000E+00  0.00000000000E+00 -0.14288356005E+03  0.77811796456E+03  0.76488682499E+03 0.  0.
        4    1    3    3  502    0  0.12039096603E+03  0.33051942766E+03  0.81235236069E+02  0.36102334168E+03  0.12699999809E+01 0.  1.
       -4    1    3    3    0  502 -0.12039096603E+03 -0.33051942766E+03 -0.22411879611E+03  0.41709462288E+03  0.12699999809E+01 0. -1.
</event>
<event>
 5   0  0.3648616E-03  0.1218211E+04  0.7818609E-02  0.9097064E-01
        1   -1    0    0  501    0  0.00000000000E+00  0.00000000000E+00  0.21831150649E+03  0.21831150655E+03  0.50400001928E-02 0. -1.
       -1   -1    0    0    0  501  0.00000000000E+00  0.00000000000E+00 -0.16994491400E+04  0.16994491400E+04  0.50400001928E-02 0.  1.
    10030    2    1    2    0    0  0.00000000000E+00  0.00000000000E+00 -0.14811376335E+04  0.19177606465E+04  0.12182106583E+04 0.  0.
        2    1    3    3  502    0 -0.27697501799E+03  0.41576429462E+03 -0.19198561790E+03  0.53519490539E+03  0.25500000920E-02 0. -1.
       -2    1    3    3    0  502  0.27697501799E+03 -0.41576429462E+03 -0.12891520156E+04  0.13825657411E+04  0.25500000920E-02 0.  1.
</event>
<event>
 5   0  0.3731281E-03  0.1206650E+04  0.7818609E-02  0.9107055E-01
        1   -1    0    0  501    0  0.00000000000E+00  0.00000000000E+00  0.14386722512E+04  0.14386722513E+04  0.50400001928E-02 0.  1.
       -1   -1    0    0    0  501  0.00000000000E+00  0.00000000000E+00 -0.25301190540E+03  0.25301190545E+03  0.50400001928E-02 0. -1.
    10030    2    1    2    0    0  0.00000000000E+00  0.00000000000E+00  0.11856603458E+04  0.16916841567E+04  0.12066502519E+04 0.  0.
        5    1    3    3  502    0 -0.95852124873E+00  0.26813013440E+03 -0.16486073772E+03  0.31479491828E+03  0.46999998093E+01 0. -1.
       -5    1    3    3    0  502  0.95852124873E+00 -0.26813013440E+03  0.13505210836E+04  0.13768892384E+04  0.46999998093E+01 0.  1.
</event>
<event>
 5   0  0.6349142E-03  0.1494587E+04  0.7818609E-02  0.8888060E-01
       -2   -1    0    0    0  501  0.00000000000E+00  0.00000000000E+00  0.58617795611E+03  0.58617795612E+03  0.25500000920E-02 0. -1.
        2   -1    0    0  501    0  0.00000000000E+00  0.00000000000E+00 -0.95269297699E+03  0.95269297699E+03  0.25500000920E-02 0.  1.
    10030    2    1    2    0    0  0.00000000000E+00  0.00000000000E+00 -0.36651502088E+03  0.15388709331E+04  0.14945870628E+04 0.  0.
        1    1    3    3  502    0 -0.18709304885E+02 -0.52943023239E+03 -0.72594279667E+03  0.89868757259E+03  0.50400001928E-02 0.  1.
       -1    1    3    3    0  502  0.18709304885E+02  0.52943023239E+03  0.35942777580E+03  0.64018336053E+03  0.50400001928E-02 0. -1.
</event>
<event>
 5   0  0.6658994E-03  0.1197549E+04  0.7818609E-02  0.9115005E-01
        2   -1    0    0  501    0  0.00000000000E+00  0.00000000000E+00  0.10487069009E+04  0.10487069009E+04  0.25500000920E-02 0.  1.
       -2   -1    0    0    0  501  0.00000000000E+00  0.00000000000E+00 -0.34187896806E+03  0.34187896807E+03  0.25500000920E-02 0. -1.
    10030    2    1    2    0    0  0.00000000000E+00  0.00000000000E+00  0.70682793287E+03  0.13905858690E+04  0.11975488852E+04 0.  0.
        4    1    3    3  502    0 -0.82337052789E+02  0.38248921623E+03  0.87974571467E+03  0.96282476401E+03  0.12699999809E+01 0.  1.
       -4    1    3    3    0  502  0.82337052789E+02 -0.38248921623E+03 -0.17291778180E+03  0.42776110501E+03  0.12699999809E+01 0. -1.
</event>
<event>
 5   0  0.6493047E-03  0.1235534E+04  0.7818609E-02  0.9082310E-01
       -2   -1    0    0    0  501  0.00000000000E+00  0.00000000000E+00  0.25677467059E+03  0.25677467060E+03  0.25500000920E-02 0.  1.
        2   -1    0    0  501    0  0.00000000000E+00  0.00000000000E+00 -0.14862684916E+04  0.14862684917E+04  0.25500000920E-02 0. -1.
    10030    2    1    2    0    0  0.00000000000E+00  0.00000000000E+00 -0.12294938211E+04  0.17430431623E+04  0.12355340584E+04 0.  0.
        3    1    3    3  502    0  0.14969414917E+03  0.39346778125E+03  0.23083764131E+02  0.42161368994E+03  0.10100000352E+00 0.  1.
       -3    1    3    3    0  502 -0.14969414917E+03 -0.39346778125E+03 -0.12525775852E+04  0.13214294723E+04  0.10100000352E+00 0. -1.
</event>
<event>
 5   0  0.3648616E-03  0.1158438E+04  0.7818609E-02  0.9150034E-01
       -1   -1    0    0    0  501  0.00000000000E+00  0.00000000000E+00  0.20621723464E+03  0.20621723470E+03  0.50400001928E-02 0.  1.
        1   -1    0    0  501    0  0.00000000000E+00  0.00000000000E+00 -0.16268992689E+04  0.16268992690E+04  0.50400001928E-02 0. -1.
    10030    2    1    2    0    0  0.00000000000E+00  0.00000000000E+00 -0.14206820343E+04  0.18331165036E+04  0.11584380317E+04 0.  0.
        2    1    3    3  502    0  0.37596544174E+03  0.13478136375E+03 -0.46525748474E+02  0.40209535520E+03  0.25500000920E-02 0.  1.
       -2    1    3    3    0  502 -0.37596544174E+03 -0.13478136375E+03 -0.13741562858E+04  0.14310211484E+04  0.25500000920E-02 0. -1.
</event>
<event>
 5   0  0.2537625E-03  0.1106696E+04  0.7818609E-02  0.9198690E-01
       -4   -1    0    0    0  501  0.00000000000E+00  0.00000000000E+00  0.71325059692E+03  0.71325172758E+03  0.12699999809E+01 0. -1.
        4   -1    0    0  501    0  0.00000000000E+00  0.00000000000E+00 -0.42929144030E+03  0.42929331886E+03  0.12699999809E+01 0.  1.
    10030    2    1    2    0    0  0.00000000000E+00  0.00000000000E+00  0.28395915661E+03  0.11425450464E+04  0.11066961555E+04 0.  0.
        4    1    3    3  502    0 -0.14662996387E+03 -0.51778288960E+03  0.27496608729E+03  0.60432394386E+03  0.12699999809E+01 0. -1.
       -4    1    3    3    0  502  0.14662996387E+03  0.51778288960E+03  0.89930693259E+01  0.53822110258E+03  0.12699999809E+01 0.  1.
</event>
<event>
 5   0  0.3731281E-03  0.9773863E+03  0.7818609E-02  0.9333701E-01
       -1   -1    0    0    0  501  0.00000000000E+00  0.00000000000E+00  0.39620001274E+03  0.39620001278E+03  0.50400001928E-02 0.  1.
        1   -1    0    0  501    0  0.00000000000E+00  0.00000000000E+00 -0.60277883006E+03  0.60277883008E+03  0.50400001928E-02 0. -1.
    10030    2    1    2    0    0  0.00000000000E+00  0.00000000000E+00 -0.20657881732E+03  0.99897884286E+03  0.97738626996E+03 0.  0.
        5    1    3    3  502    0 -0.11763534828E+02  0.18508090183E+03  0.35881107044E+03  0.40393167150E+03  0.46999998093E+01 0.  1.
       -5    1    3    3    0  502  0.11763534828E+02 -0.18508090183E+03 -0.56538988775E+03  0.59504717136E+03  0.46999998093E+01 0. -1.
</event>
<event>
 5   0  0.3731281E-03  0.1197530E+04  0.7818609E-02  0.9115021E-01
        1   -1    0    0  501    0  0.00000000000E+00  0.00000000000E+00  0.11344642213E+04  0.11344642213E+04  0.50400001928E-02 0. -1.
       -1   -1    0    0    0  501  0.00000000000E+00  0.00000000000E+00 -0.31602531429E+03  0.31602531433E+03  0.50400001928E-02 0.  1.
    10030    2    1    2    0    0  0.00000000000E+00  0.00000000000E+00  0.81843890702E+03  0.14504895356E+04  0.11975298111E+04 0.  0.
        5    1    3    3  502    0  0.10309001468E+03  0.88001939810E+02  0.11156147814E+04  0.11238284224E+04  0.46999998093E+01 0. -1.
       -5    1    3    3    0  502 -0.10309001468E+03 -0.88001939810E+02 -0.29717587442E+03  0.32666111320E+03  0.46999998093E+01 0.  1.
</event>
<event>
 5   0  0.3944074E-03  0.1193112E+04  0.7818609E-02  0.9118907E-01
       -1   -1    0    0    0  501  0.00000000000E+00  0.00000000000E+00  0.36148793015E+03  0.36148793019E+03  0.50400001928E-02 0. -1.
        1   -1    0    0  501    0  0.00000000000E+00  0.00000000000E+00 -0.98448322408E+03  0.98448322409E+03  0.50400001928E-02 0.  1.
    10030    2    1    2    0    0  0.00000000000E+00  0.00000000000E+00 -0.62299529393E+03  0.13459711543E+04  0.11931115672E+04 0.  0.
        4    1    3    3  502    0  0.11158870822E+03  0.30662763051E+03  0.25188954103E+03  0.41221656611E+03  0.12699999809E+01 0. -1.
       -4    1    3    3    0  502 -0.11158870822E+03 -0.30662763051E+03 -0.87488483495E+03  0.93375458817E+03  0.12699999809E+01 0.  1.
</event>
<event>
 5   0  0.3701879E-03  0.9068065E+03  0.7818609E-02  0.9417113E-01
       -1   -1    0    0    0  501  0.00000000000E+00  0.00000000000E+00  0.62212785261E+03  0.62212785263E+03  0.50400001928E-02 0.  1.
        1   -1    0    0  501    0  0.00000000000E+00  0.00000000000E+00 -0.33043770047E+03  0.33043770051E+03  0.50400001928E-02 0. -1.
    10030    2    1    2    0    0  0.00000000000E+00  0.00000000000E+00  0.29169015214E+03  0.95256555314E+03  0.90680647779E+03 0.  0.
        1    1    3    3  502    0  0.22046367808E+03  0.38815874718E+03  0.22924308017E+03  0.50182052190E+03  0.50400001928E-02 0.  1.
       -1    1    3    3    0  502 -0.22046367808E+03 -0.38815874718E+03  0.62447071971E+02  0.45074503124E+03  0.50400001928E-02 0. -1.
</event>
<event>
 5   0  0.6658994E-03  0.1226840E+04  0.7818609E-02  0.9089682E-01
        2   -1    0    0  501    0  0.00000000000E+00  0.00000000000E+00  0.11399380769E+04  0.11399380769E+04  0.25500000920E-02 0. -1.
       -2   -1    0    0    0  501  0.00000000000E+00  0.00000000000E+00 -0.33009196773E+03  0.33009196774E+03  0.25500000920E-02 0.  1.
    10030    2    1    2    0    0  0.00000000000E+00  0.00000000000E+00  0.80984610912E+03  0.14700300446E+04  0.12268404996E+04 0.  0.
        4    1    3    3  502    0  0.15088563655E+03  0.50839076228E+03  0.77434775247E+03  0.93853273632E+03  0.12699999809E+01 0. -1.
       -4    1    3    3    0  502 -0.15088563655E+03 -0.50839076228E+03  0.35498356646E+02  0.53149730828E+03  0.12699999809E+01 0.  1.
</event>
<event>
 5   0  0.6640844E-03  0.1245105E+04  0.7818609E-02  0.9074267E-01
        2   -1    0    0  501    0  0.00000000000E+00  0.00000000000E+00  0.16268489372E+04  0.16268489372E+04  0.25500000920E-02 0.  1.
       -2   -1    0    0    0  501  0.00000000000E+00  0.00000000000E+00 -0.23823465833E+03  0.23823465834E+03  0.25500000920E-02 0. -1.
    10030    2    1    2    0    0  0.00000000000E+00  0.00000000000E+00  0.13886142788E+04  0.18650835955E+04  0.12451052979E+04 0.  0.
        5    1    3    3  502    0  0.56252865816E+03  0.23636902333E+03  0.50938130421E+03  0.79485860976E+03  0.46999998093E+01 0. -1.
       -5    1    3    3    0  502 -0.56252865816E+03 -0.23636902333E+03  0.87923297462E+03  0.10702249857E+04  0.46999998093E+01 0.  1.
</event>
<event>
 5   0  0.3731281E-03  0.1257941E+04  0.7818609E-02  0.9063600E-01
       -1   -1    0    0    0  501  0.00000000000E+00  0.00000000000E+00  0.88949473457E+03  0.88949473459E+03  0.50400001928E-02 0.  1.
        1   -1    0    0  501    0  0.00000000000E+00  0.00000000000E+00 -0.44475147283E+03  0.44475147286E+03  0.50400001928E-02 0. -1.
    10030    2    1    2    0    0  0.00000000000E+00  0.00000000000E+00  0.44474326174E+03  0.13342462074E+04  0.12579413234E+04 0.  0.
        5    1    3    3  502    0  0.53190543702E+03 -0.31932898675E+03  0.33202345050E+03  0.70367326039E+03  0.46999998093E+01 0. -1.
       -5    1    3    3    0  502 -0.53190543702E+03  0.31932898675E+03  0.11271981124E+03  0.63057294705E+03  0.46999998093E+01 0.  1.
</event>
<event>
 5   0  0.6349142E-03  0.1208212E+04  0.7818609E-02  0.9105699E-01
       -2   -1    0    0    0  501  0.00000000000E+00  0.00000000000E+00  0.31141853794E+03  0.31141853795E+03  0.25500000920E-02 0. -1.
        2   -1    0    0  501    0  0.00000000000E+00  0.00000000000E+00 -0.11718766635E+04  0.11718766635E+04  0.25500000920E-02 0.  1.
    10030    2    1    2    0    0  0.00000000000E+00  0.00000000000E+00 -0.86045812551E+03  0.14832952014E+04  0.12082120959E+04 0.  0.
        1    1    3    3  502    0  0.14160918246E+03 -0.28980209698E+03 -0.10573137516E+04  0.11054188281E+04  0.50400001928E-02 0.  1.
       -1    1    3    3    0  502 -0.14160918246E+03  0.28980209698E+03  0.19685562613E+03  0.37787637335E+03  0.50400001928E-02 0. -1.
</event>
<event>
 5   0  0.6585930E-03  0.1174918E+04  0.7818609E-02  0.9135099E-01
        2   -1    0    0  501    0  0.00000000000E+00  0.00000000000E+00  0.14741910416E+04  0.14741910416E+04  0.25500000920E-02 0. -1.
       -2   -1    0    0    0  501  0.00000000000E+00  0.00000000000E+00 -0.23409983229E+03  0.23409983231E+03  0.25500000920E-02 0.  1.
    10030    2    1    2    0    0  0.00000000000E+00  0.00000000000E+00  0.12400912093E+04  0.17082908739E+04  0.11749176577E+04 0.  0.
        2    1    3    3  502    0  0.41016753022E+03 -0.24930444535E+03  0.11125042102E+04  0.12116334954E+04  0.25500000920E-02 0. -1.
       -2    1    3    3    0  502 -0.41016753022E+03  0.24930444535E+03  0.12758699908E+03  0.49665737854E+03  0.25500000920E-02 0.  1.
</event>
<event>
 5   0  0.6585930E-03  0.1165604E+04  0.7818609E-02  0.9143508E-01
       -2   -1    0    0    0  501  0.00000000000E+00  0.00000000000E+00  0.36576606932E+03  0.36576606933E+03  0.25500000920E-02 0.  1.
        2   -1    0    0  501    0  0.00000000000E+00  0.00000000000E+00 -0.92862154600E+03  0.92862154600E+03  0.25500000920E-02 0. -1.
    10030    2    1    2    0    0  0.00000000000E+00  0.00000000000E+00 -0.56285547667E+03  0.12943876153E+04  0.11656041400E+04 0.  0.
        2    1    3    3  502    0  0.17815992749E+03  0.32512848375E+03  0.21793168856E+03  0.43005082443E+03  0.25500000920E-02 0.  1.
       -2    1    3    3    0  502 -0.17815992749E+03 -0.32512848375E+03 -0.78078716524E+03  0.86433679090E+03  0.25500000920E-02 0. -1.
</event>
<event>
 5   0  0.3944074E-03  0.1213605E+04  0.7818609E-02  0.9101031E-01
        1   -1    0    0  501    0  0.00000000000E+00  0.00000000000E+00  0.20309352048E+04  0.20309352048E+04  0.50400001928E-02 0.  1.
       -1   -1    0    0    0  501  0.00000000000E+00  0.00000000000E+00 -0.18130032566E+03  0.18130032573E+03  0.50400001928E-02 0. -1.
    10030    2    1    2    0    0  0.00000000000E+00  0.00000000000E+00  0.18496348792E+04  0.22122355306E+04  0.12136049013E+04 0.  0.
        4    1    3    3  502    0 -0.13115736036E+03  0.59203574758E+03  0.96553799825E+03  0.11401639437E+04  0.12699999809E+01 0.  1.
       -4    1    3    3    0  502  0.13115736036E+03 -0.59203574758E+03  0.88409688092E+03  0.10720715868E+04  0.12699999809E+01 0. -1.
</event>
<event>
 5   0  0.3701879E-03  0.1177313E+04  0.7818609E-02  0.9132949E-01
       -1   -1    0    0    0  501  0.00000000000E+00  0.00000000000E+00  0.44250856099E+03  0.44250856102E+03  0.50400001928E-02 0.  1.
        1   -1    0    0  501    0  0.00000000000E+00  0.00000000000E+00 -0.78307333794E+03  0.78307333795E+03  0.50400001928E-02 0. -1.
    10030    2    1    2    0    0  0.00000000000E+00  0.00000000000E+00 -0.34056477695E+03  0.12255818990E+04  0.11773133074E+04 0.  0.
        1    1    3    3  502    0  0.19975609672E+03  0.21554843887E+03  0.36068118548E+03  0.46524675739E+03  0.50400001928E-02 0.  1.
       -1    1    3    3    0  502 -0.19975609672E+03 -0.21554843887E+03 -0.70124596243E+03  0.76033514158E+03  0.50400001928E-02 0. -1.
</event>
<event>
 5   0  0.6640844E-03  0.1153433E+04  0.7818609E-02  0.9154622E-01
       -2   -1    0    0    0  501  0.00000000000E+00  0.00000000000E+00  0.49614571399E+03  0.49614571400E+03  0.25500000920E-02 0. -1.
        2   -1    0    0  501    0  0.00000000000E+00  0.00000000000E+00 -0.67037139282E+03  0.67037139283E+03  0.25500000920E-02 0.  1.
    10030    2    1    2    0    0  0.00000000000E+00  0.00000000000E+00 -0.17422567884E+03  0.11665171068E+04  0.11534329514E+04 0.  0.
        5    1    3    3  502    0 -0.42730673792E+03  0.66816043990E+02  0.29869106966E+03  0.52563663980E+03  0.46999998093E+01 0. -1.
       -5    1    3    3    0  502  0.42730673792E+03 -0.66816043990E+02 -0.47291674850E+03  0.64088046702E+03  0.46999998093E+01 0.  1.
</event>
<event>
 5   0  0.3731281E-03  0.1243745E+04  0.7818609E-02  0.9075405E-01
       -1   -1    0    0    0  501  0.00000000000E+00  0.00000000000E+00  0.91351417600E+03  0.91351417601E+03  0.50400001928E-02 0.  1.
        1   -1    0    0  501    0  0.00000000000E+00  0.00000000000E+00 -0.42333834051E+03  0.42333834054E+03  0.50400001928E-02 0. -1.
    10030    2    1    2    0    0  0.00000000000E+00  0.00000000000E+00  0.49017583549E+03  0.13368525166E+04  0.12437452719E+04 0.  0.
        5    1    3    3  502    0 -0.15816556739E+03 -0.99649975981E+02 -0.39240217887E+03  0.43468152065E+03  0.46999998093E+01 0. -1.
       -5    1    3    3    0  502  0.15816556739E+03  0.99649975981E+02  0.88257801436E+03  0.90217099590E+03  0.46999998093E+01 0.  1.
</event>
<event>
 5   0  0.6585930E-03  0.8584233E+03  0.7818609E-02  0.9479101E-01
       -2   -1    0    0    0  501  0.00000000000E+00  0.00000000000E+00  0.13586621679E+03  0.13586621681E+03  0.25500000920E-02 0.  1.
        2   -1    0    0  501    0  0.00000000000E+00  0.00000000000E+00 -0.13559119136E+04  0.13559119136E+04  0.25500000920E-02 0. -1.
    10030    2    1    2    0    0  0.00000000000E+00  0.00000000000E+00 -0.12200456968E+04  0.14917781304E+04  0.85842325696E+03 0.  0.
        2    1    3    3  502    0  0.76381387500E+02 -0.95791854470E+01  0.12377167812E+03  0.14575769434E+03  0.25500000920E-02 0.  1.
       -2    1    3    3    0  502 -0.76381387500E+02  0.95791854470E+01 -0.13438173750E+04  0.13460204361E+04  0.25500000920E-02 0. -1.
</event>
<event>
 5   0  0.6658994E-03  0.1190699E+04  0.7818609E-02  0.9121037E-01
       -2   -1    0    0    0  501  0.00000000000E+00  0.00000000000E+00  0.18050208652E+03  0.18050208654E+03  0.25500000920E-02 0.  1.
        2   -1    0    0  501    0  0.00000000000E+00  0.00000000000E+00 -0.19636381706E+04  0.19636381706E+04  0.25500000920E-02 0. -1.
    10030    2    1    2    0    0  0.00000000000E+00  0.00000000000E+00 -0.17831360841E+04  0.21441402572E+04  0.11906985966E+04 0.  0.
        4    1    3    3  502    0  0.33505668531E+03 -0.45983897895E+03 -0.57592778810E+03  0.80957352906E+03  0.12699999809E+01 0.  1.
       -4    1    3    3    0  502 -0.33505668531E+03  0.45983897895E+03 -0.12072082960E+04  0.13345667281E+04  0.12699999809E+01 0. -1.
</event>
<event>
 5   0  0.3944074E-03  0.1224392E+04  0.7818609E-02  0.9091770E-01
       -1   -1    0    0    0  501  0.00000000000E+00  0.00000000000E+00  0.37064176302E+03  0.37064176306E+03  0.50400001928E-02 0.  1.
        1   -1    0    0  501    0  0.00000000000E+00  0.00000000000E+00 -0.10111754026E+04  0.10111754026E+04  0.50400001928E-02 0. -1.
    10030    2    1    2    0    0  0.00000000000E+00  0.00000000000E+00 -0.64053363958E+03  0.13818171657E+04  0.12243918229E+04 0.  0.
        4    1    3    3  502    0  0.39559388849E+03  0.25753062006E+03 -0.76021640884E+03  0.89484476087E+03  0.12699999809E+01 0. -1.
       -4    1    3    3    0  502 -0.39559388849E+03 -0.25753062006E+03  0.11968276926E+03  0.48697240480E+03  0.12699999809E+01 0.  1.
</event>
<event>
 5   0  0.6640844E-03  0.1203480E+04  0.7818609E-02  0.9109816E-01
        2   -1    0    0  501    0  0.00000000000E+00  0.00000000000E+00  0.89289791249E+03  0.89289791250E+03  0.25500000920E-02 0.  1.
       -2   -1    0    0    0  501  0.00000000000E+00  0.00000000000E+00 -0.40552361718E+03  0.40552361719E+03  0.25500000920E-02 0. -1.
    10030    2    1    2    0    0  0.00000000000E+00  0.00000000000E+00  0.48737429531E+03  0.12984215297E+04  0.12034802720E+04 0.  0.
        5    1    3    3  502    0  0.39460914595E+03 -0.92560233391E+02 -0.23612779267E+03  0.46910787601E+03  0.46999998093E+01 0. -1.
       -5    1    3    3    0  502 -0.39460914595E+03  0.92560233391E+02  0.72350208798E+03  0.82931365368E+03  0.46999998093E+01 0.  1.
</event>
<event>
 5   0  0.6493047E-03  0.1190112E+04  0.7818609E-02  0.9121556E-01
        2   -1    0    0  501    0  0.00000000000E+00  0.00000000000E+00  0.25251111813E+04  0.25251111813E+04  0.25500000920E-02 0. -1.
       -2   -1    0    0    0  501  0.00000000000E+00  0.00000000000E+00 -0.14022818072E+03  0.14022818074E+03  0.25500000920E-02 0.  1.
    10030    2    1    2    0    0  0.00000000000E+00  0.00000000000E+00  0.23848830005E+04  0.26653393620E+04  0.11901121747E+04 0.  0.
        3    1    3    3  502    0 -0.13045599796E+03 -0.56499769537E+03  0.89322144119E+03  0.10649346066E+04  0.10100000352E+00 0. -1.
       -3    1    3    3    0  502  0.13045599796E+03  0.56499769537E+03  0.14916615594E+04  0.16004047554E+04  0.10100000352E+00 0.  1.
</event>
<event>
 5   0  0.6658994E-03  0.1232717E+04  0.7818609E-02  0.9084691E-01
       -2   -1    0    0    0  501  0.00000000000E+00  0.00000000000E+00  0.95046563562E+03  0.95046563562E+03  0.25500000920E-02 0.  1.
        2   -1    0    0  501    0  0.00000000000E+00  0.00000000000E+00 -0.39969674472E+03  0.39969674473E+03  0.25500000920E-02 0. -1.
    10030    2    1    2    0    0  0.00000000000E+00  0.00000000000E+00  0.55076889089E+03  0.13501623804E+04  0.12327173570E+04 0.  0.
        4    1    3    3  502    0 -0.44545100248E+03  0.41870141000E+03  0.36134031224E+03  0.71014498555E+03  0.12699999809E+01 0.  1.
       -4    1    3    3    0  502  0.44545100248E+03 -0.41870141000E+03  0.18942857866E+03  0.64001739481E+03  0.12699999809E+01 0. -1.
</event>
<event>
 5   0  0.3648616E-03  0.1191228E+04  0.7818609E-02  0.9120570E-01
        1   -1    0    0  501    0  0.00000000000E+00  0.00000000000E+00  0.10229048630E+04  0.10229048630E+04  0.50400001928E-02 0.  1.
       -1   -1    0    0    0  501  0.00000000000E+00  0.00000000000E+00 -0.34681221187E+03  0.34681221190E+03  0.50400001928E-02 0. -1.
    10030    2    1    2    0    0  0.00000000000E+00  0.00000000000E+00  0.67609265115E+03  0.13697170749E+04  0.11912277668E+04 0.  0.
        2    1    3    3  502    0  0.30628005373E+03 -0.49498529056E+03  0.48320828505E+03  0.75651051277E+03  0.25500000920E-02 0. -1.
       -2    1    3    3    0  502 -0.30628005373E+03  0.49498529056E+03  0.19288436609E+03  0.61320656216E+03  0.25500000920E-02 0.  1.
</event>
<event>
 5   0  0.6493047E-03  0.1247230E+04  0.7818609E-02  0.9072492E-01
        2   -1    0    0  501    0  0.00000000000E+00  0.00000000000E+00  0.10368867536E+04  0.10368867536E+04  0.25500000920E-02 0.  1.
       -2   -1    0    0    0  501  0.00000000000E+00  0.00000000000E+00 -0.37506060050E+03  0.37506060051E+03  0.25500000920E-02 0. -1.
    10030    2    1    2    0    0  0.00000000000E+00  0.00000000000E+00  0.66182615306E+03  0.14119473541E+04  0.12472295193E+04 0.  0.
        3    1    3    3  502    0  0.54773763235E+01  0.31625008103E+03 -0.27751499471E+03  0.42078343348E+03  0.10100000352E+00 0. -1.
       -3    1    3    3    0  502 -0.54773763235E+01 -0.31625008103E+03  0.93934114777E+03  0.99116392060E+03  0.10100000352E+00 0.  1.
</event>
<event>
 5   0  0.3772254E-03  0.1127739E+04  0.7818609E-02  0.9178569E-01
       -1   -1    0    0    0  501  0.00000000000E+00  0.00000000000E+00  0.28278704656E+03  0.28278704660E+03  0.50400001928E-02 0.  1.
        1   -1    0    0  501    0  0.00000000000E+00  0.00000000000E+00 -0.11243408176E+04  0.11243408176E+04  0.50400001928E-02 0. -1.
    10030    2    1    2    0    0  0.00000000000E+00  0.00000000000E+00 -0.84155377101E+03  0.14071278642E+04  0.11277393656E+04 0.  0.
        3    1    3    3  502    0  0.44590392962E+03  0.21035267194E+03 -0.76218987338E+03  0.90775105306E+03  0.10100000352E+00 0. -1.
       -3    1    3    3    0  502 -0.44590392962E+03 -0.21035267194E+03 -0.79363897631E+02  0.49937681113E+03  0.10100000352E+00 0.  1.
</event>
<event>
 5   0  0.6658994E-03  0.1206020E+04  0.7818609E-02  0.9107603E-01
        2   -1    0    0  501    0  0.00000000000E+00  0.00000000000E+00  0.65074162647E+03  0.65074162647E+03  0.25500000920E-02 0.  1.
       -2   -1    0    0    0  501  0.00000000000E+00  0.00000000000E+00 -0.55877986911E+03  0.55877986911E+03  0.25500000920E-02 0. -1.
    10030    2    1    2    0    0  0.00000000000E+00  0.00000000000E+00  0.91961757358E+02  0.12095214956E+04  0.12060204324E+04 0.  0.
        4    1    3    3  502    0  0.24636200207E+03  0.29829163039E+03  0.50986831410E+03  0.64003081445E+03  0.12699999809E+01 0.  1.
       -4    1    3    3    0  502 -0.24636200207E+03 -0.29829163039E+03 -0.41790655675E+03  0.56949068113E+03  0.12699999809E+01 0. -1.
</event>
<event>
 5   0  0.3701879E-03  0.7244978E+03  0.7818609E-02  0.9676231E-01
       -1   -1    0    0    0  501  0.00000000000E+00  0.00000000000E+00  0.10813090710E+03  0.10813090721E+03  0.50400001928E-02 0. -1.
        1   -1    0    0  501    0  0.00000000000E+00  0.00000000000E+00 -0.12135686066E+04  0.12135686066E+04  0.50400001928E-02 0.  1.
    10030    2    1    2    0    0  0.00000000000E+00  0.00000000000E+00 -0.11054376995E+04  0.13216995138E+04  0.72449782424E+03 0.  0.
        1    1    3    3  502    0  0.27971775948E+03 -0.17468115558E+03 -0.82617332497E+03  0.88956050609E+03  0.50400001928E-02 0. -1.
       -1    1    3    3    0  502 -0.27971775948E+03  0.17468115558E+03 -0.27926437450E+03  0.43213900769E+03  0.50400001928E-02 0.  1.
</event>
<event>
 5   0  0.6640844E-03  0.7911258E+03  0.7818609E-02  0.9572952E-01
       -2   -1    0    0    0  501  0.00000000000E+00  0.00000000000E+00  0.94848380211E+03  0.94848380211E+03  0.25500000920E-02 0. -1.
        2   -1    0    0  501    0  0.00000000000E+00  0.00000000000E+00 -0.16496856017E+03  0.16496856019E+03  0.25500000920E-02 0.  1.
    10030    2    1    2    0    0  0.00000000000E+00  0.00000000000E+00  0.78351524194E+03  0.11134523623E+04  0.79112579832E+03 0.  0.
        5    1    3    3  502    0 -0.32720620900E+03 -0.35933006589E+02  0.83107625764E+02  0.33953505214E+03  0.46999998093E+01 0.  1.
       -5    1    3    3    0  502  0.32720620900E+03  0.35933006589E+02  0.70040761618E+03  0.77391731016E+03  0.46999998093E+01 0. -1.
</event>
<event>
 5   0  0.3731281E-03  0.1220511E+04  0.7818609E-02  0.9095090E-01
        1   -1    0    0  501    0  0.00000000000E+00  0.00000000000E+00  0.17151681289E+04  0.17151681289E+04  0.50400001928E-02 0. -1.
       -1   -1    0    0    0  501  0.00000000000E+00  0.00000000000E+00 -0.21712848024E+03  0.21712848030E+03  0.50400001928E-02 0.  1.
    10030    2    1    2    0    0  0.00000000000E+00  0.00000000000E+00  0.14980396487E+04  0.19322966092E+04  0.12205111212E+04 0.  0.
        5    1    3    3  502    0 -0.58216032437E+03 -0.17417879812E+03  0.66029268145E+03  0.89736136097E+03  0.46999998093E+01 0. -1.
       -5    1    3    3    0  502  0.58216032437E+03  0.17417879812E+03  0.83774696721E+03  0.10349352482E+04  0.46999998093E+01 0.  1.
</event>
<event>
 5   0  0.3731281E-03  0.1237710E+04  0.7818609E-02  0.9080474E-01
       -1   -1    0    0    0  501  0.00000000000E+00  0.00000000000E+00  0.46150027118E+03  0.46150027120E+03  0.50400001928E-02 0.  1.
        1   -1    0    0  501    0  0.00000000000E+00  0.00000000000E+00 -0.82986256192E+03  0.82986256193E+03  0.50400001928E-02 0. -1.
    10030    2    1    2    0    0  0.00000000000E+00  0.00000000000E+00 -0.36836229074E+03  0.12913628331E+04  0.12377104627E+04 0.  0.
        5    1    3    3  502    0  0.20566663992E+02 -0.25415583294E+03 -0.77248656884E+03  0.81349601358E+03  0.46999998093E+01 0. -1.
       -5    1    3    3    0  502 -0.20566663992E+02  0.25415583294E+03  0.40412427809E+03  0.47786681955E+03  0.46999998093E+01 0.  1.
</event>
<event>
 5   0  0.6640844E-03  0.1151358E+04  0.7818609E-02  0.9156532E-01
       -2   -1    0    0    0  501  0.00000000000E+00  0.00000000000E+00  0.64289034798E+03  0.64289034799E+03  0.25500000920E-02 0. -1.
        2   -1    0    0  501    0  0.00000000000E+00  0.00000000000E+00 -0.51549388897E+03  0.51549388898E+03  0.25500000920E-02 0.  1.
    10030    2    1    2    0    0  0.00000000000E+00  0.00000000000E+00  0.12739645901E+03  0.11583842370E+04  0.11513575390E+04 0.  0.
        5    1    3    3  502    0 -0.14458803054E+03  0.47138780603E+03 -0.23522069100E+03  0.54631769669E+03  0.46999998093E+01 0.  1.
       -5    1    3    3    0  502  0.14458803054E+03 -0.47138780603E+03  0.36261715001E+03  0.61206654027E+03  0.46999998093E+01 0. -1.
</event>
<event>
 5   0  0.3944074E-03  0.1205411E+04  0.7818609E-02  0.9108133E-01
        1   -1    0    0  501    0  0.00000000000E+00  0.00000000000E+00  0.18308950558E+04  0.18308950558E+04  0.50400001928E-02 0. -1.
       -1   -1    0    0    0  501  0.00000000000E+00  0.00000000000E+00 -0.19840252167E+03  0.19840252174E+03  0.50400001928E-02 0.  1.
    10030    2    1    2    0    0  0.00000000000E+00  0.00000000000E+00  0.16324925341E+04  0.20292975775E+04  0.12054114585E+04 0.  0.
        4    1    3    3  502    0 -0.26996954199E+03 -0.42761879960E+03  0.26424857807E+03  0.57058769289E+03  0.12699999809E+01 0.  1.
       -4    1    3    3    0  502  0.26996954199E+03  0.42761879960E+03  0.13682439560E+04  0.14587098846E+04  0.12699999809E+01 0. -1.
</event>
<event>
 5   0  0.3944074E-03  0.1076380E+04  0.7818609E-02  0.9228524E-01
        1   -1    0    0  501    0  0.00000000000E+00  0.00000000000E+00  0.64587838501E+03  0.64587838503E+03  0.50400001928E-02 0.  1.
       -1   -1    0    0    0  501  0.00000000000E+00  0.00000000000E+00 -0.44845661018E+03  0.44845661021E+03  0.50400001928E-02 0. -1.
    10030    2    1    2    0    0  0.00000000000E+00  0.00000000000E+00  0.19742177483E+03  0.10943349952E+04  0.10763799165E+04 0.  0.
        4    1    3    3  502    0 -0.46959092774E+03  0.88494259940E+01  0.36587342348E+03  0.59536453259E+03  0.12699999809E+01 0.  1.
       -4    1    3    3    0  502  0.46959092774E+03 -0.88494259940E+01 -0.16845164865E+03  0.49897046264E+03  0.12699999809E+01 0. -1.
</event>
<event>
 5   0  0.3731281E-03  0.1070485E+04  0.7818609E-02  0.9234447E-01
        1   -1    0    0  501    0  0.00000000000E+00  0.00000000000E+00  0.88507315800E+03  0.88507315801E+03  0.50400001928E-02 0.  1.
       -1   -1    0    0    0  501  0.00000000000E+00  0.00000000000E+00 -0.32368437945E+03  0.32368437949E+03  0.50400001928E-02 0. -1.
    10030    2    1    2    0    0  0.00000000000E+00  0.00000000000E+00  0.56138877855E+03  0.12087575375E+04  0.10704846677E+04 0.  0.
        5    1    3    3  502    0 -0.27337613945E+03  0.52166741982E+02  0.79691877840E+03  0.84413121726E+03  0.46999998093E+01 0.  1.
       -5    1    3    3    0  502  0.27337613945E+03 -0.52166741982E+02 -0.23552999985E+03  0.36462632024E+03  0.46999998093E+01 0. -1.
</event>
<event>
 5   0  0.3648616E-03  0.1170424E+04  0.7818609E-02  0.9139146E-01
        1   -1    0    0  501    0  0.00000000000E+00  0.00000000000E+00  0.44909411486E+03  0.44909411489E+03  0.50400001928E-02 0. -1.
       -1   -1    0    0    0  501  0.00000000000E+00  0.00000000000E+00 -0.76258647832E+03  0.76258647833E+03  0.50400001928E-02 0.  1.
    10030    2    1    2    0    0  0.00000000000E+00  0.00000000000E+00 -0.31349236345E+03  0.12116805932E+04  0.11704240249E+04 0.  0.
        2    1    3    3  502    0  0.42893494480E+03  0.21086634470E+03  0.19282990960E+03  0.51539613527E+03  0.25500000920E-02 0. -1.
       -2    1    3    3    0  502 -0.42893494480E+03 -0.21086634470E+03 -0.50632227305E+03  0.69628445796E+03  0.25500000920E-02 0.  1.
</event>
<event>
 5   0  0.3944074E-03  0.1165861E+04  0.7818609E-02  0.9143274E-01
        1   -1    0    0  501    0  0.00000000000E+00  0.00000000000E+00  0.86180388213E+03  0.86180388215E+03  0.50400001928E-02 0.  1.
       -1   -1    0    0    0  501  0.00000000000E+00  0.00000000000E+00 -0.39429865582E+03  0.39429865585E+03  0.50400001928E-02 0. -1.
    10030    2    1    2    0    0  0.00000000000E+00  0.00000000000E+00  0.46750522631E+03  0.12561025380E+04  0.11658612479E+04 0.  0.
        4    1    3    3  502    0  0.13454201711E+03 -0.89674026791E+02 -0.36965422549E+03  0.40347099619E+03  0.12699999809E+01 0. -1.
       -4    1    3    3    0  502 -0.13454201711E+03  0.89674026791E+02  0.83715945180E+03  0.85263154181E+03  0.12699999809E+01 0.  1.
</event>
<event>
 5   0  0.3944074E-03  0.1230266E+04  0.7818609E-02  0.9086769E-01
       -1   -1    0    0    0  501  0.00000000000E+00  0.00000000000E+00  0.35821056300E+03  0.35821056303E+03  0.50400001928E-02 0. -1.
        1   -1    0    0  501    0  0.00000000000E+00  0.00000000000E+00 -0.10563308307E+04  0.10563308307E+04  0.50400001928E-02 0.  1.
    10030    2    1    2    0    0  0.00000000000E+00  0.00000000000E+00 -0.69812026773E+03  0.14145413938E+04  0.12302664128E+04 0.  0.
        4    1    3    3  502    0  0.60010054140E+01  0.31899674796E+03  0.25563509919E+03  0.40883475160E+03  0.12699999809E+01 0. -1.
       -4    1    3    3    0  502 -0.60010054140E+01 -0.31899674796E+03 -0.95375536692E+03  0.10057066422E+04  0.12699999809E+01 0.  1.
</event>
<event>
 5   0  0.3701879E-03  0.1126655E+04  0.7818609E-02  0.9179594E-01
        1   -1    0    0  501    0  0.00000000000E+00  0.00000000000E+00  0.30292497038E+03  0.30292497043E+03  0.50400001928E-02 0. -1.
       -1   -1    0    0    0  501  0.00000000000E+00  0.00000000000E+00 -0.10475799805E+04  0.10475799805E+04  0.50400001928E-02 0.  1.
    10030    2    1    2    0    0  0.00000000000E+00  0.00000000000E+00 -0.74465501009E+03  0.13505049509E+04  0.11266554657E+04 0.  0.
        1    1    3    3  502    0  0.33480042703E+03 -0.42570958075E+03 -0.18655778226E+03  0.57282089629E+03  0.50400001928E-02 0.  1.
       -1    1    3    3    0  502 -0.33480042703E+03  0.42570958075E+03 -0.55809722784E+03  0.77768405463E+03  0.50400001928E-02 0. -1.
</event>
<event>
 5   0  0.6585930E-03  0.1198816E+04  0.7818609E-02  0.9113893E-01
       -2   -1    0    0    0  501  0.00000000000E+00  0.00000000000E+00  0.26659728038E+03  0.26659728039E+03  0.25500000920E-02 0. -1.
        2   -1    0    0  501    0  0.00000000000E+00  0.00000000000E+00 -0.13476883024E+04  0.13476883024E+04  0.25500000920E-02 0.  1.
    10030    2    1    2    0    0  0.00000000000E+00  0.00000000000E+00 -0.10810910220E+04  0.16142855828E+04  0.11988161431E+04 0.  0.
        2    1    3    3  502    0 -0.73181512444E+02 -0.52765123534E+03 -0.17050014490E+03  0.55932250030E+03  0.25500000920E-02 0. -1.
       -2    1    3    3    0  502  0.73181512444E+02  0.52765123534E+03 -0.91059087709E+03  0.10549630825E+04  0.25500000920E-02 0.  1.
</event>
<event>
 5   0  0.3701879E-03  0.1176371E+04  0.7818609E-02  0.9133794E-01
        1   -1    0    0  501    0  0.00000000000E+00  0.00000000000E+00  0.18286176466E+04  0.18286176466E+04  0.50400001928E-02 0. -1.
       -1   -1    0    0    0  501  0.00000000000E+00  0.00000000000E+00 -0.18919314752E+03  0.18919314758E+03  0.50400001928E-02 0.  1.
    10030    2    1    2    0    0  0.00000000000E+00  0.00000000000E+00  0.16394244991E+04  0.20178107942E+04  0.11763705679E+04 0.  0.
        1    1    3    3  502    0 -0.97970846446E+02 -0.34067201992E+03  0.16248119529E+04  0.16630302445E+04  0.50400001928E-02 0. -1.
       -1    1    3    3    0  502  0.97970846446E+02  0.34067201992E+03  0.14612546217E+02  0.35478054969E+03  0.50400001928E-02 0.  1.
</event>
<event>
 5   0  0.3944074E-03  0.1236557E+04  0.7818609E-02  0.9081447E-01
        1   -1    0    0  501    0  0.00000000000E+00  0.00000000000E+00  0.53100918918E+03  0.53100918920E+03  0.50400001928E-02 0. -1.
       -1   -1    0    0    0  501  0.00000000000E+00  0.00000000000E+00 -0.71988974432E+03  0.71988974433E+03  0.50400001928E-02 0.  1.
    10030    2    1    2    0    0  0.00000000000E+00  0.00000000000E+00 -0.18888055514E+03  0.12508989335E+04  0.12365566214E+04 0.  0.
        4    1    3    3  502    0 -0.29675644215E+03 -0.36991839629E+03  0.30685012231E+03  0.56485627936E+03  0.12699999809E+01 0. -1.
       -4    1    3    3    0  502  0.29675644215E+03  0.36991839629E+03 -0.49573067745E+03  0.68604265417E+03  0.12699999809E+01 0.  1.
</event>
<event>
 5   0  0.6640844E-03  0.1106107E+04  0.7818609E-02  0.9199260E-01
        2   -1    0    0  501    0  0.00000000000E+00  0.00000000000E+00  0.49778748841E+03  0.49778748842E+03  0.25500000920E-02 0.  1.
       -2   -1    0    0    0  501  0.00000000000E+00  0.00000000000E+00 -0.61445581332E+03  0.61445581333E+03  0.25500000920E-02 0. -1.
    10030    2    1    2    0    0  0.00000000000E+00  0.00000000000E+00 -0.11666832491E+03  0.11122433017E+04  0.11061074379E+04 0.  0.
        5    1    3    3  502    0 -0.50849550515E+03  0.21518779191E+03 -0.89697913569E+02  0.55941153925E+03  0.46999998093E+01 0. -1.
       -5    1    3    3    0  502  0.50849550515E+03 -0.21518779191E+03 -0.26970411339E+02  0.55283176250E+03  0.46999998093E+01 0.  1.
</event>
<event>
 5   0  0.6640844E-03  0.1205325E+04  0.7818609E-02  0.9108209E-01
       -2   -1    0    0    0  501  0.00000000000E+00  0.00000000000E+00  0.38820703899E+03  0.38820703900E+03  0.25500000920E-02 0. -1.
        2   -1    0    0  501    0  0.00000000000E+00  0.00000000000E+00 -0.93558797130E+03  0.93558797131E+03  0.25500000920E-02 0.  1.
    10030    2    1    2    0    0  0.00000000000E+00  0.00000000000E+00 -0.54738093231E+03  0.13237950103E+04  0.12053245805E+04 0.  0.
        5    1    3    3  502    0  0.18199129423E+03  0.61562816060E+02  0.35365185845E+03  0.40249538939E+03  0.46999998093E+01 0. -1.
       -5    1    3    3    0  502 -0.18199129423E+03 -0.61562816060E+02 -0.90103279076E+03  0.92129962092E+03  0.46999998093E+01 0.  1.
</event>
<event>
 5   0  0.3772254E-03  0.1189369E+04  0.7818609E-02  0.9122213E-01
       -1   -1    0    0    0  501  0.00000000000E+00  0.00000000000E+00  0.46481560616E+03  0.46481560618E+03  0.50400001928E-02 0. -1.
        1   -1    0    0  501    0  0.00000000000E+00  0.00000000000E+00 -0.76083907621E+03  0.76083907623E+03  0.50400001928E-02 0.  1.
    10030    2    1    2    0    0  0.00000000000E+00  0.00000000000E+00 -0.29602347006E+03  0.12256546824E+04  0.11893693731E+04 0.  0.
        3    1    3    3  502    0  0.28569562582E+03 -0.52128942069E+03 -0.16541528835E+03  0.61703069499E+03  0.10100000352E+00 0. -1.
       -3    1    3    3    0  502 -0.28569562582E+03  0.52128942069E+03 -0.13060818170E+03  0.60862398742E+03  0.10100000352E+00 0.  1.
</event>
<event>
 5   0  0.3944074E-03  0.1237615E+04  0.7818609E-02  0.9080555E-01
       -1   -1    0    0    0  501  0.00000000000E+00  0.00000000000E+00  0.12132988335E+04  0.12132988335E+04  0.50400001928E-02 0.  1.
        1   -1    0    0  501    0  0.00000000000E+00  0.00000000000E+00 -0.31560437137E+03  0.31560437141E+03  0.50400001928E-02 0. -1.
    10030    2    1    2    0    0  0.00000000000E+00  0.00000000000E+00  0.89769446215E+03  0.15289032049E+04  0.12376145049E+04 0.  0.
        4    1    3    3  502    0  0.43862334984E+03  0.39776860272E+03  0.67090523375E+03  0.89483280556E+03  0.12699999809E+01 0.  1.
       -4    1    3    3    0  502 -0.43862334984E+03 -0.39776860272E+03  0.22678922839E+03  0.63407039936E+03  0.12699999809E+01 0. -1.
</event>
<event>
 5   0  0.3648616E-03  0.1206183E+04  0.7818609E-02  0.9107462E-01
       -1   -1    0    0    0  501  0.00000000000E+00  0.00000000000E+00  0.13631132545E+04  0.13631132546E+04  0.50400001928E-02 0.  1.
        1   -1    0    0  501    0  0.00000000000E+00  0.00000000000E+00 -0.26682968984E+03  0.26682968988E+03  0.50400001928E-02 0. -1.
    10030    2    1    2    0    0  0.00000000000E+00  0.00000000000E+00  0.10962835647E+04  0.16299429444E+04  0.12061825516E+04 0.  0.
        2    1    3    3  502    0 -0.21764400087E+03 -0.55333902884E+03  0.41189180376E+03  0.72333107908E+03  0.25500000920E-02 0. -1.
       -2    1    3    3    0  502  0.21764400087E+03  0.55333902884E+03  0.68439176095E+03  0.90661186536E+03  0.25500000920E-02 0.  1.
</event>
<event>
 5   0  0.6658994E-03  0.1215450E+04  0.7818609E-02  0.9099440E-01
       -2   -1    0    0    0  501  0.00000000000E+00  0.00000000000E+00  0.19690103836E+03  0.19690103838E+03  0.25500000920E-02 0. -1.
        2   -1    0    0  501    0  0.00000000000E+00  0.00000000000E+00 -0.18757115636E+04  0.18757115636E+04  0.25500000920E-02 0.  1.
    10030    2    1    2    0    0  0.00000000000E+00  0.00000000000E+00 -0.16788105252E+04  0.20726126019E+04  0.12154498008E+04 0.  0.
        4    1    3    3  502    0  0.50846961817E+03  0.16391324858E+03 -0.13333875204E+04  0.14364305755E+04  0.12699999809E+01 0.  1.
       -4    1    3    3    0  502 -0.50846961817E+03 -0.16391324858E+03 -0.34542300478E+03  0.63618202646E+03  0.12699999809E+01 0. -1.
</event>
<event>
 5   0  0.3731281E-03  0.1447480E+04  0.7818609E-02  0.8920149E-01
        1   -1    0    0  501    0  0.00000000000E+00  0.00000000000E+00  0.93194819201E+03  0.93194819202E+03  0.50400001928E-02 0.  1.
       -1   -1    0    0    0  501  0.00000000000E+00  0.00000000000E+00 -0.56204797359E+03  0.56204797361E+03  0.50400001928E-02 0. -1.
    10030    2    1    2    0    0  0.00000000000E+00  0.00000000000E+00  0.36990021842E+03  0.14939961656E+04  0.14474800072E+04 0.  0.
        5    1    3    3  502    0  0.16242150024E+03  0.47501151635E+03  0.72300964156E+03  0.88021685748E+03  0.46999998093E+01 0.  1.
       -5    1    3    3    0  502 -0.16242150024E+03 -0.47501151635E+03 -0.35310942315E+03  0.61377930815E+03  0.46999998093E+01 0. -1.
</event>
<event>
 5   0  0.3772254E-03  0.1172386E+04  0.7818609E-02  0.9137376E-01
       -1   -1    0    0    0  501  0.00000000000E+00  0.00000000000E+00  0.20689552695E+03  0.20689552701E+03  0.50400001928E-02 0. -1.
        1   -1    0    0  501    0  0.00000000000E+00  0.00000000000E+00 -0.16608490908E+04  0.16608490909E+04  0.50400001928E-02 0.  1.
    10030    2    1    2    0    0  0.00000000000E+00  0.00000000000E+00 -0.14539535639E+04  0.18677446179E+04  0.11723860250E+04 0.  0.
        3    1    3    3  502    0  0.42113766760E+03  0.35991155052E+03 -0.10322939920E+04  0.11715477606E+04  0.10100000352E+00 0.  1.
       -3    1    3    3    0  502 -0.42113766760E+03 -0.35991155052E+03 -0.42165957186E+03  0.69619685722E+03  0.10100000352E+00 0. -1.
</event>
<event>
 5   0  0.6585930E-03  0.1215802E+04  0.7818609E-02  0.9099137E-01
        2   -1    0    0  501    0  0.00000000000E+00  0.00000000000E+00  0.92586513608E+03  0.92586513608E+03  0.25500000920E-02 0.  1.
       -2   -1    0    0    0  501  0.00000000000E+00  0.00000000000E+00 -0.39913323647E+03  0.39913323648E+03  0.25500000920E-02 0. -1.
    10030    2    1    2    0    0  0.00000000000E+00  0.00000000000E+00  0.52673189961E+03  0.13249983726E+04  0.12158018725E+04 0.  0.
        2    1    3    3  502    0  0.72569718642E+02 -0.56941541963E+03  0.48144667002E+03  0.74919368674E+03  0.25500000920E-02 0.  1.
       -2    1    3    3    0  502 -0.72569718642E+02  0.56941541963E+03  0.45285229588E+02  0.57580468581E+03  0.25500000920E-02 0. -1.
</event>
<event>
 5   0  0.6640844E-03  0.1201593E+04  0.7818609E-02  0.9111463E-01
       -2   -1    0    0    0  501  0.00000000000E+00  0.00000000000E+00  0.40225067349E+03  0.40225067350E+03  0.25500000920E-02 0.  1.
        2   -1    0    0  501    0  0.00000000000E+00  0.00000000000E+00 -0.89734220853E+03  0.89734220853E+03  0.25500000920E-02 0. -1.
    10030    2    1    2    0    0  0.00000000000E+00  0.00000000000E+00 -0.49509153504E+03  0.12995928820E+04  0.12015931221E+04 0.  0.
        5    1    3    3  502    0 -0.45309677299E+03 -0.35234758036E+03 -0.55622010647E+02  0.57668136882E+03  0.46999998093E+01 0.  1.
       -5    1    3    3    0  502  0.45309677299E+03  0.35234758036E+03 -0.43946952439E+03  0.72291151322E+03  0.46999998093E+01 0. -1.
</event>
<event>
 5   0  0.6493047E-03  0.1184639E+04  0.7818609E-02  0.9126409E-01
       -2   -1    0    0    0  501  0.00000000000E+00  0.00000000000E+00  0.39902516926E+03  0.39902516927E+03  0.25500000920E-02 0. -1.
        2   -1    0    0  501    0  0.00000000000E+00  0.00000000000E+00 -0.87924903307E+03  0.87924903308E+03  0.25500000920E-02 0.  1.
    10030    2    1    2    0    0  0.00000000000E+00  0.00000000000E+00 -0.48022386381E+03  0.12782742023E+04  0.11846391759E+04 0.  0.
        3    1    3    3  502    0  0.42389045142E+03  0.13984838687E+03 -0.66024813821E+03  0.79697446654E+03  0.10100000352E+00 0.  1.
       -3    1    3    3    0  502 -0.42389045142E+03 -0.13984838687E+03  0.18002427440E+03  0.48129973581E+03  0.10100000352E+00 0. -1.
</event>
<event>
 5   0  0.2537625E-03  0.1205472E+04  0.7818609E-02  0.9108081E-01
       -4   -1    0    0    0  501  0.00000000000E+00  0.00000000000E+00  0.63929119241E+03  0.63929245388E+03  0.12699999809E+01 0. -1.
        4   -1    0    0  501    0  0.00000000000E+00  0.00000000000E+00 -0.56826813186E+03  0.56826955100E+03  0.12699999809E+01 0.  1.
    10030    2    1    2    0    0  0.00000000000E+00  0.00000000000E+00  0.71023060545E+02  0.12075620049E+04  0.12054715760E+04 0.  0.
        5    1    3    3  502    0 -0.11289074059E+03  0.59107940647E+03  0.69469519863E+02  0.60577825007E+03  0.46999998093E+01 0.  1.
       -5    1    3    3    0  502  0.11289074059E+03 -0.59107940647E+03  0.15535406816E+01  0.60178375481E+03  0.46999998093E+01 0. -1.
</event>
<event>
 5   0  0.6493047E-03  0.1137508E+04  0.7818609E-02  0.9169386E-01
        2   -1    0    0  501    0  0.00000000000E+00  0.00000000000E+00  0.12019390904E+04  0.12019390904E+04  0.25500000920E-02 0. -1.
       -2   -1    0    0    0  501  0.00000000000E+00  0.00000000000E+00 -0.26913252947E+03  0.26913252948E+03  0.25500000920E-02 0.  1.
    10030    2    1    2    0    0  0.00000000000E+00  0.00000000000E+00  0.93280656090E+03  0.14710716199E+04  0.11375076398E+04 0.  0.
        3    1    3    3  502    0  0.27125271311E+03 -0.41915778176E+03  0.81870080393E+03  0.95892768076E+03  0.10100000352E+00 0. -1.
       -3    1    3    3    0  502 -0.27125271311E+03  0.41915778176E+03  0.11410575697E+03  0.51214393910E+03  0.10100000352E+00 0.  1.
</event>
<event>
 5   0  0.3731281E-03  0.1094832E+04  0.7818609E-02  0.9210244E-01
       -1   -1    0    0    0  501  0.00000000000E+00  0.00000000000E+00  0.21468310243E+03  0.21468310248E+03  0.50400001928E-02 0.  1.
        1   -1    0    0  501    0  0.00000000000E+00  0.00000000000E+00 -0.13958447300E+04  0.13958447300E+04  0.50400001928E-02 0. -1.
    10030    2    1    2    0    0  0.00000000000E+00  0.00000000000E+00 -0.11811616276E+04  0.16105278325E+04  0.10948320003E+04 0.  0.
        5    1    3    3  502    0  0.51222728317E+03  0.11329994357E+03 -0.36066474078E+03  0.63664339475E+03  0.46999998093E+01 0.  1.
       -5    1    3    3    0  502 -0.51222728317E+03 -0.11329994357E+03 -0.82049688680E+03  0.97388443774E+03  0.46999998093E+01 0. -1.
</event>
<event>
 5   0  0.3772254E-03  0.1186496E+04  0.7818609E-02  0.9124760E-01
        1   -1    0    0  501    0  0.00000000000E+00  0.00000000000E+00  0.12972887128E+04  0.12972887128E+04  0.50400001928E-02 0.  1.
       -1   -1    0    0    0  501  0.00000000000E+00  0.00000000000E+00 -0.27129112330E+03  0.27129112334E+03  0.50400001928E-02 0. -1.
    10030    2    1    2    0    0  0.00000000000E+00  0.00000000000E+00  0.10259975895E+04  0.15685798361E+04  0.11864955325E+04 0.  0.
        3    1    3    3  502    0  0.39987758160E+03 -0.38356941038E+03  0.79317923525E+03  0.96755407202E+03  0.10100000352E+00 0. -1.
       -3    1    3    3    0  502 -0.39987758160E+03  0.38356941038E+03  0.23281835423E+03  0.60102576410E+03  0.10100000352E+00 0.  1.
</event>
<event>
 5   0  0.2537625E-03  0.1223219E+04  0.7818609E-02  0.9092772E-01
        3   -1    0    0  501    0  0.00000000000E+00  0.00000000000E+00  0.35074690826E+03  0.35074692280E+03  0.10100000352E+00 0. -1.
       -3   -1    0    0    0  501  0.00000000000E+00  0.00000000000E+00 -0.10664849186E+04  0.10664849234E+04  0.10100000352E+00 0.  1.
    10030    2    1    2    0    0  0.00000000000E+00  0.00000000000E+00 -0.71573801037E+03  0.14172318462E+04  0.12232191980E+04 0.  0.
        3    1    3    3  502    0 -0.41887346221E+03 -0.22667457919E+03  0.86695408211E+02  0.48409962425E+03  0.10100000352E+00 0. -1.
       -3    1    3    3    0  502  0.41887346221E+03  0.22667457919E+03 -0.80243341858E+03  0.93313222196E+03  0.10100000352E+00 0.  1.
</event>
<event>
 5   0  0.3944074E-03  0.1196164E+04  0.7818609E-02  0.9116221E-01
        1   -1    0    0  501    0  0.00000000000E+00  0.00000000000E+00  0.12073356868E+04  0.12073356869E+04  0.50400001928E-02 0.  1.
       -1   -1    0    0    0  501  0.00000000000E+00  0.00000000000E+00 -0.29627387951E+03  0.29627387956E+03  0.50400001928E-02 0. -1.
    10030    2    1    2    0    0  0.00000000000E+00  0.00000000000E+00  0.91106180733E+03  0.15036095664E+04  0.11961639149E+04 0.  0.
        4    1    3    3  502    0 -0.48578697659E+03  0.52474453417E+02  0.21979142318E+02  0.48910862851E+03  0.12699999809E+01 0. -1.
       -4    1    3    3    0  502  0.48578697659E+03 -0.52474453417E+02  0.88908266502E+03  0.10145009379E+04  0.12699999809E+01 0.  1.
</event>
<event>
 5   0  0.6658994E-03  0.8580730E+03  0.7818609E-02  0.9479565E-01
        2   -1    0    0  501    0  0.00000000000E+00  0.00000000000E+00  0.15060653164E+04  0.15060653164E+04  0.25500000920E-02 0. -1.
       -2   -1    0    0    0  501  0.00000000000E+00  0.00000000000E+00 -0.12222066976E+03  0.12222066979E+03  0.25500000920E-02 0.  1.
    10030    2    1    2    0    0  0.00000000000E+00  0.00000000000E+00  0.13838446467E+04  0.16282859862E+04  0.85807298455E+03 0.  0.
        4    1    3    3  502    0  0.39336979270E+02 -0.19187111290E+03  0.14162737379E+04  0.14297534177E+04  0.12699999809E+01 0. -1.
       -4    1    3    3    0  502 -0.39336979270E+02  0.19187111290E+03 -0.32429091221E+02  0.19853256851E+03  0.12699999809E+01 0.  1.
</event>
<event>
 5   0  0.3944074E-03  0.1190702E+04  0.7818609E-02  0.9121034E-01
        1   -1    0    0  501    0  0.00000000000E+00  0.00000000000E+00  0.16288999970E+04  0.16288999970E+04  0.50400001928E-02 0.  1.
       -1   -1    0    0    0  501  0.00000000000E+00  0.00000000000E+00 -0.21759629564E+03  0.21759629570E+03  0.50400001928E-02 0. -1.
    10030    2    1    2    0    0  0.00000000000E+00  0.00000000000E+00  0.14113037014E+04  0.18464962927E+04  0.11907016509E+04 0.  0.
        4    1    3    3  502    0  0.35747592439E+03  0.30013027163E+02 -0.31166601127E+02  0.36008719533E+03  0.12699999809E+01 0. -1.
       -4    1    3    3    0  502 -0.35747592439E+03 -0.30013027163E+02  0.14424703025E+04  0.14864090974E+04  0.12699999809E+01 0.  1.
</event>
<event>
 5   0  0.6640844E-03  0.1154130E+04  0.7818609E-02  0.9153982E-01
       -2   -1    0    0    0  501  0.00000000000E+00  0.00000000000E+00  0.50959256861E+03  0.50959256862E+03  0.25500000920E-02 0.  1.
        2   -1    0    0  501    0  0.00000000000E+00  0.00000000000E+00 -0.65347081299E+03  0.65347081300E+03  0.25500000920E-02 0. -1.
    10030    2    1    2    0    0  0.00000000000E+00  0.00000000000E+00 -0.14387824438E+03  0.11630633816E+04  0.11541297503E+04 0.  0.
        5    1    3    3  502    0 -0.21753476155E+03  0.10216281413E+03  0.45673888023E+03  0.51613090179E+03  0.46999998093E+01 0.  1.
       -5    1    3    3    0  502  0.21753476155E+03 -0.10216281413E+03 -0.60061712461E+03  0.64693247982E+03  0.46999998093E+01 0. -1.
</event>
<event>
 5   0  0.3772254E-03  0.1173594E+04  0.7818609E-02  0.9136288E-01
       -1   -1    0    0    0  501  0.00000000000E+00  0.00000000000E+00  0.51929191869E+03  0.51929191871E+03  0.50400001928E-02 0.  1.
        1   -1    0    0  501    0  0.00000000000E+00  0.00000000000E+00 -0.66307790834E+03  0.66307790836E+03  0.50400001928E-02 0. -1.
    10030    2    1    2    0    0  0.00000000000E+00  0.00000000000E+00 -0.14378598966E+03  0.11823698271E+04  0.11735944773E+04 0.  0.
        3    1    3    3  502    0  0.43877186131E+03  0.19902361933E+03  0.26557407725E+03  0.55014611516E+03  0.10100000352E+00 0.  1.
       -3    1    3    3    0  502 -0.43877186131E+03 -0.19902361933E+03 -0.40936006691E+03  0.63222371191E+03  0.10100000352E+00 0. -1.
</event>
<event>
 5   0  0.6585930E-03  0.1488382E+04  0.7818609E-02  0.8892216E-01
        2   -1    0    0  501    0  0.00000000000E+00  0.00000000000E+00  0.10474175627E+04  0.10474175627E+04  0.25500000920E-02 0. -1.
       -2   -1    0    0    0  501  0.00000000000E+00  0.00000000000E+00 -0.52874836300E+03  0.52874836301E+03  0.25500000920E-02 0.  1.
    10030    2    1    2    0    0  0.00000000000E+00  0.00000000000E+00  0.51866919965E+03  0.15761659257E+04  0.14883821037E+04 0.  0.
        2    1    3    3  502    0 -0.13491974056E+03 -0.46463609904E+03 -0.33946207436E+03  0.59103683546E+03  0.25500000920E-02 0.  1.
       -2    1    3    3    0  502  0.13491974056E+03  0.46463609904E+03  0.85813127401E+03  0.98512909021E+03  0.25500000920E-02 0. -1.
</event>
<event>
 5   0  0.6658994E-03  0.1183007E+04  0.7818609E-02  0.9127862E-01
        2   -1    0    0  501    0  0.00000000000E+00  0.00000000000E+00  0.80408461450E+03  0.80408461451E+03  0.25500000920E-02 0. -1.
       -2   -1    0    0    0  501  0.00000000000E+00  0.00000000000E+00 -0.43512355733E+03  0.43512355734E+03  0.25500000920E-02 0.  1.
    10030    2    1    2    0    0  0.00000000000E+00  0.00000000000E+00  0.36896105717E+03  0.12392081718E+04  0.11830066067E+04 0.  0.
        4    1    3    3  502    0  0.21946625948E+03 -0.18411223836E+03 -0.35761015616E+03  0.45820234837E+03  0.12699999809E+01 0.  1.
       -4    1    3    3    0  502 -0.21946625948E+03  0.18411223836E+03  0.72657121333E+03  0.78100582348E+03  0.12699999809E+01 0. -1.
</event>
<event>
 5   0  0.6585930E-03  0.1044952E+04  0.7818609E-02  0.9260572E-01
       -2   -1    0    0    0  501  0.00000000000E+00  0.00000000000E+00  0.33723911020E+03  0.33723911021E+03  0.25500000920E-02 0.  1.
        2   -1    0    0  501    0  0.00000000000E+00  0.00000000000E+00 -0.80945805923E+03  0.80945805923E+03  0.25500000920E-02 0. -1.
    10030    2    1    2    0    0  0.00000000000E+00  0.00000000000E+00 -0.47221894902E+03  0.11466971694E+04  0.10449515121E+04 0.  0.
        2    1    3    3  502    0 -0.37961587599E+03  0.25450476421E+03 -0.51394111872E+03  0.68776184964E+03  0.25500000920E-02 0. -1.
       -2    1    3    3    0  502  0.37961587599E+03 -0.25450476421E+03  0.41722169698E+02  0.45893531980E+03  0.25500000920E-02 0.  1.
</event>
<event>
 5   0  0.3944074E-03  0.1207217E+04  0.7818609E-02  0.9106563E-01
        1   -1    0    0  501    0  0.00000000000E+00  0.00000000000E+00  0.65484661947E+03  0.65484661949E+03  0.50400001928E-02 0. -1.
       -1   -1    0    0    0  501  0.00000000000E+00  0.00000000000E+00 -0.55637946813E+03  0.55637946815E+03  0.50400001928E-02 0.  1.
    10030    2    1    2    0    0  0.00000000000E+00  0.00000000000E+00  0.98467151346E+02  0.12112260876E+04  0.12072169877E+04 0.  0.
        4    1    3    3  502    0 -0.22739842340E+01 -0.53411472710E+03 -0.23287252811E+03  0.58267910548E+03  0.12699999809E+01 0.  1.
       -4    1    3    3    0  502  0.22739842340E+01  0.53411472710E+03  0.33133967945E+03  0.62854698217E+03  0.12699999809E+01 0. -1.
</event>
<event>
 5   0  0.6640844E-03  0.1196332E+04  0.7818609E-02  0.9116073E-01
        2   -1    0    0  501    0  0.00000000000E+00  0.00000000000E+00  0.19334707326E+04  0.19334707326E+04  0.25500000920E-02 0. -1.
       -2   -1    0    0    0  501  0.00000000000E+00  0.00000000000E+00 -0.18505717035E+03  0.18505717037E+03  0.25500000920E-02 0.  1.
    10030    2    1    2    0    0  0.00000000000E+00  0.00000000000E+00  0.17484135623E+04  0.21185279030E+04  0.11963320990E+04 0.  0.
        5    1    3    3  502    0 -0.45883957901E+03 -0.37109833507E+03  0.70130771180E+03  0.91657096298E+03  0.46999998093E+01 0.  1.
       -5    1    3    3    0  502  0.45883957901E+03  0.37109833507E+03  0.10471058505E+04  0.12019569400E+04  0.46999998093E+01 0. -1.
</event>
<event>
 5   0  0.3648616E-03  0.1370649E+04  0.7818609E-02  0.8975342E-01
        1   -1    0    0  501    0  0.00000000000E+00  0.00000000000E+00  0.31433404717E+03  0.31433404721E+03  0.50400001928E-02 0. -1.
       -1   -1    0    0    0  501  0.00000000000E+00  0.00000000000E+00 -0.14941745522E+04  0.14941745522E+04  0.50400001928E-02 0.  1.
    10030    2    1    2    0    0  0.00000000000E+00  0.00000000000E+00 -0.11798405050E+04  0.18085085994E+04  0.13706493851E+04 0.  0.
        2    1    3    3  502    0 -0.36088002567E+03  0.56986758157E+03 -0.43001855550E+03  0.79993712974E+03  0.25500000920E-02 0. -1.
       -2    1    3    3    0  502  0.36088002567E+03 -0.56986758157E+03 -0.74982194953E+03  0.10085714697E+04  0.25500000920E-02 0.  1.
</event>
<event>
 5   0  0.3701879E-03  0.1280007E+04  0.7818609E-02  0.9045572E-01
       -1   -1    0    0    0  501  0.00000000000E+00  0.00000000000E+00  0.43680634457E+03  0.43680634460E+03  0.50400001928E-02 0. -1.
        1   -1    0    0  501    0  0.00000000000E+00  0.00000000000E+00 -0.93772532852E+03  0.93772532853E+03  0.50400001928E-02 0.  1.
    10030    2    1    2    0    0  0.00000000000E+00  0.00000000000E+00 -0.50091898394E+03  0.13745316731E+04  0.12800068328E+04 0.  0.
        1    1    3    3  502    0 -0.16203304449E+03 -0.30775980577E+03  0.32646088988E+03  0.47701941072E+03  0.50400001928E-02 0. -1.
       -1    1    3    3    0  502  0.16203304449E+03  0.30775980577E+03 -0.82737987382E+03  0.89751226241E+03  0.50400001928E-02 0.  1.
</event>
<event>
 5   0  0.3731281E-03  0.1778440E+04  0.7818609E-02  0.8717850E-01
        1   -1    0    0  501    0  0.00000000000E+00  0.00000000000E+00  0.96943471895E+03  0.96943471897E+03  0.50400001928E-02 0.  1.
       -1   -1    0    0    0  501  0.00000000000E+00  0.00000000000E+00 -0.81564242835E+03  0.81564242837E+03  0.50400001928E-02 0. -1.
    10030    2    1    2    0    0  0.00000000000E+00  0.00000000000E+00  0.15379229060E+03  0.17850771473E+04  0.17784398650E+04 0.  0.
        5    1    3    3  502    0  0.31216427667E+03  0.17810127523E+03  0.89327248670E+03  0.96287300584E+03  0.46999998093E+01 0.  1.
       -5    1    3    3    0  502 -0.31216427667E+03 -0.17810127523E+03 -0.73948019610E+03  0.82220414150E+03  0.46999998093E+01 0. -1.
</event>
<event>
 5   0  0.3944074E-03  0.1204265E+04  0.7818609E-02  0.9109131E-01
       -1   -1    0    0    0  501  0.00000000000E+00  0.00000000000E+00  0.54157686012E+03  0.54157686014E+03  0.50400001928E-02 0. -1.
        1   -1    0    0  501    0  0.00000000000E+00  0.00000000000E+00 -0.66945944990E+03  0.66945944992E+03  0.50400001928E-02 0.  1.
    10030    2    1    2    0    0  0.00000000000E+00  0.00000000000E+00 -0.12788258978E+03  0.12110363101E+04  0.12042653310E+04 0.  0.
        4    1    3    3  502    0  0.72705421933E+02 -0.17459150200E+03  0.51093172523E+03  0.54481291440E+03  0.12699999809E+01 0. -1.
       -4    1    3    3    0  502 -0.72705421933E+02  0.17459150200E+03 -0.63881431501E+03  0.66622339565E+03  0.12699999809E+01 0.  1.
</event>
<event>
 5   0  0.6349142E-03  0.1176782E+04  0.7818609E-02  0.9133426E-01
       -2   -1    0    0    0  501  0.00000000000E+00  0.00000000000E+00  0.36917820344E+03  0.36917820344E+03  0.25500000920E-02 0.  1.
        2   -1    0    0  501    0  0.00000000000E+00  0.00000000000E+00 -0.93776862405E+03  0.93776862405E+03  0.25500000920E-02 0. -1.
    10030    2    1    2    0    0  0.00000000000E+00  0.00000000000E+00 -0.56859042061E+03  0.13069468275E+04  0.11767816040E+04 0.  0.
        1    1    3    3  502    0 -0.35812377762E+03  0.45437227327E+03 -0.40337911021E+03  0.70528115628E+03  0.50400001928E-02 0.  1.
       -1    1    3    3    0  502  0.35812377762E+03 -0.45437227327E+03 -0.16521131040E+03  0.60166567122E+03  0.50400001928E-02 0. -1.
</event>
<event>
 5   0  0.3701879E-03  0.1184571E+04  0.7818609E-02  0.9126470E-01
       -1   -1    0    0    0  501  0.00000000000E+00  0.00000000000E+00  0.54224026795E+03  0.54224026798E+03  0.50400001928E-02 0. -1.
        1   -1    0    0  501    0  0.00000000000E+00  0.00000000000E+00 -0.64694958170E+03  0.64694958172E+03  0.50400001928E-02 0.  1.
    10030    2    1    2    0    0  0.00000000000E+00  0.00000000000E+00 -0.10470931375E+03  0.11891898497E+04  0.11845710018E+04 0.  0.
        1    1    3    3  502    0  0.53201098478E+03  0.19093165997E+03 -0.22999525482E+03  0.61023635091E+03  0.50400001928E-02 0.  1.
       -1    1    3    3    0  502 -0.53201098478E+03 -0.19093165997E+03  0.12528594107E+03  0.57895349879E+03  0.50400001928E-02 0. -1.
</event>
<event>
 5   0  0.6493047E-03  0.1220909E+04  0.7818609E-02  0.9094749E-01
        2   -1    0    0  501    0  0.00000000000E+00  0.00000000000E+00  0.12779482837E+04  0.12779482837E+04  0.25500000920E-02 0. -1.
       -2   -1    0    0    0  501  0.00000000000E+00  0.00000000000E+00 -0.29160407307E+03  0.29160407308E+03  0.25500000920E-02 0.  1.
    10030    2    1    2    0    0  0.00000000000E+00  0.00000000000E+00  0.98634421064E+03  0.15695523568E+04  0.12209093737E+04 0.  0.
        3    1    3    3  502    0 -0.32151391942E+03 -0.86278815588E+02 -0.16465249439E+03  0.37138347905E+03  0.10100000352E+00 0.  1.
       -3    1    3    3    0  502  0.32151391942E+03  0.86278815588E+02  0.11509967050E+04  0.11981688777E+04  0.10100000352E+00 0. -1.
</event>
<event>
 5   0  0.6349142E-03  0.1183182E+04  0.7818609E-02  0.9127706E-01
       -2   -1    0    0    0  501  0.00000000000E+00  0.00000000000E+00  0.62763549284E+03  0.62763549284E+03  0.25500000920E-02 0. -1.
        2   -1    0    0  501    0  0.00000000000E+00  0.00000000000E+00 -0.55761693557E+03  0.55761693557E+03  0.25500000920E-02 0.  1.
    10030    2    1    2    0    0  0.00000000000E+00  0.00000000000E+00  0.70018557272E+02  0.11852524284E+04  0.11831824545E+04 0.  0.
        1    1    3    3  502    0  0.31036100459E+03 -0.69773084376E+02 -0.46464981771E+03  0.56310895003E+03  0.50400001928E-02 0.  1.
       -1    1    3    3    0  502 -0.31036100459E+03  0.69773084376E+02  0.53466837498E+03  0.62214347839E+03  0.50400001928E-02 0. -1.
</event>
<event>
 5   0  0.6349142E-03  0.1171021E+04  0.7818609E-02  0.9138607E-01
       -2   -1    0    0    0  501  0.00000000000E+00  0.00000000000E+00  0.59052924277E+03  0.59052924278E+03  0.25500000920E-02 0. -1.
        2   -1    0    0  501    0  0.00000000000E+00  0.00000000000E+00 -0.58053466941E+03  0.58053466942E+03  0.25500000920E-02 0.  1.
    10030    2    1    2    0    0  0.00000000000E+00  0.00000000000E+00  0.99945733565E+01  0.11710639122E+04  0.11710212615E+04 0.  0.
        1    1    3    3  502    0  0.11513455719E+03  0.23919270742E+03 -0.51689678373E+03  0.58107779393E+03  0.50400001928E-02 0.  1.
       -1    1    3    3    0  502 -0.11513455719E+03 -0.23919270742E+03  0.52689135709E+03  0.58998611826E+03  0.50400001928E-02 0. -1.
</event>
<event>
 5   0  0.6640844E-03  0.8948789E+03  0.7818609E-02  0.9432006E-01
       -2   -1    0    0    0  501  0.00000000000E+00  0.00000000000E+00  0.98946864711E+03  0.98946864711E+03  0.25500000920E-02 0.  1.
        2   -1    0    0  501    0  0.00000000000E+00  0.00000000000E+00 -0.20233289633E+03  0.20233289635E+03  0.25500000920E-02 0. -1.
    10030    2    1    2    0    0  0.00000000000E+00  0.00000000000E+00  0.78713575078E+03  0.11918015435E+04  0.89487889061E+03 0.  0.
        5    1    3    3  502    0 -0.98339759021E+02 -0.26747721113E+03 -0.65788396501E+02  0.29251490524E+03  0.46999998093E+01 0. -1.
       -5    1    3    3    0  502  0.98339759021E+02  0.26747721113E+03  0.85292414728E+03  0.89928663822E+03  0.46999998093E+01 0.  1.
</event>
<event>
 5   0  0.3731281E-03  0.1214864E+04  0.7818609E-02  0.9099945E-01
        1   -1    0    0  501    0  0.00000000000E+00  0.00000000000E+00  0.65688616355E+03  0.65688616357E+03  0.50400001928E-02 0.  1.
       -1   -1    0    0    0  501  0.00000000000E+00  0.00000000000E+00 -0.56170088055E+03  0.56170088058E+03  0.50400001928E-02 0. -1.
    10030    2    1    2    0    0  0.00000000000E+00  0.00000000000E+00  0.95185282995E+02  0.12185870441E+04  0.12148638385E+04 0.  0.
        5    1    3    3  502    0  0.34559954937E+03  0.19253826080E+03 -0.41473360071E+03  0.57318066956E+03  0.46999998093E+01 0. -1.
       -5    1    3    3    0  502 -0.34559954937E+03 -0.19253826080E+03  0.50991888371E+03  0.64540637459E+03  0.46999998093E+01 0.  1.
</event>
<event>
 5   0  0.6493047E-03  0.1207181E+04  0.7818609E-02  0.9106594E-01
        2   -1    0    0  501    0  0.00000000000E+00  0.00000000000E+00  0.60915264151E+03  0.60915264152E+03  0.25500000920E-02 0.  1.
       -2   -1    0    0    0  501  0.00000000000E+00  0.00000000000E+00 -0.59807950626E+03  0.59807950626E+03  0.25500000920E-02 0. -1.
    10030    2    1    2    0    0  0.00000000000E+00  0.00000000000E+00  0.11073135255E+02  0.12072321478E+04  0.12071813635E+04 0.  0.
        3    1    3    3  502    0  0.47626552718E+03 -0.15734032097E+03  0.34131381140E+03  0.60669593458E+03  0.10100000352E+00 0. -1.
       -3    1    3    3    0  502 -0.47626552718E+03  0.15734032097E+03 -0.33024067615E+03  0.60053621320E+03  0.10100000352E+00 0.  1.
</event>
<event>
 5   0  0.3648616E-03  0.1792342E+04  0.7818609E-02  0.8710383E-01
       -1   -1    0    0    0  501  0.00000000000E+00  0.00000000000E+00  0.90419973637E+03  0.90419973638E+03  0.50400001928E-02 0.  1.
        1   -1    0    0  501    0  0.00000000000E+00  0.00000000000E+00 -0.88821334149E+03  0.88821334151E+03  0.50400001928E-02 0. -1.
    10030    2    1    2    0    0  0.00000000000E+00  0.00000000000E+00  0.15986394871E+02  0.17924130779E+04  0.17923417858E+04 0.  0.
        2    1    3    3  502    0  0.18580370480E+03 -0.58605676762E+03 -0.64405782723E+03  0.89039094583E+03  0.25500000920E-02 0. -1.
       -2    1    3    3    0  502 -0.18580370480E+03  0.58605676762E+03  0.66004422210E+03  0.90202213206E+03  0.25500000920E-02 0.  1.
</event>
<event>
 5   0  0.3701879E-03  0.1178436E+04  0.7818609E-02  0.9131944E-01
        1   -1    0    0  501    0  0.00000000000E+00  0.00000000000E+00  0.63241141896E+03  0.63241141898E+03  0.50400001928E-02 0. -1.
       -1   -1    0    0    0  501  0.00000000000E+00  0.00000000000E+00 -0.54897462636E+03  0.54897462639E+03  0.50400001928E-02 0.  1.
    10030    2    1    2    0    0  0.00000000000E+00  0.00000000000E+00  0.83436792598E+02  0.11813860454E+04  0.11784359507E+04 0.  0.
        1    1    3    3  502    0 -0.82558231534E+02 -0.56088171042E+03 -0.11922529819E+03  0.57932618311E+03  0.50400001928E-02 0.  1.
       -1    1    3    3    0  502  0.82558231534E+02  0.56088171042E+03  0.20266209079E+03  0.60205986226E+03  0.50400001928E-02 0. -1.
</event>
<event>
 5   0  0.3772254E-03  0.1185870E+04  0.7818609E-02  0.9125315E-01
        1   -1    0    0  501    0  0.00000000000E+00  0.00000000000E+00  0.42699186881E+03  0.42699186884E+03  0.50400001928E-02 0.  1.
       -1   -1    0    0    0  501  0.00000000000E+00  0.00000000000E+00 -0.82336920821E+03  0.82336920822E+03  0.50400001928E-02 0. -1.
    10030    2    1    2    0    0  0.00000000000E+00  0.00000000000E+00 -0.39637733939E+03  0.12503610771E+04  0.11858700721E+04 0.  0.
        3    1    3    3  502    0  0.79918163965E+02 -0.22000652409E+03 -0.77259237804E+03  0.80727243009E+03  0.10100000352E+00 0. -1.
       -3    1    3    3    0  502 -0.79918163965E+02  0.22000652409E+03  0.37621503865E+03  0.44308864698E+03  0.10100000352E+00 0.  1.
</event>
<event>
 5   0  0.3772254E-03  0.1219098E+04  0.7818609E-02  0.9096302E-01
       -1   -1    0    0    0  501  0.00000000000E+00  0.00000000000E+00  0.36028619868E+03  0.36028619871E+03  0.50400001928E-02 0. -1.
        1   -1    0    0  501    0  0.00000000000E+00  0.00000000000E+00 -0.10312641578E+04  0.10312641578E+04  0.50400001928E-02 0.  1.
    10030    2    1    2    0    0  0.00000000000E+00  0.00000000000E+00 -0.67097795912E+03  0.13915503565E+04  0.12190984263E+04 0.  0.
        3    1    3    3  502    0  0.41196222957E+03 -0.12843669741E+03 -0.82690163847E+03  0.93272460767E+03  0.10100000352E+00 0.  1.
       -3    1    3    3    0  502 -0.41196222957E+03  0.12843669741E+03  0.15592367935E+03  0.45882574886E+03  0.10100000352E+00 0. -1.
</event>
<event>
 5   0  0.6585930E-03  0.1184885E+04  0.7818609E-02  0.9126191E-01
       -2   -1    0    0    0  501  0.00000000000E+00  0.00000000000E+00  0.36798846280E+03  0.36798846281E+03  0.25500000920E-02 0.  1.
        2   -1    0    0  501    0  0.00000000000E+00  0.00000000000E+00 -0.95380148450E+03  0.95380148451E+03  0.25500000920E-02 0. -1.
    10030    2    1    2    0    0  0.00000000000E+00  0.00000000000E+00 -0.58581302171E+03  0.13217899473E+04  0.11848847068E+04 0.  0.
        2    1    3    3  502    0  0.27910691823E+03  0.50982756559E+03 -0.42089350253E+03  0.71761839366E+03  0.25500000920E-02 0. -1.
       -2    1    3    3    0  502 -0.27910691823E+03 -0.50982756559E+03 -0.16491951917E+03  0.60417155365E+03  0.25500000920E-02 0.  1.
</event>
<event>
 5   0  0.3731281E-03  0.1203773E+04  0.7818609E-02  0.9109560E-01
        1   -1    0    0  501    0  0.00000000000E+00  0.00000000000E+00  0.10019354605E+03  0.10019354618E+03  0.50400001928E-02 0.  1.
       -1   -1    0    0    0  501  0.00000000000E+00  0.00000000000E+00 -0.36156758302E+04  0.36156758302E+04  0.50400001928E-02 0. -1.
    10030    2    1    2    0    0  0.00000000000E+00  0.00000000000E+00 -0.35154822842E+04  0.37158693764E+04  0.12037730401E+04 0.  0.
        5    1    3    3  502    0  0.17772196666E+03 -0.48719185008E+02 -0.35263933010E+04  0.35312080737E+04  0.46999998093E+01 0. -1.
       -5    1    3    3    0  502 -0.17772196666E+03  0.48719185008E+02  0.10911016857E+02  0.18466130268E+03  0.46999998093E+01 0.  1.
</event>
<event>
 5   0  0.6640844E-03  0.1216976E+04  0.7818609E-02  0.9098126E-01
       -2   -1    0    0    0  501  0.00000000000E+00  0.00000000000E+00  0.24031573387E+03  0.24031573389E+03  0.25500000920E-02 0.  1.
        2   -1    0    0  501    0  0.00000000000E+00  0.00000000000E+00 -0.15407134299E+04  0.15407134299E+04  0.25500000920E-02 0. -1.
    10030    2    1    2    0    0  0.00000000000E+00  0.00000000000E+00 -0.13003976961E+04  0.17810291638E+04  0.12169760534E+04 0.  0.
        5    1    3    3  502    0  0.23019060524E+03 -0.87533658622E+02  0.16409183774E+03  0.29596972369E+03  0.46999998093E+01 0.  1.
       -5    1    3    3    0  502 -0.23019060524E+03  0.87533658622E+02 -0.14644895338E+04  0.14850594401E+04  0.46999998093E+01 0. -1.
</event>
<event>
 5   0  0.2537625E-03  0.7192709E+03  0.7818609E-02  0.9684832E-01
       -4   -1    0    0    0  501  0.00000000000E+00  0.00000000000E+00  0.21795081687E+03  0.21795451698E+03  0.12699999809E+01 0. -1.
        4   -1    0    0  501    0  0.00000000000E+00  0.00000000000E+00 -0.59341639053E+03  0.59341774952E+03  0.12699999809E+01 0.  1.
    10030    2    1    2    0    0  0.00000000000E+00  0.00000000000E+00 -0.37546557366E+03  0.81137226650E+03  0.71927085152E+03 0.  0.
        5    1    3    3  502    0 -0.30970256084E+03 -0.11057163814E+03 -0.23588051131E+02  0.32972753829E+03  0.46999998093E+01 0. -1.
       -5    1    3    3    0  502  0.30970256084E+03  0.11057163814E+03 -0.35187752253E+03  0.48164472821E+03  0.46999998093E+01 0.  1.
</event>
<event>
 5   0  0.2537625E-03  0.1171032E+04  0.7818609E-02  0.9138597E-01
        4   -1    0    0  501    0  0.00000000000E+00  0.00000000000E+00  0.66768602051E+03  0.66768722834E+03  0.12699999809E+01 0.  1.
       -4   -1    0    0    0  501  0.00000000000E+00  0.00000000000E+00 -0.51345626155E+03  0.51345783218E+03  0.12699999809E+01 0. -1.
    10030    2    1    2    0    0  0.00000000000E+00  0.00000000000E+00  0.15422975896E+03  0.11811450605E+04  0.11710323802E+04 0.  0.
        2    1    3    3  502    0 -0.57948134575E+03  0.64178600852E+02  0.13154090247E+03  0.59767928851E+03  0.25500000920E-02 0.  1.
       -2    1    3    3    0  502  0.57948134575E+03 -0.64178600852E+02  0.22688856486E+02  0.58346577200E+03  0.25500000920E-02 0. -1.
</event>
<event>
 5   0  0.3701879E-03  0.1222572E+04  0.7818609E-02  0.9093325E-01
        1   -1    0    0  501    0  0.00000000000E+00  0.00000000000E+00  0.46667660481E+03  0.46667660484E+03  0.50400001928E-02 0. -1.
       -1   -1    0    0    0  501  0.00000000000E+00  0.00000000000E+00 -0.80070621062E+03  0.80070621063E+03  0.50400001928E-02 0.  1.
    10030    2    1    2    0    0  0.00000000000E+00  0.00000000000E+00 -0.33402960581E+03  0.12673828155E+04  0.12225724614E+04 0.  0.
        1    1    3    3  502    0 -0.89224550911E+02  0.95728825091E+02 -0.78601513829E+03  0.79683425258E+03  0.50400001928E-02 0.  1.
       -1    1    3    3    0  502  0.89224550911E+02 -0.95728825091E+02  0.45198553248E+03  0.47054856289E+03  0.50400001928E-02 0. -1.
</event>
<event>
 5   0  0.3648616E-03  0.1179849E+04  0.7818609E-02  0.9130679E-01
       -1   -1    0    0    0  501  0.00000000000E+00  0.00000000000E+00  0.91052332304E+03  0.91052332305E+03  0.50400001928E-02 0.  1.
        1   -1    0    0  501    0  0.00000000000E+00  0.00000000000E+00 -0.38221009727E+03  0.38221009730E+03  0.50400001928E-02 0. -1.
    10030    2    1    2    0    0  0.00000000000E+00  0.00000000000E+00  0.52831322577E+03  0.12927334204E+04  0.11798494953E+04 0.  0.
        2    1    3    3  502    0  0.24759199442E+03  0.52859862253E+03  0.35772577626E+03  0.68460647853E+03  0.25500000920E-02 0. -1.
       -2    1    3    3    0  502 -0.24759199442E+03 -0.52859862253E+03  0.17058744951E+03  0.60812694183E+03  0.25500000920E-02 0.  1.
</event>
<event>
 5   0  0.6349142E-03  0.1225377E+04  0.7818609E-02  0.9090929E-01
        2   -1    0    0  501    0  0.00000000000E+00  0.00000000000E+00  0.54657839028E+03  0.54657839029E+03  0.25500000920E-02 0.  1.
       -2   -1    0    0    0  501  0.00000000000E+00  0.00000000000E+00 -0.68679529223E+03  0.68679529224E+03  0.25500000920E-02 0. -1.
    10030    2    1    2    0    0  0.00000000000E+00  0.00000000000E+00 -0.14021690195E+03  0.12333736825E+04  0.12253774362E+04 0.  0.
        1    1    3    3  502    0 -0.32508221561E+03  0.25298060242E+03  0.38640368167E+03  0.56478795786E+03  0.50400001928E-02 0.  1.
       -1    1    3    3    0  502  0.32508221561E+03 -0.25298060242E+03 -0.52662058363E+03  0.66858572467E+03  0.50400001928E-02 0. -1.
</event>
<event>
 5   0  0.6349142E-03  0.1221476E+04  0.7818609E-02  0.9094264E-01
       -2   -1    0    0    0  501  0.00000000000E+00  0.00000000000E+00  0.32018646138E+03  0.32018646139E+03  0.25500000920E-02 0. -1.
        2   -1    0    0  501    0  0.00000000000E+00  0.00000000000E+00 -0.11649482066E+04  0.11649482066E+04  0.25500000920E-02 0.  1.
    10030    2    1    2    0    0  0.00000000000E+00  0.00000000000E+00 -0.84476174524E+03  0.14851346680E+04  0.12214755732E+04 0.  0.
        1    1    3    3  502    0 -0.38942993686E+03 -0.47046567321E+03 -0.42560197690E+03  0.74439953531E+03  0.50400001928E-02 0. -1.
       -1    1    3    3    0  502  0.38942993686E+03  0.47046567321E+03 -0.41915976833E+03  0.74073513269E+03  0.50400001928E-02 0.  1.
</event>
<event>
 5   0  0.3731281E-03  0.1172617E+04  0.7818609E-02  0.9137168E-01
        1   -1    0    0  501    0  0.00000000000E+00  0.00000000000E+00  0.55634429945E+03  0.55634429948E+03  0.50400001928E-02 0.  1.
       -1   -1    0    0    0  501  0.00000000000E+00  0.00000000000E+00 -0.61788679602E+03  0.61788679604E+03  0.50400001928E-02 0. -1.
    10030    2    1    2    0    0  0.00000000000E+00  0.00000000000E+00 -0.61542496567E+02  0.11742310955E+04  0.11726172380E+04 0.  0.
        5    1    3    3  502    0 -0.21008067975E+03  0.22176888351E+03 -0.53188017040E+03  0.61337911226E+03  0.46999998093E+01 0. -1.
       -5    1    3    3    0  502  0.21008067975E+03 -0.22176888351E+03  0.47033767383E+03  0.56085198326E+03  0.46999998093E+01 0.  1.
</event>
<event>
 5   0  0.3944074E-03  0.1214857E+04  0.7818609E-02  0.9099951E-01
        1   -1    0    0  501    0  0.00000000000E+00  0.00000000000E+00  0.53539410133E+03  0.53539410135E+03  0.50400001928E-02 0. -1.
       -1   -1    0    0    0  501  0.00000000000E+00  0.00000000000E+00 -0.68915467584E+03  0.68915467586E+03  0.50400001928E-02 0.  1.
    10030    2    1    2    0    0  0.00000000000E+00  0.00000000000E+00 -0.15376057451E+03  0.12245487772E+04  0.12148569436E+04 0.  0.
        4    1    3    3  502    0  0.82195997747E+02  0.49178612213E+03 -0.42657443480E+03  0.65618376488E+03  0.12699999809E+01 0.  1.
       -4    1    3    3    0  502 -0.82195997747E+02 -0.49178612213E+03  0.27281386029E+03  0.56836501232E+03  0.12699999809E+01 0. -1.
</event>
<event>
 5   0  0.6640844E-03  0.1223156E+04  0.7818609E-02  0.9092827E-01
       -2   -1    0    0    0  501  0.00000000000E+00  0.00000000000E+00  0.71810994078E+03  0.71810994079E+03  0.25500000920E-02 0. -1.
        2   -1    0    0  501    0  0.00000000000E+00  0.00000000000E+00 -0.52084977666E+03  0.52084977667E+03  0.25500000920E-02 0.  1.
    10030    2    1    2    0    0  0.00000000000E+00  0.00000000000E+00  0.19726016412E+03  0.12389597175E+04  0.12231555948E+04 0.  0.
        5    1    3    3  502    0  0.58278839742E+02  0.58887084456E+03  0.25502720715E+03  0.64438052509E+03  0.46999998093E+01 0. -1.
       -5    1    3    3    0  502 -0.58278839742E+02 -0.58887084456E+03 -0.57767043034E+02  0.59457919236E+03  0.46999998093E+01 0.  1.
</event>
<event>
 5   0  0.3731281E-03  0.1198705E+04  0.7818609E-02  0.9113991E-01
        1   -1    0    0  501    0  0.00000000000E+00  0.00000000000E+00  0.52373516528E+03  0.52373516530E+03  0.50400001928E-02 0.  1.
       -1   -1    0    0    0  501  0.00000000000E+00  0.00000000000E+00 -0.68588736996E+03  0.68588736997E+03  0.50400001928E-02 0. -1.
    10030    2    1    2    0    0  0.00000000000E+00  0.00000000000E+00 -0.16215220468E+03  0.12096225353E+04  0.11987048596E+04 0.  0.
        5    1    3    3  502    0 -0.17805374170E+03 -0.16419692019E+03  0.47212995218E+03  0.53065294240E+03  0.46999998093E+01 0.  1.
       -5    1    3    3    0  502  0.17805374170E+03  0.16419692019E+03 -0.63428215686E+03  0.67896959287E+03  0.46999998093E+01 0. -1.
</event>
<event>
 5   0  0.3648616E-03  0.1178430E+04  0.7818609E-02  0.9131949E-01
        1   -1    0    0  501    0  0.00000000000E+00  0.00000000000E+00  0.11322826922E+04  0.11322826923E+04  0.50400001928E-02 0.  1.
       -1   -1    0    0    0  501  0.00000000000E+00  0.00000000000E+00 -0.30661475823E+03  0.30661475827E+03  0.50400001928E-02 0. -1.
    10030    2    1    2    0    0  0.00000000000E+00  0.00000000000E+00  0.82566793401E+03  0.14388974505E+04  0.11784304544E+04 0.  0.
        2    1    3    3  502    0  0.23711281107E+03  0.47545785615E+03  0.72387752927E+03  0.89793169870E+03  0.25500000920E-02 0.  1.
       -2    1    3    3    0  502 -0.23711281107E+03 -0.47545785615E+03  0.10179040474E+03  0.54096575183E+03  0.25500000920E-02 0. -1.
</event>
<event>
 5   0  0.6640844E-03  0.1216881E+04  0.7818609E-02  0.9098207E-01
       -2   -1    0    0    0  501  0.00000000000E+00  0.00000000000E+00  0.92135173485E+03  0.92135173485E+03  0.25500000920E-02 0. -1.
        2   -1    0    0  501    0  0.00000000000E+00  0.00000000000E+00 -0.40180100491E+03  0.40180100491E+03  0.25500000920E-02 0.  1.
    10030    2    1    2    0    0  0.00000000000E+00  0.00000000000E+00  0.51955072994E+03  0.13231527398E+04  0.12168813466E+04 0.  0.
        5    1    3    3  502    0 -0.45940242272E+03 -0.19309047008E+03  0.63931998123E+03  0.81060881073E+03  0.46999998093E+01 0. -1.
       -5    1    3    3    0  502  0.45940242272E+03  0.19309047008E+03 -0.11976925129E+03  0.51254392903E+03  0.46999998093E+01 0.  1.
</event>
<event>
 5   0  0.6349142E-03  0.1201995E+04  0.7818609E-02  0.9111112E-01
        2   -1    0    0  501    0  0.00000000000E+00  0.00000000000E+00  0.39558356110E+03  0.39558356111E+03  0.25500000920E-02 0. -1.
       -2   -1    0    0    0  501  0.00000000000E+00  0.00000000000E+00 -0.91307577802E+03  0.91307577803E+03  0.25500000920E-02 0.  1.
    10030    2    1    2    0    0  0.00000000000E+00  0.00000000000E+00 -0.51749221692E+03  0.13086593391E+04  0.12019946220E+04 0.  0.
        1    1    3    3  502    0  0.60555273082E+02  0.29981035270E+03 -0.82199884458E+03  0.87706059609E+03  0.50400001928E-02 0.  1.
       -1    1    3    3    0  502 -0.60555273082E+02 -0.29981035270E+03  0.30450662767E+03  0.43159874305E+03  0.50400001928E-02 0. -1.
</event>
<event>
 5   0  0.3648616E-03  0.1159983E+04  0.7818609E-02  0.9148623E-01
        1   -1    0    0  501    0  0.00000000000E+00  0.00000000000E+00  0.15574393333E+04  0.15574393333E+04  0.50400001928E-02 0.  1.
       -1   -1    0    0    0  501  0.00000000000E+00  0.00000000000E+00 -0.21598914766E+03  0.21598914772E+03  0.50400001928E-02 0. -1.
    10030    2    1    2    0    0  0.00000000000E+00  0.00000000000E+00  0.13414501856E+04  0.17734284810E+04  0.11599827485E+04 0.  0.
        2    1    3    3  502    0  0.47055628533E+03  0.15843605590E+03  0.11290325640E+04  0.12333854758E+04  0.25500000920E-02 0.  1.
       -2    1    3    3    0  502 -0.47055628533E+03 -0.15843605590E+03  0.21241762167E+03  0.54004300521E+03  0.25500000920E-02 0. -1.
</event>
<event>
 5   0  0.3731281E-03  0.1086825E+04  0.7818609E-02  0.9218129E-01
        1   -1    0    0  501    0  0.00000000000E+00  0.00000000000E+00  0.84991494852E+03  0.84991494853E+03  0.50400001928E-02 0.  1.
       -1   -1    0    0    0  501  0.00000000000E+00  0.00000000000E+00 -0.34744316589E+03  0.34744316593E+03  0.50400001928E-02 0. -1.
    10030    2    1    2    0    0  0.00000000000E+00  0.00000000000E+00  0.50247178263E+03  0.11973581145E+04  0.10868249914E+04 0.  0.
        5    1    3    3  502    0  0.17169921104E+03 -0.38180444421E+03 -0.13043662724E+03  0.43851004141E+03  0.46999998093E+01 0. -1.
       -5    1    3    3    0  502 -0.17169921104E+03  0.38180444421E+03  0.63290840987E+03  0.75884807305E+03  0.46999998093E+01 0.  1.
</event>
<event>
 5   0  0.3772254E-03  0.1223367E+04  0.7818609E-02  0.9092645E-01
       -1   -1    0    0    0  501  0.00000000000E+00  0.00000000000E+00  0.10491759112E+04  0.10491759112E+04  0.50400001928E-02 0. -1.
        1   -1    0    0  501    0  0.00000000000E+00  0.00000000000E+00 -0.35661984634E+03  0.35661984638E+03  0.50400001928E-02 0.  1.
    10030    2    1    2    0    0  0.00000000000E+00  0.00000000000E+00  0.69255606483E+03  0.14057957576E+04  0.12233674056E+04 0.  0.
        3    1    3    3  502    0  0.20860722087E+02 -0.19189859529E+03 -0.32070333606E+03  0.37431387973E+03  0.10100000352E+00 0.  1.
       -3    1    3    3    0  502 -0.20860722087E+02  0.19189859529E+03  0.10132594009E+04  0.10314818778E+04  0.10100000352E+00 0. -1.
</event>
<event>
 5   0  0.3772254E-03  0.1230301E+04  0.7818609E-02  0.9086740E-01
        1   -1    0    0  501    0  0.00000000000E+00  0.00000000000E+00  0.36763254791E+03  0.36763254794E+03  0.50400001928E-02 0. -1.
       -1   -1    0    0    0  501  0.00000000000E+00  0.00000000000E+00 -0.10293165355E+04  0.10293165355E+04  0.50400001928E-02 0.  1.
    10030    2    1    2    0    0  0.00000000000E+00  0.00000000000E+00 -0.66168398758E+03  0.13969490834E+04  0.12303011998E+04 0.  0.
        3    1    3    3  502    0 -0.37282081852E+03 -0.45866942883E+03 -0.13735720983E+03  0.60682783469E+03  0.10100000352E+00 0. -1.
       -3    1    3    3    0  502  0.37282081852E+03  0.45866942883E+03 -0.52432677775E+03  0.79012124875E+03  0.10100000352E+00 0.  1.
</event>
<event>
 5   0  0.3731281E-03  0.1201626E+04  0.7818609E-02  0.9111435E-01
        1   -1    0    0  501    0  0.00000000000E+00  0.00000000000E+00  0.11137808969E+04  0.11137808969E+04  0.50400001928E-02 0.  1.
       -1   -1    0    0    0  501  0.00000000000E+00  0.00000000000E+00 -0.32409973255E+03  0.32409973259E+03  0.50400001928E-02 0. -1.
    10030    2    1    2    0    0  0.00000000000E+00  0.00000000000E+00  0.78968116433E+03  0.14378806295E+04  0.12016257168E+04 0.  0.
        5    1    3    3  502    0  0.48871904289E+03  0.30228203290E+03  0.60461764877E+03  0.83414945993E+03  0.46999998093E+01 0.  1.
       -5    1    3    3    0  502 -0.48871904289E+03 -0.30228203290E+03  0.18506351556E+03  0.60373116955E+03  0.46999998093E+01 0. -1.
</event>
<event>
 5   0  0.3944074E-03  0.1161734E+04  0.7818609E-02  0.9147026E-01
        1   -1    0    0  501    0  0.00000000000E+00  0.00000000000E+00  0.18225248360E+04  0.18225248360E+04  0.50400001928E-02 0.  1.
       -1   -1    0    0    0  501  0.00000000000E+00  0.00000000000E+00 -0.18513138026E+03  0.18513138033E+03  0.50400001928E-02 0. -1.
    10030    2    1    2    0    0  0.00000000000E+00  0.00000000000E+00  0.16373934557E+04  0.20076562163E+04  0.11617341151E+04 0.  0.
        4    1    3    3  502    0  0.37781277100E+03 -0.31393468691E+03  0.13544454301E+04  0.14407711524E+04  0.12699999809E+01 0. -1.
       -4    1    3    3    0  502 -0.37781277100E+03  0.31393468691E+03  0.28294802560E+03  0.56688506390E+03  0.12699999809E+01 0.  1.
</event>
<event>
 5   0  0.3772254E-03  0.1204446E+04  0.7818609E-02  0.9108974E-01
        1   -1    0    0  501    0  0.00000000000E+00  0.00000000000E+00  0.25276125482E+03  0.25276125487E+03  0.50400001928E-02 0.  1.
       -1   -1    0    0    0  501  0.00000000000E+00  0.00000000000E+00 -0.14348425378E+04  0.14348425378E+04  0.50400001928E-02 0. -1.
    10030    2    1    2    0    0  0.00000000000E+00  0.00000000000E+00 -0.11820812830E+04  0.16876037927E+04  0.12044460974E+04 0.  0.
        3    1    3    3  502    0  0.22312925182E+03 -0.17552920239E+03 -0.13351996620E+04  0.13650477323E+04  0.10100000352E+00 0. -1.
       -3    1    3    3    0  502 -0.22312925182E+03  0.17552920239E+03  0.15311837898E+03  0.32255606039E+03  0.10100000352E+00 0.  1.
</event>
<event>
 5   0  0.6658994E-03  0.1128174E+04  0.7818609E-02  0.9178158E-01
        2   -1    0    0  501    0  0.00000000000E+00  0.00000000000E+00  0.32896676975E+03  0.32896676976E+03  0.25500000920E-02 0.  1.
       -2   -1    0    0    0  501  0.00000000000E+00  0.00000000000E+00 -0.96725357953E+03  0.96725357953E+03  0.25500000920E-02 0. -1.
    10030    2    1    2    0    0  0.00000000000E+00  0.00000000000E+00 -0.63828680977E+03  0.12962203493E+04  0.11281742518E+04 0.  0.
        4    1    3    3  502    0  0.45590375608E+03  0.32679651338E+03 -0.38758555312E+03  0.68181256211E+03  0.12699999809E+01 0.  1.
       -4    1    3    3    0  502 -0.45590375608E+03 -0.32679651338E+03 -0.25070125666E+03  0.61440778719E+03  0.12699999809E+01 0. -1.
</event>
<event>
 5   0  0.3772254E-03  0.1135519E+04  0.7818609E-02  0.9171248E-01
       -1   -1    0    0    0  501  0.00000000000E+00  0.00000000000E+00  0.13583418967E+04  0.13583418967E+04  0.50400001928E-02 0. -1.
        1   -1    0    0  501    0  0.00000000000E+00  0.00000000000E+00 -0.23731190718E+03  0.23731190724E+03  0.50400001928E-02 0.  1.
    10030    2    1    2    0    0  0.00000000000E+00  0.00000000000E+00  0.11210299895E+04  0.15956538039E+04  0.11355187469E+04 0.  0.
        3    1    3    3  502    0 -0.16036129888E+03 -0.76770983293E+02 -0.19718559815E+03  0.26550273139E+03  0.10100000352E+00 0.  1.
       -3    1    3    3    0  502  0.16036129888E+03  0.76770983293E+02  0.13182155876E+04  0.13301510725E+04  0.10100000352E+00 0. -1.
</event>
<event>
 5   0  0.6493047E-03  0.1236080E+04  0.7818609E-02  0.9081849E-01
        2   -1    0    0  501    0  0.00000000000E+00  0.00000000000E+00  0.15584810187E+04  0.15584810187E+04  0.25500000920E-02 0.  1.
       -2   -1    0    0    0  501  0.00000000000E+00  0.00000000000E+00 -0.24509346835E+03  0.24509346836E+03  0.25500000920E-02 0. -1.
    10030    2    1    2    0    0  0.00000000000E+00  0.00000000000E+00  0.13133875504E+04  0.18035744871E+04  0.12360801240E+04 0.  0.
        3    1    3    3  502    0 -0.15100550936E+03  0.54729582389E+03  0.10130213663E+04  0.11612698573E+04  0.10100000352E+00 0. -1.
       -3    1    3    3    0  502  0.15100550936E+03 -0.54729582389E+03  0.30036618410E+03  0.64230462980E+03  0.10100000352E+00 0.  1.
</event>
<event>
 5   0  0.6493047E-03  0.1318318E+04  0.7818609E-02  0.9015163E-01
       -2   -1    0    0    0  501  0.00000000000E+00  0.00000000000E+00  0.48991313466E+03  0.48991313467E+03  0.25500000920E-02 0.  1.
        2   -1    0    0  501    0  0.00000000000E+00  0.00000000000E+00 -0.88687310771E+03  0.88687310771E+03  0.25500000920E-02 0. -1.
    10030    2    1    2    0    0  0.00000000000E+00  0.00000000000E+00 -0.39695997304E+03  0.13767862424E+04  0.13183182988E+04 0.  0.
        3    1    3    3  502    0 -0.32165285012E+03  0.47095115378E+03 -0.54364565985E+03  0.78791253253E+03  0.10100000352E+00 0.  1.
       -3    1    3    3    0  502  0.32165285012E+03 -0.47095115378E+03  0.14668568681E+03  0.58887370985E+03  0.10100000352E+00 0. -1.
</event>
<event>
 5   0  0.2537625E-03  0.1176241E+04  0.7818609E-02  0.9133911E-01
       -4   -1    0    0    0  501  0.00000000000E+00  0.00000000000E+00  0.15148804117E+04  0.15148809441E+04  0.12699999809E+01 0. -1.
        4   -1    0    0  501    0  0.00000000000E+00  0.00000000000E+00 -0.22832296301E+03  0.22832649505E+03  0.12699999809E+01 0.  1.
    10030    2    1    2    0    0  0.00000000000E+00  0.00000000000E+00  0.12865574487E+04  0.17432074391E+04  0.11762406671E+04 0.  0.
        2    1    3    3  502    0  0.53245771156E+03 -0.11677406084E+03  0.97045915139E+03  0.11130760802E+04  0.25500000920E-02 0.  1.
       -2    1    3    3    0  502 -0.53245771156E+03  0.11677406084E+03  0.31609829734E+03  0.63013135890E+03  0.25500000920E-02 0. -1.
</event>
<event>
 5   0  0.6640844E-03  0.1181290E+04  0.7818609E-02  0.9129393E-01
       -2   -1    0    0    0  501  0.00000000000E+00  0.00000000000E+00  0.27751841187E+03  0.27751841188E+03  0.25500000920E-02 0.  1.
        2   -1    0    0  501    0  0.00000000000E+00  0.00000000000E+00 -0.12570745510E+04  0.12570745510E+04  0.25500000920E-02 0. -1.
    10030    2    1    2    0    0  0.00000000000E+00  0.00000000000E+00 -0.97955613918E+03  0.15345929629E+04  0.11812896902E+04 0.  0.
        5    1    3    3  502    0 -0.85695860987E+02  0.54344653351E+03 -0.76888841504E+03  0.94545724396E+03  0.46999998093E+01 0. -1.
       -5    1    3    3    0  502  0.85695860987E+02 -0.54344653351E+03 -0.21066772414E+03  0.58913571897E+03  0.46999998093E+01 0.  1.
</event>
<event>
 5   0  0.3731281E-03  0.1263924E+04  0.7818609E-02  0.9058674E-01
        1   -1    0    0  501    0  0.00000000000E+00  0.00000000000E+00  0.10024916585E+04  0.10024916585E+04  0.50400001928E-02 0. -1.
       -1   -1    0    0    0  501  0.00000000000E+00  0.00000000000E+00 -0.39838306889E+03  0.39838306892E+03  0.50400001928E-02 0.  1.
    10030    2    1    2    0    0  0.00000000000E+00  0.00000000000E+00  0.60410858963E+03  0.14008747274E+04  0.12639235792E+04 0.  0.
        5    1    3    3  502    0  0.27282443589E+03  0.47044008988E+03 -0.54702387824E+02  0.54659079046E+03  0.46999998093E+01 0. -1.
       -5    1    3    3    0  502 -0.27282443589E+03 -0.47044008988E+03  0.65881097745E+03  0.85428393699E+03  0.46999998093E+01 0.  1.
</event>
<event>
 5   0  0.3648616E-03  0.1255233E+04  0.7818609E-02  0.9065839E-01
       -1   -1    0    0    0  501  0.00000000000E+00  0.00000000000E+00  0.32258529216E+03  0.32258529220E+03  0.50400001928E-02 0.  1.
        1   -1    0    0  501    0  0.00000000000E+00  0.00000000000E+00 -0.12210798607E+04  0.12210798607E+04  0.50400001928E-02 0. -1.
    10030    2    1    2    0    0  0.00000000000E+00  0.00000000000E+00 -0.89849456852E+03  0.15436651529E+04  0.12552328926E+04 0.  0.
        2    1    3    3  502    0 -0.16513797296E+03 -0.60549094542E+03 -0.45360713155E+03  0.77437023761E+03  0.25500000920E-02 0. -1.
       -2    1    3    3    0  502  0.16513797296E+03  0.60549094542E+03 -0.44488743697E+03  0.76929491529E+03  0.25500000920E-02 0.  1.
</event>
<event>
 5   0  0.6640844E-03  0.1233444E+04  0.7818609E-02  0.9084076E-01
       -2   -1    0    0    0  501  0.00000000000E+00  0.00000000000E+00  0.25612292940E+03  0.25612292941E+03  0.25500000920E-02 0.  1.
        2   -1    0    0  501    0  0.00000000000E+00  0.00000000000E+00 -0.14850136629E+04  0.14850136629E+04  0.25500000920E-02 0. -1.
    10030    2    1    2    0    0  0.00000000000E+00  0.00000000000E+00 -0.12288907335E+04  0.17411365923E+04  0.12334440394E+04 0.  0.
        5    1    3    3  502    0 -0.28146048489E+02  0.32461378302E+03  0.12467229095E+03  0.34890052780E+03  0.46999998093E+01 0.  1.
       -5    1    3    3    0  502  0.28146048489E+02 -0.32461378302E+03 -0.13535630245E+04  0.13922360645E+04  0.46999998093E+01 0. -1.
</event>
<event>
 5   0  0.6349142E-03  0.1253022E+04  0.7818609E-02  0.9067671E-01
       -2   -1    0    0    0  501  0.00000000000E+00  0.00000000000E+00  0.30349245394E+03  0.30349245395E+03  0.25500000920E-02 0.  1.
        2   -1    0    0  501    0  0.00000000000E+00  0.00000000000E+00 -0.12933313730E+04  0.12933313730E+04  0.25500000920E-02 0. -1.
    10030    2    1    2    0    0  0.00000000000E+00  0.00000000000E+00 -0.98983891909E+03  0.15968238270E+04  0.12530224454E+04 0.  0.
        1    1    3    3  502    0  0.34391453031E+03 -0.52360168760E+03 -0.50634493123E+03  0.80549433320E+03  0.50400001928E-02 0.  1.
       -1    1    3    3    0  502 -0.34391453031E+03  0.52360168760E+03 -0.48349398786E+03  0.79132949379E+03  0.50400001928E-02 0. -1.
</event>
<event>
 5   0  0.3648616E-03  0.1283982E+04  0.7818609E-02  0.9042365E-01
       -1   -1    0    0    0  501  0.00000000000E+00  0.00000000000E+00  0.25900600957E+03  0.25900600962E+03  0.50400001928E-02 0.  1.
        1   -1    0    0  501    0  0.00000000000E+00  0.00000000000E+00 -0.15912862544E+04  0.15912862544E+04  0.50400001928E-02 0. -1.
    10030    2    1    2    0    0  0.00000000000E+00  0.00000000000E+00 -0.13322802448E+04  0.18502922640E+04  0.12839824031E+04 0.  0.
        2    1    3    3  502    0  0.54581272098E+03 -0.24208774550E+03 -0.10060424483E+04  0.11698886318E+04  0.25500000920E-02 0. -1.
       -2    1    3    3    0  502 -0.54581272098E+03  0.24208774550E+03 -0.32623779647E+03  0.68040363223E+03  0.25500000920E-02 0.  1.
</event>
<event>
 5   0  0.6349142E-03  0.1227288E+04  0.7818609E-02  0.9089301E-01
       -2   -1    0    0    0  501  0.00000000000E+00  0.00000000000E+00  0.42994659600E+03  0.42994659600E+03  0.25500000920E-02 0.  1.
        2   -1    0    0  501    0  0.00000000000E+00  0.00000000000E+00 -0.87582692351E+03  0.87582692351E+03  0.25500000920E-02 0. -1.
    10030    2    1    2    0    0  0.00000000000E+00  0.00000000000E+00 -0.44588032751E+03  0.13057735195E+04  0.12272877486E+04 0.  0.
        1    1    3    3  502    0  0.25946410656E+03 -0.43381061061E+03 -0.59310558504E+03  0.77928653492E+03  0.50400001928E-02 0. -1.
       -1    1    3    3    0  502 -0.25946410656E+03  0.43381061061E+03  0.14722525753E+03  0.52648698460E+03  0.50400001928E-02 0.  1.
</event>
<event>
 5   0  0.3944074E-03  0.1160353E+04  0.7818609E-02  0.9148285E-01
        1   -1    0    0  501    0  0.00000000000E+00  0.00000000000E+00  0.45345315328E+03  0.45345315331E+03  0.50400001928E-02 0. -1.
       -1   -1    0    0    0  501  0.00000000000E+00  0.00000000000E+00 -0.74231478573E+03  0.74231478575E+03  0.50400001928E-02 0.  1.
    10030    2    1    2    0    0  0.00000000000E+00  0.00000000000E+00 -0.28886163245E+03  0.11957679391E+04  0.11603533606E+04 0.  0.
        4    1    3    3  502    0  0.35900306950E+02  0.21879318781E+03 -0.69693213901E+03  0.73135170086E+03  0.12699999809E+01 0.  1.
       -4    1    3    3    0  502 -0.35900306950E+02 -0.21879318781E+03  0.40807050656E+03  0.46441623819E+03  0.12699999809E+01 0. -1.
</event>
<event>
 5   0  0.2537625E-03  0.1206036E+04  0.7818609E-02  0.9107590E-01
       -3   -1    0    0    0  501  0.00000000000E+00  0.00000000000E+00  0.43863685331E+03  0.43863686494E+03  0.10100000352E+00 0. -1.
        3   -1    0    0  501    0  0.00000000000E+00  0.00000000000E+00 -0.82900130945E+03  0.82900131560E+03  0.10100000352E+00 0.  1.
    10030    2    1    2    0    0  0.00000000000E+00  0.00000000000E+00 -0.39036445614E+03  0.12676381805E+04  0.12060357160E+04 0.  0.
        3    1    3    3  502    0  0.54659985975E+03  0.21750219987E+03 -0.55931532406E+02  0.59093735721E+03  0.10100000352E+00 0.  1.
       -3    1    3    3    0  502 -0.54659985975E+03 -0.21750219987E+03 -0.33443292374E+03  0.67670082334E+03  0.10100000352E+00 0. -1.
</event>
<event>
 5   0  0.6493047E-03  0.1194512E+04  0.7818609E-02  0.9117673E-01
       -2   -1    0    0    0  501  0.00000000000E+00  0.00000000000E+00  0.25703214227E+03  0.25703214228E+03  0.25500000920E-02 0. -1.
        2   -1    0    0  501    0  0.00000000000E+00  0.00000000000E+00 -0.13878224666E+04  0.13878224666E+04  0.25500000920E-02 0.  1.
    10030    2    1    2    0    0  0.00000000000E+00  0.00000000000E+00 -0.11307903244E+04  0.16448546089E+04  0.11945124222E+04 0.  0.
        3    1    3    3  502    0 -0.17612760281E+03  0.55915395793E+03 -0.40814522981E+03  0.71432249017E+03  0.10100000352E+00 0. -1.
       -3    1    3    3    0  502  0.17612760281E+03 -0.55915395793E+03 -0.72264509456E+03  0.93053211876E+03  0.10100000352E+00 0.  1.
</event>
<event>
 5   0  0.3944074E-03  0.1180786E+04  0.7818609E-02  0.9129843E-01
        1   -1    0    0  501    0  0.00000000000E+00  0.00000000000E+00  0.89003920573E+03  0.89003920574E+03  0.50400001928E-02 0. -1.
       -1   -1    0    0    0  501  0.00000000000E+00  0.00000000000E+00 -0.39162767668E+03  0.39162767672E+03  0.50400001928E-02 0.  1.
    10030    2    1    2    0    0  0.00000000000E+00  0.00000000000E+00  0.49841152904E+03  0.12816668825E+04  0.11807861556E+04 0.  0.
        4    1    3    3  502    0 -0.13754830265E+03 -0.55099221457E+03  0.42439654712E+03  0.70896121064E+03  0.12699999809E+01 0. -1.
       -4    1    3    3    0  502  0.13754830265E+03  0.55099221457E+03  0.74014981927E+02  0.57270567182E+03  0.12699999809E+01 0.  1.
</event>
<event>
 5   0  0.6493047E-03  0.1224877E+04  0.7818609E-02  0.9091356E-01
       -2   -1    0    0    0  501  0.00000000000E+00  0.00000000000E+00  0.18979953057E+03  0.18979953059E+03  0.25500000920E-02 0.  1.
        2   -1    0    0  501    0  0.00000000000E+00  0.00000000000E+00 -0.19761957093E+04  0.19761957093E+04  0.25500000920E-02 0. -1.
    10030    2    1    2    0    0  0.00000000000E+00  0.00000000000E+00 -0.17863961787E+04  0.21659952399E+04  0.12248771660E+04 0.  0.
        3    1    3    3  502    0 -0.74687997080E+02 -0.43742163692E+03 -0.14679026627E+03  0.46740066092E+03  0.10100000352E+00 0.  1.
       -3    1    3    3    0  502  0.74687997080E+02  0.43742163692E+03 -0.16396059124E+04  0.16985945789E+04  0.10100000352E+00 0. -1.
</event>
<event>
 5   0  0.6658994E-03  0.1185696E+04  0.7818609E-02  0.9125470E-01
       -2   -1    0    0    0  501  0.00000000000E+00  0.00000000000E+00  0.67527636351E+03  0.67527636352E+03  0.25500000920E-02 0.  1.
        2   -1    0    0  501    0  0.00000000000E+00  0.00000000000E+00 -0.52048137077E+03  0.52048137078E+03  0.25500000920E-02 0. -1.
    10030    2    1    2    0    0  0.00000000000E+00  0.00000000000E+00  0.15479499274E+03  0.11957577343E+04  0.11856960274E+04 0.  0.
        4    1    3    3  502    0  0.17787786573E+03  0.14390936980E+03  0.62895420764E+03  0.66927979952E+03  0.12699999809E+01 0.  1.
       -4    1    3    3    0  502 -0.17787786573E+03 -0.14390936980E+03 -0.47415921490E+03  0.52647793478E+03  0.12699999809E+01 0. -1.
</event>
<event>
 5   0  0.6585930E-03  0.1189282E+04  0.7818609E-02  0.9122290E-01
        2   -1    0    0  501    0  0.00000000000E+00  0.00000000000E+00  0.57560117999E+03  0.57560117999E+03  0.25500000920E-02 0.  1.
       -2   -1    0    0    0  501  0.00000000000E+00  0.00000000000E+00 -0.61431066360E+03  0.61431066361E+03  0.25500000920E-02 0. -1.
    10030    2    1    2    0    0  0.00000000000E+00  0.00000000000E+00 -0.38709483618E+02  0.11899118436E+04  0.11892820403E+04 0.  0.
        2    1    3    3  502    0  0.34978833979E+03  0.15323886844E+03 -0.47540738904E+03  0.60979194732E+03  0.25500000920E-02 0. -1.
       -2    1    3    3    0  502 -0.34978833979E+03 -0.15323886844E+03  0.43669790542E+03  0.58011989628E+03  0.25500000920E-02 0.  1.
</event>
<event>
 5   0  0.6585930E-03  0.1210765E+04  0.7818609E-02  0.9103486E-01
       -2   -1    0    0    0  501  0.00000000000E+00  0.00000000000E+00  0.72568579318E+03  0.72568579318E+03  0.25500000920E-02 0.  1.
        2   -1    0    0  501    0  0.00000000000E+00  0.00000000000E+00 -0.50502274276E+03  0.50502274277E+03  0.25500000920E-02 0. -1.
    10030    2    1    2    0    0  0.00000000000E+00  0.00000000000E+00  0.22066305041E+03  0.12307085360E+04  0.12107647660E+04 0.  0.
        2    1    3    3  502    0  0.22683497278E+03  0.41398983815E+03  0.49558132058E+03  0.68442862030E+03  0.25500000920E-02 0.  1.
       -2    1    3    3    0  502 -0.22683497278E+03 -0.41398983815E+03 -0.27491827017E+03  0.54627991565E+03  0.25500000920E-02 0. -1.
</event>
<event>
 5   0  0.3648616E-03  0.1152636E+04  0.7818609E-02  0.9155355E-01
        1   -1    0    0  501    0  0.00000000000E+00  0.00000000000E+00  0.65589759499E+03  0.65589759501E+03  0.50400001928E-02 0. -1.
       -1   -1    0    0    0  501  0.00000000000E+00  0.00000000000E+00 -0.50639397486E+03  0.50639397489E+03  0.50400001928E-02 0.  1.
    10030    2    1    2    0    0  0.00000000000E+00  0.00000000000E+00  0.14950362013E+03  0.11622915699E+04  0.11526362657E+04 0.  0.
        2    1    3    3  502    0  0.26150080483E+03  0.36251236035E+03  0.44159131442E+03  0.62833173668E+03  0.25500000920E-02 0. -1.
       -2    1    3    3    0  502 -0.26150080483E+03 -0.36251236035E+03 -0.29208769429E+03  0.53395983322E+03  0.25500000920E-02 0.  1.
</event>
<event>
 5   0  0.6585930E-03  0.1018089E+04  0.7818609E-02  0.9288925E-01
        2   -1    0    0  501    0  0.00000000000E+00  0.00000000000E+00  0.10380407322E+04  0.10380407322E+04  0.25500000920E-02 0. -1.
       -2   -1    0    0    0  501  0.00000000000E+00  0.00000000000E+00 -0.24963005171E+03  0.24963005172E+03  0.25500000920E-02 0.  1.
    10030    2    1    2    0    0  0.00000000000E+00  0.00000000000E+00  0.78841068051E+03  0.12876707839E+04  0.10180887224E+04 0.  0.
        2    1    3    3  502    0 -0.32630874511E+03 -0.45218216835E+02 -0.96631984455E+02  0.34330718708E+03  0.25500000920E-02 0.  1.
       -2    1    3    3    0  502  0.32630874511E+03  0.45218216835E+02  0.88504266496E+03  0.94436359686E+03  0.25500000920E-02 0. -1.
</event>
<event>
 5   0  0.6640844E-03  0.1230905E+04  0.7818609E-02  0.9086228E-01
        2   -1    0    0  501    0  0.00000000000E+00  0.00000000000E+00  0.17830998134E+04  0.17830998134E+04  0.25500000920E-02 0.  1.
       -2   -1    0    0    0  501  0.00000000000E+00  0.00000000000E+00 -0.21242871304E+03  0.21242871305E+03  0.25500000920E-02 0. -1.
    10030    2    1    2    0    0  0.00000000000E+00  0.00000000000E+00  0.15706711004E+04  0.19955285265E+04  0.12309047057E+04 0.  0.
        5    1    3    3  502    0  0.47625282894E+03  0.36248528723E+03  0.10177213012E+04  0.11806739929E+04  0.46999998093E+01 0.  1.
       -5    1    3    3    0  502 -0.47625282894E+03 -0.36248528723E+03  0.55294979920E+03  0.81485453362E+03  0.46999998093E+01 0. -1.
</event>
<event>
 5   0  0.6640844E-03  0.1210174E+04  0.7818609E-02  0.9103998E-01
       -2   -1    0    0    0  501  0.00000000000E+00  0.00000000000E+00  0.21333388970E+03  0.21333388972E+03  0.25500000920E-02 0. -1.
        2   -1    0    0  501    0  0.00000000000E+00  0.00000000000E+00 -0.17162307036E+04  0.17162307036E+04  0.25500000920E-02 0.  1.
    10030    2    1    2    0    0  0.00000000000E+00  0.00000000000E+00 -0.15028968139E+04  0.19295645933E+04  0.12101738249E+04 0.  0.
        5    1    3    3  502    0  0.13302331779E+03 -0.30516434013E+02 -0.16913394017E+04  0.16968433981E+04  0.46999998093E+01 0.  1.
       -5    1    3    3    0  502 -0.13302331779E+03  0.30516434013E+02  0.18844258781E+03  0.23272119525E+03  0.46999998093E+01 0. -1.
</event>
<event>
 5   0  0.6493047E-03  0.1247011E+04  0.7818609E-02  0.9072674E-01
       -2   -1    0    0    0  501  0.00000000000E+00  0.00000000000E+00  0.40876751521E+03  0.40876751522E+03  0.25500000920E-02 0. -1.
        2   -1    0    0  501    0  0.00000000000E+00  0.00000000000E+00 -0.95105254586E+03  0.95105254586E+03  0.25500000920E-02 0.  1.
    10030    2    1    2    0    0  0.00000000000E+00  0.00000000000E+00 -0.54228503065E+03  0.13598200611E+04  0.12470114450E+04 0.  0.
        3    1    3    3  502    0 -0.91584035044E+02  0.57847530387E+03 -0.37931054483E+02  0.58690722244E+03  0.10100000352E+00 0. -1.
       -3    1    3    3    0  502  0.91584035044E+02 -0.57847530387E+03 -0.50435397616E+03  0.77291283864E+03  0.10100000352E+00 0.  1.
</event>
<event>
 5   0  0.3731281E-03  0.1146118E+04  0.7818609E-02  0.9161372E-01
        1   -1    0    0  501    0  0.00000000000E+00  0.00000000000E+00  0.47680207226E+03  0.47680207229E+03  0.50400001928E-02 0.  1.
       -1   -1    0    0    0  501  0.00000000000E+00  0.00000000000E+00 -0.68874829121E+03  0.68874829123E+03  0.50400001928E-02 0. -1.
    10030    2    1    2    0    0  0.00000000000E+00  0.00000000000E+00 -0.21194621894E+03  0.11655503635E+04  0.11461179914E+04 0.  0.
        5    1    3    3  502    0  0.36882056706E+03 -0.41951720187E+03  0.24066877477E+02  0.55912842705E+03  0.46999998093E+01 0.  1.
       -5    1    3    3    0  502 -0.36882056706E+03  0.41951720187E+03 -0.23601309642E+03  0.60642193647E+03  0.46999998093E+01 0. -1.
</event>
<event>
 5   0  0.3701879E-03  0.1210956E+04  0.7818609E-02  0.9103321E-01
       -1   -1    0    0    0  501  0.00000000000E+00  0.00000000000E+00  0.59927415534E+03  0.59927415536E+03  0.50400001928E-02 0. -1.
        1   -1    0    0  501    0  0.00000000000E+00  0.00000000000E+00 -0.61174557780E+03  0.61174557782E+03  0.50400001928E-02 0.  1.
    10030    2    1    2    0    0  0.00000000000E+00  0.00000000000E+00 -0.12471422454E+02  0.12110197332E+04  0.12109555144E+04 0.  0.
        1    1    3    3  502    0 -0.37418089861E+03  0.47578249237E+03 -0.21169335642E+02  0.60566365726E+03  0.50400001928E-02 0.  1.
       -1    1    3    3    0  502  0.37418089861E+03 -0.47578249237E+03  0.86979131882E+01  0.60535607592E+03  0.50400001928E-02 0. -1.
</event>
<event>
 5   0  0.6493047E-03  0.1171790E+04  0.7818609E-02  0.9137914E-01
        2   -1    0    0  501    0  0.00000000000E+00  0.00000000000E+00  0.27335554452E+03  0.27335554453E+03  0.25500000920E-02 0. -1.
       -2   -1    0    0    0  501  0.00000000000E+00  0.00000000000E+00 -0.12557742374E+04  0.12557742374E+04  0.25500000920E-02 0.  1.
    10030    2    1    2    0    0  0.00000000000E+00  0.00000000000E+00 -0.98241869284E+03  0.15291297819E+04  0.11717898284E+04 0.  0.
        3    1    3    3  502    0 -0.38368169411E+03 -0.23922719047E+03 -0.97743593959E+03  0.10769504711E+04  0.10100000352E+00 0.  1.
       -3    1    3    3    0  502  0.38368169411E+03  0.23922719047E+03 -0.49827532481E+01  0.45217931077E+03  0.10100000352E+00 0. -1.
</event>
<event>
 5   0  0.2537625E-03  0.1014776E+04  0.7818609E-02  0.9292486E-01
        4   -1    0    0  501    0  0.00000000000E+00  0.00000000000E+00  0.59217697332E+03  0.59217833516E+03  0.12699999809E+01 0. -1.
       -4   -1    0    0    0  501  0.00000000000E+00  0.00000000000E+00 -0.43473626300E+03  0.43473811803E+03  0.12699999809E+01 0.  1.
    10030    2    1    2    0    0  0.00000000000E+00  0.00000000000E+00  0.15744071032E+03  0.10269164532E+04  0.10147757509E+04 0.  0.
        1    1    3    3  502    0  0.13345878822E+03 -0.43972235321E+03 -0.13897060952E+03  0.48008314530E+03  0.50400001928E-02 0.  1.
       -1    1    3    3    0  502 -0.13345878822E+03  0.43972235321E+03  0.29641131984E+03  0.54683330789E+03  0.50400001928E-02 0. -1.
</event>
<event>
 5   0  0.6658994E-03  0.1053471E+04  0.7818609E-02  0.9251768E-01
       -2   -1    0    0    0  501  0.00000000000E+00  0.00000000000E+00  0.45871568122E+03  0.45871568123E+03  0.25500000920E-02 0.  1.
        2   -1    0    0  501    0  0.00000000000E+00  0.00000000000E+00 -0.60484154072E+03  0.60484154072E+03  0.25500000920E-02 0. -1.
    10030    2    1    2    0    0  0.00000000000E+00  0.00000000000E+00 -0.14612585950E+03  0.10635572220E+04  0.10534710236E+04 0.  0.
        4    1    3    3  502    0 -0.27436834675E+02 -0.35493284023E+03 -0.46500480955E+03  0.58562888144E+03  0.12699999809E+01 0. -1.
       -4    1    3    3    0  502  0.27436834675E+02  0.35493284023E+03  0.31887895006E+03  0.47792834051E+03  0.12699999809E+01 0.  1.
</event>
<event>
 5   0  0.2537625E-03  0.1170757E+04  0.7818609E-02  0.9138845E-01
       -3   -1    0    0    0  501  0.00000000000E+00  0.00000000000E+00  0.92138759137E+03  0.92138759690E+03  0.10100000352E+00 0. -1.
        3   -1    0    0  501    0  0.00000000000E+00  0.00000000000E+00 -0.37190433279E+03  0.37190434650E+03  0.10100000352E+00 0.  1.
    10030    2    1    2    0    0  0.00000000000E+00  0.00000000000E+00  0.54948325858E+03  0.12932919434E+04  0.11707571052E+04 0.  0.
        1    1    3    3  502    0 -0.58084443348E+03  0.61812964073E+02  0.31705110386E+03  0.66462207375E+03  0.50400001928E-02 0. -1.
       -1    1    3    3    0  502  0.58084443348E+03 -0.61812964073E+02  0.23243215472E+03  0.62866986965E+03  0.50400001928E-02 0.  1.
</event>
<event>
 5   0  0.3944074E-03  0.1116554E+04  0.7818609E-02  0.9189206E-01
       -1   -1    0    0    0  501  0.00000000000E+00  0.00000000000E+00  0.47544242696E+03  0.47544242698E+03  0.50400001928E-02 0.  1.
        1   -1    0    0  501    0  0.00000000000E+00  0.00000000000E+00 -0.65554310882E+03  0.65554310884E+03  0.50400001928E-02 0. -1.
    10030    2    1    2    0    0  0.00000000000E+00  0.00000000000E+00 -0.18010068186E+03  0.11309855358E+04  0.11165536380E+04 0.  0.
        4    1    3    3  502    0  0.35062141226E+03 -0.37287562278E+03  0.13576567044E+03  0.52953331809E+03  0.12699999809E+01 0.  1.
       -4    1    3    3    0  502 -0.35062141226E+03  0.37287562278E+03 -0.31586635230E+03  0.60145221773E+03  0.12699999809E+01 0. -1.
</event>
<event>
 5   0  0.6658994E-03  0.1179581E+04  0.7818609E-02  0.9130919E-01
        2   -1    0    0  501    0  0.00000000000E+00  0.00000000000E+00  0.66728308106E+03  0.66728308106E+03  0.25500000920E-02 0. -1.
       -2   -1    0    0    0  501  0.00000000000E+00  0.00000000000E+00 -0.52129756917E+03  0.52129756918E+03  0.25500000920E-02 0.  1.
    10030    2    1    2    0    0  0.00000000000E+00  0.00000000000E+00  0.14598551189E+03  0.11885806502E+04  0.11795813632E+04 0.  0.
        4    1    3    3  502    0  0.42582011557E+03 -0.17830496502E+03  0.44285720095E+03  0.63971833232E+03  0.12699999809E+01 0. -1.
       -4    1    3    3    0  502 -0.42582011557E+03  0.17830496502E+03 -0.29687168906E+03  0.54886231792E+03  0.12699999809E+01 0.  1.
</event>
<event>
 5   0  0.6349142E-03  0.1051060E+04  0.7818609E-02  0.9254251E-01
        2   -1    0    0  501    0  0.00000000000E+00  0.00000000000E+00  0.94009511599E+03  0.94009511599E+03  0.25500000920E-02 0.  1.
       -2   -1    0    0    0  501  0.00000000000E+00  0.00000000000E+00 -0.29378046000E+03  0.29378046001E+03  0.25500000920E-02 0. -1.
    10030    2    1    2    0    0  0.00000000000E+00  0.00000000000E+00  0.64631465599E+03  0.12338755760E+04  0.10510596094E+04 0.  0.
        1    1    3    3  502    0  0.48426507250E+02 -0.16042410055E+02  0.93718150388E+03  0.93856894087E+03  0.50400001928E-02 0.  1.
       -1    1    3    3    0  502 -0.48426507250E+02  0.16042410055E+02 -0.29086684789E+03  0.29530663513E+03  0.50400001928E-02 0. -1.
</event>
<event>
 5   0  0.6585930E-03  0.1198369E+04  0.7818609E-02  0.9114285E-01
        2   -1    0    0  501    0  0.00000000000E+00  0.00000000000E+00  0.11420484963E+04  0.11420484963E+04  0.25500000920E-02 0. -1.
       -2   -1    0    0    0  501  0.00000000000E+00  0.00000000000E+00 -0.31436695862E+03  0.31436695863E+03  0.25500000920E-02 0.  1.
    10030    2    1    2    0    0  0.00000000000E+00  0.00000000000E+00  0.82768153769E+03  0.14564154549E+04  0.11983694128E+04 0.  0.
        2    1    3    3  502    0  0.15550798179E+03 -0.46800073935E+03  0.24436024892E+00  0.49316070824E+03  0.25500000920E-02 0.  1.
       -2    1    3    3    0  502 -0.15550798179E+03  0.46800073935E+03  0.82743717744E+03  0.96325474671E+03  0.25500000920E-02 0. -1.
</event>
<event>
 5   0  0.3772254E-03  0.1237687E+04  0.7818609E-02  0.9080494E-01
       -1   -1    0    0    0  501  0.00000000000E+00  0.00000000000E+00  0.21530786410E+03  0.21530786416E+03  0.50400001928E-02 0.  1.
        1   -1    0    0  501    0  0.00000000000E+00  0.00000000000E+00 -0.17786971220E+04  0.17786971220E+04  0.50400001928E-02 0. -1.
    10030    2    1    2    0    0  0.00000000000E+00  0.00000000000E+00 -0.15633892579E+04  0.19940049862E+04  0.12376873245E+04 0.  0.
        3    1    3    3  502    0 -0.45216028758E+03  0.10045138731E+03 -0.14428789121E+04  0.15154005979E+04  0.10100000352E+00 0. -1.
       -3    1    3    3    0  502  0.45216028758E+03 -0.10045138731E+03 -0.12051034586E+03  0.47860438834E+03  0.10100000352E+00 0.  1.
</event>
<event>
 5   0  0.2537625E-03  0.1210172E+04  0.7818609E-02  0.9103999E-01
        3   -1    0    0  501    0  0.00000000000E+00  0.00000000000E+00  0.86805952533E+03  0.86805953121E+03  0.10100000352E+00 0.  1.
       -3   -1    0    0    0  501  0.00000000000E+00  0.00000000000E+00 -0.42177874305E+03  0.42177875515E+03  0.10100000352E+00 0. -1.
    10030    2    1    2    0    0  0.00000000000E+00  0.00000000000E+00  0.44628078228E+03  0.12898382864E+04  0.12101719995E+04 0.  0.
        4    1    3    3  502    0  0.24222548202E+03  0.55178412621E+03  0.16487397732E+03  0.62475911148E+03  0.12699999809E+01 0.  1.
       -4    1    3    3    0  502 -0.24222548202E+03 -0.55178412621E+03  0.28140680496E+03  0.66507917487E+03  0.12699999809E+01 0. -1.
</event>
<event>
 5   0  0.3701879E-03  0.1168263E+04  0.7818609E-02  0.9141098E-01
        1   -1    0    0  501    0  0.00000000000E+00  0.00000000000E+00  0.46481488433E+03  0.46481488436E+03  0.50400001928E-02 0.  1.
       -1   -1    0    0    0  501  0.00000000000E+00  0.00000000000E+00 -0.73407677849E+03  0.73407677851E+03  0.50400001928E-02 0. -1.
    10030    2    1    2    0    0  0.00000000000E+00  0.00000000000E+00 -0.26926189416E+03  0.11988916629E+04  0.11682633486E+04 0.  0.
        1    1    3    3  502    0  0.19222251123E+03 -0.38161502804E+03 -0.54335692957E+03  0.69124255973E+03  0.50400001928E-02 0. -1.
       -1    1    3    3    0  502 -0.19222251123E+03  0.38161502804E+03  0.27409503541E+03  0.50764910313E+03  0.50400001928E-02 0.  1.
</event>
<event>
 5   0  0.3648616E-03  0.1211656E+04  0.7818609E-02  0.9102715E-01
       -1   -1    0    0    0  501  0.00000000000E+00  0.00000000000E+00  0.29271817087E+03  0.29271817091E+03  0.50400001928E-02 0.  1.
        1   -1    0    0  501    0  0.00000000000E+00  0.00000000000E+00 -0.12538598294E+04  0.12538598294E+04  0.50400001928E-02 0. -1.
    10030    2    1    2    0    0  0.00000000000E+00  0.00000000000E+00 -0.96114165852E+03  0.15465780003E+04  0.12116559839E+04 0.  0.
        2    1    3    3  502    0 -0.57049973261E+03 -0.15843171216E+03 -0.31682589342E+03  0.67152751177E+03  0.25500000920E-02 0.  1.
       -2    1    3    3    0  502  0.57049973261E+03  0.15843171216E+03 -0.64431576510E+03  0.87505048853E+03  0.25500000920E-02 0. -1.
</event>
<event>
 5   0  0.6585930E-03  0.1183985E+04  0.7818609E-02  0.9126991E-01
        2   -1    0    0  501    0  0.00000000000E+00  0.00000000000E+00  0.77582543921E+03  0.77582543921E+03  0.25500000920E-02 0. -1.
       -2   -1    0    0    0  501  0.00000000000E+00  0.00000000000E+00 -0.45171940567E+03  0.45171940568E+03  0.25500000920E-02 0.  1.
    10030    2    1    2    0    0  0.00000000000E+00  0.00000000000E+00  0.32410603354E+03  0.12275448449E+04  0.11839854835E+04 0.  0.
        2    1    3    3  502    0  0.34695086892E+03  0.45989086620E+03  0.20726300174E+02  0.57645823247E+03  0.25500000920E-02 0.  1.
       -2    1    3    3    0  502 -0.34695086892E+03 -0.45989086620E+03  0.30337973337E+03  0.65108661242E+03  0.25500000920E-02 0. -1.
</event>
<event>
 5   0  0.6640844E-03  0.1192243E+04  0.7818609E-02  0.9119674E-01
       -2   -1    0    0    0  501  0.00000000000E+00  0.00000000000E+00  0.28984375916E+03  0.28984375917E+03  0.25500000920E-02 0.  1.
        2   -1    0    0  501    0  0.00000000000E+00  0.00000000000E+00 -0.12260420879E+04  0.12260420879E+04  0.25500000920E-02 0. -1.
    10030    2    1    2    0    0  0.00000000000E+00  0.00000000000E+00 -0.93619832875E+03  0.15158858471E+04  0.11922426727E+04 0.  0.
        5    1    3    3  502    0  0.28838717805E+03 -0.37343092864E+03 -0.93130201647E+03  0.10440131028E+04  0.46999998093E+01 0. -1.
       -5    1    3    3    0  502 -0.28838717805E+03  0.37343092864E+03 -0.48963122824E+01  0.47187274429E+03  0.46999998093E+01 0.  1.
</event>
<event>
 5   0  0.3701879E-03  0.1217995E+04  0.7818609E-02  0.9097249E-01
        1   -1    0    0  501    0  0.00000000000E+00  0.00000000000E+00  0.93422180066E+03  0.93422180067E+03  0.50400001928E-02 0.  1.
       -1   -1    0    0    0  501  0.00000000000E+00  0.00000000000E+00 -0.39699158531E+03  0.39699158535E+03  0.50400001928E-02 0. -1.
    10030    2    1    2    0    0  0.00000000000E+00  0.00000000000E+00  0.53723021534E+03  0.13312133860E+04  0.12179953920E+04 0.  0.
        1    1    3    3  502    0 -0.14324925389E+03  0.27312342067E+03 -0.30532794261E+03  0.43398376032E+03  0.50400001928E-02 0. -1.
       -1    1    3    3    0  502  0.14324925389E+03 -0.27312342067E+03  0.84255815796E+03  0.89722962569E+03  0.50400001928E-02 0.  1.
</event>
<event>
 5   0  0.6349142E-03  0.6357025E+03  0.7818609E-02  0.9833983E-01
        2   -1    0    0  501    0  0.00000000000E+00  0.00000000000E+00  0.16087419250E+03  0.16087419252E+03  0.25500000920E-02 0.  1.
       -2   -1    0    0    0  501  0.00000000000E+00  0.00000000000E+00 -0.62800268659E+03  0.62800268659E+03  0.25500000920E-02 0. -1.
    10030    2    1    2    0    0  0.00000000000E+00  0.00000000000E+00 -0.46712849408E+03  0.78887687912E+03  0.63570252510E+03 0.  0.
        1    1    3    3  502    0  0.79558251356E+02 -0.53022841324E+02 -0.60973570809E+03  0.61718600990E+03  0.50400001928E-02 0. -1.
       -1    1    3    3    0  502 -0.79558251356E+02  0.53022841324E+02  0.14260721401E+03  0.17169086922E+03  0.50400001928E-02 0.  1.
</event>
<event>
 5   0  0.3944074E-03  0.1195349E+04  0.7818609E-02  0.9116937E-01
        1   -1    0    0  501    0  0.00000000000E+00  0.00000000000E+00  0.36060380061E+03  0.36060380064E+03  0.50400001928E-02 0.  1.
       -1   -1    0    0    0  501  0.00000000000E+00  0.00000000000E+00 -0.99060164272E+03  0.99060164274E+03  0.50400001928E-02 0. -1.
    10030    2    1    2    0    0  0.00000000000E+00  0.00000000000E+00 -0.62999784212E+03  0.13512054434E+04  0.11953488483E+04 0.  0.
        4    1    3    3  502    0 -0.41053135229E+03  0.26941305361E+03 -0.70014996729E+03  0.85517891360E+03  0.12699999809E+01 0. -1.
       -4    1    3    3    0  502  0.41053135229E+03 -0.26941305361E+03  0.70152125179E+02  0.49602652977E+03  0.12699999809E+01 0.  1.
</event>
<event>
 5   0  0.6640844E-03  0.1218087E+04  0.7818609E-02  0.9097170E-01
       -2   -1    0    0    0  501  0.00000000000E+00  0.00000000000E+00  0.28275344927E+03  0.28275344928E+03  0.25500000920E-02 0.  1.
        2   -1    0    0  501    0  0.00000000000E+00  0.00000000000E+00 -0.13118647177E+04  0.13118647177E+04  0.25500000920E-02 0. -1.
    10030    2    1    2    0    0  0.00000000000E+00  0.00000000000E+00 -0.10291112685E+04  0.15946181670E+04  0.12180874746E+04 0.  0.
        5    1    3    3  502    0 -0.28304266976E+03 -0.68176593322E+02  0.18573102244E+03  0.34536835912E+03  0.46999998093E+01 0.  1.
       -5    1    3    3    0  502  0.28304266976E+03  0.68176593322E+02 -0.12148422909E+04  0.12492498079E+04  0.46999998093E+01 0. -1.
</event>
<event>
 5   0  0.6349142E-03  0.1147166E+04  0.7818609E-02  0.9160402E-01
        2   -1    0    0  501    0  0.00000000000E+00  0.00000000000E+00  0.95761574231E+03  0.95761574231E+03  0.25500000920E-02 0. -1.
       -2   -1    0    0    0  501  0.00000000000E+00  0.00000000000E+00 -0.34355893222E+03  0.34355893223E+03  0.25500000920E-02 0.  1.
    10030    2    1    2    0    0  0.00000000000E+00  0.00000000000E+00  0.61405681008E+03  0.13011746745E+04  0.11471659721E+04 0.  0.
        1    1    3    3  502    0 -0.26392329076E+03 -0.46848750291E+03  0.53348533174E+03  0.75745801401E+03  0.50400001928E-02 0. -1.
       -1    1    3    3    0  502  0.26392329076E+03  0.46848750291E+03  0.80571478345E+02  0.54371666053E+03  0.50400001928E-02 0.  1.
</event>
<event>
 5   0  0.6640844E-03  0.1198187E+04  0.7818609E-02  0.9114445E-01
        2   -1    0    0  501    0  0.00000000000E+00  0.00000000000E+00  0.54481067790E+03  0.54481067790E+03  0.25500000920E-02 0.  1.
       -2   -1    0    0    0  501  0.00000000000E+00  0.00000000000E+00 -0.65878483580E+03  0.65878483580E+03  0.25500000920E-02 0. -1.
    10030    2    1    2    0    0  0.00000000000E+00  0.00000000000E+00 -0.11397415790E+03  0.12035955137E+04  0.11981869854E+04 0.  0.
        5    1    3    3  502    0  0.16081697930E+03 -0.41657113653E+02 -0.63516622644E+03  0.65654827786E+03  0.46999998093E+01 0. -1.
       -5    1    3    3    0  502 -0.16081697930E+03  0.41657113653E+02  0.52119206853E+03  0.54704723585E+03  0.46999998093E+01 0.  1.
</event>
<event>
 5   0  0.6640844E-03  0.1188422E+04  0.7818609E-02  0.9123052E-01
       -2   -1    0    0    0  501  0.00000000000E+00  0.00000000000E+00  0.66002125371E+03  0.66002125372E+03  0.25500000920E-02 0. -1.
        2   -1    0    0  501    0  0.00000000000E+00  0.00000000000E+00 -0.53496240584E+03  0.53496240585E+03  0.25500000920E-02 0.  1.
    10030    2    1    2    0    0  0.00000000000E+00  0.00000000000E+00  0.12505884787E+03  0.11949836596E+04  0.11884217396E+04 0.  0.
        5    1    3    3  502    0 -0.36812155552E+03 -0.51941138656E+02  0.52861128078E+03  0.64626878130E+03  0.46999998093E+01 0. -1.
       -5    1    3    3    0  502  0.36812155552E+03  0.51941138656E+02 -0.40355243291E+03  0.54871487826E+03  0.46999998093E+01 0.  1.
</event>
<event>
 5   0  0.2537625E-03  0.7382068E+03  0.7818609E-02  0.9654036E-01
       -4   -1    0    0    0  501  0.00000000000E+00  0.00000000000E+00  0.57641037191E+03  0.57641177100E+03  0.12699999809E+01 0. -1.
        4   -1    0    0  501    0  0.00000000000E+00  0.00000000000E+00 -0.23635133077E+03  0.23635474283E+03  0.12699999809E+01 0.  1.
    10030    2    1    2    0    0  0.00000000000E+00  0.00000000000E+00  0.34005904114E+03  0.81276651383E+03  0.73820678305E+03 0.  0.
        2    1    3    3  502    0 -0.12455348956E+03 -0.22190893326E+03  0.46439071110E+03  0.52954308510E+03  0.25500000920E-02 0. -1.
       -2    1    3    3    0  502  0.12455348956E+03  0.22190893326E+03 -0.12433166996E+03  0.28322342873E+03  0.25500000920E-02 0.  1.
</event>
<event>
 5   0  0.6349142E-03  0.1233140E+04  0.7818609E-02  0.9084334E-01
        2   -1    0    0  501    0  0.00000000000E+00  0.00000000000E+00  0.10831675502E+04  0.10831675502E+04  0.25500000920E-02 0.  1.
       -2   -1    0    0    0  501  0.00000000000E+00  0.00000000000E+00 -0.35096941915E+03  0.35096941916E+03  0.25500000920E-02 0. -1.
    10030    2    1    2    0    0  0.00000000000E+00  0.00000000000E+00  0.73219813104E+03  0.14341369693E+04  0.12331401963E+04 0.  0.
        1    1    3    3  502    0 -0.47258316130E+03 -0.36467287812E+03  0.18653938039E+03  0.62539434986E+03  0.50400001928E-02 0. -1.
       -1    1    3    3    0  502  0.47258316130E+03  0.36467287812E+03  0.54565875065E+03  0.80874261948E+03  0.50400001928E-02 0.  1.
</event>
<event>
 5   0  0.3648616E-03  0.1156952E+04  0.7818609E-02  0.9151394E-01
        1   -1    0    0  501    0  0.00000000000E+00  0.00000000000E+00  0.15394861269E+04  0.15394861269E+04  0.50400001928E-02 0.  1.
       -1   -1    0    0    0  501  0.00000000000E+00  0.00000000000E+00 -0.21736752942E+03  0.21736752948E+03  0.50400001928E-02 0. -1.
    10030    2    1    2    0    0  0.00000000000E+00  0.00000000000E+00  0.13221185975E+04  0.17568536564E+04  0.11569516775E+04 0.  0.
        2    1    3    3  502    0  0.18768697642E+03 -0.38548653769E+02  0.14899009713E+04  0.15021708639E+04  0.25500000920E-02 0.  1.
       -2    1    3    3    0  502 -0.18768697642E+03  0.38548653769E+02 -0.16778237386E+03  0.25468279253E+03  0.25500000920E-02 0. -1.
</event>
<event>
 5   0  0.6658994E-03  0.1210858E+04  0.7818609E-02  0.9103405E-01
        2   -1    0    0  501    0  0.00000000000E+00  0.00000000000E+00  0.52425466663E+03  0.52425466663E+03  0.25500000920E-02 0.  1.
       -2   -1    0    0    0  501  0.00000000000E+00  0.00000000000E+00 -0.69917252495E+03  0.69917252496E+03  0.25500000920E-02 0. -1.
    10030    2    1    2    0    0  0.00000000000E+00  0.00000000000E+00 -0.17491785832E+03  0.12234271916E+04  0.12108583055E+04 0.  0.
        4    1    3    3  502    0 -0.12991212898E+03 -0.52532712510E+03 -0.36174894063E+03  0.65092984152E+03  0.12699999809E+01 0. -1.
       -4    1    3    3    0  502  0.12991212898E+03  0.52532712510E+03  0.18683108231E+03  0.57249735007E+03  0.12699999809E+01 0.  1.
</event>
<event>
 5   0  0.3772254E-03  0.1182519E+04  0.7818609E-02  0.9128296E-01
       -1   -1    0    0    0  501  0.00000000000E+00  0.00000000000E+00  0.48305168081E+03  0.48305168083E+03  0.50400001928E-02 0. -1.
        1   -1    0    0  501    0  0.00000000000E+00  0.00000000000E+00 -0.72370733450E+03  0.72370733452E+03  0.50400001928E-02 0.  1.
    10030    2    1    2    0    0  0.00000000000E+00  0.00000000000E+00 -0.24065565370E+03  0.12067590154E+04  0.11825194195E+04 0.  0.
        3    1    3    3  502    0 -0.18171577091E+03 -0.12425513631E+02 -0.69436424118E+03  0.71785564316E+03  0.10100000352E+00 0.  1.
       -3    1    3    3    0  502  0.18171577091E+03  0.12425513631E+02  0.45370858748E+03  0.48890337219E+03  0.10100000352E+00 0. -1.
</event>
<event>
 5   0  0.6493047E-03  0.1276372E+04  0.7818609E-02  0.9048515E-01
        2   -1    0    0  501    0  0.00000000000E+00  0.00000000000E+00  0.21988310358E+04  0.21988310358E+04  0.25500000920E-02 0.  1.
       -2   -1    0    0    0  501  0.00000000000E+00  0.00000000000E+00 -0.18522633344E+03  0.18522633346E+03  0.25500000920E-02 0. -1.
    10030    2    1    2    0    0  0.00000000000E+00  0.00000000000E+00  0.20136047023E+04  0.23840573692E+04  0.12763720627E+04 0.  0.
        3    1    3    3  502    0  0.60037943042E+02 -0.30204565890E+03 -0.37259882225E+02  0.31020065069E+03  0.10100000352E+00 0. -1.
       -3    1    3    3    0  502 -0.60037943042E+02  0.30204565890E+03  0.20508645845E+04  0.20738567185E+04  0.10100000352E+00 0.  1.
</event>
<event>
 5   0  0.3944074E-03  0.1211294E+04  0.7818609E-02  0.9103028E-01
       -1   -1    0    0    0  501  0.00000000000E+00  0.00000000000E+00  0.24570361897E+03  0.24570361902E+03  0.50400001928E-02 0. -1.
        1   -1    0    0  501    0  0.00000000000E+00  0.00000000000E+00 -0.14928890340E+04  0.14928890340E+04  0.50400001928E-02 0.  1.
    10030    2    1    2    0    0  0.00000000000E+00  0.00000000000E+00 -0.12471854150E+04  0.17385926530E+04  0.12112939171E+04 0.  0.
        4    1    3    3  502    0 -0.22929753736E+03 -0.35567860254E+03 -0.12454716997E+04  0.13154033589E+04  0.12699999809E+01 0.  1.
       -4    1    3    3    0  502  0.22929753736E+03  0.35567860254E+03 -0.17137153153E+01  0.42318929412E+03  0.12699999809E+01 0. -1.
</event>
<event>
 5   0  0.6349142E-03  0.1170467E+04  0.7818609E-02  0.9139107E-01
       -2   -1    0    0    0  501  0.00000000000E+00  0.00000000000E+00  0.25953822521E+03  0.25953822522E+03  0.25500000920E-02 0. -1.
        2   -1    0    0  501    0  0.00000000000E+00  0.00000000000E+00 -0.13196450995E+04  0.13196450996E+04  0.25500000920E-02 0.  1.
    10030    2    1    2    0    0  0.00000000000E+00  0.00000000000E+00 -0.10601068743E+04  0.15791833248E+04  0.11704671667E+04 0.  0.
        1    1    3    3  502    0 -0.14269385875E+03  0.16427001683E+03  0.20293361830E+03  0.29753693757E+03  0.50400001928E-02 0. -1.
       -1    1    3    3    0  502  0.14269385875E+03 -0.16427001683E+03 -0.12630404926E+04  0.12816463872E+04  0.50400001928E-02 0.  1.
</event>
<event>
 5   0  0.3731281E-03  0.1191877E+04  0.7818609E-02  0.9119997E-01
       -1   -1    0    0    0  501  0.00000000000E+00  0.00000000000E+00  0.10121094607E+04  0.10121094607E+04  0.50400001928E-02 0. -1.
        1   -1    0    0  501    0  0.00000000000E+00  0.00000000000E+00 -0.35089346118E+03  0.35089346122E+03  0.50400001928E-02 0.  1.
    10030    2    1    2    0    0  0.00000000000E+00  0.00000000000E+00  0.66121599948E+03  0.13630029219E+04  0.11918768255E+04 0.  0.
        5    1    3    3  502    0 -0.30709078323E+03 -0.51070079077E+03  0.33137933929E+03  0.68187565094E+03  0.46999998093E+01 0.  1.
       -5    1    3    3    0  502  0.30709078323E+03  0.51070079077E+03  0.32983666018E+03  0.68112727095E+03  0.46999998093E+01 0. -1.
</event>
<event>
 5   0  0.3944074E-03  0.1196725E+04  0.7818609E-02  0.9115728E-01
       -1   -1    0    0    0  501  0.00000000000E+00  0.00000000000E+00  0.11868532672E+04  0.11868532672E+04  0.50400001928E-02 0. -1.
        1   -1    0    0  501    0  0.00000000000E+00  0.00000000000E+00 -0.30166970144E+03  0.30166970148E+03  0.50400001928E-02 0.  1.
    10030    2    1    2    0    0  0.00000000000E+00  0.00000000000E+00  0.88518356574E+03  0.14885229687E+04  0.11967249823E+04 0.  0.
        4    1    3    3  502    0  0.22268501835E+03  0.14946036410E+03 -0.22272269359E+03  0.34861731021E+03  0.12699999809E+01 0.  1.
       -4    1    3    3    0  502 -0.22268501835E+03 -0.14946036410E+03  0.11079062593E+04  0.11399056585E+04  0.12699999809E+01 0. -1.
</event>
<event>
 5   0  0.6493047E-03  0.1185708E+04  0.7818609E-02  0.9125459E-01
        2   -1    0    0  501    0  0.00000000000E+00  0.00000000000E+00  0.15077726620E+04  0.15077726620E+04  0.25500000920E-02 0. -1.
       -2   -1    0    0    0  501  0.00000000000E+00  0.00000000000E+00 -0.23310932942E+03  0.23310932944E+03  0.25500000920E-02 0.  1.
    10030    2    1    2    0    0  0.00000000000E+00  0.00000000000E+00  0.12746633326E+04  0.17408819915E+04  0.11857080150E+04 0.  0.
        3    1    3    3  502    0 -0.26489647706E+03  0.45730433127E+02  0.14131508616E+04  0.14384911484E+04  0.10100000352E+00 0. -1.
       -3    1    3    3    0  502  0.26489647706E+03 -0.45730433127E+02 -0.13848752903E+03  0.30239084307E+03  0.10100000352E+00 0.  1.
</event>
<event>
 5   0  0.3731281E-03  0.1195760E+04  0.7818609E-02  0.9116576E-01
        1   -1    0    0  501    0  0.00000000000E+00  0.00000000000E+00  0.16887733391E+04  0.16887733391E+04  0.50400001928E-02 0.  1.
       -1   -1    0    0    0  501  0.00000000000E+00  0.00000000000E+00 -0.21166862470E+03  0.21166862476E+03  0.50400001928E-02 0. -1.
    10030    2    1    2    0    0  0.00000000000E+00  0.00000000000E+00  0.14771047144E+04  0.19004419638E+04  0.11957597253E+04 0.  0.
        5    1    3    3  502    0  0.55683488101E+03  0.10591880951E+03  0.43635473947E+03  0.71534007827E+03  0.46999998093E+01 0. -1.
       -5    1    3    3    0  502 -0.55683488101E+03 -0.10591880951E+03  0.10407499749E+04  0.11851018856E+04  0.46999998093E+01 0.  1.
</event>
<event>
 5   0  0.3772254E-03  0.1182657E+04  0.7818609E-02  0.9128174E-01
       -1   -1    0    0    0  501  0.00000000000E+00  0.00000000000E+00  0.16800459258E+03  0.16800459266E+03  0.50400001928E-02 0. -1.
        1   -1    0    0  501    0  0.00000000000E+00  0.00000000000E+00 -0.20813092015E+04  0.20813092015E+04  0.50400001928E-02 0.  1.
    10030    2    1    2    0    0  0.00000000000E+00  0.00000000000E+00 -0.19133046089E+04  0.22493137942E+04  0.11826571854E+04 0.  0.
        3    1    3    3  502    0 -0.28765472616E+03  0.40786826003E+03 -0.35350900557E+03  0.61161293825E+03  0.10100000352E+00 0. -1.
       -3    1    3    3    0  502  0.28765472616E+03 -0.40786826003E+03 -0.15597956034E+04  0.16377008559E+04  0.10100000352E+00 0.  1.
</event>
<event>
 5   0  0.3648616E-03  0.1187803E+04  0.7818609E-02  0.9123600E-01
       -1   -1    0    0    0  501  0.00000000000E+00  0.00000000000E+00  0.35667750052E+03  0.35667750056E+03  0.50400001928E-02 0. -1.
        1   -1    0    0  501    0  0.00000000000E+00  0.00000000000E+00 -0.98890172096E+03  0.98890172097E+03  0.50400001928E-02 0.  1.
    10030    2    1    2    0    0  0.00000000000E+00  0.00000000000E+00 -0.63222422043E+03  0.13455792215E+04  0.11878030041E+04 0.  0.
        2    1    3    3  502    0  0.59288494776E+03  0.33858490117E+02 -0.32488957058E+03  0.67691372546E+03  0.25500000920E-02 0. -1.
       -2    1    3    3    0  502 -0.59288494776E+03 -0.33858490117E+02 -0.30733464985E+03  0.66866549607E+03  0.25500000920E-02 0.  1.
</event>
<event>
 5   0  0.6585930E-03  0.1203061E+04  0.7818609E-02  0.9110182E-01
        2   -1    0    0  501    0  0.00000000000E+00  0.00000000000E+00  0.91754438590E+03  0.91754438591E+03  0.25500000920E-02 0.  1.
       -2   -1    0    0    0  501  0.00000000000E+00  0.00000000000E+00 -0.39435551130E+03  0.39435551131E+03  0.25500000920E-02 0. -1.
    10030    2    1    2    0    0  0.00000000000E+00  0.00000000000E+00  0.52318887461E+03  0.13118998972E+04  0.12030605728E+04 0.  0.
        2    1    3    3  502    0 -0.19115383252E+03 -0.15569693355E+03 -0.33673150061E+03  0.41733610713E+03  0.25500000920E-02 0. -1.
       -2    1    3    3    0  502  0.19115383252E+03  0.15569693355E+03  0.85992037522E+03  0.89456379008E+03  0.25500000920E-02 0.  1.
</event>
<event>
 5   0  0.3648616E-03  0.1210167E+04  0.7818609E-02  0.9104003E-01
       -1   -1    0    0    0  501  0.00000000000E+00  0.00000000000E+00  0.50600733973E+03  0.50600733975E+03  0.50400001928E-02 0. -1.
        1   -1    0    0  501    0  0.00000000000E+00  0.00000000000E+00 -0.72355897903E+03  0.72355897905E+03  0.50400001928E-02 0.  1.
    10030    2    1    2    0    0  0.00000000000E+00  0.00000000000E+00 -0.21755163930E+03  0.12295663188E+04  0.12101671854E+04 0.  0.
        2    1    3    3  502    0 -0.31779716151E+03 -0.92663018307E+02  0.40584588016E+03  0.52372927097E+03  0.25500000920E-02 0. -1.
       -2    1    3    3    0  502  0.31779716151E+03  0.92663018307E+02 -0.62339751946E+03  0.70583704783E+03  0.25500000920E-02 0.  1.
</event>
<event>
 5   0  0.3648616E-03  0.1132882E+04  0.7818609E-02  0.9173723E-01
        1   -1    0    0  501    0  0.00000000000E+00  0.00000000000E+00  0.35299848133E+03  0.35299848136E+03  0.50400001928E-02 0. -1.
       -1   -1    0    0    0  501  0.00000000000E+00  0.00000000000E+00 -0.90894270065E+03  0.90894270067E+03  0.50400001928E-02 0.  1.
    10030    2    1    2    0    0  0.00000000000E+00  0.00000000000E+00 -0.55594421932E+03  0.12619411820E+04  0.11328819762E+04 0.  0.
        2    1    3    3  502    0 -0.37254036933E+03  0.26161272124E+03  0.97516563778E+02  0.46555023673E+03  0.25500000920E-02 0. -1.
       -2    1    3    3    0  502  0.37254036933E+03 -0.26161272124E+03 -0.65346078310E+03  0.79639094530E+03  0.25500000920E-02 0.  1.
</event>
<event>
 5   0  0.3772254E-03  0.1095180E+04  0.7818609E-02  0.9209903E-01
       -1   -1    0    0    0  501  0.00000000000E+00  0.00000000000E+00  0.37744589756E+03  0.37744589759E+03  0.50400001928E-02 0.  1.
        1   -1    0    0  501    0  0.00000000000E+00  0.00000000000E+00 -0.79443112358E+03  0.79443112359E+03  0.50400001928E-02 0. -1.
    10030    2    1    2    0    0  0.00000000000E+00  0.00000000000E+00 -0.41698522602E+03  0.11718770212E+04  0.10951799277E+04 0.  0.
        3    1    3    3  502    0  0.29195059592E+03  0.31182029395E+03  0.15812040494E+03  0.45548778121E+03  0.10100000352E+00 0.  1.
       -3    1    3    3    0  502 -0.29195059592E+03 -0.31182029395E+03 -0.57510563096E+03  0.71638923997E+03  0.10100000352E+00 0. -1.
</event>
<event>
 5   0  0.6349142E-03  0.1201651E+04  0.7818609E-02  0.9111413E-01
        2   -1    0    0  501    0  0.00000000000E+00  0.00000000000E+00  0.47442493162E+03  0.47442493163E+03  0.25500000920E-02 0.  1.
       -2   -1    0    0    0  501  0.00000000000E+00  0.00000000000E+00 -0.76090271197E+03  0.76090271197E+03  0.25500000920E-02 0. -1.
    10030    2    1    2    0    0  0.00000000000E+00  0.00000000000E+00 -0.28647778035E+03  0.12353276436E+04  0.12016508929E+04 0.  0.
        1    1    3    3  502    0  0.48095397098E+03 -0.26994289139E+03 -0.38825711614E+03  0.67448459958E+03  0.50400001928E-02 0. -1.
       -1    1    3    3    0  502 -0.48095397098E+03  0.26994289139E+03  0.10177933579E+03  0.56084304402E+03  0.50400001928E-02 0.  1.
</event>
<event>
 5   0  0.2537625E-03  0.1189327E+04  0.7818609E-02  0.9122251E-01
       -3   -1    0    0    0  501  0.00000000000E+00  0.00000000000E+00  0.70457074498E+03  0.70457075222E+03  0.10100000352E+00 0. -1.
        3   -1    0    0  501    0  0.00000000000E+00  0.00000000000E+00 -0.50190052909E+03  0.50190053925E+03  0.10100000352E+00 0.  1.
    10030    2    1    2    0    0  0.00000000000E+00  0.00000000000E+00  0.20267021589E+03  0.12064712915E+04  0.11893265997E+04 0.  0.
        5    1    3    3  502    0 -0.52670736511E+03  0.26745379351E+03  0.17051028479E+03  0.61485610295E+03  0.46999998093E+01 0.  1.
       -5    1    3    3    0  502  0.52670736511E+03 -0.26745379351E+03  0.32159931099E+02  0.59161518852E+03  0.46999998093E+01 0. -1.
</event>
<event>
 5   0  0.6658994E-03  0.1136089E+04  0.7818609E-02  0.9170714E-01
        2   -1    0    0  501    0  0.00000000000E+00  0.00000000000E+00  0.12724662688E+04  0.12724662688E+04  0.25500000920E-02 0.  1.
       -2   -1    0    0    0  501  0.00000000000E+00  0.00000000000E+00 -0.25358210501E+03  0.25358210503E+03  0.25500000920E-02 0. -1.
    10030    2    1    2    0    0  0.00000000000E+00  0.00000000000E+00  0.10188841638E+04  0.15260483738E+04  0.11360892131E+04 0.  0.
        4    1    3    3  502    0 -0.66014461498E+02 -0.53025221400E+03  0.76833613671E+03  0.93587785071E+03  0.12699999809E+01 0.  1.
       -4    1    3    3    0  502  0.66014461498E+02  0.53025221400E+03  0.25054802708E+03  0.59017052312E+03  0.12699999809E+01 0. -1.
</event>
<event>
 5   0  0.3701879E-03  0.1154964E+04  0.7818609E-02  0.9153216E-01
        1   -1    0    0  501    0  0.00000000000E+00  0.00000000000E+00  0.30697576199E+04  0.30697576199E+04  0.50400001928E-02 0. -1.
       -1   -1    0    0    0  501  0.00000000000E+00  0.00000000000E+00 -0.10863583159E+03  0.10863583171E+03  0.50400001928E-02 0.  1.
    10030    2    1    2    0    0  0.00000000000E+00  0.00000000000E+00  0.29611217884E+04  0.31783934517E+04  0.11549643666E+04 0.  0.
        1    1    3    3  502    0 -0.36650195332E+03  0.35163481705E+03  0.22367937271E+04  0.22937342705E+04  0.50400001928E-02 0. -1.
       -1    1    3    3    0  502  0.36650195332E+03 -0.35163481705E+03  0.72432806128E+03  0.88465918111E+03  0.50400001928E-02 0.  1.
</event>
<event>
 5   0  0.6349142E-03  0.1235601E+04  0.7818609E-02  0.9082253E-01
       -2   -1    0    0    0  501  0.00000000000E+00  0.00000000000E+00  0.53737603602E+03  0.53737603602E+03  0.25500000920E-02 0.  1.
        2   -1    0    0  501    0  0.00000000000E+00  0.00000000000E+00 -0.71026127202E+03  0.71026127203E+03  0.25500000920E-02 0. -1.
    10030    2    1    2    0    0  0.00000000000E+00  0.00000000000E+00 -0.17288523601E+03  0.12476373080E+04  0.12356008852E+04 0.  0.
        1    1    3    3  502    0  0.61967350788E+02  0.27814849196E+03 -0.63993457646E+03  0.70051609426E+03  0.50400001928E-02 0. -1.
       -1    1    3    3    0  502 -0.61967350788E+02 -0.27814849196E+03  0.46704934045E+03  0.54712121379E+03  0.50400001928E-02 0.  1.
</event>
<event>
 5   0  0.6658994E-03  0.1204002E+04  0.7818609E-02  0.9109361E-01
       -2   -1    0    0    0  501  0.00000000000E+00  0.00000000000E+00  0.17240823585E+03  0.17240823586E+03  0.25500000920E-02 0. -1.
        2   -1    0    0  501    0  0.00000000000E+00  0.00000000000E+00 -0.21020179133E+04  0.21020179133E+04  0.25500000920E-02 0.  1.
    10030    2    1    2    0    0  0.00000000000E+00  0.00000000000E+00 -0.19296096774E+04  0.22744261491E+04  0.12040019936E+04 0.  0.
        4    1    3    3  502    0 -0.11926652167E+03  0.51201632814E+03 -0.15188436929E+04  0.16072563578E+04  0.12699999809E+01 0.  1.
       -4    1    3    3    0  502  0.11926652167E+03 -0.51201632814E+03 -0.41076598455E+03  0.66716979131E+03  0.12699999809E+01 0. -1.
</event>
<event>
 5   0  0.6640844E-03  0.1181660E+04  0.7818609E-02  0.9129062E-01
        2   -1    0    0  501    0  0.00000000000E+00  0.00000000000E+00  0.83256558006E+03  0.83256558006E+03  0.25500000920E-02 0.  1.
       -2   -1    0    0    0  501  0.00000000000E+00  0.00000000000E+00 -0.41928257227E+03  0.41928257227E+03  0.25500000920E-02 0. -1.
    10030    2    1    2    0    0  0.00000000000E+00  0.00000000000E+00  0.41328300779E+03  0.12518481523E+04  0.11816602523E+04 0.  0.
        5    1    3    3  502    0  0.33105846510E+03  0.91191501802E+02 -0.30268816629E+03  0.45777485003E+03  0.46999998093E+01 0. -1.
       -5    1    3    3    0  502 -0.33105846510E+03 -0.91191501802E+02  0.71597117409E+03  0.79407330230E+03  0.46999998093E+01 0.  1.
</event>
<event>
 5   0  0.6349142E-03  0.1193126E+04  0.7818609E-02  0.9118895E-01
       -2   -1    0    0    0  501  0.00000000000E+00  0.00000000000E+00  0.45955434823E+03  0.45955434824E+03  0.25500000920E-02 0. -1.
        2   -1    0    0  501    0  0.00000000000E+00  0.00000000000E+00 -0.77441854690E+03  0.77441854690E+03  0.25500000920E-02 0.  1.
    10030    2    1    2    0    0  0.00000000000E+00  0.00000000000E+00 -0.31486419867E+03  0.12339728951E+04  0.11931259960E+04 0.  0.
        1    1    3    3  502    0 -0.33160938142E+03 -0.29547550951E+03 -0.56933417000E+03  0.72208860656E+03  0.50400001928E-02 0.  1.
       -1    1    3    3    0  502  0.33160938142E+03  0.29547550951E+03  0.25446997133E+03  0.51188428859E+03  0.50400001928E-02 0. -1.
</event>
<event>
 5   0  0.6640844E-03  0.1261954E+04  0.7818609E-02  0.9060292E-01
        2   -1    0    0  501    0  0.00000000000E+00  0.00000000000E+00  0.74066697233E+03  0.74066697234E+03  0.25500000920E-02 0. -1.
       -2   -1    0    0    0  501  0.00000000000E+00  0.00000000000E+00 -0.53753184048E+03  0.53753184049E+03  0.25500000920E-02 0.  1.
    10030    2    1    2    0    0  0.00000000000E+00  0.00000000000E+00  0.20313513185E+03  0.12781988128E+04  0.12619541685E+04 0.  0.
        5    1    3    3  502    0  0.18343326260E+03  0.40001997635E+03 -0.35641020524E+03  0.56631622589E+03  0.46999998093E+01 0.  1.
       -5    1    3    3    0  502 -0.18343326260E+03 -0.40001997635E+03  0.55954533710E+03  0.71188258693E+03  0.46999998093E+01 0. -1.
</event>
<event>
 5   0  0.6349142E-03  0.1220180E+04  0.7818609E-02  0.9095374E-01
        2   -1    0    0  501    0  0.00000000000E+00  0.00000000000E+00  0.20033200074E+04  0.20033200074E+04  0.25500000920E-02 0.  1.
       -2   -1    0    0    0  501  0.00000000000E+00  0.00000000000E+00 -0.18579639608E+03  0.18579639610E+03  0.25500000920E-02 0. -1.
    10030    2    1    2    0    0  0.00000000000E+00  0.00000000000E+00  0.18175236114E+04  0.21891164035E+04  0.12201797205E+04 0.  0.
        1    1    3    3  502    0  0.40514870643E+03  0.27224446533E+03  0.15653782175E+04  0.16397168924E+04  0.50400001928E-02 0.  1.
       -1    1    3    3    0  502 -0.40514870643E+03 -0.27224446533E+03  0.25214539386E+03  0.54939951119E+03  0.50400001928E-02 0. -1.
</event>
<event>
 5   0  0.3944074E-03  0.1242769E+04  0.7818609E-02  0.9076223E-01
        1   -1    0    0  501    0  0.00000000000E+00  0.00000000000E+00  0.11444503768E+04  0.11444503768E+04  0.50400001928E-02 0. -1.
       -1   -1    0    0    0  501  0.00000000000E+00  0.00000000000E+00 -0.33738349452E+03  0.33738349456E+03  0.50400001928E-02 0.  1.
    10030    2    1    2    0    0  0.00000000000E+00  0.00000000000E+00  0.80706688232E+03  0.14818338714E+04  0.12427689527E+04 0.  0.
        4    1    3    3  502    0 -0.50808318101E+03  0.16742764595E+03  0.26594304274E+02  0.53562057968E+03  0.12699999809E+01 0.  1.
       -4    1    3    3    0  502  0.50808318101E+03 -0.16742764595E+03  0.78047257804E+03  0.94621329172E+03  0.12699999809E+01 0. -1.
</event>
<event>
 5   0  0.3772254E-03  0.1188298E+04  0.7818609E-02  0.9123161E-01
        1   -1    0    0  501    0  0.00000000000E+00  0.00000000000E+00  0.35951174773E+03  0.35951174777E+03  0.50400001928E-02 0. -1.
       -1   -1    0    0    0  501  0.00000000000E+00  0.00000000000E+00 -0.98192384760E+03  0.98192384761E+03  0.50400001928E-02 0.  1.
    10030    2    1    2    0    0  0.00000000000E+00  0.00000000000E+00 -0.62241209986E+03  0.13414355954E+04  0.11882982094E+04 0.  0.
        3    1    3    3  502    0 -0.12414343198E+03  0.55605227392E+03 -0.12094042980E+03  0.58243653800E+03  0.10100000352E+00 0. -1.
       -3    1    3    3    0  502  0.12414343198E+03 -0.55605227392E+03 -0.50147167007E+03  0.75899905739E+03  0.10100000352E+00 0.  1.
</event>
<event>
 5   0  0.6349142E-03  0.1206426E+04  0.7818609E-02  0.9107250E-01
       -2   -1    0    0    0  501  0.00000000000E+00  0.00000000000E+00  0.52883663922E+03  0.52883663922E+03  0.25500000920E-02 0.  1.
        2   -1    0    0  501    0  0.00000000000E+00  0.00000000000E+00 -0.68805030914E+03  0.68805030915E+03  0.25500000920E-02 0. -1.
    10030    2    1    2    0    0  0.00000000000E+00  0.00000000000E+00 -0.15921366993E+03  0.12168869484E+04  0.12064264803E+04 0.  0.
        1    1    3    3  502    0 -0.45839021668E+03  0.39111641849E+03 -0.10764297086E+03  0.61211163423E+03  0.50400001928E-02 0. -1.
       -1    1    3    3    0  502  0.45839021668E+03 -0.39111641849E+03 -0.51570699071E+02  0.60477531414E+03  0.50400001928E-02 0.  1.
</event>
<event>
 5   0  0.3648616E-03  0.1205748E+04  0.7818609E-02  0.9107840E-01
        1   -1    0    0  501    0  0.00000000000E+00  0.00000000000E+00  0.82675926732E+03  0.82675926734E+03  0.50400001928E-02 0.  1.
       -1   -1    0    0    0  501  0.00000000000E+00  0.00000000000E+00 -0.43961633770E+03  0.43961633773E+03  0.50400001928E-02 0. -1.
    10030    2    1    2    0    0  0.00000000000E+00  0.00000000000E+00  0.38714292962E+03  0.12663756051E+04  0.12057477038E+04 0.  0.
        2    1    3    3  502    0 -0.15795123344E+03 -0.51572177261E+03 -0.89302449057E+02  0.54671058733E+03  0.25500000920E-02 0. -1.
       -2    1    3    3    0  502  0.15795123344E+03  0.51572177261E+03  0.47644537868E+03  0.71966501774E+03  0.25500000920E-02 0.  1.
</event>
<event>
 5   0  0.6585930E-03  0.1076127E+04  0.7818609E-02  0.9228777E-01
        2   -1    0    0  501    0  0.00000000000E+00  0.00000000000E+00  0.10176674342E+04  0.10176674342E+04  0.25500000920E-02 0. -1.
       -2   -1    0    0    0  501  0.00000000000E+00  0.00000000000E+00 -0.28448639489E+03  0.28448639490E+03  0.25500000920E-02 0.  1.
    10030    2    1    2    0    0  0.00000000000E+00  0.00000000000E+00  0.73318103935E+03  0.13021538291E+04  0.10761273894E+04 0.  0.
        2    1    3    3  502    0 -0.34480484683E+03  0.31257481616E+03  0.69334336693E+03  0.83505593978E+03  0.25500000920E-02 0. -1.
       -2    1    3    3    0  502  0.34480484683E+03 -0.31257481616E+03  0.39837672419E+02  0.46709788936E+03  0.25500000920E-02 0.  1.
</event>
<event>
 5   0  0.3944074E-03  0.1213792E+04  0.7818609E-02  0.9100869E-01
        1   -1    0    0  501    0  0.00000000000E+00  0.00000000000E+00  0.21476019248E+04  0.21476019248E+04  0.50400001928E-02 0. -1.
       -1   -1    0    0    0  501  0.00000000000E+00  0.00000000000E+00 -0.17150416944E+03  0.17150416951E+03  0.50400001928E-02 0.  1.
    10030    2    1    2    0    0  0.00000000000E+00  0.00000000000E+00  0.19760977553E+04  0.23191060943E+04  0.12137918841E+04 0.  0.
        4    1    3    3  502    0 -0.44716752687E+03 -0.15447795705E+03  0.17143363634E+04  0.17784186841E+04  0.12699999809E+01 0. -1.
       -4    1    3    3    0  502  0.44716752687E+03  0.15447795705E+03  0.26176139195E+03  0.54068741017E+03  0.12699999809E+01 0.  1.
</event>
<event>
 5   0  0.6640844E-03  0.9149581E+03  0.7818609E-02  0.9407074E-01
       -2   -1    0    0    0  501  0.00000000000E+00  0.00000000000E+00  0.18710600760E+03  0.18710600761E+03  0.25500000920E-02 0. -1.
        2   -1    0    0  501    0  0.00000000000E+00  0.00000000000E+00 -0.11185482762E+04  0.11185482762E+04  0.25500000920E-02 0.  1.
    10030    2    1    2    0    0  0.00000000000E+00  0.00000000000E+00 -0.93144226864E+03  0.13056542839E+04  0.91495814611E+03 0.  0.
        5    1    3    3  502    0 -0.19180106317E+03  0.40044446593E+03 -0.62283222355E+03  0.76490880948E+03  0.46999998093E+01 0.  1.
       -5    1    3    3    0  502  0.19180106317E+03 -0.40044446593E+03 -0.30861004510E+03  0.54074547438E+03  0.46999998093E+01 0. -1.
</event>
<event>
 5   0  0.3944074E-03  0.1132089E+04  0.7818609E-02  0.9174469E-01
       -1   -1    0    0    0  501  0.00000000000E+00  0.00000000000E+00  0.45331411710E+03  0.45331411712E+03  0.50400001928E-02 0. -1.
        1   -1    0    0  501    0  0.00000000000E+00  0.00000000000E+00 -0.70680814296E+03  0.70680814298E+03  0.50400001928E-02 0.  1.
    10030    2    1    2    0    0  0.00000000000E+00  0.00000000000E+00 -0.25349402587E+03  0.11601222601E+04  0.11320885289E+04 0.  0.
        4    1    3    3  502    0 -0.42325219935E+03  0.32300273234E+03 -0.32368101619E+03  0.62309245100E+03  0.12699999809E+01 0.  1.
       -4    1    3    3    0  502  0.42325219935E+03 -0.32300273234E+03  0.70186990321E+02  0.53702980910E+03  0.12699999809E+01 0. -1.
</event>
<event>
 5   0  0.6349142E-03  0.1193179E+04  0.7818609E-02  0.9118848E-01
        2   -1    0    0  501    0  0.00000000000E+00  0.00000000000E+00  0.94026666112E+03  0.94026666113E+03  0.25500000920E-02 0. -1.
       -2   -1    0    0    0  501  0.00000000000E+00  0.00000000000E+00 -0.37852981537E+03  0.37852981537E+03  0.25500000920E-02 0.  1.
    10030    2    1    2    0    0  0.00000000000E+00  0.00000000000E+00  0.56173684576E+03  0.13187964765E+04  0.11931788896E+04 0.  0.
        1    1    3    3  502    0  0.37221233890E+03  0.31352557165E+02 -0.23328742768E+03  0.44039531333E+03  0.50400001928E-02 0.  1.
       -1    1    3    3    0  502 -0.37221233890E+03 -0.31352557165E+02  0.79502427344E+03  0.87840116317E+03  0.50400001928E-02 0. -1.
</event>
<event>
 5   0  0.3648616E-03  0.1293688E+04  0.7818609E-02  0.9034586E-01
        1   -1    0    0  501    0  0.00000000000E+00  0.00000000000E+00  0.13739094973E+04  0.13739094973E+04  0.50400001928E-02 0. -1.
       -1   -1    0    0    0  501  0.00000000000E+00  0.00000000000E+00 -0.30453744574E+03  0.30453744578E+03  0.50400001928E-02 0.  1.
    10030    2    1    2    0    0  0.00000000000E+00  0.00000000000E+00  0.10693720516E+04  0.16784469431E+04  0.12936875806E+04 0.  0.
        2    1    3    3  502    0  0.68222080203E+02 -0.61658448069E+03  0.77242154713E+03  0.99068951772E+03  0.25500000920E-02 0. -1.
       -2    1    3    3    0  502 -0.68222080203E+02  0.61658448069E+03  0.29695050442E+03  0.68775742536E+03  0.25500000920E-02 0.  1.
</event>
<event>
 5   0  0.3648616E-03  0.1148143E+04  0.7818609E-02  0.9159499E-01
       -1   -1    0    0    0  501  0.00000000000E+00  0.00000000000E+00  0.38896291438E+03  0.38896291441E+03  0.50400001928E-02 0.  1.
        1   -1    0    0  501    0  0.00000000000E+00  0.00000000000E+00 -0.84727318833E+03  0.84727318834E+03  0.50400001928E-02 0. -1.
    10030    2    1    2    0    0  0.00000000000E+00  0.00000000000E+00 -0.45831027395E+03  0.12362361028E+04  0.11481425846E+04 0.  0.
        2    1    3    3  502    0 -0.37766330060E+02  0.56997054313E+03 -0.29068076125E+03  0.64092746913E+03  0.25500000920E-02 0. -1.
       -2    1    3    3    0  502  0.37766330060E+02 -0.56997054313E+03 -0.16762951270E+03  0.59530863362E+03  0.25500000920E-02 0.  1.
</event>
<event>
 5   0  0.3772254E-03  0.1178246E+04  0.7818609E-02  0.9132114E-01
       -1   -1    0    0    0  501  0.00000000000E+00  0.00000000000E+00  0.63343134857E+03  0.63343134859E+03  0.50400001928E-02 0.  1.
        1   -1    0    0  501    0  0.00000000000E+00  0.00000000000E+00 -0.54791378287E+03  0.54791378290E+03  0.50400001928E-02 0. -1.
    10030    2    1    2    0    0  0.00000000000E+00  0.00000000000E+00  0.85517565696E+02  0.11813451315E+04  0.11782457577E+04 0.  0.
        3    1    3    3  502    0  0.80393703389E+02  0.53730979473E+03  0.27117551210E+03  0.60720765115E+03  0.10100000352E+00 0.  1.
       -3    1    3    3    0  502 -0.80393703389E+02 -0.53730979473E+03 -0.18565794640E+03  0.57413748033E+03  0.10100000352E+00 0. -1.
</event>
<event>
 5   0  0.3731281E-03  0.1247317E+04  0.7818609E-02  0.9072419E-01
       -1   -1    0    0    0  501  0.00000000000E+00  0.00000000000E+00  0.97324956119E+03  0.97324956120E+03  0.50400001928E-02 0.  1.
        1   -1    0    0  501    0  0.00000000000E+00  0.00000000000E+00 -0.39964048276E+03  0.39964048279E+03  0.50400001928E-02 0. -1.
    10030    2    1    2    0    0  0.00000000000E+00  0.00000000000E+00  0.57360907843E+03  0.13728900440E+04  0.12473169998E+04 0.  0.
        5    1    3    3  502    0 -0.97034086669E+02 -0.11143062209E+03  0.95368563612E+03  0.96507553075E+03  0.46999998093E+01 0.  1.
       -5    1    3    3    0  502  0.97034086669E+02  0.11143062209E+03 -0.38007655769E+03  0.40781451325E+03  0.46999998093E+01 0. -1.
</event>
<event>
 5   0  0.3944074E-03  0.1226085E+04  0.7818609E-02  0.9090326E-01
       -1   -1    0    0    0  501  0.00000000000E+00  0.00000000000E+00  0.29407528878E+03  0.29407528882E+03  0.50400001928E-02 0. -1.
        1   -1    0    0  501    0  0.00000000000E+00  0.00000000000E+00 -0.12779749420E+04  0.12779749420E+04  0.50400001928E-02 0.  1.
    10030    2    1    2    0    0  0.00000000000E+00  0.00000000000E+00 -0.98389965322E+03  0.15720502308E+04  0.12260845814E+04 0.  0.
        4    1    3    3  502    0 -0.40696528154E+03  0.21620091708E+03 -0.10103271202E+04  0.11104621018E+04  0.12699999809E+01 0.  1.
       -4    1    3    3    0  502  0.40696528154E+03 -0.21620091708E+03  0.26427466962E+02  0.46158812900E+03  0.12699999809E+01 0. -1.
</event>
<event>
 5   0  0.6658994E-03  0.1197703E+04  0.7818609E-02  0.9114870E-01
        2   -1    0    0  501    0  0.00000000000E+00  0.00000000000E+00  0.21370241092E+04  0.21370241092E+04  0.25500000920E-02 0. -1.
       -2   -1    0    0    0  501  0.00000000000E+00  0.00000000000E+00 -0.16781417322E+03  0.16781417324E+03  0.25500000920E-02 0.  1.
    10030    2    1    2    0    0  0.00000000000E+00  0.00000000000E+00  0.19692099360E+04  0.23048382824E+04  0.11977026911E+04 0.  0.
        4    1    3    3  502    0 -0.43864476928E+02 -0.57267869121E+02 -0.15942007764E+03  0.17498592865E+03  0.12699999809E+01 0.  1.
       -4    1    3    3    0  502  0.43864476928E+02  0.57267869121E+02  0.21286300136E+04  0.21298523538E+04  0.12699999809E+01 0. -1.
</event>
<event>
 5   0  0.6349142E-03  0.1210909E+04  0.7818609E-02  0.9103361E-01
       -2   -1    0    0    0  501  0.00000000000E+00  0.00000000000E+00  0.62006275754E+03  0.62006275754E+03  0.25500000920E-02 0.  1.
        2   -1    0    0  501    0  0.00000000000E+00  0.00000000000E+00 -0.59119020473E+03  0.59119020473E+03  0.25500000920E-02 0. -1.
    10030    2    1    2    0    0  0.00000000000E+00  0.00000000000E+00  0.28872552811E+02  0.12112529623E+04  0.12109087969E+04 0.  0.
        1    1    3    3  502    0 -0.48561879914E+03 -0.29603208232E+03  0.22213540548E+03  0.61057739087E+03  0.50400001928E-02 0.  1.
       -1    1    3    3    0  502  0.48561879914E+03  0.29603208232E+03 -0.19326285267E+03  0.60067557141E+03  0.50400001928E-02 0. -1.
</event>
<event>
 5   0  0.6640844E-03  0.1178247E+04  0.7818609E-02  0.9132112E-01
        2   -1    0    0  501    0  0.00000000000E+00  0.00000000000E+00  0.14275685726E+04  0.14275685726E+04  0.25500000920E-02 0. -1.
       -2   -1    0    0    0  501  0.00000000000E+00  0.00000000000E+00 -0.24311739062E+03  0.24311739063E+03  0.25500000920E-02 0.  1.
    10030    2    1    2    0    0  0.00000000000E+00  0.00000000000E+00  0.11844511820E+04  0.16706859633E+04  0.11782474211E+04 0.  0.
        5    1    3    3  502    0  0.18727683906E+03 -0.55793419184E+03  0.62924118354E+03  0.86158559292E+03  0.46999998093E+01 0.  1.
       -5    1    3    3    0  502 -0.18727683906E+03  0.55793419184E+03  0.55520999847E+03  0.80910037033E+03  0.46999998093E+01 0. -1.
</event>
<event>
 5   0  0.6585930E-03  0.1117155E+04  0.7818609E-02  0.9188631E-01
        2   -1    0    0  501    0  0.00000000000E+00  0.00000000000E+00  0.55129856378E+03  0.55129856378E+03  0.25500000920E-02 0.  1.
       -2   -1    0    0    0  501  0.00000000000E+00  0.00000000000E+00 -0.56595213532E+03  0.56595213532E+03  0.25500000920E-02 0. -1.
    10030    2    1    2    0    0  0.00000000000E+00  0.00000000000E+00 -0.14653571542E+02  0.11172506991E+04  0.11171545987E+04 0.  0.
        2    1    3    3  502    0  0.35922590914E+03 -0.36776790005E+02 -0.43352399386E+03  0.56421524203E+03  0.25500000920E-02 0. -1.
       -2    1    3    3    0  502 -0.35922590914E+03  0.36776790005E+02  0.41887042232E+03  0.55303545708E+03  0.25500000920E-02 0.  1.
</event>
<event>
 5   0  0.3648616E-03  0.1235274E+04  0.7818609E-02  0.9082529E-01
       -1   -1    0    0    0  501  0.00000000000E+00  0.00000000000E+00  0.75064036569E+03  0.75064036570E+03  0.50400001928E-02 0. -1.
        1   -1    0    0  501    0  0.00000000000E+00  0.00000000000E+00 -0.50820041728E+03  0.50820041730E+03  0.50400001928E-02 0.  1.
    10030    2    1    2    0    0  0.00000000000E+00  0.00000000000E+00  0.24243994841E+03  0.12588407830E+04  0.12352744587E+04 0.  0.
        2    1    3    3  502    0 -0.17562874567E+03 -0.25172856797E+03 -0.42497437501E+03  0.52422890769E+03  0.25500000920E-02 0.  1.
       -2    1    3    3    0  502  0.17562874567E+03  0.25172856797E+03  0.66741432342E+03  0.73461187531E+03  0.25500000920E-02 0. -1.
</event>
<event>
 5   0  0.3701879E-03  0.1179480E+04  0.7818609E-02  0.9131009E-01
        1   -1    0    0  501    0  0.00000000000E+00  0.00000000000E+00  0.87314704399E+03  0.87314704401E+03  0.50400001928E-02 0.  1.
       -1   -1    0    0    0  501  0.00000000000E+00  0.00000000000E+00 -0.39832186638E+03  0.39832186641E+03  0.50400001928E-02 0. -1.
    10030    2    1    2    0    0  0.00000000000E+00  0.00000000000E+00  0.47482517761E+03  0.12714689104E+04  0.11794804962E+04 0.  0.
        1    1    3    3  502    0 -0.95968378722E+02  0.11036172694E+03  0.85328771506E+03  0.86573065395E+03  0.50400001928E-02 0.  1.
       -1    1    3    3    0  502  0.95968378722E+02 -0.11036172694E+03 -0.37846253744E+03  0.40573825647E+03  0.50400001928E-02 0. -1.
</event>
<event>
 5   0  0.6640844E-03  0.1116710E+04  0.7818609E-02  0.9189056E-01
       -2   -1    0    0    0  501  0.00000000000E+00  0.00000000000E+00  0.42911962275E+03  0.42911962276E+03  0.25500000920E-02 0.  1.
        2   -1    0    0  501    0  0.00000000000E+00  0.00000000000E+00 -0.72651186198E+03  0.72651186198E+03  0.25500000920E-02 0. -1.
    10030    2    1    2    0    0  0.00000000000E+00  0.00000000000E+00 -0.29739223923E+03  0.11556314847E+04  0.11167103405E+04 0.  0.
        5    1    3    3  502    0 -0.12681003346E+03  0.54123987728E+03 -0.20263786441E+03  0.59169720587E+03  0.46999998093E+01 0. -1.
       -5    1    3    3    0  502  0.12681003346E+03 -0.54123987728E+03 -0.94754374813E+02  0.56393427887E+03  0.46999998093E+01 0.  1.
</event>
<event>
 5   0  0.6349142E-03  0.1194851E+04  0.7818609E-02  0.9117375E-01
        2   -1    0    0  501    0  0.00000000000E+00  0.00000000000E+00  0.13706932242E+04  0.13706932242E+04  0.25500000920E-02 0.  1.
       -2   -1    0    0    0  501  0.00000000000E+00  0.00000000000E+00 -0.26039186745E+03  0.26039186747E+03  0.25500000920E-02 0. -1.
    10030    2    1    2    0    0  0.00000000000E+00  0.00000000000E+00  0.11103013568E+04  0.16310850917E+04  0.11948512349E+04 0.  0.
        1    1    3    3  502    0  0.59382376855E+03 -0.43052230278E+02  0.48775859592E+03  0.76966785729E+03  0.50400001928E-02 0.  1.
       -1    1    3    3    0  502 -0.59382376855E+03  0.43052230278E+02  0.62254276086E+03  0.86141723442E+03  0.50400001928E-02 0. -1.
</event>
<event>
 5   0  0.3731281E-03  0.1221486E+04  0.7818609E-02  0.9094255E-01
       -1   -1    0    0    0  501  0.00000000000E+00  0.00000000000E+00  0.29175073767E+03  0.29175073771E+03  0.50400001928E-02 0. -1.
        1   -1    0    0  501    0  0.00000000000E+00  0.00000000000E+00 -0.12785126943E+04  0.12785126943E+04  0.50400001928E-02 0.  1.
    10030    2    1    2    0    0  0.00000000000E+00  0.00000000000E+00 -0.98676195662E+03  0.15702634320E+04  0.12214860158E+04 0.  0.
        5    1    3    3  502    0 -0.10213278252E+03  0.59826147638E+03 -0.58092048198E+03  0.84014200928E+03  0.46999998093E+01 0.  1.
       -5    1    3    3    0  502  0.10213278252E+03 -0.59826147638E+03 -0.40584147464E+03  0.73012142272E+03  0.46999998093E+01 0. -1.
</event>
<event>
 5   0  0.3772254E-03  0.1377264E+04  0.7818609E-02  0.8970442E-01
        1   -1    0    0  501    0  0.00000000000E+00  0.00000000000E+00  0.82243558462E+03  0.82243558464E+03  0.50400001928E-02 0. -1.
       -1   -1    0    0    0  501  0.00000000000E+00  0.00000000000E+00 -0.57659723220E+03  0.57659723223E+03  0.50400001928E-02 0.  1.
    10030    2    1    2    0    0  0.00000000000E+00  0.00000000000E+00  0.24583835242E+03  0.13990328169E+04  0.13772640731E+04 0.  0.
        3    1    3    3  502    0  0.60287273073E+03 -0.77605342625E+02 -0.20582538551E+03  0.64174934218E+03  0.10100000352E+00 0.  1.
       -3    1    3    3    0  502 -0.60287273073E+03  0.77605342625E+02  0.45166373793E+03  0.75728347468E+03  0.10100000352E+00 0. -1.
</event>
<event>
 5   0  0.6640844E-03  0.1169144E+04  0.7818609E-02  0.9140302E-01
        2   -1    0    0  501    0  0.00000000000E+00  0.00000000000E+00  0.16964108356E+04  0.16964108356E+04  0.25500000920E-02 0. -1.
       -2   -1    0    0    0  501  0.00000000000E+00  0.00000000000E+00 -0.20143970783E+03  0.20143970785E+03  0.25500000920E-02 0.  1.
    10030    2    1    2    0    0  0.00000000000E+00  0.00000000000E+00  0.14949711277E+04  0.18978505434E+04  0.11691441367E+04 0.  0.
        5    1    3    3  502    0  0.25698483959E+03  0.51762534479E+03  0.89016094333E+03  0.10613132433E+04  0.46999998093E+01 0.  1.
       -5    1    3    3    0  502 -0.25698483959E+03 -0.51762534479E+03  0.60481018439E+03  0.83653730012E+03  0.46999998093E+01 0. -1.
</event>
<event>
 5   0  0.3772254E-03  0.1210272E+04  0.7818609E-02  0.9103912E-01
       -1   -1    0    0    0  501  0.00000000000E+00  0.00000000000E+00  0.63585942305E+03  0.63585942307E+03  0.50400001928E-02 0.  1.
        1   -1    0    0  501    0  0.00000000000E+00  0.00000000000E+00 -0.57589735425E+03  0.57589735427E+03  0.50400001928E-02 0. -1.
    10030    2    1    2    0    0  0.00000000000E+00  0.00000000000E+00  0.59962068799E+02  0.12117567773E+04  0.12102722990E+04 0.  0.
        3    1    3    3  502    0  0.17101026342E+03 -0.56078765650E+03 -0.12007755574E+03  0.59845295176E+03  0.10100000352E+00 0.  1.
       -3    1    3    3    0  502 -0.17101026342E+03  0.56078765650E+03  0.18003962454E+03  0.61330382559E+03  0.10100000352E+00 0. -1.
</event>
<event>
 5   0  0.6493047E-03  0.1237804E+04  0.7818609E-02  0.9080396E-01
        2   -1    0    0  501    0  0.00000000000E+00  0.00000000000E+00  0.12182306545E+04  0.12182306545E+04  0.25500000920E-02 0.  1.
       -2   -1    0    0    0  501  0.00000000000E+00  0.00000000000E+00 -0.31442272234E+03  0.31442272235E+03  0.25500000920E-02 0. -1.
    10030    2    1    2    0    0  0.00000000000E+00  0.00000000000E+00  0.90380793218E+03  0.15326533769E+04  0.12378035367E+04 0.  0.
        3    1    3    3  502    0 -0.27556900912E+03  0.39258542039E+03  0.93619500061E+03  0.10519138180E+04  0.10100000352E+00 0.  1.
       -3    1    3    3    0  502  0.27556900912E+03 -0.39258542039E+03 -0.32387068432E+02  0.48073955890E+03  0.10100000352E+00 0. -1.
</event>
<event>
 5   0  0.3648616E-03  0.1172249E+04  0.7818609E-02  0.9137500E-01
        1   -1    0    0  501    0  0.00000000000E+00  0.00000000000E+00  0.41666009345E+03  0.41666009349E+03  0.50400001928E-02 0.  1.
       -1   -1    0    0    0  501  0.00000000000E+00  0.00000000000E+00 -0.82451402720E+03  0.82451402722E+03  0.50400001928E-02 0. -1.
    10030    2    1    2    0    0  0.00000000000E+00  0.00000000000E+00 -0.40785393375E+03  0.12411741207E+04  0.11722492767E+04 0.  0.
        2    1    3    3  502    0  0.10510417808E+03  0.46562646272E+03 -0.56405372736E+03  0.73892590859E+03  0.25500000920E-02 0. -1.
       -2    1    3    3    0  502 -0.10510417808E+03 -0.46562646272E+03  0.15619979361E+03  0.50224821211E+03  0.25500000920E-02 0.  1.
</event>
<event>
 5   0  0.6349142E-03  0.1076707E+04  0.7818609E-02  0.9228197E-01
       -2   -1    0    0    0  501  0.00000000000E+00  0.00000000000E+00  0.21002322265E+03  0.21002322267E+03  0.25500000920E-02 0.  1.
        2   -1    0    0  501    0  0.00000000000E+00  0.00000000000E+00 -0.13799649657E+04  0.13799649657E+04  0.25500000920E-02 0. -1.
    10030    2    1    2    0    0  0.00000000000E+00  0.00000000000E+00 -0.11699417431E+04  0.15899881884E+04  0.10767073683E+04 0.  0.
        1    1    3    3  502    0 -0.21047215984E+02 -0.17219911491E+03  0.16761589210E+03  0.24122729486E+03  0.50400001928E-02 0.  1.
       -1    1    3    3    0  502  0.21047215984E+02  0.17219911491E+03 -0.13375576352E+04  0.13487608935E+04  0.50400001928E-02 0. -1.
</event>
<event>
 5   0  0.3648616E-03  0.1221774E+04  0.7818609E-02  0.9094008E-01
        1   -1    0    0  501    0  0.00000000000E+00  0.00000000000E+00  0.21811813906E+03  0.21811813912E+03  0.50400001928E-02 0.  1.
       -1   -1    0    0    0  501  0.00000000000E+00  0.00000000000E+00 -0.17109223586E+04  0.17109223586E+04  0.50400001928E-02 0. -1.
    10030    2    1    2    0    0  0.00000000000E+00  0.00000000000E+00 -0.14928042195E+04  0.19290404977E+04  0.12217744489E+04 0.  0.
        2    1    3    3  502    0  0.58775594963E+03  0.21948616651E+02 -0.10070108360E+04  0.11661945044E+04  0.25500000920E-02 0. -1.
       -2    1    3    3    0  502 -0.58775594963E+03 -0.21948616651E+02 -0.48579338345E+03  0.76284599331E+03  0.25500000920E-02 0.  1.
</event>
<event>
 5   0  0.6658994E-03  0.1198862E+04  0.7818609E-02  0.9113853E-01
        2   -1    0    0  501    0  0.00000000000E+00  0.00000000000E+00  0.20883586692E+04  0.20883586692E+04  0.25500000920E-02 0. -1.
       -2   -1    0    0    0  501  0.00000000000E+00  0.00000000000E+00 -0.17205734597E+03  0.17205734599E+03  0.25500000920E-02 0.  1.
    10030    2    1    2    0    0  0.00000000000E+00  0.00000000000E+00  0.19163013232E+04  0.22604160152E+04  0.11988618771E+04 0.  0.
        4    1    3    3  502    0  0.13517970963E+03 -0.31793570866E+03  0.34542207321E+02  0.34720519254E+03  0.12699999809E+01 0.  1.
       -4    1    3    3    0  502 -0.13517970963E+03  0.31793570866E+03  0.18817591159E+04  0.19132108226E+04  0.12699999809E+01 0. -1.
</event>
<event>
 5   0  0.3944074E-03  0.1212886E+04  0.7818609E-02  0.9101652E-01
        1   -1    0    0  501    0  0.00000000000E+00  0.00000000000E+00  0.14059708167E+04  0.14059708167E+04  0.50400001928E-02 0.  1.
       -1   -1    0    0    0  501  0.00000000000E+00  0.00000000000E+00 -0.26157953733E+03  0.26157953738E+03  0.50400001928E-02 0. -1.
    10030    2    1    2    0    0  0.00000000000E+00  0.00000000000E+00  0.11443912794E+04  0.16675503541E+04  0.12128861377E+04 0.  0.
        4    1    3    3  502    0  0.75376336695E+02 -0.20492139710E+03 -0.20566154972E+03  0.29995442496E+03  0.12699999809E+01 0. -1.
       -4    1    3    3    0  502 -0.75376336695E+02  0.20492139710E+03  0.13500528291E+04  0.13675959291E+04  0.12699999809E+01 0.  1.
</event>
<event>
 5   0  0.2537625E-03  0.1159138E+04  0.7818609E-02  0.9149394E-01
       -4   -1    0    0    0  501  0.00000000000E+00  0.00000000000E+00  0.25617719728E+03  0.25618034527E+03  0.12699999809E+01 0.  1.
        4   -1    0    0  501    0  0.00000000000E+00  0.00000000000E+00 -0.13111912732E+04  0.13111918883E+04  0.12699999809E+01 0. -1.
    10030    2    1    2    0    0  0.00000000000E+00  0.00000000000E+00 -0.10550140759E+04  0.15673722335E+04  0.11591380496E+04 0.  0.
        4    1    3    3  502    0 -0.96177642232E+02  0.52715359441E+03 -0.82608524459E+03  0.98466212235E+03  0.12699999809E+01 0. -1.
       -4    1    3    3    0  502  0.96177642232E+02 -0.52715359441E+03 -0.22892883135E+03  0.58271011119E+03  0.12699999809E+01 0.  1.
</event>
<event>
 5   0  0.3772254E-03  0.1190236E+04  0.7818609E-02  0.9121446E-01
        1   -1    0    0  501    0  0.00000000000E+00  0.00000000000E+00  0.87532397055E+03  0.87532397057E+03  0.50400001928E-02 0.  1.
       -1   -1    0    0    0  501  0.00000000000E+00  0.00000000000E+00 -0.40461086753E+03  0.40461086756E+03  0.50400001928E-02 0. -1.
    10030    2    1    2    0    0  0.00000000000E+00  0.00000000000E+00  0.47071310302E+03  0.12799348381E+04  0.11902362642E+04 0.  0.
        3    1    3    3  502    0  0.46781294903E+03  0.35671414606E+03  0.13874352835E+03  0.60443669158E+03  0.10100000352E+00 0. -1.
       -3    1    3    3    0  502 -0.46781294903E+03 -0.35671414606E+03  0.33196957468E+03  0.67549814654E+03  0.10100000352E+00 0.  1.
</event>
<event>
 5   0  0.3648616E-03  0.1232136E+04  0.7818609E-02  0.9085184E-01
       -1   -1    0    0    0  501  0.00000000000E+00  0.00000000000E+00  0.11528815135E+04  0.11528815135E+04  0.50400001928E-02 0. -1.
        1   -1    0    0  501    0  0.00000000000E+00  0.00000000000E+00 -0.32920953663E+03  0.32920953667E+03  0.50400001928E-02 0.  1.
    10030    2    1    2    0    0  0.00000000000E+00  0.00000000000E+00  0.82367197685E+03  0.14820910502E+04  0.12321356888E+04 0.  0.
        2    1    3    3  502    0 -0.52929091161E+03  0.30256518306E+03  0.51837622218E+03  0.80025525106E+03  0.25500000920E-02 0. -1.
       -2    1    3    3    0  502  0.52929091161E+03 -0.30256518306E+03  0.30529575466E+03  0.68183579910E+03  0.25500000920E-02 0.  1.
</event>
<event>
 5   0  0.3772254E-03  0.1209022E+04  0.7818609E-02  0.9104996E-01
       -1   -1    0    0    0  501  0.00000000000E+00  0.00000000000E+00  0.24221310340E+03  0.24221310345E+03  0.50400001928E-02 0.  1.
        1   -1    0    0  501    0  0.00000000000E+00  0.00000000000E+00 -0.15087277764E+04  0.15087277764E+04  0.50400001928E-02 0. -1.
    10030    2    1    2    0    0  0.00000000000E+00  0.00000000000E+00 -0.12665146730E+04  0.17509408798E+04  0.12090221453E+04 0.  0.
        3    1    3    3  502    0 -0.52262506816E+03  0.30233723446E+03 -0.59008015551E+03  0.84423892670E+03  0.10100000352E+00 0. -1.
       -3    1    3    3    0  502  0.52262506816E+03 -0.30233723446E+03 -0.67643451745E+03  0.90670195313E+03  0.10100000352E+00 0.  1.
</event>
<event>
 5   0  0.3731281E-03  0.1601955E+04  0.7818609E-02  0.8819348E-01
        1   -1    0    0  501    0  0.00000000000E+00  0.00000000000E+00  0.71352948122E+03  0.71352948124E+03  0.50400001928E-02 0.  1.
       -1   -1    0    0    0  501  0.00000000000E+00  0.00000000000E+00 -0.89914338955E+03  0.89914338957E+03  0.50400001928E-02 0. -1.
    10030    2    1    2    0    0  0.00000000000E+00  0.00000000000E+00 -0.18561390833E+03  0.16126728708E+04  0.16019554505E+04 0.  0.
        5    1    3    3  502    0 -0.63316870651E+03  0.44564788774E+03  0.11359786909E+03  0.78257984680E+03  0.46999998093E+01 0.  1.
       -5    1    3    3    0  502  0.63316870651E+03 -0.44564788774E+03 -0.29921177742E+03  0.83009302400E+03  0.46999998093E+01 0. -1.
</event>
<event>
 5   0  0.3731281E-03  0.1192090E+04  0.7818609E-02  0.9119809E-01
        1   -1    0    0  501    0  0.00000000000E+00  0.00000000000E+00  0.36931202697E+03  0.36931202700E+03  0.50400001928E-02 0. -1.
       -1   -1    0    0    0  501  0.00000000000E+00  0.00000000000E+00 -0.96197665444E+03  0.96197665445E+03  0.50400001928E-02 0.  1.
    10030    2    1    2    0    0  0.00000000000E+00  0.00000000000E+00 -0.59266462747E+03  0.13312886815E+04  0.11920898426E+04 0.  0.
        5    1    3    3  502    0  0.42269096819E+03 -0.11423659753E+03 -0.74794039987E+03  0.86669174830E+03  0.46999998093E+01 0.  1.
       -5    1    3    3    0  502 -0.42269096819E+03  0.11423659753E+03  0.15527577240E+03  0.46459693316E+03  0.46999998093E+01 0. -1.
</event>
<event>
 5   0  0.3731281E-03  0.1219755E+04  0.7818609E-02  0.9095739E-01
       -1   -1    0    0    0  501  0.00000000000E+00  0.00000000000E+00  0.41934543692E+03  0.41934543695E+03  0.50400001928E-02 0. -1.
        1   -1    0    0  501    0  0.00000000000E+00  0.00000000000E+00 -0.88697852782E+03  0.88697852783E+03  0.50400001928E-02 0.  1.
    10030    2    1    2    0    0  0.00000000000E+00  0.00000000000E+00 -0.46763309090E+03  0.13063239648E+04  0.12197547267E+04 0.  0.
        5    1    3    3  502    0 -0.47557961600E+03  0.35312217170E+03 -0.38922596725E+03  0.70879488069E+03  0.46999998093E+01 0. -1.
       -5    1    3    3    0  502  0.47557961600E+03 -0.35312217170E+03 -0.78407123645E+02  0.59752908410E+03  0.46999998093E+01 0.  1.
</event>
<event>
 5   0  0.6658994E-03  0.8537947E+03  0.7818609E-02  0.9485258E-01
       -2   -1    0    0    0  501  0.00000000000E+00  0.00000000000E+00  0.11944230482E+03  0.11944230485E+03  0.25500000920E-02 0.  1.
        2   -1    0    0  501    0  0.00000000000E+00  0.00000000000E+00 -0.15257690026E+04  0.15257690026E+04  0.25500000920E-02 0. -1.
    10030    2    1    2    0    0  0.00000000000E+00  0.00000000000E+00 -0.14063266978E+04  0.16452113075E+04  0.85379474424E+03 0.  0.
        4    1    3    3  502    0 -0.25877916865E+03  0.75295683690E+02 -0.65222036080E+02  0.27729339155E+03  0.12699999809E+01 0.  1.
       -4    1    3    3    0  502  0.25877916865E+03 -0.75295683690E+02 -0.13411046617E+04  0.13679179159E+04  0.12699999809E+01 0. -1.
</event>
<event>
 5   0  0.3944074E-03  0.1207063E+04  0.7818609E-02  0.9106697E-01
        1   -1    0    0  501    0  0.00000000000E+00  0.00000000000E+00  0.12396360545E+04  0.12396360546E+04  0.50400001928E-02 0.  1.
       -1   -1    0    0    0  501  0.00000000000E+00  0.00000000000E+00 -0.29383644229E+03  0.29383644234E+03  0.50400001928E-02 0. -1.
    10030    2    1    2    0    0  0.00000000000E+00  0.00000000000E+00  0.94579961225E+03  0.15334724969E+04  0.12070629612E+04 0.  0.
        4    1    3    3  502    0  0.35134388198E+03  0.43502819428E+03  0.18443812781E+03  0.58882178043E+03  0.12699999809E+01 0. -1.
       -4    1    3    3    0  502 -0.35134388198E+03 -0.43502819428E+03  0.76136148444E+03  0.94465071646E+03  0.12699999809E+01 0.  1.
</event>
<event>
 5   0  0.6493047E-03  0.1404828E+04  0.7818609E-02  0.8950331E-01
        2   -1    0    0  501    0  0.00000000000E+00  0.00000000000E+00  0.88817340776E+03  0.88817340776E+03  0.25500000920E-02 0.  1.
       -2   -1    0    0    0  501  0.00000000000E+00  0.00000000000E+00 -0.55550587838E+03  0.55550587839E+03  0.25500000920E-02 0. -1.
    10030    2    1    2    0    0  0.00000000000E+00  0.00000000000E+00  0.33266752938E+03  0.14436792861E+04  0.14048281732E+04 0.  0.
        3    1    3    3  502    0  0.50324997432E+03  0.48949516645E+03  0.14291124063E+03  0.71644238256E+03  0.10100000352E+00 0. -1.
       -3    1    3    3    0  502 -0.50324997432E+03 -0.48949516645E+03  0.18975628875E+03  0.72723690359E+03  0.10100000352E+00 0.  1.
</event>
<event>
 5   0  0.6349142E-03  0.1225990E+04  0.7818609E-02  0.9090407E-01
       -2   -1    0    0    0  501  0.00000000000E+00  0.00000000000E+00  0.43622770724E+03  0.43622770725E+03  0.25500000920E-02 0. -1.
        2   -1    0    0  501    0  0.00000000000E+00  0.00000000000E+00 -0.86139086939E+03  0.86139086939E+03  0.25500000920E-02 0.  1.
    10030    2    1    2    0    0  0.00000000000E+00  0.00000000000E+00 -0.42516316215E+03  0.12976185766E+04  0.12259895008E+04 0.  0.
        1    1    3    3  502    0 -0.50087682251E+02  0.49284197812E+03  0.16956803984E+03  0.52359842577E+03  0.50400001928E-02 0. -1.
       -1    1    3    3    0  502  0.50087682251E+02 -0.49284197812E+03 -0.59473120199E+03  0.77402015087E+03  0.50400001928E-02 0.  1.
</event>
<event>
 5   0  0.3944074E-03  0.1239561E+04  0.7818609E-02  0.9078916E-01
       -1   -1    0    0    0  501  0.00000000000E+00  0.00000000000E+00  0.59945978907E+03  0.59945978909E+03  0.50400001928E-02 0.  1.
        1   -1    0    0  501    0  0.00000000000E+00  0.00000000000E+00 -0.64079045327E+03  0.64079045329E+03  0.50400001928E-02 0. -1.
    10030    2    1    2    0    0  0.00000000000E+00  0.00000000000E+00 -0.41330664203E+02  0.12402502424E+04  0.12395613901E+04 0.  0.
        4    1    3    3  502    0 -0.12919491599E+02  0.44800156610E+03  0.40765454154E+03  0.60585159455E+03  0.12699999809E+01 0.  1.
       -4    1    3    3    0  502  0.12919491599E+02 -0.44800156610E+03 -0.44898520574E+03  0.63439864783E+03  0.12699999809E+01 0. -1.
</event>
<event>
 5   0  0.6349142E-03  0.1231872E+04  0.7818609E-02  0.9085407E-01
       -2   -1    0    0    0  501  0.00000000000E+00  0.00000000000E+00  0.43778408073E+03  0.43778408074E+03  0.25500000920E-02 0.  1.
        2   -1    0    0  501    0  0.00000000000E+00  0.00000000000E+00 -0.86658550990E+03  0.86658550991E+03  0.25500000920E-02 0. -1.
    10030    2    1    2    0    0  0.00000000000E+00  0.00000000000E+00 -0.42880142917E+03  0.13043695906E+04  0.12318722999E+04 0.  0.
        1    1    3    3  502    0 -0.29852868639E+03 -0.30326714263E+03 -0.68590115369E+03  0.80718692324E+03  0.50400001928E-02 0. -1.
       -1    1    3    3    0  502  0.29852868639E+03  0.30326714263E+03  0.25709972452E+03  0.49718266741E+03  0.50400001928E-02 0.  1.
</event>
<event>
 5   0  0.6349142E-03  0.1189893E+04  0.7818609E-02  0.9121750E-01
        2   -1    0    0  501    0  0.00000000000E+00  0.00000000000E+00  0.11192396333E+04  0.11192396333E+04  0.25500000920E-02 0.  1.
       -2   -1    0    0    0  501  0.00000000000E+00  0.00000000000E+00 -0.31625152288E+03  0.31625152289E+03  0.25500000920E-02 0. -1.
    10030    2    1    2    0    0  0.00000000000E+00  0.00000000000E+00  0.80298811039E+03  0.14354911562E+04  0.11898928330E+04 0.  0.
        1    1    3    3  502    0 -0.34043066965E+03 -0.21387009451E+03  0.93056472025E+03  0.10136982573E+04  0.50400001928E-02 0.  1.
       -1    1    3    3    0  502  0.34043066965E+03  0.21387009451E+03 -0.12757660986E+03  0.42179289891E+03  0.50400001928E-02 0. -1.
</event>
<event>
 5   0  0.3648616E-03  0.1365379E+04  0.7818609E-02  0.8979267E-01
       -1   -1    0    0    0  501  0.00000000000E+00  0.00000000000E+00  0.29017269532E+03  0.29017269536E+03  0.50400001928E-02 0. -1.
        1   -1    0    0  501    0  0.00000000000E+00  0.00000000000E+00 -0.16061642214E+04  0.16061642214E+04  0.50400001928E-02 0.  1.
    10030    2    1    2    0    0  0.00000000000E+00  0.00000000000E+00 -0.13159915261E+04  0.18963369168E+04  0.13653790701E+04 0.  0.
        2    1    3    3  502    0  0.61974864577E+03 -0.28545182882E+03 -0.68886095083E+03  0.96958781969E+03  0.25500000920E-02 0. -1.
       -2    1    3    3    0  502 -0.61974864577E+03  0.28545182882E+03 -0.62713057524E+03  0.92674909707E+03  0.25500000920E-02 0.  1.
</event>
<event>
 5   0  0.6349142E-03  0.1175656E+04  0.7818609E-02  0.9134435E-01
       -2   -1    0    0    0  501  0.00000000000E+00  0.00000000000E+00  0.37098346993E+03  0.37098346994E+03  0.25500000920E-02 0. -1.
        2   -1    0    0  501    0  0.00000000000E+00  0.00000000000E+00 -0.93142141214E+03  0.93142141215E+03  0.25500000920E-02 0.  1.
    10030    2    1    2    0    0  0.00000000000E+00  0.00000000000E+00 -0.56043794222E+03  0.13024048821E+04  0.11756563230E+04 0.  0.
        1    1    3    3  502    0  0.11146154907E+03  0.52045943413E+03 -0.38423591957E+01  0.53227480050E+03  0.50400001928E-02 0. -1.
       -1    1    3    3    0  502 -0.11146154907E+03 -0.52045943413E+03 -0.55659558302E+03  0.77013008158E+03  0.50400001928E-02 0.  1.
</event>
<event>
 5   0  0.3944074E-03  0.1149582E+04  0.7818609E-02  0.9158169E-01
       -1   -1    0    0    0  501  0.00000000000E+00  0.00000000000E+00  0.22667172846E+03  0.22667172851E+03  0.50400001928E-02 0. -1.
        1   -1    0    0  501    0  0.00000000000E+00  0.00000000000E+00 -0.14575468905E+04  0.14575468905E+04  0.50400001928E-02 0.  1.
    10030    2    1    2    0    0  0.00000000000E+00  0.00000000000E+00 -0.12308751621E+04  0.16842186191E+04  0.11495819641E+04 0.  0.
        4    1    3    3  502    0 -0.12156537447E+03  0.41451946503E+01 -0.14384731083E+04  0.14436072247E+04  0.12699999809E+01 0.  1.
       -4    1    3    3    0  502  0.12156537447E+03 -0.41451946503E+01  0.20759794625E+03  0.24061139436E+03  0.12699999809E+01 0. -1.
</event>
<event>
 5   0  0.2537625E-03  0.1195800E+04  0.7818609E-02  0.9116541E-01
       -4   -1    0    0    0  501  0.00000000000E+00  0.00000000000E+00  0.11192488255E+04  0.11192495461E+04  0.12699999809E+01 0.  1.
        4   -1    0    0  501    0  0.00000000000E+00  0.00000000000E+00 -0.31939464619E+03  0.31939717111E+03  0.12699999809E+01 0. -1.
    10030    2    1    2    0    0  0.00000000000E+00  0.00000000000E+00  0.79985417934E+03  0.14386467172E+04  0.11958000120E+04 0.  0.
        3    1    3    3  502    0  0.18295810412E+03  0.26251909257E+02 -0.28416244943E+03  0.33898545466E+03  0.10100000352E+00 0. -1.
       -3    1    3    3    0  502 -0.18295810412E+03 -0.26251909257E+02  0.10840166288E+04  0.10996612625E+04  0.10100000352E+00 0.  1.
</event>
<event>
 5   0  0.3944074E-03  0.1212024E+04  0.7818609E-02  0.9102397E-01
        1   -1    0    0  501    0  0.00000000000E+00  0.00000000000E+00  0.14799809067E+04  0.14799809067E+04  0.50400001928E-02 0. -1.
       -1   -1    0    0    0  501  0.00000000000E+00  0.00000000000E+00 -0.24814536526E+03  0.24814536531E+03  0.50400001928E-02 0.  1.
    10030    2    1    2    0    0  0.00000000000E+00  0.00000000000E+00  0.12318355414E+04  0.17281262720E+04  0.12120237666E+04 0.  0.
        4    1    3    3  502    0 -0.13607178796E+03 -0.13037643882E+03  0.14371389526E+04  0.14494424892E+04  0.12699999809E+01 0. -1.
       -4    1    3    3    0  502  0.13607178796E+03  0.13037643882E+03 -0.20530341120E+03  0.27868378286E+03  0.12699999809E+01 0.  1.
</event>
<event>
 5   0  0.6349142E-03  0.1143089E+04  0.7818609E-02  0.9164183E-01
        2   -1    0    0  501    0  0.00000000000E+00  0.00000000000E+00  0.15466854564E+04  0.15466854564E+04  0.25500000920E-02 0. -1.
       -2   -1    0    0    0  501  0.00000000000E+00  0.00000000000E+00 -0.21120215848E+03  0.21120215849E+03  0.25500000920E-02 0.  1.
    10030    2    1    2    0    0  0.00000000000E+00  0.00000000000E+00  0.13354832979E+04  0.17578876148E+04  0.11430893349E+04 0.  0.
        1    1    3    3  502    0 -0.16848361239E+03 -0.32872193323E+03 -0.29722025957E+01  0.36939636036E+03  0.50400001928E-02 0.  1.
       -1    1    3    3    0  502  0.16848361239E+03  0.32872193323E+03  0.13384555005E+04  0.13884912545E+04  0.50400001928E-02 0. -1.
</event>
<event>
 5   0  0.3701879E-03  0.1269209E+04  0.7818609E-02  0.9054346E-01
       -1   -1    0    0    0  501  0.00000000000E+00  0.00000000000E+00  0.32131305946E+03  0.32131305950E+03  0.50400001928E-02 0.  1.
        1   -1    0    0  501    0  0.00000000000E+00  0.00000000000E+00 -0.12533655586E+04  0.12533655586E+04  0.50400001928E-02 0. -1.
    10030    2    1    2    0    0  0.00000000000E+00  0.00000000000E+00 -0.93205249911E+03  0.15746786181E+04  0.12692087650E+04 0.  0.
        1    1    3    3  502    0 -0.55856153416E+03 -0.29246614168E+03 -0.37660025104E+03  0.73440804774E+03  0.50400001928E-02 0.  1.
       -1    1    3    3    0  502  0.55856153416E+03  0.29246614168E+03 -0.55545224807E+03  0.84027057034E+03  0.50400001928E-02 0. -1.
</event>
<event>
 5   0  0.3648616E-03  0.1060887E+04  0.7818609E-02  0.9244176E-01
       -1   -1    0    0    0  501  0.00000000000E+00  0.00000000000E+00  0.31749696179E+03  0.31749696183E+03  0.50400001928E-02 0.  1.
        1   -1    0    0  501    0  0.00000000000E+00  0.00000000000E+00 -0.88621347679E+03  0.88621347681E+03  0.50400001928E-02 0. -1.
    10030    2    1    2    0    0  0.00000000000E+00  0.00000000000E+00 -0.56871651500E+03  0.12037104386E+04  0.10608865847E+04 0.  0.
        2    1    3    3  502    0  0.21116364285E+03 -0.44367224912E+02 -0.83416846487E+03  0.86162379406E+03  0.25500000920E-02 0. -1.
       -2    1    3    3    0  502 -0.21116364285E+03  0.44367224912E+02  0.26545194986E+03  0.34208664458E+03  0.25500000920E-02 0.  1.
</event>
<event>
 5   0  0.6585930E-03  0.1160495E+04  0.7818609E-02  0.9148156E-01
        2   -1    0    0  501    0  0.00000000000E+00  0.00000000000E+00  0.35097175591E+03  0.35097175592E+03  0.25500000920E-02 0. -1.
       -2   -1    0    0    0  501  0.00000000000E+00  0.00000000000E+00 -0.95929994553E+03  0.95929994553E+03  0.25500000920E-02 0.  1.
    10030    2    1    2    0    0  0.00000000000E+00  0.00000000000E+00 -0.60832818962E+03  0.13102717015E+04  0.11604950432E+04 0.  0.
        2    1    3    3  502    0 -0.51208441867E+03  0.18996868530E+03 -0.83004270957E+02  0.55245657046E+03  0.25500000920E-02 0.  1.
       -2    1    3    3    0  502  0.51208441867E+03 -0.18996868530E+03 -0.52532391866E+03  0.75781513099E+03  0.25500000920E-02 0. -1.
</event>
<event>
 5   0  0.6585930E-03  0.1181983E+04  0.7818609E-02  0.9128774E-01
       -2   -1    0    0    0  501  0.00000000000E+00  0.00000000000E+00  0.70100933166E+03  0.70100933166E+03  0.25500000920E-02 0. -1.
        2   -1    0    0  501    0  0.00000000000E+00  0.00000000000E+00 -0.49824028050E+03  0.49824028050E+03  0.25500000920E-02 0.  1.
    10030    2    1    2    0    0  0.00000000000E+00  0.00000000000E+00  0.20276905116E+03  0.11992496122E+04  0.11819832250E+04 0.  0.
        2    1    3    3  502    0  0.69284231406E+02  0.24991259870E+03  0.64019244849E+03  0.69072641677E+03  0.25500000920E-02 0. -1.
       -2    1    3    3    0  502 -0.69284231406E+02 -0.24991259870E+03 -0.43742339733E+03  0.50852319539E+03  0.25500000920E-02 0.  1.
</event>
<event>
 5   0  0.6640844E-03  0.1187997E+04  0.7818609E-02  0.9123428E-01
       -2   -1    0    0    0  501  0.00000000000E+00  0.00000000000E+00  0.78609028041E+03  0.78609028041E+03  0.25500000920E-02 0. -1.
        2   -1    0    0  501    0  0.00000000000E+00  0.00000000000E+00 -0.44884672563E+03  0.44884672563E+03  0.25500000920E-02 0.  1.
    10030    2    1    2    0    0  0.00000000000E+00  0.00000000000E+00  0.33724355478E+03  0.12349370060E+04  0.11879967145E+04 0.  0.
        5    1    3    3  502    0 -0.41377363252E+03  0.39670446085E+03  0.68150756390E+01  0.57328141735E+03  0.46999998093E+01 0.  1.
       -5    1    3    3    0  502  0.41377363252E+03 -0.39670446085E+03  0.33042847914E+03  0.66165558870E+03  0.46999998093E+01 0. -1.
</event>
<event>
 5   0  0.6349142E-03  0.1215078E+04  0.7818609E-02  0.9099760E-01
        2   -1    0    0  501    0  0.00000000000E+00  0.00000000000E+00  0.10860438818E+04  0.10860438818E+04  0.25500000920E-02 0. -1.
       -2   -1    0    0    0  501  0.00000000000E+00  0.00000000000E+00 -0.33986061790E+03  0.33986061790E+03  0.25500000920E-02 0.  1.
    10030    2    1    2    0    0  0.00000000000E+00  0.00000000000E+00  0.74618326387E+03  0.14259044997E+04  0.12150778489E+04 0.  0.
        1    1    3    3  502    0  0.47658015559E+03 -0.21103644795E+03  0.67791899271E+01  0.52125903782E+03  0.50400001928E-02 0.  1.
       -1    1    3    3    0  502 -0.47658015559E+03  0.21103644795E+03  0.73940407394E+03  0.90464546185E+03  0.50400001928E-02 0. -1.
</event>
<event>
 5   0  0.3772254E-03  0.1343717E+04  0.7818609E-02  0.8995598E-01
        1   -1    0    0  501    0  0.00000000000E+00  0.00000000000E+00  0.13424080362E+04  0.13424080362E+04  0.50400001928E-02 0.  1.
       -1   -1    0    0    0  501  0.00000000000E+00  0.00000000000E+00 -0.33625678435E+03  0.33625678438E+03  0.50400001928E-02 0. -1.
    10030    2    1    2    0    0  0.00000000000E+00  0.00000000000E+00  0.10061512519E+04  0.16786648206E+04  0.13437169487E+04 0.  0.
        3    1    3    3  502    0  0.12101422504E+03  0.42096384796E+03 -0.13336418250E+03  0.45786572194E+03  0.10100000352E+00 0. -1.
       -3    1    3    3    0  502 -0.12101422504E+03 -0.42096384796E+03  0.11395154344E+04  0.12207990987E+04  0.10100000352E+00 0.  1.
</event>
<event>
 5   0  0.6658994E-03  0.1196023E+04  0.7818609E-02  0.9116345E-01
       -2   -1    0    0    0  501  0.00000000000E+00  0.00000000000E+00  0.40120029828E+03  0.40120029829E+03  0.25500000920E-02 0.  1.
        2   -1    0    0  501    0  0.00000000000E+00  0.00000000000E+00 -0.89136936969E+03  0.89136936969E+03  0.25500000920E-02 0. -1.
    10030    2    1    2    0    0  0.00000000000E+00  0.00000000000E+00 -0.49016907140E+03  0.12925696680E+04  0.11960228376E+04 0.  0.
        4    1    3    3  502    0 -0.11387793144E+03  0.25950857961E+03 -0.81418887318E+03  0.86210093392E+03  0.12699999809E+01 0. -1.
       -4    1    3    3    0  502  0.11387793144E+03 -0.25950857961E+03  0.32401980177E+03  0.43046873406E+03  0.12699999809E+01 0.  1.
</event>
<event>
 5   0  0.6640844E-03  0.1152012E+04  0.7818609E-02  0.9155930E-01
        2   -1    0    0  501    0  0.00000000000E+00  0.00000000000E+00  0.21494473822E+03  0.21494473824E+03  0.25500000920E-02 0.  1.
       -2   -1    0    0    0  501  0.00000000000E+00  0.00000000000E+00 -0.15435722214E+04  0.15435722214E+04  0.25500000920E-02 0. -1.
    10030    2    1    2    0    0  0.00000000000E+00  0.00000000000E+00 -0.13286274831E+04  0.17585169596E+04  0.11520116789E+04 0.  0.
        5    1    3    3  502    0  0.33273435877E+03 -0.27355286345E+03 -0.12480129183E+04  0.13202657523E+04  0.46999998093E+01 0. -1.
       -5    1    3    3    0  502 -0.33273435877E+03  0.27355286345E+03 -0.80614564875E+02  0.43825120728E+03  0.46999998093E+01 0.  1.
</event>
<event>
 5   0  0.6349142E-03  0.1210430E+04  0.7818609E-02  0.9103776E-01
       -2   -1    0    0    0  501  0.00000000000E+00  0.00000000000E+00  0.51039076038E+03  0.51039076038E+03  0.25500000920E-02 0.  1.
        2   -1    0    0  501    0  0.00000000000E+00  0.00000000000E+00 -0.71765647710E+03  0.71765647711E+03  0.25500000920E-02 0. -1.
    10030    2    1    2    0    0  0.00000000000E+00  0.00000000000E+00 -0.20726571673E+03  0.12280472375E+04  0.12104300641E+04 0.  0.
        1    1    3    3  502    0  0.32153423834E+03 -0.42499091807E+03  0.18739344662E+03  0.56490516968E+03  0.50400001928E-02 0.  1.
       -1    1    3    3    0  502 -0.32153423834E+03  0.42499091807E+03 -0.39465916335E+03  0.66314206781E+03  0.50400001928E-02 0. -1.
</event>
<event>
 5   0  0.3701879E-03  0.1296438E+04  0.7818609E-02  0.9032395E-01
       -1   -1    0    0    0  501  0.00000000000E+00  0.00000000000E+00  0.50595389826E+03  0.50595389828E+03  0.50400001928E-02 0.  1.
        1   -1    0    0  501    0  0.00000000000E+00  0.00000000000E+00 -0.83048608854E+03  0.83048608855E+03  0.50400001928E-02 0. -1.
    10030    2    1    2    0    0  0.00000000000E+00  0.00000000000E+00 -0.32453219028E+03  0.13364399868E+04  0.12964376946E+04 0.  0.
        1    1    3    3  502    0 -0.36558411348E+02  0.64490578650E+03 -0.21823389090E+03  0.68181084039E+03  0.50400001928E-02 0. -1.
       -1    1    3    3    0  502  0.36558411348E+02 -0.64490578650E+03 -0.10629829938E+03  0.65462914645E+03  0.50400001928E-02 0.  1.
</event>
<event>
 5   0  0.2537625E-03  0.1199965E+04  0.7818609E-02  0.9112887E-01
       -4   -1    0    0    0  501  0.00000000000E+00  0.00000000000E+00  0.40915593676E+03  0.40915790776E+03  0.12699999809E+01 0. -1.
        4   -1    0    0  501    0  0.00000000000E+00  0.00000000000E+00 -0.87980428793E+03  0.87980520456E+03  0.12699999809E+01 0.  1.
    10030    2    1    2    0    0  0.00000000000E+00  0.00000000000E+00 -0.47064835117E+03  0.12889631123E+04  0.11999650138E+04 0.  0.
        4    1    3    3  502    0 -0.10619603496E+03 -0.11340252596E+03  0.38717373620E+03  0.41718442641E+03  0.12699999809E+01 0. -1.
       -4    1    3    3    0  502  0.10619603496E+03  0.11340252596E+03 -0.85782208737E+03  0.87177868591E+03  0.12699999809E+01 0.  1.
</event>
<event>
 5   0  0.3648616E-03  0.1180451E+04  0.7818609E-02  0.9130142E-01
        1   -1    0    0  501    0  0.00000000000E+00  0.00000000000E+00  0.61934374361E+03  0.61934374364E+03  0.50400001928E-02 0. -1.
       -1   -1    0    0    0  501  0.00000000000E+00  0.00000000000E+00 -0.56247665569E+03  0.56247665571E+03  0.50400001928E-02 0.  1.
    10030    2    1    2    0    0  0.00000000000E+00  0.00000000000E+00  0.56867087924E+02  0.11818203993E+04  0.11804514351E+04 0.  0.
        2    1    3    3  502    0 -0.11234940068E+03  0.16130618155E+03 -0.52874067833E+03  0.56409997072E+03  0.25500000920E-02 0.  1.
       -2    1    3    3    0  502  0.11234940068E+03 -0.16130618155E+03  0.58560776626E+03  0.61772042863E+03  0.25500000920E-02 0. -1.
</event>
<event>
 5   0  0.6585930E-03  0.1165482E+04  0.7818609E-02  0.9143619E-01
       -2   -1    0    0    0  501  0.00000000000E+00  0.00000000000E+00  0.26659976201E+03  0.26659976202E+03  0.25500000920E-02 0.  1.
        2   -1    0    0  501    0  0.00000000000E+00  0.00000000000E+00 -0.12737706419E+04  0.12737706419E+04  0.25500000920E-02 0. -1.
    10030    2    1    2    0    0  0.00000000000E+00  0.00000000000E+00 -0.10071708799E+04  0.15403704039E+04  0.11654817888E+04 0.  0.
        2    1    3    3  502    0  0.60360661273E+02  0.57307770254E+02 -0.12658742553E+04  0.12686075911E+04  0.25500000920E-02 0. -1.
       -2    1    3    3    0  502 -0.60360661273E+02 -0.57307770254E+02  0.25870337543E+03  0.27176281281E+03  0.25500000920E-02 0.  1.
</event>
<event>
 5   0  0.6658994E-03  0.1342310E+04  0.7818609E-02  0.8996669E-01
        2   -1    0    0  501    0  0.00000000000E+00  0.00000000000E+00  0.66101463108E+03  0.66101463109E+03  0.25500000920E-02 0. -1.
       -2   -1    0    0    0  501  0.00000000000E+00  0.00000000000E+00 -0.68145142576E+03  0.68145142576E+03  0.25500000920E-02 0.  1.
    10030    2    1    2    0    0  0.00000000000E+00  0.00000000000E+00 -0.20436794674E+02  0.13424660569E+04  0.13423104899E+04 0.  0.
        4    1    3    3  502    0 -0.26453286458E+02 -0.32514489120E+03  0.57638924007E+03  0.66230291077E+03  0.12699999809E+01 0. -1.
       -4    1    3    3    0  502  0.26453286458E+02  0.32514489120E+03 -0.59682603475E+03  0.68016314608E+03  0.12699999809E+01 0.  1.
</event>
<event>
 5   0  0.6640844E-03  0.1153858E+04  0.7818609E-02  0.9154232E-01
       -2   -1    0    0    0  501  0.00000000000E+00  0.00000000000E+00  0.21547368930E+03  0.21547368932E+03  0.25500000920E-02 0.  1.
        2   -1    0    0  501    0  0.00000000000E+00  0.00000000000E+00 -0.15447212327E+04  0.15447212327E+04  0.25500000920E-02 0. -1.
    10030    2    1    2    0    0  0.00000000000E+00  0.00000000000E+00 -0.13292475434E+04  0.17601949220E+04  0.11538575007E+04 0.  0.
        5    1    3    3  502    0 -0.15355369633E+03 -0.44545587998E+03 -0.11724415366E+04  0.12635865326E+04  0.46999998093E+01 0. -1.
       -5    1    3    3    0  502  0.15355369633E+03  0.44545587998E+03 -0.15680600680E+03  0.49660838941E+03  0.46999998093E+01 0.  1.
</event>
<event>
 5   0  0.3944074E-03  0.1218477E+04  0.7818609E-02  0.9096836E-01
        1   -1    0    0  501    0  0.00000000000E+00  0.00000000000E+00  0.13017559586E+04  0.13017559586E+04  0.50400001928E-02 0.  1.
       -1   -1    0    0    0  501  0.00000000000E+00  0.00000000000E+00 -0.28513122978E+03  0.28513122983E+03  0.50400001928E-02 0. -1.
    10030    2    1    2    0    0  0.00000000000E+00  0.00000000000E+00  0.10166247289E+04  0.15868871885E+04  0.12184765528E+04 0.  0.
        4    1    3    3  502    0  0.85038754935E+02  0.48817776664E+03  0.96990536036E+03  0.10891589152E+04  0.12699999809E+01 0.  1.
       -4    1    3    3    0  502 -0.85038754935E+02 -0.48817776664E+03  0.46719368499E+02  0.49772827324E+03  0.12699999809E+01 0. -1.
</event>
<event>
 5   0  0.3944074E-03  0.1192792E+04  0.7818609E-02  0.9119189E-01
       -1   -1    0    0    0  501  0.00000000000E+00  0.00000000000E+00  0.37656213047E+03  0.37656213050E+03  0.50400001928E-02 0. -1.
        1   -1    0    0  501    0  0.00000000000E+00  0.00000000000E+00 -0.94456780113E+03  0.94456780114E+03  0.50400001928E-02 0.  1.
    10030    2    1    2    0    0  0.00000000000E+00  0.00000000000E+00 -0.56800567066E+03  0.13211299316E+04  0.11927924607E+04 0.  0.
        4    1    3    3  502    0 -0.57116706180E+03 -0.44970389030E+02 -0.10055400709E+03  0.58169310604E+03  0.12699999809E+01 0. -1.
       -4    1    3    3    0  502  0.57116706180E+03  0.44970389030E+02 -0.46745166358E+03  0.73943682560E+03  0.12699999809E+01 0.  1.
</event>
<event>
 5   0  0.6585930E-03  0.1186221E+04  0.7818609E-02  0.9125004E-01
        2   -1    0    0  501    0  0.00000000000E+00  0.00000000000E+00  0.94920632972E+03  0.94920632972E+03  0.25500000920E-02 0.  1.
       -2   -1    0    0    0  501  0.00000000000E+00  0.00000000000E+00 -0.37060413239E+03  0.37060413240E+03  0.25500000920E-02 0. -1.
    10030    2    1    2    0    0  0.00000000000E+00  0.00000000000E+00  0.57860219732E+03  0.13198104621E+04  0.11862205331E+04 0.  0.
        2    1    3    3  502    0  0.12581713996E+03  0.43776647228E+03  0.71196472166E+03  0.84520009575E+03  0.25500000920E-02 0.  1.
       -2    1    3    3    0  502 -0.12581713996E+03 -0.43776647228E+03 -0.13336252434E+03  0.47461036637E+03  0.25500000920E-02 0. -1.
</event>
<event>
 5   0  0.6349142E-03  0.1264288E+04  0.7818609E-02  0.9058375E-01
        2   -1    0    0  501    0  0.00000000000E+00  0.00000000000E+00  0.24675330394E+04  0.24675330394E+04  0.25500000920E-02 0. -1.
       -2   -1    0    0    0  501  0.00000000000E+00  0.00000000000E+00 -0.16194550692E+03  0.16194550694E+03  0.25500000920E-02 0.  1.
    10030    2    1    2    0    0  0.00000000000E+00  0.00000000000E+00  0.23055875324E+04  0.26294785463E+04  0.12642877662E+04 0.  0.
        1    1    3    3  502    0  0.16477986871E+03 -0.54347123766E+03  0.17302642011E+04  0.18210786905E+04  0.50400001928E-02 0. -1.
       -1    1    3    3    0  502 -0.16477986871E+03  0.54347123766E+03  0.57532333135E+03  0.80839985583E+03  0.50400001928E-02 0.  1.
</event>
<event>
 5   0  0.6349142E-03  0.1328429E+04  0.7818609E-02  0.9007320E-01
        2   -1    0    0  501    0  0.00000000000E+00  0.00000000000E+00  0.72693399819E+03  0.72693399820E+03  0.25500000920E-02 0. -1.
       -2   -1    0    0    0  501  0.00000000000E+00  0.00000000000E+00 -0.60690654078E+03  0.60690654079E+03  0.25500000920E-02 0.  1.
    10030    2    1    2    0    0  0.00000000000E+00  0.00000000000E+00  0.12002745741E+03  0.13338405390E+04  0.13284291449E+04 0.  0.
        1    1    3    3  502    0 -0.39576672727E+03 -0.94887900776E+02 -0.46704930668E+03  0.61949178447E+03  0.50400001928E-02 0.  1.
       -1    1    3    3    0  502  0.39576672727E+03  0.94887900776E+02  0.58707676409E+03  0.71434875452E+03  0.50400001928E-02 0. -1.
</event>
<event>
 5   0  0.3648616E-03  0.1003951E+04  0.7818609E-02  0.9304222E-01
       -1   -1    0    0    0  501  0.00000000000E+00  0.00000000000E+00  0.20311430927E+03  0.20311430934E+03  0.50400001928E-02 0. -1.
        1   -1    0    0  501    0  0.00000000000E+00  0.00000000000E+00 -0.12405801138E+04  0.12405801138E+04  0.50400001928E-02 0.  1.
    10030    2    1    2    0    0  0.00000000000E+00  0.00000000000E+00 -0.10374658046E+04  0.14436944232E+04  0.10039513394E+04 0.  0.
        2    1    3    3  502    0  0.20539890267E+03  0.45790819499E+03 -0.53387980138E+03  0.73273205647E+03  0.25500000920E-02 0. -1.
       -2    1    3    3    0  502 -0.20539890267E+03 -0.45790819499E+03 -0.50358600318E+03  0.71096236670E+03  0.25500000920E-02 0.  1.
</event>
<event>
 5   0  0.6640844E-03  0.1060811E+04  0.7818609E-02  0.9244253E-01
        2   -1    0    0  501    0  0.00000000000E+00  0.00000000000E+00  0.10457823855E+04  0.10457823855E+04  0.25500000920E-02 0.  1.
       -2   -1    0    0    0  501  0.00000000000E+00  0.00000000000E+00 -0.26901376662E+03  0.26901376663E+03  0.25500000920E-02 0. -1.
    10030    2    1    2    0    0  0.00000000000E+00  0.00000000000E+00  0.77676861891E+03  0.13147961522E+04  0.10608107439E+04 0.  0.
        5    1    3    3  502    0 -0.30449534286E+03 -0.42891369567E+03  0.47265975992E+03  0.70718718229E+03  0.46999998093E+01 0.  1.
       -5    1    3    3    0  502  0.30449534286E+03  0.42891369567E+03  0.30410885899E+03  0.60760896987E+03  0.46999998093E+01 0. -1.
</event>
<event>
 5   0  0.3944074E-03  0.1204237E+04  0.7818609E-02  0.9109156E-01
        1   -1    0    0  501    0  0.00000000000E+00  0.00000000000E+00  0.12199199701E+04  0.12199199701E+04  0.50400001928E-02 0. -1.
       -1   -1    0    0    0  501  0.00000000000E+00  0.00000000000E+00 -0.29718907716E+03  0.29718907720E+03  0.50400001928E-02 0.  1.
    10030    2    1    2    0    0  0.00000000000E+00  0.00000000000E+00  0.92273089296E+03  0.15171090473E+04  0.12042373357E+04 0.  0.
        4    1    3    3  502    0 -0.22318992072E+03  0.25851095628E+03 -0.16335709036E+03  0.37858791198E+03  0.12699999809E+01 0.  1.
       -4    1    3    3    0  502  0.22318992072E+03 -0.25851095628E+03  0.10860879833E+04  0.11385211354E+04  0.12699999809E+01 0. -1.
</event>
<event>
 5   0  0.3701879E-03  0.1015104E+04  0.7818609E-02  0.9292132E-01
        1   -1    0    0  501    0  0.00000000000E+00  0.00000000000E+00  0.40134787529E+03  0.40134787532E+03  0.50400001928E-02 0.  1.
       -1   -1    0    0    0  501  0.00000000000E+00  0.00000000000E+00 -0.64186001453E+03  0.64186001455E+03  0.50400001928E-02 0. -1.
    10030    2    1    2    0    0  0.00000000000E+00  0.00000000000E+00 -0.24051213924E+03  0.10432078899E+04  0.10151042372E+04 0.  0.
        1    1    3    3  502    0  0.24083968783E+03  0.36783000858E+03  0.14035184451E+03  0.46152065038E+03  0.50400001928E-02 0.  1.
       -1    1    3    3    0  502 -0.24083968783E+03 -0.36783000858E+03 -0.38086398375E+03  0.58168723949E+03  0.50400001928E-02 0. -1.
</event>
<event>
 5   0  0.3701879E-03  0.1229406E+04  0.7818609E-02  0.9087500E-01
        1   -1    0    0  501    0  0.00000000000E+00  0.00000000000E+00  0.14334432605E+04  0.14334432605E+04  0.50400001928E-02 0. -1.
       -1   -1    0    0    0  501  0.00000000000E+00  0.00000000000E+00 -0.26360270667E+03  0.26360270672E+03  0.50400001928E-02 0.  1.
    10030    2    1    2    0    0  0.00000000000E+00  0.00000000000E+00  0.11698405538E+04  0.16970459672E+04  0.12294055854E+04 0.  0.
        1    1    3    3  502    0  0.36451487252E+03 -0.26411720088E+02 -0.97343047932E+02  0.37821203081E+03  0.50400001928E-02 0.  1.
       -1    1    3    3    0  502 -0.36451487252E+03  0.26411720088E+02  0.12671836017E+04  0.13188339364E+04  0.50400001928E-02 0. -1.
</event>
<event>
 5   0  0.3648616E-03  0.1178129E+04  0.7818609E-02  0.9132219E-01
       -1   -1    0    0    0  501  0.00000000000E+00  0.00000000000E+00  0.21533498296E+03  0.21533498301E+03  0.50400001928E-02 0.  1.
        1   -1    0    0  501    0  0.00000000000E+00  0.00000000000E+00 -0.16114278815E+04  0.16114278816E+04  0.50400001928E-02 0. -1.
    10030    2    1    2    0    0  0.00000000000E+00  0.00000000000E+00 -0.13960928986E+04  0.18267628646E+04  0.11781286780E+04 0.  0.
        2    1    3    3  502    0  0.69146196830E+02 -0.58496722656E+03 -0.70638824450E+03  0.91975660077E+03  0.25500000920E-02 0.  1.
       -2    1    3    3    0  502 -0.69146196830E+02  0.58496722656E+03 -0.68970465410E+03  0.90700626380E+03  0.25500000920E-02 0. -1.
</event>
<event>
 5   0  0.2537625E-03  0.1190216E+04  0.7818609E-02  0.9121464E-01
       -3   -1    0    0    0  501  0.00000000000E+00  0.00000000000E+00  0.36327567166E+03  0.36327568570E+03  0.10100000352E+00 0. -1.
        3   -1    0    0  501    0  0.00000000000E+00  0.00000000000E+00 -0.97488905354E+03  0.97488905878E+03  0.10100000352E+00 0.  1.
    10030    2    1    2    0    0  0.00000000000E+00  0.00000000000E+00 -0.61161338188E+03  0.13381647445E+04  0.11902159277E+04 0.  0.
        5    1    3    3  502    0  0.33716007847E+03 -0.23697791686E+03 -0.78846714616E+03  0.88968420362E+03  0.46999998093E+01 0. -1.
       -5    1    3    3    0  502 -0.33716007847E+03  0.23697791686E+03  0.17685376428E+03  0.44848054086E+03  0.46999998093E+01 0.  1.
</event>
<event>
 5   0  0.3701879E-03  0.1237037E+04  0.7818609E-02  0.9081042E-01
       -1   -1    0    0    0  501  0.00000000000E+00  0.00000000000E+00  0.24621250313E+03  0.24621250319E+03  0.50400001928E-02 0. -1.
        1   -1    0    0  501    0  0.00000000000E+00  0.00000000000E+00 -0.15538011381E+04  0.15538011381E+04  0.50400001928E-02 0.  1.
    10030    2    1    2    0    0  0.00000000000E+00  0.00000000000E+00 -0.13075886350E+04  0.18000136413E+04  0.12370372147E+04 0.  0.
        1    1    3    3  502    0  0.19148127851E+03 -0.48258113225E+03 -0.16462151506E+03  0.54465573757E+03  0.50400001928E-02 0. -1.
       -1    1    3    3    0  502 -0.19148127851E+03  0.48258113225E+03 -0.11429671199E+04  0.12553579037E+04  0.50400001928E-02 0.  1.
</event>
<event>
 5   0  0.6493047E-03  0.1185373E+04  0.7818609E-02  0.9125756E-01
       -2   -1    0    0    0  501  0.00000000000E+00  0.00000000000E+00  0.72126016376E+03  0.72126016376E+03  0.25500000920E-02 0.  1.
        2   -1    0    0  501    0  0.00000000000E+00  0.00000000000E+00 -0.48703293798E+03  0.48703293799E+03  0.25500000920E-02 0. -1.
    10030    2    1    2    0    0  0.00000000000E+00  0.00000000000E+00  0.23422722577E+03  0.12082931017E+04  0.11853732857E+04 0.  0.
        3    1    3    3  502    0  0.25203691141E+03 -0.19996424186E+03  0.62450228910E+03  0.70250368115E+03  0.10100000352E+00 0.  1.
       -3    1    3    3    0  502 -0.25203691141E+03  0.19996424186E+03 -0.39027506332E+03  0.50578942060E+03  0.10100000352E+00 0. -1.
</event>
<event>
 5   0  0.3772254E-03  0.1251511E+04  0.7818609E-02  0.9068927E-01
        1   -1    0    0  501    0  0.00000000000E+00  0.00000000000E+00  0.52824107894E+03  0.52824107897E+03  0.50400001928E-02 0.  1.
       -1   -1    0    0    0  501  0.00000000000E+00  0.00000000000E+00 -0.74127134828E+03  0.74127134830E+03  0.50400001928E-02 0. -1.
    10030    2    1    2    0    0  0.00000000000E+00  0.00000000000E+00 -0.21303026934E+03  0.12695124273E+04  0.12515110496E+04 0.  0.
        3    1    3    3  502    0 -0.57065657426E+03  0.75292842051E+02 -0.35550868961E+03  0.67653852543E+03  0.10100000352E+00 0. -1.
       -3    1    3    3    0  502  0.57065657426E+03 -0.75292842051E+02  0.14247842028E+03  0.59297390183E+03  0.10100000352E+00 0.  1.
</event>
<event>
 5   0  0.6658994E-03  0.1197286E+04  0.7818609E-02  0.9115235E-01
        2   -1    0    0  501    0  0.00000000000E+00  0.00000000000E+00  0.14490563816E+04  0.14490563816E+04  0.25500000920E-02 0.  1.
       -2   -1    0    0    0  501  0.00000000000E+00  0.00000000000E+00 -0.24731523864E+03  0.24731523865E+03  0.25500000920E-02 0. -1.
    10030    2    1    2    0    0  0.00000000000E+00  0.00000000000E+00  0.12017411430E+04  0.16963716203E+04  0.11972864734E+04 0.  0.
        4    1    3    3  502    0 -0.45081069239E+03 -0.34360737232E+03  0.87368555468E+03  0.10414530081E+04  0.12699999809E+01 0.  1.
       -4    1    3    3    0  502  0.45081069239E+03  0.34360737232E+03  0.32805558830E+03  0.65491861219E+03  0.12699999809E+01 0. -1.
</event>
<event>
 5   0  0.6493047E-03  0.1215794E+04  0.7818609E-02  0.9099144E-01
       -2   -1    0    0    0  501  0.00000000000E+00  0.00000000000E+00  0.53597417168E+03  0.53597417169E+03  0.25500000920E-02 0.  1.
        2   -1    0    0  501    0  0.00000000000E+00  0.00000000000E+00 -0.68947093169E+03  0.68947093169E+03  0.25500000920E-02 0. -1.
    10030    2    1    2    0    0  0.00000000000E+00  0.00000000000E+00 -0.15349676001E+03  0.12254451034E+04  0.12157937515E+04 0.  0.
        3    1    3    3  502    0 -0.71520807540E+02 -0.49321443819E+03 -0.42759619135E+03  0.65666903460E+03  0.10100000352E+00 0. -1.
       -3    1    3    3    0  502  0.71520807540E+02  0.49321443819E+03  0.27409943134E+03  0.56877606878E+03  0.10100000352E+00 0.  1.
</event>
<event>
 5   0  0.6585930E-03  0.1166989E+04  0.7818609E-02  0.9142252E-01
        2   -1    0    0  501    0  0.00000000000E+00  0.00000000000E+00  0.13778276287E+04  0.13778276287E+04  0.25500000920E-02 0. -1.
       -2   -1    0    0    0  501  0.00000000000E+00  0.00000000000E+00 -0.24710321804E+03  0.24710321806E+03  0.25500000920E-02 0.  1.
    10030    2    1    2    0    0  0.00000000000E+00  0.00000000000E+00  0.11307244107E+04  0.16249308468E+04  0.11669886734E+04 0.  0.
        2    1    3    3  502    0 -0.44673392365E+03 -0.20445506918E+03  0.12704473394E+03  0.50745781921E+03  0.25500000920E-02 0.  1.
       -2    1    3    3    0  502  0.44673392365E+03  0.20445506918E+03  0.10036796767E+04  0.11174730276E+04  0.25500000920E-02 0. -1.
</event>
<event>
 5   0  0.3731281E-03  0.9650858E+03  0.7818609E-02  0.9347689E-01
        1   -1    0    0  501    0  0.00000000000E+00  0.00000000000E+00  0.16140756856E+04  0.16140756856E+04  0.50400001928E-02 0.  1.
       -1   -1    0    0    0  501  0.00000000000E+00  0.00000000000E+00 -0.14426066837E+03  0.14426066846E+03  0.50400001928E-02 0. -1.
    10030    2    1    2    0    0  0.00000000000E+00  0.00000000000E+00  0.14698150173E+04  0.17583363541E+04  0.96508577296E+03 0.  0.
        5    1    3    3  502    0 -0.17090225663E+03 -0.13365669093E+03  0.15201521107E+04  0.15355638124E+04  0.46999998093E+01 0.  1.
       -5    1    3    3    0  502  0.17090225663E+03  0.13365669093E+03 -0.50337093439E+02  0.22277254168E+03  0.46999998093E+01 0. -1.
</event>
<event>
 5   0  0.3701879E-03  0.1190117E+04  0.7818609E-02  0.9121552E-01
       -1   -1    0    0    0  501  0.00000000000E+00  0.00000000000E+00  0.10335454259E+04  0.10335454260E+04  0.50400001928E-02 0. -1.
        1   -1    0    0  501    0  0.00000000000E+00  0.00000000000E+00 -0.34260161531E+03  0.34260161535E+03  0.50400001928E-02 0.  1.
    10030    2    1    2    0    0  0.00000000000E+00  0.00000000000E+00  0.69094381064E+03  0.13761470413E+04  0.11901165194E+04 0.  0.
        1    1    3    3  502    0  0.48201101116E+03  0.33375542601E+03  0.22773771508E+03  0.62896086219E+03  0.50400001928E-02 0.  1.
       -1    1    3    3    0  502 -0.48201101116E+03 -0.33375542601E+03  0.46320609555E+03  0.74718617911E+03  0.50400001928E-02 0. -1.
</event>
<event>
 5   0  0.6658994E-03  0.1116647E+04  0.7818609E-02  0.9189117E-01
        2   -1    0    0  501    0  0.00000000000E+00  0.00000000000E+00  0.11154172662E+04  0.11154172662E+04  0.25500000920E-02 0. -1.
       -2   -1    0    0    0  501  0.00000000000E+00  0.00000000000E+00 -0.27946945552E+03  0.27946945553E+03  0.25500000920E-02 0.  1.
    10030    2    1    2    0    0  0.00000000000E+00  0.00000000000E+00  0.83594781071E+03  0.13948867218E+04  0.11166468664E+04 0.  0.
        4    1    3    3  502    0 -0.11132403883E+03 -0.50216116059E+03  0.14668562674E+03  0.53486181283E+03  0.12699999809E+01 0.  1.
       -4    1    3    3    0  502  0.11132403883E+03  0.50216116059E+03  0.68926218397E+03  0.86002490893E+03  0.12699999809E+01 0. -1.
</event>
<event>
 5   0  0.6658994E-03  0.1315626E+04  0.7818609E-02  0.9017264E-01
       -2   -1    0    0    0  501  0.00000000000E+00  0.00000000000E+00  0.56778318158E+03  0.56778318158E+03  0.25500000920E-02 0.  1.
        2   -1    0    0  501    0  0.00000000000E+00  0.00000000000E+00 -0.76211868149E+03  0.76211868149E+03  0.25500000920E-02 0. -1.
    10030    2    1    2    0    0  0.00000000000E+00  0.00000000000E+00 -0.19433549991E+03  0.13299018631E+04  0.13156263447E+04 0.  0.
        4    1    3    3  502    0  0.56497548576E+03  0.15766713848E+01 -0.43774610875E+03  0.71471886363E+03  0.12699999809E+01 0. -1.
       -4    1    3    3    0  502 -0.56497548576E+03 -0.15766713848E+01  0.24341060884E+03  0.61518299944E+03  0.12699999809E+01 0.  1.
</event>
<event>
 5   0  0.6640844E-03  0.1130982E+04  0.7818609E-02  0.9175510E-01
        2   -1    0    0  501    0  0.00000000000E+00  0.00000000000E+00  0.62495076167E+03  0.62495076167E+03  0.25500000920E-02 0.  1.
       -2   -1    0    0    0  501  0.00000000000E+00  0.00000000000E+00 -0.51168885998E+03  0.51168885999E+03  0.25500000920E-02 0. -1.
    10030    2    1    2    0    0  0.00000000000E+00  0.00000000000E+00  0.11326190168E+03  0.11366396217E+04  0.11309824805E+04 0.  0.
        5    1    3    3  502    0  0.13151457079E+03 -0.24056004691E+02 -0.49555656871E+03  0.51329638268E+03  0.46999998093E+01 0. -1.
       -5    1    3    3    0  502 -0.13151457079E+03  0.24056004691E+02  0.60881847039E+03  0.62334323898E+03  0.46999998093E+01 0.  1.
</event>
<event>
 5   0  0.6493047E-03  0.1087637E+04  0.7818609E-02  0.9217326E-01
       -2   -1    0    0    0  501  0.00000000000E+00  0.00000000000E+00  0.45373364635E+03  0.45373364636E+03  0.25500000920E-02 0. -1.
        2   -1    0    0  501    0  0.00000000000E+00  0.00000000000E+00 -0.65178850164E+03  0.65178850164E+03  0.25500000920E-02 0.  1.
    10030    2    1    2    0    0  0.00000000000E+00  0.00000000000E+00 -0.19805485529E+03  0.11055221480E+04  0.10876366553E+04 0.  0.
        3    1    3    3  502    0 -0.49367165225E+03 -0.15374904324E+03 -0.27028516638E+03  0.58344198503E+03  0.10100000352E+00 0.  1.
       -3    1    3    3    0  502  0.49367165225E+03  0.15374904324E+03  0.72230311089E+02  0.52208016297E+03  0.10100000352E+00 0. -1.
</event>
<event>
 5   0  0.6658994E-03  0.1225352E+04  0.7818609E-02  0.9090951E-01
       -2   -1    0    0    0  501  0.00000000000E+00  0.00000000000E+00  0.10846460507E+04  0.10846460507E+04  0.25500000920E-02 0.  1.
        2   -1    0    0  501    0  0.00000000000E+00  0.00000000000E+00 -0.34607780805E+03  0.34607780805E+03  0.25500000920E-02 0. -1.
    10030    2    1    2    0    0  0.00000000000E+00  0.00000000000E+00  0.73856824263E+03  0.14307238587E+04  0.12253520763E+04 0.  0.
        4    1    3    3  502    0 -0.21466632982E+03 -0.51729775955E+03  0.65929102159E+03  0.86506928580E+03  0.12699999809E+01 0.  1.
       -4    1    3    3    0  502  0.21466632982E+03  0.51729775955E+03  0.79277221039E+02  0.56565457293E+03  0.12699999809E+01 0. -1.
</event>
<event>
 5   0  0.2537625E-03  0.1200599E+04  0.7818609E-02  0.9112333E-01
       -3   -1    0    0    0  501  0.00000000000E+00  0.00000000000E+00  0.54269101580E+03  0.54269102520E+03  0.10100000352E+00 0.  1.
        3   -1    0    0  501    0  0.00000000000E+00  0.00000000000E+00 -0.66402277412E+03  0.66402278180E+03  0.10100000352E+00 0. -1.
    10030    2    1    2    0    0  0.00000000000E+00  0.00000000000E+00 -0.12133175832E+03  0.12067138070E+04  0.12005985243E+04 0.  0.
        5    1    3    3  502    0  0.18253626403E+03 -0.23897252092E+03  0.46150875572E+03  0.55085367843E+03  0.46999998093E+01 0.  1.
       -5    1    3    3    0  502 -0.18253626403E+03  0.23897252092E+03 -0.58284051404E+03  0.65586012857E+03  0.46999998093E+01 0. -1.
</event>
<event>
 5   0  0.3731281E-03  0.1221257E+04  0.7818609E-02  0.9094451E-01
       -1   -1    0    0    0  501  0.00000000000E+00  0.00000000000E+00  0.13315905787E+04  0.13315905787E+04  0.50400001928E-02 0.  1.
        1   -1    0    0  501    0  0.00000000000E+00  0.00000000000E+00 -0.28001660131E+03  0.28001660136E+03  0.50400001928E-02 0. -1.
    10030    2    1    2    0    0  0.00000000000E+00  0.00000000000E+00  0.10515739774E+04  0.16116071801E+04  0.12212574966E+04 0.  0.
        5    1    3    3  502    0  0.26714771653E+02 -0.58180481758E+03  0.28376951630E+03  0.64788714539E+03  0.46999998093E+01 0. -1.
       -5    1    3    3    0  502 -0.26714771653E+02  0.58180481758E+03  0.76780446112E+03  0.96372003471E+03  0.46999998093E+01 0.  1.
</event>
<event>
 5   0  0.3648616E-03  0.1161358E+04  0.7818609E-02  0.9147369E-01
        1   -1    0    0  501    0  0.00000000000E+00  0.00000000000E+00  0.68680515513E+03  0.68680515515E+03  0.50400001928E-02 0. -1.
       -1   -1    0    0    0  501  0.00000000000E+00  0.00000000000E+00 -0.49095165505E+03  0.49095165508E+03  0.50400001928E-02 0.  1.
    10030    2    1    2    0    0  0.00000000000E+00  0.00000000000E+00  0.19585350008E+03  0.11777568102E+04  0.11613580458E+04 0.  0.
        2    1    3    3  502    0 -0.11306130761E+03  0.25932153591E+03 -0.41634087049E+03  0.50335895612E+03  0.25500000920E-02 0.  1.
       -2    1    3    3    0  502  0.11306130761E+03 -0.25932153591E+03  0.61219437056E+03  0.67439785411E+03  0.25500000920E-02 0. -1.
</event>
<event>
 5   0  0.2537625E-03  0.1205210E+04  0.7818609E-02  0.9108308E-01
        3   -1    0    0  501    0  0.00000000000E+00  0.00000000000E+00  0.10716569364E+04  0.10716569412E+04  0.10100000352E+00 0.  1.
       -3   -1    0    0    0  501  0.00000000000E+00  0.00000000000E+00 -0.33885194013E+03  0.33885195518E+03  0.10100000352E+00 0. -1.
    10030    2    1    2    0    0  0.00000000000E+00  0.00000000000E+00  0.73280499627E+03  0.14105088963E+04  0.12052104315E+04 0.  0.
        3    1    3    3  502    0  0.42008520347E+03 -0.42031509771E+03  0.24938770695E+03  0.64446147916E+03  0.10100000352E+00 0. -1.
       -3    1    3    3    0  502 -0.42008520347E+03  0.42031509771E+03  0.48341728932E+03  0.76604741718E+03  0.10100000352E+00 0.  1.
</event>
<event>
 5   0  0.6658994E-03  0.1200779E+04  0.7818609E-02  0.9112175E-01
        2   -1    0    0  501    0  0.00000000000E+00  0.00000000000E+00  0.59490145357E+03  0.59490145357E+03  0.25500000920E-02 0. -1.
       -2   -1    0    0    0  501  0.00000000000E+00  0.00000000000E+00 -0.60592771753E+03  0.60592771754E+03  0.25500000920E-02 0.  1.
    10030    2    1    2    0    0  0.00000000000E+00  0.00000000000E+00 -0.11026263965E+02  0.12008291711E+04  0.12007785473E+04 0.  0.
        4    1    3    3  502    0  0.53403786187E+01  0.50771858726E+03  0.31490478222E+03  0.59747244142E+03  0.12699999809E+01 0. -1.
       -4    1    3    3    0  502 -0.53403786187E+01 -0.50771858726E+03 -0.32593104619E+03  0.60335672969E+03  0.12699999809E+01 0.  1.
</event>
<event>
 5   0  0.6493047E-03  0.1125105E+04  0.7818609E-02  0.9181062E-01
        2   -1    0    0  501    0  0.00000000000E+00  0.00000000000E+00  0.39134965748E+03  0.39134965749E+03  0.25500000920E-02 0.  1.
       -2   -1    0    0    0  501  0.00000000000E+00  0.00000000000E+00 -0.80865168848E+03  0.80865168848E+03  0.25500000920E-02 0. -1.
    10030    2    1    2    0    0  0.00000000000E+00  0.00000000000E+00 -0.41730203100E+03  0.12000013460E+04  0.11251054374E+04 0.  0.
        3    1    3    3  502    0 -0.45059117205E+03  0.33227457181E+02  0.14881488203E+03  0.47569144154E+03  0.10100000352E+00 0.  1.
       -3    1    3    3    0  502  0.45059117205E+03 -0.33227457181E+02 -0.56611691303E+03  0.72430990443E+03  0.10100000352E+00 0. -1.
</event>
<event>
 5   0  0.3731281E-03  0.1103156E+04  0.7818609E-02  0.9202121E-01
        1   -1    0    0  501    0  0.00000000000E+00  0.00000000000E+00  0.53975780456E+03  0.53975780458E+03  0.50400001928E-02 0. -1.
       -1   -1    0    0    0  501  0.00000000000E+00  0.00000000000E+00 -0.56365682964E+03  0.56365682967E+03  0.50400001928E-02 0.  1.
    10030    2    1    2    0    0  0.00000000000E+00  0.00000000000E+00 -0.23899025085E+02  0.11034146342E+04  0.11031557876E+04 0.  0.
        5    1    3    3  502    0 -0.11882500081E+03  0.53704428019E+03  0.29049655382E+02  0.55081930992E+03  0.46999998093E+01 0. -1.
       -5    1    3    3    0  502  0.11882500081E+03 -0.53704428019E+03 -0.52948680467E+02  0.55259532433E+03  0.46999998093E+01 0.  1.
</event>
<event>
 5   0  0.6585930E-03  0.1199772E+04  0.7818609E-02  0.9113056E-01
       -2   -1    0    0    0  501  0.00000000000E+00  0.00000000000E+00  0.93260734882E+03  0.93260734882E+03  0.25500000920E-02 0. -1.
        2   -1    0    0  501    0  0.00000000000E+00  0.00000000000E+00 -0.38586814738E+03  0.38586814739E+03  0.25500000920E-02 0.  1.
    10030    2    1    2    0    0  0.00000000000E+00  0.00000000000E+00  0.54673920143E+03  0.13184754962E+04  0.11997724283E+04 0.  0.
        2    1    3    3  502    0  0.48657461532E+03 -0.97798665556E+02  0.64367099455E+03  0.81279258393E+03  0.25500000920E-02 0. -1.
       -2    1    3    3    0  502 -0.48657461532E+03  0.97798665556E+02 -0.96931793118E+02  0.50568291229E+03  0.25500000920E-02 0.  1.
</event>
<event>
 5   0  0.6658994E-03  0.1142119E+04  0.7818609E-02  0.9165085E-01
       -2   -1    0    0    0  501  0.00000000000E+00  0.00000000000E+00  0.15238558821E+03  0.15238558823E+03  0.25500000920E-02 0.  1.
        2   -1    0    0  501    0  0.00000000000E+00  0.00000000000E+00 -0.21400243258E+04  0.21400243258E+04  0.25500000920E-02 0. -1.
    10030    2    1    2    0    0  0.00000000000E+00  0.00000000000E+00 -0.19876387376E+04  0.22924099140E+04  0.11421188479E+04 0.  0.
        4    1    3    3  502    0  0.24078601945E+03  0.45014238558E+03 -0.15075146021E+04  0.15916054671E+04  0.12699999809E+01 0. -1.
       -4    1    3    3    0  502 -0.24078601945E+03 -0.45014238558E+03 -0.48012413549E+03  0.70080444693E+03  0.12699999809E+01 0.  1.
</event>
<event>
 5   0  0.3701879E-03  0.1188070E+04  0.7818609E-02  0.9123363E-01
        1   -1    0    0  501    0  0.00000000000E+00  0.00000000000E+00  0.52976048887E+03  0.52976048889E+03  0.50400001928E-02 0.  1.
       -1   -1    0    0    0  501  0.00000000000E+00  0.00000000000E+00 -0.66610773159E+03  0.66610773161E+03  0.50400001928E-02 0. -1.
    10030    2    1    2    0    0  0.00000000000E+00  0.00000000000E+00 -0.13634724273E+03  0.11958682205E+04  0.11880699601E+04 0.  0.
        1    1    3    3  502    0 -0.50687498326E+03  0.71457059252E+02  0.23521679480E+03  0.56334296885E+03  0.50400001928E-02 0.  1.
       -1    1    3    3    0  502  0.50687498326E+03 -0.71457059252E+02 -0.37156403753E+03  0.63252525165E+03  0.50400001928E-02 0. -1.
</event>
<event>
 5   0  0.6585930E-03  0.1170861E+04  0.7818609E-02  0.9138752E-01
       -2   -1    0    0    0  501  0.00000000000E+00  0.00000000000E+00  0.31214539798E+03  0.31214539799E+03  0.25500000920E-02 0. -1.
        2   -1    0    0  501    0  0.00000000000E+00  0.00000000000E+00 -0.10979775138E+04  0.10979775138E+04  0.25500000920E-02 0.  1.
    10030    2    1    2    0    0  0.00000000000E+00  0.00000000000E+00 -0.78583211580E+03  0.14101229118E+04  0.11708605861E+04 0.  0.
        2    1    3    3  502    0  0.37715441853E+03 -0.96293770258E+02 -0.91954880137E+03  0.99854291030E+03  0.25500000920E-02 0.  1.
       -2    1    3    3    0  502 -0.37715441853E+03  0.96293770258E+02  0.13371668557E+03  0.41158000147E+03  0.25500000920E-02 0. -1.
</event>
<event>
 5   0  0.3731281E-03  0.1188062E+04  0.7818609E-02  0.9123370E-01
        1   -1    0    0  501    0  0.00000000000E+00  0.00000000000E+00  0.50779561167E+03  0.50779561170E+03  0.50400001928E-02 0. -1.
       -1   -1    0    0    0  501  0.00000000000E+00  0.00000000000E+00 -0.69491160635E+03  0.69491160637E+03  0.50400001928E-02 0.  1.
    10030    2    1    2    0    0  0.00000000000E+00  0.00000000000E+00 -0.18711599468E+03  0.12027072181E+04  0.11880623961E+04 0.  0.
        5    1    3    3  502    0  0.59405906438E+02  0.95065924844E+02  0.49697160913E+03  0.50947959926E+03  0.46999998093E+01 0. -1.
       -5    1    3    3    0  502 -0.59405906438E+02 -0.95065924844E+02 -0.68408760381E+03  0.69322761880E+03  0.46999998093E+01 0.  1.
</event>
<event>
 5   0  0.2537625E-03  0.1202947E+04  0.7818609E-02  0.9110281E-01
        3   -1    0    0  501    0  0.00000000000E+00  0.00000000000E+00  0.10442419649E+04  0.10442419698E+04  0.10100000352E+00 0.  1.
       -3   -1    0    0    0  501  0.00000000000E+00  0.00000000000E+00 -0.34644322591E+03  0.34644324063E+03  0.10100000352E+00 0. -1.
    10030    2    1    2    0    0  0.00000000000E+00  0.00000000000E+00  0.69779873897E+03  0.13906852104E+04  0.12029473281E+04 0.  0.
        1    1    3    3  502    0 -0.91052975494E+01 -0.44182329364E+02  0.10422835414E+04  0.10432592992E+04  0.50400001928E-02 0.  1.
       -1    1    3    3    0  502  0.91052975494E+01  0.44182329364E+02 -0.34448480240E+03  0.34742591122E+03  0.50400001928E-02 0. -1.
</event>
<event>
 5   0  0.3701879E-03  0.1058802E+04  0.7818609E-02  0.9246303E-01
       -1   -1    0    0    0  501  0.00000000000E+00  0.00000000000E+00  0.18993963029E+03  0.18993963036E+03  0.50400001928E-02 0. -1.
        1   -1    0    0  501    0  0.00000000000E+00  0.00000000000E+00 -0.14755510154E+04  0.14755510154E+04  0.50400001928E-02 0.  1.
    10030    2    1    2    0    0  0.00000000000E+00  0.00000000000E+00 -0.12856113851E+04  0.16654906458E+04  0.10588023695E+04 0.  0.
        1    1    3    3  502    0 -0.19065492340E+03 -0.44916762331E+03 -0.96580538843E+03  0.10820725031E+04  0.50400001928E-02 0.  1.
       -1    1    3    3    0  502  0.19065492340E+03  0.44916762331E+03 -0.31980599669E+03  0.58341814266E+03  0.50400001928E-02 0. -1.
</event>
<event>
 5   0  0.6640844E-03  0.1138902E+04  0.7818609E-02  0.9168083E-01
       -2   -1    0    0    0  501  0.00000000000E+00  0.00000000000E+00  0.33744493032E+03  0.33744493033E+03  0.25500000920E-02 0. -1.
        2   -1    0    0  501    0  0.00000000000E+00  0.00000000000E+00 -0.96097004135E+03  0.96097004135E+03  0.25500000920E-02 0.  1.
    10030    2    1    2    0    0  0.00000000000E+00  0.00000000000E+00 -0.62352511103E+03  0.12984149717E+04  0.11389020478E+04 0.  0.
        5    1    3    3  502    0  0.43914218239E+03 -0.20221769540E+03  0.31231253669E+02  0.48449492659E+03  0.46999998093E+01 0. -1.
       -5    1    3    3    0  502 -0.43914218239E+03  0.20221769540E+03 -0.65475636470E+03  0.81392004509E+03  0.46999998093E+01 0.  1.
</event>
<event>
 5   0  0.3731281E-03  0.1207387E+04  0.7818609E-02  0.9106415E-01
        1   -1    0    0  501    0  0.00000000000E+00  0.00000000000E+00  0.43097046582E+03  0.43097046585E+03  0.50400001928E-02 0.  1.
       -1   -1    0    0    0  501  0.00000000000E+00  0.00000000000E+00 -0.84563998225E+03  0.84563998226E+03  0.50400001928E-02 0. -1.
    10030    2    1    2    0    0  0.00000000000E+00  0.00000000000E+00 -0.41466951643E+03  0.12766104481E+04  0.12073870251E+04 0.  0.
        5    1    3    3  502    0  0.12166247822E+03 -0.26459963756E+03  0.35176266983E+03  0.45669879865E+03  0.46999998093E+01 0.  1.
       -5    1    3    3    0  502 -0.12166247822E+03  0.26459963756E+03 -0.76643218626E+03  0.81991164947E+03  0.46999998093E+01 0. -1.
</event>
<event>
 5   0  0.6493047E-03  0.1194750E+04  0.7818609E-02  0.9117464E-01
       -2   -1    0    0    0  501  0.00000000000E+00  0.00000000000E+00  0.25972556237E+03  0.25972556238E+03  0.25500000920E-02 0. -1.
        2   -1    0    0  501    0  0.00000000000E+00  0.00000000000E+00 -0.13739774227E+04  0.13739774227E+04  0.25500000920E-02 0.  1.
    10030    2    1    2    0    0  0.00000000000E+00  0.00000000000E+00 -0.11142518603E+04  0.16337029851E+04  0.11947502815E+04 0.  0.
        3    1    3    3  502    0 -0.19262950059E+03 -0.20018265613E+03  0.16601839156E+03  0.32363766290E+03  0.10100000352E+00 0. -1.
       -3    1    3    3    0  502  0.19262950059E+03  0.20018265613E+03 -0.12802702519E+04  0.13100653222E+04  0.10100000352E+00 0.  1.
</event>
<event>
 5   0  0.3701879E-03  0.1177575E+04  0.7818609E-02  0.9132714E-01
       -1   -1    0    0    0  501  0.00000000000E+00  0.00000000000E+00  0.46526733390E+03  0.46526733393E+03  0.50400001928E-02 0. -1.
        1   -1    0    0  501    0  0.00000000000E+00  0.00000000000E+00 -0.74510050423E+03  0.74510050425E+03  0.50400001928E-02 0.  1.
    10030    2    1    2    0    0  0.00000000000E+00  0.00000000000E+00 -0.27983317033E+03  0.12103678382E+04  0.11775753481E+04 0.  0.
        1    1    3    3  502    0  0.40947234712E+03 -0.26798206972E+03  0.19659780646E+03  0.52738286878E+03  0.50400001928E-02 0. -1.
       -1    1    3    3    0  502 -0.40947234712E+03  0.26798206972E+03 -0.47643097679E+03  0.68298496940E+03  0.50400001928E-02 0.  1.
</event>
<event>
 5   0  0.3772254E-03  0.1179765E+04  0.7818609E-02  0.9130755E-01
       -1   -1    0    0    0  501  0.00000000000E+00  0.00000000000E+00  0.16135975660E+03  0.16135975668E+03  0.50400001928E-02 0. -1.
        1   -1    0    0  501    0  0.00000000000E+00  0.00000000000E+00 -0.21564336879E+04  0.21564336879E+04  0.50400001928E-02 0.  1.
    10030    2    1    2    0    0  0.00000000000E+00  0.00000000000E+00 -0.19950739313E+04  0.23177934446E+04  0.11797654260E+04 0.  0.
        3    1    3    3  502    0  0.33445376560E+03  0.48065869622E+03 -0.11374189183E+04  0.12793021182E+04  0.10100000352E+00 0. -1.
       -3    1    3    3    0  502 -0.33445376560E+03 -0.48065869622E+03 -0.85765501297E+03  0.10384913264E+04  0.10100000352E+00 0.  1.
</event>
<event>
 5   0  0.6493047E-03  0.1176808E+04  0.7818609E-02  0.9133402E-01
       -2   -1    0    0    0  501  0.00000000000E+00  0.00000000000E+00  0.17242419052E+03  0.17242419054E+03  0.25500000920E-02 0. -1.
        2   -1    0    0  501    0  0.00000000000E+00  0.00000000000E+00 -0.20079503956E+04  0.20079503956E+04  0.25500000920E-02 0.  1.
    10030    2    1    2    0    0  0.00000000000E+00  0.00000000000E+00 -0.18355262050E+04  0.21803745861E+04  0.11768079224E+04 0.  0.
        3    1    3    3  502    0  0.35198905667E+03  0.15959243781E+03 -0.17398102627E+04  0.17822193475E+04  0.10100000352E+00 0.  1.
       -3    1    3    3    0  502 -0.35198905667E+03 -0.15959243781E+03 -0.95715942375E+02  0.39815523863E+03  0.10100000352E+00 0. -1.
</event>
<event>
 5   0  0.6640844E-03  0.1204475E+04  0.7818609E-02  0.9108948E-01
        2   -1    0    0  501    0  0.00000000000E+00  0.00000000000E+00  0.95870386625E+03  0.95870386626E+03  0.25500000920E-02 0.  1.
       -2   -1    0    0    0  501  0.00000000000E+00  0.00000000000E+00 -0.37831299795E+03  0.37831299796E+03  0.25500000920E-02 0. -1.
    10030    2    1    2    0    0  0.00000000000E+00  0.00000000000E+00  0.58039086830E+03  0.13370168642E+04  0.12044752115E+04 0.  0.
        5    1    3    3  502    0 -0.19301604094E+03 -0.26915564917E+03 -0.26811004247E+03  0.42615142897E+03  0.46999998093E+01 0. -1.
       -5    1    3    3    0  502  0.19301604094E+03  0.26915564917E+03  0.84850091077E+03  0.91086543524E+03  0.46999998093E+01 0.  1.
</event>
<event>
 5   0  0.6640844E-03  0.1212601E+04  0.7818609E-02  0.9101898E-01
        2   -1    0    0  501    0  0.00000000000E+00  0.00000000000E+00  0.12079913574E+04  0.12079913574E+04  0.25500000920E-02 0.  1.
       -2   -1    0    0    0  501  0.00000000000E+00  0.00000000000E+00 -0.30430721326E+03  0.30430721327E+03  0.25500000920E-02 0. -1.
    10030    2    1    2    0    0  0.00000000000E+00  0.00000000000E+00  0.90368414410E+03  0.15122985706E+04  0.12126013089E+04 0.  0.
        5    1    3    3  502    0  0.14303953711E+03  0.12683102371E+03 -0.26571175009E+03  0.32737019090E+03  0.46999998093E+01 0. -1.
       -5    1    3    3    0  502 -0.14303953711E+03 -0.12683102371E+03  0.11693958942E+04  0.11849283797E+04  0.46999998093E+01 0.  1.
</event>
<event>
 5   0  0.3944074E-03  0.1178664E+04  0.7818609E-02  0.9131739E-01
        1   -1    0    0  501    0  0.00000000000E+00  0.00000000000E+00  0.81160936787E+03  0.81160936789E+03  0.50400001928E-02 0.  1.
       -1   -1    0    0    0  501  0.00000000000E+00  0.00000000000E+00 -0.42793038868E+03  0.42793038871E+03  0.50400001928E-02 0. -1.
    10030    2    1    2    0    0  0.00000000000E+00  0.00000000000E+00  0.38367897919E+03  0.12395397566E+04  0.11786641799E+04 0.  0.
        4    1    3    3  502    0 -0.26457821569E+03  0.49112160147E+03 -0.79975279469E+01  0.55791364296E+03  0.12699999809E+01 0. -1.
       -4    1    3    3    0  502  0.26457821569E+03 -0.49112160147E+03  0.39167650714E+03  0.68162611363E+03  0.12699999809E+01 0.  1.
</event>
<event>
 5   0  0.3731281E-03  0.1197585E+04  0.7818609E-02  0.9114973E-01
       -1   -1    0    0    0  501  0.00000000000E+00  0.00000000000E+00  0.24423282458E+03  0.24423282463E+03  0.50400001928E-02 0. -1.
        1   -1    0    0  501    0  0.00000000000E+00  0.00000000000E+00 -0.14680769682E+04  0.14680769682E+04  0.50400001928E-02 0.  1.
    10030    2    1    2    0    0  0.00000000000E+00  0.00000000000E+00 -0.12238441436E+04  0.17123097929E+04  0.11975852115E+04 0.  0.
        5    1    3    3  502    0 -0.32129809315E+03  0.24162026271E+03 -0.12464025582E+04  0.13096389743E+04  0.46999998093E+01 0.  1.
       -5    1    3    3    0  502  0.32129809315E+03 -0.24162026271E+03  0.22558414572E+02  0.40267081851E+03  0.46999998093E+01 0. -1.
</event>
<event>
 5   0  0.3648616E-03  0.1359997E+04  0.7818609E-02  0.8983295E-01
        1   -1    0    0  501    0  0.00000000000E+00  0.00000000000E+00  0.11001349096E+04  0.11001349096E+04  0.50400001928E-02 0. -1.
       -1   -1    0    0    0  501  0.00000000000E+00  0.00000000000E+00 -0.42031015121E+03  0.42031015124E+03  0.50400001928E-02 0.  1.
    10030    2    1    2    0    0  0.00000000000E+00  0.00000000000E+00  0.67982475836E+03  0.15204450608E+04  0.13599968680E+04 0.  0.
        2    1    3    3  502    0 -0.27307626072E+02 -0.19822597942E+03 -0.38665100520E+03  0.43535990305E+03  0.25500000920E-02 0.  1.
       -2    1    3    3    0  502  0.27307626072E+02  0.19822597942E+03  0.10664757636E+04  0.10850851578E+04  0.25500000920E-02 0. -1.
</event>
<event>
 5   0  0.3701879E-03  0.1189533E+04  0.7818609E-02  0.9122068E-01
        1   -1    0    0  501    0  0.00000000000E+00  0.00000000000E+00  0.80587210251E+03  0.80587210253E+03  0.50400001928E-02 0.  1.
       -1   -1    0    0    0  501  0.00000000000E+00  0.00000000000E+00 -0.43896178128E+03  0.43896178131E+03  0.50400001928E-02 0. -1.
    10030    2    1    2    0    0  0.00000000000E+00  0.00000000000E+00  0.36691032123E+03  0.12448338838E+04  0.11895327715E+04 0.  0.
        1    1    3    3  502    0 -0.57989204911E+01 -0.59073115780E+03  0.11132987859E+03  0.60115827380E+03  0.50400001928E-02 0. -1.
       -1    1    3    3    0  502  0.57989204911E+01  0.59073115780E+03  0.25558044264E+03  0.64367561004E+03  0.50400001928E-02 0.  1.
</event>
<event>
 5   0  0.2537625E-03  0.1169433E+04  0.7818609E-02  0.9140041E-01
       -3   -1    0    0    0  501  0.00000000000E+00  0.00000000000E+00  0.22462689517E+03  0.22462691788E+03  0.10100000352E+00 0. -1.
        3   -1    0    0  501    0  0.00000000000E+00  0.00000000000E+00 -0.15220498447E+04  0.15220498481E+04  0.10100000352E+00 0.  1.
    10030    2    1    2    0    0  0.00000000000E+00  0.00000000000E+00 -0.12974229495E+04  0.17466767659E+04  0.11694329458E+04 0.  0.
        3    1    3    3  502    0  0.18350638152E+03 -0.10249460835E+03 -0.14636719766E+04  0.14786870534E+04  0.10100000352E+00 0.  1.
       -3    1    3    3    0  502 -0.18350638152E+03  0.10249460835E+03  0.16624902706E+03  0.26798971248E+03  0.10100000352E+00 0. -1.
</event>
<event>
 5   0  0.3944074E-03  0.1311436E+04  0.7818609E-02  0.9020545E-01
       -1   -1    0    0    0  501  0.00000000000E+00  0.00000000000E+00  0.65451764008E+03  0.65451764010E+03  0.50400001928E-02 0. -1.
        1   -1    0    0  501    0  0.00000000000E+00  0.00000000000E+00 -0.65692053159E+03  0.65692053160E+03  0.50400001928E-02 0.  1.
    10030    2    1    2    0    0  0.00000000000E+00  0.00000000000E+00 -0.24028915092E+01  0.13114381717E+04  0.13114359703E+04 0.  0.
        4    1    3    3  502    0  0.21751832201E+03  0.22326386279E+03 -0.57809364333E+03  0.65677610050E+03  0.12699999809E+01 0.  1.
       -4    1    3    3    0  502 -0.21751832201E+03 -0.22326386279E+03  0.57569075182E+03  0.65466207120E+03  0.12699999809E+01 0. -1.
</event>
<event>
 5   0  0.6493047E-03  0.1205072E+04  0.7818609E-02  0.9108428E-01
       -2   -1    0    0    0  501  0.00000000000E+00  0.00000000000E+00  0.98732227573E+03  0.98732227574E+03  0.25500000920E-02 0. -1.
        2   -1    0    0  501    0  0.00000000000E+00  0.00000000000E+00 -0.36771145906E+03  0.36771145907E+03  0.25500000920E-02 0.  1.
    10030    2    1    2    0    0  0.00000000000E+00  0.00000000000E+00  0.61961081667E+03  0.13550337348E+04  0.12050721382E+04 0.  0.
        3    1    3    3  502    0  0.55194787622E+03  0.67470610769E+02  0.57074128721E+03  0.79683396546E+03  0.10100000352E+00 0. -1.
       -3    1    3    3    0  502 -0.55194787622E+03 -0.67470610769E+02  0.48869529461E+02  0.55819976934E+03  0.10100000352E+00 0.  1.
</event>
<event>
 5   0  0.6640844E-03  0.1278625E+04  0.7818609E-02  0.9046690E-01
        2   -1    0    0  501    0  0.00000000000E+00  0.00000000000E+00  0.70228551446E+03  0.70228551447E+03  0.25500000920E-02 0. -1.
       -2   -1    0    0    0  501  0.00000000000E+00  0.00000000000E+00 -0.58198589250E+03  0.58198589251E+03  0.25500000920E-02 0.  1.
    10030    2    1    2    0    0  0.00000000000E+00  0.00000000000E+00  0.12029962196E+03  0.12842714070E+04  0.12786246704E+04 0.  0.
        5    1    3    3  502    0 -0.71170412319E+02  0.57299523787E+03 -0.21548770828E+03  0.61631632514E+03  0.46999998093E+01 0.  1.
       -5    1    3    3    0  502  0.71170412319E+02 -0.57299523787E+03  0.33578733024E+03  0.66795508184E+03  0.46999998093E+01 0. -1.
</event>
<event>
 5   0  0.6640844E-03  0.1181814E+04  0.7818609E-02  0.9128925E-01
       -2   -1    0    0    0  501  0.00000000000E+00  0.00000000000E+00  0.24554098047E+03  0.24554098048E+03  0.25500000920E-02 0.  1.
        2   -1    0    0  501    0  0.00000000000E+00  0.00000000000E+00 -0.14220491921E+04  0.14220491921E+04  0.25500000920E-02 0. -1.
    10030    2    1    2    0    0  0.00000000000E+00  0.00000000000E+00 -0.11765082116E+04  0.16675901726E+04  0.11818144574E+04 0.  0.
        5    1    3    3  502    0 -0.26522168566E+03 -0.30241764006E+03 -0.11990093645E+04  0.12646914714E+04  0.46999998093E+01 0. -1.
       -5    1    3    3    0  502  0.26522168566E+03  0.30241764006E+03  0.22501152877E+02  0.40289870122E+03  0.46999998093E+01 0.  1.
</event>
<event>
 5   0  0.3701879E-03  0.1159620E+04  0.7818609E-02  0.9148954E-01
        1   -1    0    0  501    0  0.00000000000E+00  0.00000000000E+00  0.62339842671E+03  0.62339842673E+03  0.50400001928E-02 0.  1.
       -1   -1    0    0    0  501  0.00000000000E+00  0.00000000000E+00 -0.53926974237E+03  0.53926974240E+03  0.50400001928E-02 0. -1.
    10030    2    1    2    0    0  0.00000000000E+00  0.00000000000E+00  0.84128684340E+02  0.11626681691E+04  0.11596204707E+04 0.  0.
        1    1    3    3  502    0  0.28532853757E+03 -0.17834085350E+03 -0.43136525803E+03  0.54707752672E+03  0.50400001928E-02 0. -1.
       -1    1    3    3    0  502 -0.28532853757E+03  0.17834085350E+03  0.51549394237E+03  0.61559064241E+03  0.50400001928E-02 0.  1.
</event>
<event>
 5   0  0.6349142E-03  0.1213844E+04  0.7818609E-02  0.9100825E-01
       -2   -1    0    0    0  501  0.00000000000E+00  0.00000000000E+00  0.22778196513E+03  0.22778196514E+03  0.25500000920E-02 0. -1.
        2   -1    0    0  501    0  0.00000000000E+00  0.00000000000E+00 -0.16171351226E+04  0.16171351226E+04  0.25500000920E-02 0.  1.
    10030    2    1    2    0    0  0.00000000000E+00  0.00000000000E+00 -0.13893531574E+04  0.18449170877E+04  0.12138438386E+04 0.  0.
        1    1    3    3  502    0  0.12694492995E+02  0.42512846081E+03 -0.36614267683E+02  0.42689104344E+03  0.50400001928E-02 0. -1.
       -1    1    3    3    0  502 -0.12694492995E+02 -0.42512846081E+03 -0.13527388898E+04  0.14180260443E+04  0.50400001928E-02 0.  1.
</event>
<event>
 5   0  0.6349142E-03  0.1024529E+04  0.7818609E-02  0.9282044E-01
       -2   -1    0    0    0  501  0.00000000000E+00  0.00000000000E+00  0.33021291393E+03  0.33021291394E+03  0.25500000920E-02 0.  1.
        2   -1    0    0  501    0  0.00000000000E+00  0.00000000000E+00 -0.79468386215E+03  0.79468386215E+03  0.25500000920E-02 0. -1.
    10030    2    1    2    0    0  0.00000000000E+00  0.00000000000E+00 -0.46447094822E+03  0.11248967761E+04  0.10245289138E+04 0.  0.
        1    1    3    3  502    0  0.32096288289E+03  0.25348105101E+03  0.10643830286E+03  0.42260966358E+03  0.50400001928E-02 0.  1.
       -1    1    3    3    0  502 -0.32096288289E+03 -0.25348105101E+03 -0.57090925108E+03  0.70228711251E+03  0.50400001928E-02 0. -1.
</event>
<event>
 5   0  0.3701879E-03  0.1182358E+04  0.7818609E-02  0.9128440E-01
        1   -1    0    0  501    0  0.00000000000E+00  0.00000000000E+00  0.70556864353E+03  0.70556864355E+03  0.50400001928E-02 0. -1.
       -1   -1    0    0    0  501  0.00000000000E+00  0.00000000000E+00 -0.49533489445E+03  0.49533489447E+03  0.50400001928E-02 0.  1.
    10030    2    1    2    0    0  0.00000000000E+00  0.00000000000E+00  0.21023374908E+03  0.12009035380E+04  0.11823582699E+04 0.  0.
        1    1    3    3  502    0  0.32297832084E+03  0.41369081368E+03  0.38148340409E+03  0.64883331656E+03  0.50400001928E-02 0. -1.
       -1    1    3    3    0  502 -0.32297832084E+03 -0.41369081368E+03 -0.17124965500E+03  0.55207022146E+03  0.50400001928E-02 0.  1.
</event>
<event>
 5   0  0.6658994E-03  0.1007009E+04  0.7818609E-02  0.9300891E-01
       -2   -1    0    0    0  501  0.00000000000E+00  0.00000000000E+00  0.11780909640E+03  0.11780909643E+03  0.25500000920E-02 0.  1.
        2   -1    0    0  501    0  0.00000000000E+00  0.00000000000E+00 -0.21519271745E+04  0.21519271745E+04  0.25500000920E-02 0. -1.
    10030    2    1    2    0    0  0.00000000000E+00  0.00000000000E+00 -0.20341180781E+04  0.22697362710E+04  0.10070086315E+04 0.  0.
        4    1    3    3  502    0 -0.43210431046E+00  0.18100986901E+03  0.41933208695E+02  0.18580841285E+03  0.12699999809E+01 0.  1.
       -4    1    3    3    0  502  0.43210431046E+00 -0.18100986901E+03 -0.20760512868E+04  0.20839278581E+04  0.12699999809E+01 0. -1.
</event>
<event>
 5   0  0.3648616E-03  0.1092595E+04  0.7818609E-02  0.9212439E-01
       -1   -1    0    0    0  501  0.00000000000E+00  0.00000000000E+00  0.18672172905E+03  0.18672172911E+03  0.50400001928E-02 0.  1.
        1   -1    0    0  501    0  0.00000000000E+00  0.00000000000E+00 -0.15983207632E+04  0.15983207632E+04  0.50400001928E-02 0. -1.
    10030    2    1    2    0    0  0.00000000000E+00  0.00000000000E+00 -0.14115990341E+04  0.17850424923E+04  0.10925954723E+04 0.  0.
        2    1    3    3  502    0  0.19162643207E+03 -0.97359176871E+02  0.11473644515E+03  0.24364718476E+03  0.25500000920E-02 0.  1.
       -2    1    3    3    0  502 -0.19162643207E+03  0.97359176871E+02 -0.15263354793E+04  0.15413953075E+04  0.25500000920E-02 0. -1.
</event>
<event>
 5   0  0.6585930E-03  0.1155561E+04  0.7818609E-02  0.9152668E-01
        2   -1    0    0  501    0  0.00000000000E+00  0.00000000000E+00  0.79997841456E+03  0.79997841456E+03  0.25500000920E-02 0.  1.
       -2   -1    0    0    0  501  0.00000000000E+00  0.00000000000E+00 -0.41729946317E+03  0.41729946318E+03  0.25500000920E-02 0. -1.
    10030    2    1    2    0    0  0.00000000000E+00  0.00000000000E+00  0.38267895138E+03  0.12172778777E+04  0.11555614444E+04 0.  0.
        2    1    3    3  502    0  0.32722254945E+03 -0.30049080044E+03  0.58047542233E+03  0.73097266294E+03  0.25500000920E-02 0.  1.
       -2    1    3    3    0  502 -0.32722254945E+03  0.30049080044E+03 -0.19779647095E+03  0.48630521480E+03  0.25500000920E-02 0. -1.
</event>
<event>
 5   0  0.3701879E-03  0.1194644E+04  0.7818609E-02  0.9117557E-01
        1   -1    0    0  501    0  0.00000000000E+00  0.00000000000E+00  0.38974574992E+03  0.38974574995E+03  0.50400001928E-02 0. -1.
       -1   -1    0    0    0  501  0.00000000000E+00  0.00000000000E+00 -0.91545288252E+03  0.91545288254E+03  0.50400001928E-02 0.  1.
    10030    2    1    2    0    0  0.00000000000E+00  0.00000000000E+00 -0.52570713260E+03  0.13051986325E+04  0.11946444998E+04 0.  0.
        1    1    3    3  502    0  0.29084319790E+02  0.53616704214E+03 -0.54874240812E+03  0.76774945472E+03  0.50400001928E-02 0.  1.
       -1    1    3    3    0  502 -0.29084319790E+02 -0.53616704214E+03  0.23035275512E+02  0.53744917776E+03  0.50400001928E-02 0. -1.
</event>
<event>
 5   0  0.6585930E-03  0.1163924E+04  0.7818609E-02  0.9145034E-01
        2   -1    0    0  501    0  0.00000000000E+00  0.00000000000E+00  0.44224916692E+03  0.44224916693E+03  0.25500000920E-02 0. -1.
       -2   -1    0    0    0  501  0.00000000000E+00  0.00000000000E+00 -0.76581179596E+03  0.76581179597E+03  0.25500000920E-02 0.  1.
    10030    2    1    2    0    0  0.00000000000E+00  0.00000000000E+00 -0.32356262904E+03  0.12080609629E+04  0.11639237583E+04 0.  0.
        2    1    3    3  502    0  0.23387300926E+02  0.39880887657E+03 -0.60101221325E+03  0.72167247859E+03  0.25500000920E-02 0.  1.
       -2    1    3    3    0  502 -0.23387300926E+02 -0.39880887657E+03  0.27744958421E+03  0.48638848430E+03  0.25500000920E-02 0. -1.
</event>
<event>
 5   0  0.6640844E-03  0.1225523E+04  0.7818609E-02  0.9090805E-01
       -2   -1    0    0    0  501  0.00000000000E+00  0.00000000000E+00  0.19208116929E+03  0.19208116931E+03  0.25500000920E-02 0.  1.
        2   -1    0    0  501    0  0.00000000000E+00  0.00000000000E+00 -0.19547812977E+04  0.19547812977E+04  0.25500000920E-02 0. -1.
    10030    2    1    2    0    0  0.00000000000E+00  0.00000000000E+00 -0.17627001284E+04  0.21468624670E+04  0.12255230351E+04 0.  0.
        5    1    3    3  502    0 -0.41724827810E+03 -0.44594137686E+03 -0.79385243604E+03  0.10015905438E+04  0.46999998093E+01 0. -1.
       -5    1    3    3    0  502  0.41724827810E+03  0.44594137686E+03 -0.96884769239E+03  0.11452719233E+04  0.46999998093E+01 0.  1.
</event>
<event>
 5   0  0.6640844E-03  0.1194558E+04  0.7818609E-02  0.9117633E-01
        2   -1    0    0  501    0  0.00000000000E+00  0.00000000000E+00  0.14504646507E+04  0.14504646507E+04  0.25500000920E-02 0. -1.
       -2   -1    0    0    0  501  0.00000000000E+00  0.00000000000E+00 -0.24595032996E+03  0.24595032997E+03  0.25500000920E-02 0.  1.
    10030    2    1    2    0    0  0.00000000000E+00  0.00000000000E+00  0.12045143208E+04  0.16964149807E+04  0.11945580931E+04 0.  0.
        5    1    3    3  502    0  0.24517377885E+03 -0.40205418405E+03  0.11239696739E+04  0.12186417302E+04  0.46999998093E+01 0. -1.
       -5    1    3    3    0  502 -0.24517377885E+03  0.40205418405E+03  0.80544646866E+02  0.47777325049E+03  0.46999998093E+01 0.  1.
</event>
<event>
 5   0  0.6640844E-03  0.1205566E+04  0.7818609E-02  0.9107998E-01
       -2   -1    0    0    0  501  0.00000000000E+00  0.00000000000E+00  0.23340269097E+03  0.23340269099E+03  0.25500000920E-02 0.  1.
        2   -1    0    0  501    0  0.00000000000E+00  0.00000000000E+00 -0.15567405733E+04  0.15567405733E+04  0.25500000920E-02 0. -1.
    10030    2    1    2    0    0  0.00000000000E+00  0.00000000000E+00 -0.13233378823E+04  0.17901432643E+04  0.12055661557E+04 0.  0.
        5    1    3    3  502    0 -0.43297294132E+02 -0.49344500863E+03 -0.11716677061E+04  0.12720809470E+04  0.46999998093E+01 0. -1.
       -5    1    3    3    0  502  0.43297294132E+02  0.49344500863E+03 -0.15167017622E+03  0.51806231727E+03  0.46999998093E+01 0.  1.
</event>
<event>
 5   0  0.3701879E-03  0.1210909E+04  0.7818609E-02  0.9103362E-01
        1   -1    0    0  501    0  0.00000000000E+00  0.00000000000E+00  0.10871698912E+04  0.10871698913E+04  0.50400001928E-02 0. -1.
       -1   -1    0    0    0  501  0.00000000000E+00  0.00000000000E+00 -0.33718269794E+03  0.33718269798E+03  0.50400001928E-02 0.  1.
    10030    2    1    2    0    0  0.00000000000E+00  0.00000000000E+00  0.74998719330E+03  0.14243525892E+04  0.12109085466E+04 0.  0.
        1    1    3    3  502    0  0.85261346270E+02  0.39369847836E+03  0.90667034673E+03  0.99212857367E+03  0.50400001928E-02 0. -1.
       -1    1    3    3    0  502 -0.85261346270E+02 -0.39369847836E+03 -0.15668315343E+03  0.43222401556E+03  0.50400001928E-02 0.  1.
</event>
<event>
 5   0  0.3701879E-03  0.1223809E+04  0.7818609E-02  0.9092268E-01
        1   -1    0    0  501    0  0.00000000000E+00  0.00000000000E+00  0.10746556601E+04  0.10746556601E+04  0.50400001928E-02 0. -1.
       -1   -1    0    0    0  501  0.00000000000E+00  0.00000000000E+00 -0.34841605580E+03  0.34841605583E+03  0.50400001928E-02 0.  1.
    10030    2    1    2    0    0  0.00000000000E+00  0.00000000000E+00  0.72623960429E+03  0.14230717159E+04  0.12238092767E+04 0.  0.
        1    1    3    3  502    0 -0.52194221079E+03  0.18967219137E+03  0.64322024140E+02  0.55904967077E+03  0.50400001928E-02 0.  1.
       -1    1    3    3    0  502  0.52194221079E+03 -0.18967219137E+03  0.66191758015E+03  0.86402204515E+03  0.50400001928E-02 0. -1.
</event>
<event>
 5   0  0.3772254E-03  0.1249604E+04  0.7818609E-02  0.9070513E-01
        1   -1    0    0  501    0  0.00000000000E+00  0.00000000000E+00  0.12964198259E+04  0.12964198259E+04  0.50400001928E-02 0. -1.
       -1   -1    0    0    0  501  0.00000000000E+00  0.00000000000E+00 -0.30111960929E+03  0.30111960933E+03  0.50400001928E-02 0.  1.
    10030    2    1    2    0    0  0.00000000000E+00  0.00000000000E+00  0.99530021662E+03  0.15975394352E+04  0.12496038276E+04 0.  0.
        3    1    3    3  502    0 -0.37067599494E+03 -0.12918224495E+03  0.11190922417E+04  0.11859410615E+04  0.10100000352E+00 0. -1.
       -3    1    3    3    0  502  0.37067599494E+03  0.12918224495E+03 -0.12379202507E+03  0.41159837379E+03  0.10100000352E+00 0.  1.
</event>
<event>
 5   0  0.6349142E-03  0.1208281E+04  0.7818609E-02  0.9105639E-01
       -2   -1    0    0    0  501  0.00000000000E+00  0.00000000000E+00  0.22203238366E+03  0.22203238367E+03  0.25500000920E-02 0.  1.
        2   -1    0    0  501    0  0.00000000000E+00  0.00000000000E+00 -0.16438397366E+04  0.16438397366E+04  0.25500000920E-02 0. -1.
    10030    2    1    2    0    0  0.00000000000E+00  0.00000000000E+00 -0.14218073529E+04  0.18658721203E+04  0.12082808532E+04 0.  0.
        1    1    3    3  502    0 -0.50172897737E+03 -0.24540994776E+03 -0.10665064631E+04  0.12039078225E+04  0.50400001928E-02 0. -1.
       -1    1    3    3    0  502  0.50172897737E+03  0.24540994776E+03 -0.35530088984E+03  0.66196429778E+03  0.50400001928E-02 0.  1.
</event>
<event>
 5   0  0.3731281E-03  0.1186315E+04  0.7818609E-02  0.9124920E-01
       -1   -1    0    0    0  501  0.00000000000E+00  0.00000000000E+00  0.18051418069E+03  0.18051418076E+03  0.50400001928E-02 0. -1.
        1   -1    0    0  501    0  0.00000000000E+00  0.00000000000E+00 -0.19490751515E+04  0.19490751515E+04  0.50400001928E-02 0.  1.
    10030    2    1    2    0    0  0.00000000000E+00  0.00000000000E+00 -0.17685609708E+04  0.21295893322E+04  0.11863148050E+04 0.  0.
        5    1    3    3  502    0 -0.15738617570E+03  0.31713818218E+03 -0.30004943961E+02  0.35534408896E+03  0.46999998093E+01 0. -1.
       -5    1    3    3    0  502  0.15738617570E+03 -0.31713818218E+03 -0.17385560268E+04  0.17742452433E+04  0.46999998093E+01 0.  1.
</event>
<event>
 5   0  0.6349142E-03  0.1167241E+04  0.7818609E-02  0.9142024E-01
       -2   -1    0    0    0  501  0.00000000000E+00  0.00000000000E+00  0.35908331669E+03  0.35908331670E+03  0.25500000920E-02 0.  1.
        2   -1    0    0  501    0  0.00000000000E+00  0.00000000000E+00 -0.94856221442E+03  0.94856221442E+03  0.25500000920E-02 0. -1.
    10030    2    1    2    0    0  0.00000000000E+00  0.00000000000E+00 -0.58947889773E+03  0.13076455311E+04  0.11672409624E+04 0.  0.
        1    1    3    3  502    0 -0.22057778307E+03 -0.43823125132E+03  0.59370101949E+02  0.49419226729E+03  0.50400001928E-02 0.  1.
       -1    1    3    3    0  502  0.22057778307E+03  0.43823125132E+03 -0.64884899968E+03  0.81345326383E+03  0.50400001928E-02 0. -1.
</event>
<event>
 5   0  0.6493047E-03  0.1082535E+04  0.7818609E-02  0.9222383E-01
       -2   -1    0    0    0  501  0.00000000000E+00  0.00000000000E+00  0.97271042490E+03  0.97271042490E+03  0.25500000920E-02 0. -1.
        2   -1    0    0  501    0  0.00000000000E+00  0.00000000000E+00 -0.30119006404E+03  0.30119006405E+03  0.25500000920E-02 0.  1.
    10030    2    1    2    0    0  0.00000000000E+00  0.00000000000E+00  0.67152036086E+03  0.12739004889E+04  0.10825353854E+04 0.  0.
        3    1    3    3  502    0  0.51260423069E+03 -0.15585489347E+03  0.42627903368E+03  0.68466610103E+03  0.10100000352E+00 0.  1.
       -3    1    3    3    0  502 -0.51260423069E+03  0.15585489347E+03  0.24524132718E+03  0.58923438791E+03  0.10100000352E+00 0. -1.
</event>
<event>
 5   0  0.6585930E-03  0.1204648E+04  0.7818609E-02  0.9108798E-01
       -2   -1    0    0    0  501  0.00000000000E+00  0.00000000000E+00  0.84649623124E+03  0.84649623125E+03  0.25500000920E-02 0. -1.
        2   -1    0    0  501    0  0.00000000000E+00  0.00000000000E+00 -0.42858316814E+03  0.42858316815E+03  0.25500000920E-02 0.  1.
    10030    2    1    2    0    0  0.00000000000E+00  0.00000000000E+00  0.41791306310E+03  0.12750793994E+04  0.12046477271E+04 0.  0.
        2    1    3    3  502    0  0.66336383889E+02  0.59558244982E+03  0.27312323821E+03  0.65857062918E+03  0.25500000920E-02 0. -1.
       -2    1    3    3    0  502 -0.66336383889E+02 -0.59558244982E+03  0.14478982490E+03  0.61650877022E+03  0.25500000920E-02 0.  1.
</event>
<event>
 5   0  0.3648616E-03  0.1280938E+04  0.7818609E-02  0.9044820E-01
        1   -1    0    0  501    0  0.00000000000E+00  0.00000000000E+00  0.64302950901E+03  0.64302950903E+03  0.50400001928E-02 0. -1.
       -1   -1    0    0    0  501  0.00000000000E+00  0.00000000000E+00 -0.63791840563E+03  0.63791840565E+03  0.50400001928E-02 0.  1.
    10030    2    1    2    0    0  0.00000000000E+00  0.00000000000E+00  0.51111033808E+01  0.12809479147E+04  0.12809377177E+04 0.  0.
        2    1    3    3  502    0 -0.24523844177E+03 -0.47320454382E+03  0.35771457774E+03  0.64189107546E+03  0.25500000920E-02 0. -1.
       -2    1    3    3    0  502  0.24523844177E+03  0.47320454382E+03 -0.35260347436E+03  0.63905683922E+03  0.25500000920E-02 0.  1.
</event>
<event>
 5   0  0.6640844E-03  0.1158463E+04  0.7818609E-02  0.9150011E-01
        2   -1    0    0  501    0  0.00000000000E+00  0.00000000000E+00  0.71546685295E+03  0.71546685296E+03  0.25500000920E-02 0. -1.
       -2   -1    0    0    0  501  0.00000000000E+00  0.00000000000E+00 -0.46893741707E+03  0.46893741708E+03  0.25500000920E-02 0.  1.
    10030    2    1    2    0    0  0.00000000000E+00  0.00000000000E+00  0.24652943588E+03  0.11844042700E+04  0.11584630819E+04 0.  0.
        5    1    3    3  502    0 -0.52623151355E+03 -0.21120815140E+03  0.24405685957E+03  0.61734457944E+03  0.46999998093E+01 0. -1.
       -5    1    3    3    0  502  0.52623151355E+03  0.21120815140E+03  0.24725763127E+01  0.56705969060E+03  0.46999998093E+01 0.  1.
</event>
<event>
 5   0  0.2537625E-03  0.9646541E+03  0.7818609E-02  0.9348184E-01
       -3   -1    0    0    0  501  0.00000000000E+00  0.00000000000E+00  0.33857568237E+03  0.33857569743E+03  0.10100000352E+00 0.  1.
        3   -1    0    0  501    0  0.00000000000E+00  0.00000000000E+00 -0.68711183935E+03  0.68711184678E+03  0.10100000352E+00 0. -1.
    10030    2    1    2    0    0  0.00000000000E+00  0.00000000000E+00 -0.34853615699E+03  0.10256875442E+04  0.96465407562E+03 0.  0.
        2    1    3    3  502    0  0.68202907820E+02 -0.47137313663E+03 -0.93326070098E+02  0.48533908346E+03  0.25500000920E-02 0.  1.
       -2    1    3    3    0  502 -0.68202907820E+02  0.47137313663E+03 -0.25521008689E+03  0.54034846074E+03  0.25500000920E-02 0. -1.
</event>
<event>
 5   0  0.6640844E-03  0.1204483E+04  0.7818609E-02  0.9108942E-01
       -2   -1    0    0    0  501  0.00000000000E+00  0.00000000000E+00  0.27798180719E+03  0.27798180721E+03  0.25500000920E-02 0. -1.
        2   -1    0    0  501    0  0.00000000000E+00  0.00000000000E+00 -0.13047424243E+04  0.13047424243E+04  0.25500000920E-02 0.  1.
    10030    2    1    2    0    0  0.00000000000E+00  0.00000000000E+00 -0.10267606171E+04  0.15827242315E+04  0.12044827222E+04 0.  0.
        5    1    3    3  502    0 -0.46546799131E+02 -0.17682762316E+03 -0.12673599580E+04  0.12804912987E+04  0.46999998093E+01 0.  1.
       -5    1    3    3    0  502  0.46546799131E+02  0.17682762316E+03  0.24059934092E+03  0.30223293281E+03  0.46999998093E+01 0. -1.
</event>
<event>
 5   0  0.6349142E-03  0.1417256E+04  0.7818609E-02  0.8941421E-01
       -2   -1    0    0    0  501  0.00000000000E+00  0.00000000000E+00  0.52523275742E+03  0.52523275743E+03  0.25500000920E-02 0. -1.
        2   -1    0    0  501    0  0.00000000000E+00  0.00000000000E+00 -0.95605969693E+03  0.95605969694E+03  0.25500000920E-02 0.  1.
    10030    2    1    2    0    0  0.00000000000E+00  0.00000000000E+00 -0.43082693951E+03  0.14812924544E+04  0.14172563225E+04 0.  0.
        1    1    3    3  502    0 -0.19076786169E+03 -0.75838625309E+02 -0.92429888686E+03  0.94682221479E+03  0.50400001928E-02 0.  1.
       -1    1    3    3    0  502  0.19076786169E+03  0.75838625309E+02  0.49347194735E+03  0.53447023958E+03  0.50400001928E-02 0. -1.
</event>
<event>
 5   0  0.6658994E-03  0.1175124E+04  0.7818609E-02  0.9134913E-01
       -2   -1    0    0    0  501  0.00000000000E+00  0.00000000000E+00  0.37546598593E+03  0.37546598594E+03  0.25500000920E-02 0.  1.
        2   -1    0    0  501    0  0.00000000000E+00  0.00000000000E+00 -0.91946862235E+03  0.91946862236E+03  0.25500000920E-02 0. -1.
    10030    2    1    2    0    0  0.00000000000E+00  0.00000000000E+00 -0.54400263643E+03  0.12949346083E+04  0.11751241514E+04 0.  0.
        4    1    3    3  502    0 -0.28751634879E+02 -0.39128698934E+03 -0.75396727878E+03  0.84994143028E+03  0.12699999809E+01 0. -1.
       -4    1    3    3    0  502  0.28751634879E+02  0.39128698934E+03  0.20996464235E+03  0.44499317801E+03  0.12699999809E+01 0.  1.
</event>
<event>
 5   0  0.3648616E-03  0.1225775E+04  0.7818609E-02  0.9090590E-01
       -1   -1    0    0    0  501  0.00000000000E+00  0.00000000000E+00  0.62061484076E+03  0.62061484078E+03  0.50400001928E-02 0. -1.
        1   -1    0    0  501    0  0.00000000000E+00  0.00000000000E+00 -0.60525636201E+03  0.60525636203E+03  0.50400001928E-02 0.  1.
    10030    2    1    2    0    0  0.00000000000E+00  0.00000000000E+00  0.15358478752E+02  0.12258712028E+04  0.12257749887E+04 0.  0.
        2    1    3    3  502    0 -0.20142377147E+03 -0.24093568900E+03  0.53403750788E+03  0.61953014598E+03  0.25500000920E-02 0. -1.
       -2    1    3    3    0  502  0.20142377147E+03  0.24093568900E+03 -0.51867902913E+03  0.60634105684E+03  0.25500000920E-02 0.  1.
</event>
<event>
 5   0  0.3648616E-03  0.1069781E+04  0.7818609E-02  0.9235156E-01
       -1   -1    0    0    0  501  0.00000000000E+00  0.00000000000E+00  0.18062922516E+03  0.18062922523E+03  0.50400001928E-02 0. -1.
        1   -1    0    0  501    0  0.00000000000E+00  0.00000000000E+00 -0.15839510745E+04  0.15839510745E+04  0.50400001928E-02 0.  1.
    10030    2    1    2    0    0  0.00000000000E+00  0.00000000000E+00 -0.14033218494E+04  0.17645802998E+04  0.10697810157E+04 0.  0.
        2    1    3    3  502    0 -0.92501445074E+02  0.41451686563E+03 -0.12380003377E+04  0.13088260332E+04  0.25500000920E-02 0.  1.
       -2    1    3    3    0  502  0.92501445074E+02 -0.41451686563E+03 -0.16532151172E+03  0.45575426655E+03  0.25500000920E-02 0. -1.
</event>
<event>
 5   0  0.6640844E-03  0.1218755E+04  0.7818609E-02  0.9096597E-01
        2   -1    0    0  501    0  0.00000000000E+00  0.00000000000E+00  0.17808181747E+04  0.17808181747E+04  0.25500000920E-02 0. -1.
       -2   -1    0    0    0  501  0.00000000000E+00  0.00000000000E+00 -0.20852257963E+03  0.20852257964E+03  0.25500000920E-02 0.  1.
    10030    2    1    2    0    0  0.00000000000E+00  0.00000000000E+00  0.15722955951E+04  0.19893407544E+04  0.12187547738E+04 0.  0.
        5    1    3    3  502    0  0.50600671510E+02  0.58203727589E+03  0.50347270991E+03  0.77125526132E+03  0.46999998093E+01 0.  1.
       -5    1    3    3    0  502 -0.50600671510E+02 -0.58203727589E+03  0.10688228852E+04  0.12180854930E+04  0.46999998093E+01 0. -1.
</event>
<event>
 5   0  0.6493047E-03  0.1200005E+04  0.7818609E-02  0.9112852E-01
       -2   -1    0    0    0  501  0.00000000000E+00  0.00000000000E+00  0.25845232561E+03  0.25845232562E+03  0.25500000920E-02 0. -1.
        2   -1    0    0  501    0  0.00000000000E+00  0.00000000000E+00 -0.13929194703E+04  0.13929194703E+04  0.25500000920E-02 0.  1.
    10030    2    1    2    0    0  0.00000000000E+00  0.00000000000E+00 -0.11344671447E+04  0.16513717959E+04  0.12000054608E+04 0.  0.
        3    1    3    3  502    0 -0.34812777322E+03 -0.57068714266E+02 -0.12351258229E+04  0.12845176500E+04  0.10100000352E+00 0.  1.
       -3    1    3    3    0  502  0.34812777322E+03  0.57068714266E+02  0.10065867824E+03  0.36685414587E+03  0.10100000352E+00 0. -1.
</event>
<event>
 5   0  0.3648616E-03  0.1195639E+04  0.7818609E-02  0.9116682E-01
        1   -1    0    0  501    0  0.00000000000E+00  0.00000000000E+00  0.10908008048E+04  0.10908008048E+04  0.50400001928E-02 0.  1.
       -1   -1    0    0    0  501  0.00000000000E+00  0.00000000000E+00 -0.32763826371E+03  0.32763826374E+03  0.50400001928E-02 0. -1.
    10030    2    1    2    0    0  0.00000000000E+00  0.00000000000E+00  0.76316254109E+03  0.14184390686E+04  0.11956388782E+04 0.  0.
        2    1    3    3  502    0  0.26395032816E+03 -0.48825687011E+03  0.64505526326E+03  0.85097640368E+03  0.25500000920E-02 0.  1.
       -2    1    3    3    0  502 -0.26395032816E+03  0.48825687011E+03  0.11810727783E+03  0.56746266488E+03  0.25500000920E-02 0. -1.
</event>
<event>
 5   0  0.6658994E-03  0.1251078E+04  0.7818609E-02  0.9069286E-01
        2   -1    0    0  501    0  0.00000000000E+00  0.00000000000E+00  0.78044488450E+03  0.78044488450E+03  0.25500000920E-02 0. -1.
       -2   -1    0    0    0  501  0.00000000000E+00  0.00000000000E+00 -0.50137970120E+03  0.50137970120E+03  0.25500000920E-02 0.  1.
    10030    2    1    2    0    0  0.00000000000E+00  0.00000000000E+00  0.27906518330E+03  0.12818245857E+04  0.12510782917E+04 0.  0.
        4    1    3    3  502    0 -0.12198249247E+03  0.61101699550E+03  0.82706833402E+02  0.62854079458E+03  0.12699999809E+01 0.  1.
       -4    1    3    3    0  502  0.12198249247E+03 -0.61101699550E+03  0.19635834990E+03  0.65328379112E+03  0.12699999809E+01 0. -1.
</event>
<event>
 5   0  0.3648616E-03  0.1197596E+04  0.7818609E-02  0.9114963E-01
        1   -1    0    0  501    0  0.00000000000E+00  0.00000000000E+00  0.15471602104E+04  0.15471602104E+04  0.50400001928E-02 0.  1.
       -1   -1    0    0    0  501  0.00000000000E+00  0.00000000000E+00 -0.23175307881E+03  0.23175307887E+03  0.50400001928E-02 0. -1.
    10030    2    1    2    0    0  0.00000000000E+00  0.00000000000E+00  0.13154071316E+04  0.17789132893E+04  0.11975961627E+04 0.  0.
        2    1    3    3  502    0  0.51761131270E+03  0.25130868130E+03  0.41145963674E+03  0.70737299709E+03  0.25500000920E-02 0. -1.
       -2    1    3    3    0  502 -0.51761131270E+03 -0.25130868130E+03  0.90394749485E+03  0.10715402922E+04  0.25500000920E-02 0.  1.
</event>
<event>
 5   0  0.3772254E-03  0.1143468E+04  0.7818609E-02  0.9163831E-01
        1   -1    0    0  501    0  0.00000000000E+00  0.00000000000E+00  0.28301588328E+03  0.28301588332E+03  0.50400001928E-02 0.  1.
       -1   -1    0    0    0  501  0.00000000000E+00  0.00000000000E+00 -0.11549879274E+04  0.11549879274E+04  0.50400001928E-02 0. -1.
    10030    2    1    2    0    0  0.00000000000E+00  0.00000000000E+00 -0.87197204409E+03  0.14380038107E+04  0.11434682829E+04 0.  0.
        3    1    3    3  502    0 -0.67299101164E+02 -0.38606882947E+03  0.87538718873E+02  0.40154868647E+03  0.10100000352E+00 0.  1.
       -3    1    3    3    0  502  0.67299101164E+02  0.38606882947E+03 -0.95951076297E+03  0.10364551242E+04  0.10100000352E+00 0. -1.
</event>
<event>
 5   0  0.6349142E-03  0.1212035E+04  0.7818609E-02  0.9102387E-01
        2   -1    0    0  501    0  0.00000000000E+00  0.00000000000E+00  0.39788150768E+03  0.39788150769E+03  0.25500000920E-02 0. -1.
       -2   -1    0    0    0  501  0.00000000000E+00  0.00000000000E+00 -0.92303119453E+03  0.92303119454E+03  0.25500000920E-02 0.  1.
    10030    2    1    2    0    0  0.00000000000E+00  0.00000000000E+00 -0.52514968685E+03  0.13209127022E+04  0.12120347245E+04 0.  0.
        1    1    3    3  502    0 -0.44450354878E+03  0.10051717342E+03 -0.69792087487E+03  0.83353503504E+03  0.50400001928E-02 0.  1.
       -1    1    3    3    0  502  0.44450354878E+03 -0.10051717342E+03  0.17277118802E+03  0.48737766719E+03  0.50400001928E-02 0. -1.
</event>
<event>
 5   0  0.3648616E-03  0.1179754E+04  0.7818609E-02  0.9130764E-01
       -1   -1    0    0    0  501  0.00000000000E+00  0.00000000000E+00  0.17160887827E+03  0.17160887834E+03  0.50400001928E-02 0. -1.
        1   -1    0    0  501    0  0.00000000000E+00  0.00000000000E+00 -0.20276057407E+04  0.20276057407E+04  0.50400001928E-02 0.  1.
    10030    2    1    2    0    0  0.00000000000E+00  0.00000000000E+00 -0.18559968624E+04  0.21992146190E+04  0.11797544606E+04 0.  0.
        2    1    3    3  502    0 -0.45731901745E+03  0.49286346910E+02 -0.23956841489E+03  0.51861628699E+03  0.25500000920E-02 0. -1.
       -2    1    3    3    0  502  0.45731901745E+03 -0.49286346910E+02 -0.16164284475E+04  0.16805983320E+04  0.25500000920E-02 0.  1.
</event>
<event>
 5   0  0.6349142E-03  0.1209352E+04  0.7818609E-02  0.9104710E-01
       -2   -1    0    0    0  501  0.00000000000E+00  0.00000000000E+00  0.18387508304E+03  0.18387508306E+03  0.25500000920E-02 0.  1.
        2   -1    0    0  501    0  0.00000000000E+00  0.00000000000E+00 -0.19884873585E+04  0.19884873585E+04  0.25500000920E-02 0. -1.
    10030    2    1    2    0    0  0.00000000000E+00  0.00000000000E+00 -0.18046122754E+04  0.21723624415E+04  0.12093523526E+04 0.  0.
        1    1    3    3  502    0  0.21784264934E+03 -0.43843076112E+03 -0.26479258183E+03  0.55658967255E+03  0.50400001928E-02 0.  1.
       -1    1    3    3    0  502 -0.21784264934E+03  0.43843076112E+03 -0.15398196936E+04  0.16157727690E+04  0.50400001928E-02 0. -1.
</event>
<event>
 5   0  0.6493047E-03  0.1194509E+04  0.7818609E-02  0.9117677E-01
       -2   -1    0    0    0  501  0.00000000000E+00  0.00000000000E+00  0.22061287016E+03  0.22061287017E+03  0.25500000920E-02 0. -1.
        2   -1    0    0  501    0  0.00000000000E+00  0.00000000000E+00 -0.16169167548E+04  0.16169167548E+04  0.25500000920E-02 0.  1.
    10030    2    1    2    0    0  0.00000000000E+00  0.00000000000E+00 -0.13963038846E+04  0.18375296250E+04  0.11945085116E+04 0.  0.
        3    1    3    3  502    0 -0.90641442731E+02 -0.17606831673E+03  0.16863970429E+03  0.26010629243E+03  0.10100000352E+00 0. -1.
       -3    1    3    3    0  502  0.90641442731E+02  0.17606831673E+03 -0.15649435889E+04  0.15774233325E+04  0.10100000352E+00 0.  1.
</event>
<event>
 5   0  0.3701879E-03  0.8671552E+03  0.7818609E-02  0.9467597E-01
       -1   -1    0    0    0  501  0.00000000000E+00  0.00000000000E+00  0.15836177318E+03  0.15836177326E+03  0.50400001928E-02 0.  1.
        1   -1    0    0  501    0  0.00000000000E+00  0.00000000000E+00 -0.11870891346E+04  0.11870891346E+04  0.50400001928E-02 0. -1.
    10030    2    1    2    0    0  0.00000000000E+00  0.00000000000E+00 -0.10287273614E+04  0.13454509078E+04  0.86715521179E+03 0.  0.
        1    1    3    3  502    0 -0.13657084401E+03  0.16754310320E+03  0.68801745381E+02  0.22683907745E+03  0.50400001928E-02 0.  1.
       -1    1    3    3    0  502  0.13657084401E+03 -0.16754310320E+03 -0.10975291068E+04  0.11186118304E+04  0.50400001928E-02 0. -1.
</event>
<event>
 5   0  0.3701879E-03  0.1182231E+04  0.7818609E-02  0.9128554E-01
        1   -1    0    0  501    0  0.00000000000E+00  0.00000000000E+00  0.87116372079E+03  0.87116372081E+03  0.50400001928E-02 0. -1.
       -1   -1    0    0    0  501  0.00000000000E+00  0.00000000000E+00 -0.40109251250E+03  0.40109251253E+03  0.50400001928E-02 0.  1.
    10030    2    1    2    0    0  0.00000000000E+00  0.00000000000E+00  0.47007120829E+03  0.12722562333E+04  0.11822305115E+04 0.  0.
        1    1    3    3  502    0 -0.18783483085E+03  0.21627730793E+03 -0.32140676579E+03  0.43053467541E+03  0.50400001928E-02 0.  1.
       -1    1    3    3    0  502  0.18783483085E+03 -0.21627730793E+03  0.79147797408E+03  0.84172155793E+03  0.50400001928E-02 0. -1.
</event>
<event>
 5   0  0.6349142E-03  0.1198557E+04  0.7818609E-02  0.9114120E-01
       -2   -1    0    0    0  501  0.00000000000E+00  0.00000000000E+00  0.52906323073E+03  0.52906323073E+03  0.25500000920E-02 0.  1.
        2   -1    0    0  501    0  0.00000000000E+00  0.00000000000E+00 -0.67881279179E+03  0.67881279180E+03  0.25500000920E-02 0. -1.
    10030    2    1    2    0    0  0.00000000000E+00  0.00000000000E+00 -0.14974956107E+03  0.12078760225E+04  0.11985572805E+04 0.  0.
        1    1    3    3  502    0 -0.33844871028E+03  0.33814175971E+03 -0.43857894999E+03  0.64902917850E+03  0.50400001928E-02 0. -1.
       -1    1    3    3    0  502  0.33844871028E+03 -0.33814175971E+03  0.28882938892E+03  0.55884684403E+03  0.50400001928E-02 0.  1.
</event>
<event>
 5   0  0.3648616E-03  0.7551719E+03  0.7818609E-02  0.9627271E-01
       -1   -1    0    0    0  501  0.00000000000E+00  0.00000000000E+00  0.16434928342E+03  0.16434928349E+03  0.50400001928E-02 0.  1.
        1   -1    0    0  501    0  0.00000000000E+00  0.00000000000E+00 -0.86748882929E+03  0.86748882930E+03  0.50400001928E-02 0. -1.
    10030    2    1    2    0    0  0.00000000000E+00  0.00000000000E+00 -0.70313954587E+03  0.10318381128E+04  0.75517194734E+03 0.  0.
        2    1    3    3  502    0  0.62017766968E+02  0.36130018712E+03 -0.22793751668E+03  0.43167063851E+03  0.25500000920E-02 0.  1.
       -2    1    3    3    0  502 -0.62017766968E+02 -0.36130018712E+03 -0.47520202919E+03  0.60016747428E+03  0.25500000920E-02 0. -1.
</event>
<event>
 5   0  0.3701879E-03  0.1208626E+04  0.7818609E-02  0.9105340E-01
        1   -1    0    0  501    0  0.00000000000E+00  0.00000000000E+00  0.42866879692E+03  0.42866879695E+03  0.50400001928E-02 0. -1.
       -1   -1    0    0    0  501  0.00000000000E+00  0.00000000000E+00 -0.85192602536E+03  0.85192602538E+03  0.50400001928E-02 0.  1.
    10030    2    1    2    0    0  0.00000000000E+00  0.00000000000E+00 -0.42325722844E+03  0.12805948223E+04  0.12086258385E+04 0.  0.
        1    1    3    3  502    0  0.43362017520E+03 -0.99200392049E+02  0.22178523924E+03  0.49704714716E+03  0.50400001928E-02 0. -1.
       -1    1    3    3    0  502 -0.43362017520E+03  0.99200392049E+02 -0.64504246768E+03  0.78354767517E+03  0.50400001928E-02 0.  1.
</event>
<event>
 5   0  0.6493047E-03  0.9749868E+03  0.7818609E-02  0.9336412E-01
       -2   -1    0    0    0  501  0.00000000000E+00  0.00000000000E+00  0.71622951962E+03  0.71622951963E+03  0.25500000920E-02 0.  1.
        2   -1    0    0  501    0  0.00000000000E+00  0.00000000000E+00 -0.33180678883E+03  0.33180678884E+03  0.25500000920E-02 0. -1.
    10030    2    1    2    0    0  0.00000000000E+00  0.00000000000E+00  0.38442273079E+03  0.10480363085E+04  0.97498680397E+03 0.  0.
        3    1    3    3  502    0 -0.30525787036E+03 -0.48468117354E+02  0.59744227445E+03  0.67265801661E+03  0.10100000352E+00 0.  1.
       -3    1    3    3    0  502  0.30525787036E+03  0.48468117354E+02 -0.21301954365E+03  0.37537829185E+03  0.10100000352E+00 0. -1.
</event>
<event>
 5   0  0.3944074E-03  0.1187763E+04  0.7818609E-02  0.9123635E-01
       -1   -1    0    0    0  501  0.00000000000E+00  0.00000000000E+00  0.41097842048E+03  0.41097842051E+03  0.50400001928E-02 0. -1.
        1   -1    0    0  501    0  0.00000000000E+00  0.00000000000E+00 -0.85818434452E+03  0.85818434453E+03  0.50400001928E-02 0.  1.
    10030    2    1    2    0    0  0.00000000000E+00  0.00000000000E+00 -0.44720592404E+03  0.12691627650E+04  0.11877630175E+04 0.  0.
        4    1    3    3  502    0  0.13053972234E+03  0.58693846345E+02  0.39227206916E+03  0.41756984547E+03  0.12699999809E+01 0. -1.
       -4    1    3    3    0  502 -0.13053972234E+03 -0.58693846345E+02 -0.83947799319E+03  0.85159291957E+03  0.12699999809E+01 0.  1.
</event>
<event>
 5   0  0.3944074E-03  0.1192333E+04  0.7818609E-02  0.9119594E-01
       -1   -1    0    0    0  501  0.00000000000E+00  0.00000000000E+00  0.58877180214E+03  0.58877180216E+03  0.50400001928E-02 0. -1.
        1   -1    0    0  501    0  0.00000000000E+00  0.00000000000E+00 -0.60365434195E+03  0.60365434197E+03  0.50400001928E-02 0.  1.
    10030    2    1    2    0    0  0.00000000000E+00  0.00000000000E+00 -0.14882539812E+02  0.11924261441E+04  0.11923332668E+04 0.  0.
        4    1    3    3  502    0  0.21794470615E+03  0.10523073599E+02 -0.56228392017E+03  0.60313800228E+03  0.12699999809E+01 0.  1.
       -4    1    3    3    0  502 -0.21794470615E+03 -0.10523073599E+02  0.54740138036E+03  0.58928814186E+03  0.12699999809E+01 0. -1.
</event>
<event>
 5   0  0.3944074E-03  0.1117070E+04  0.7818609E-02  0.9188712E-01
        1   -1    0    0  501    0  0.00000000000E+00  0.00000000000E+00  0.21887463952E+03  0.21887463958E+03  0.50400001928E-02 0. -1.
       -1   -1    0    0    0  501  0.00000000000E+00  0.00000000000E+00 -0.14252973042E+04  0.14252973042E+04  0.50400001928E-02 0.  1.
    10030    2    1    2    0    0  0.00000000000E+00  0.00000000000E+00 -0.12064226647E+04  0.16441719438E+04  0.11170701567E+04 0.  0.
        4    1    3    3  502    0  0.17811723960E+03 -0.11835352655E+02 -0.13821776549E+04  0.13936579599E+04  0.12699999809E+01 0.  1.
       -4    1    3    3    0  502 -0.17811723960E+03  0.11835352655E+02  0.17575499024E+03  0.25051398386E+03  0.12699999809E+01 0. -1.
</event>
<event>
 5   0  0.6585930E-03  0.1171508E+04  0.7818609E-02  0.9138168E-01
       -2   -1    0    0    0  501  0.00000000000E+00  0.00000000000E+00  0.23323514947E+03  0.23323514949E+03  0.25500000920E-02 0. -1.
        2   -1    0    0  501    0  0.00000000000E+00  0.00000000000E+00 -0.14710796682E+04  0.14710796682E+04  0.25500000920E-02 0.  1.
    10030    2    1    2    0    0  0.00000000000E+00  0.00000000000E+00 -0.12378445188E+04  0.17043148177E+04  0.11715075524E+04 0.  0.
        2    1    3    3  502    0 -0.31110394438E+03  0.40211540891E+03 -0.10421305037E+04  0.11595337223E+04  0.25500000920E-02 0.  1.
       -2    1    3    3    0  502  0.31110394438E+03 -0.40211540891E+03 -0.19571401507E+03  0.54478109549E+03  0.25500000920E-02 0. -1.
</event>
<event>
 5   0  0.6658994E-03  0.1188158E+04  0.7818609E-02  0.9123285E-01
       -2   -1    0    0    0  501  0.00000000000E+00  0.00000000000E+00  0.57704177015E+03  0.57704177015E+03  0.25500000920E-02 0. -1.
        2   -1    0    0  501    0  0.00000000000E+00  0.00000000000E+00 -0.61161944777E+03  0.61161944778E+03  0.25500000920E-02 0.  1.
    10030    2    1    2    0    0  0.00000000000E+00  0.00000000000E+00 -0.34577677624E+02  0.11886612179E+04  0.11881581861E+04 0.  0.
        4    1    3    3  502    0  0.47491687028E+03  0.25887899175E+03  0.22850602162E+03  0.58718053515E+03  0.12699999809E+01 0.  1.
       -4    1    3    3    0  502 -0.47491687028E+03 -0.25887899175E+03 -0.26308369924E+03  0.60148068278E+03  0.12699999809E+01 0. -1.
</event>
<event>
 5   0  0.6493047E-03  0.1169882E+04  0.7818609E-02  0.9139635E-01
        2   -1    0    0  501    0  0.00000000000E+00  0.00000000000E+00  0.13502993533E+04  0.13502993533E+04  0.25500000920E-02 0. -1.
       -2   -1    0    0    0  501  0.00000000000E+00  0.00000000000E+00 -0.25339279590E+03  0.25339279591E+03  0.25500000920E-02 0.  1.
    10030    2    1    2    0    0  0.00000000000E+00  0.00000000000E+00  0.10969065574E+04  0.16036921492E+04  0.11698822649E+04 0.  0.
        3    1    3    3  502    0  0.34439482296E+03 -0.47269827592E+03  0.56247746663E+03  0.81143845411E+03  0.10100000352E+00 0. -1.
       -3    1    3    3    0  502 -0.34439482296E+03  0.47269827592E+03  0.53442909079E+03  0.79225369511E+03  0.10100000352E+00 0.  1.
</event>
<event>
 5   0  0.3772254E-03  0.1189097E+04  0.7818609E-02  0.9122454E-01
       -1   -1    0    0    0  501  0.00000000000E+00  0.00000000000E+00  0.30543153998E+03  0.30543154002E+03  0.50400001928E-02 0. -1.
        1   -1    0    0  501    0  0.00000000000E+00  0.00000000000E+00 -0.11573392801E+04  0.11573392801E+04  0.50400001928E-02 0.  1.
    10030    2    1    2    0    0  0.00000000000E+00  0.00000000000E+00 -0.85190774014E+03  0.14627708202E+04  0.11890969997E+04 0.  0.
        3    1    3    3  502    0 -0.24096604010E+03 -0.26227059200E+03 -0.10115858799E+04  0.10724534948E+04  0.10100000352E+00 0.  1.
       -3    1    3    3    0  502  0.24096604010E+03  0.26227059200E+03  0.15967813980E+03  0.39031732531E+03  0.10100000352E+00 0. -1.
</event>
<event>
 5   0  0.6493047E-03  0.1233437E+04  0.7818609E-02  0.9084082E-01
       -2   -1    0    0    0  501  0.00000000000E+00  0.00000000000E+00  0.23578232207E+03  0.23578232208E+03  0.25500000920E-02 0. -1.
        2   -1    0    0  501    0  0.00000000000E+00  0.00000000000E+00 -0.16131057646E+04  0.16131057646E+04  0.25500000920E-02 0.  1.
    10030    2    1    2    0    0  0.00000000000E+00  0.00000000000E+00 -0.13773234426E+04  0.18488880867E+04  0.12334371860E+04 0.  0.
        3    1    3    3  502    0  0.27676403280E+03  0.17895339592E+01  0.13746140790E+03  0.30902618197E+03  0.10100000352E+00 0. -1.
       -3    1    3    3    0  502 -0.27676403280E+03 -0.17895339592E+01 -0.15147848505E+04  0.15398619047E+04  0.10100000352E+00 0.  1.
</event>
<event>
 5   0  0.2537625E-03  0.1238256E+04  0.7818609E-02  0.9080015E-01
        3   -1    0    0  501    0  0.00000000000E+00  0.00000000000E+00  0.91812979763E+03  0.91812980319E+03  0.10100000352E+00 0.  1.
       -3   -1    0    0    0  501  0.00000000000E+00  0.00000000000E+00 -0.41750047326E+03  0.41750048548E+03  0.10100000352E+00 0. -1.
    10030    2    1    2    0    0  0.00000000000E+00  0.00000000000E+00  0.50062932438E+03  0.13356302887E+04  0.12382562528E+04 0.  0.
        5    1    3    3  502    0  0.38181681653E+02 -0.55086881170E+03 -0.51671738598E+02  0.55462270696E+03  0.46999998093E+01 0. -1.
       -5    1    3    3    0  502 -0.38181681653E+02  0.55086881170E+03  0.55230106297E+03  0.78100758170E+03  0.46999998093E+01 0.  1.
</event>
<event>
 5   0  0.6585930E-03  0.1252189E+04  0.7818609E-02  0.9068363E-01
        2   -1    0    0  501    0  0.00000000000E+00  0.00000000000E+00  0.15119518682E+04  0.15119518682E+04  0.25500000920E-02 0. -1.
       -2   -1    0    0    0  501  0.00000000000E+00  0.00000000000E+00 -0.25926393224E+03  0.25926393226E+03  0.25500000920E-02 0.  1.
    10030    2    1    2    0    0  0.00000000000E+00  0.00000000000E+00  0.12526879359E+04  0.17712158004E+04  0.12521894213E+04 0.  0.
        2    1    3    3  502    0 -0.49131785085E+03 -0.13086651965E+03  0.10956846701E+03  0.52011972228E+03  0.25500000920E-02 0.  1.
       -2    1    3    3    0  502  0.49131785085E+03  0.13086651965E+03  0.11431194689E+04  0.12510960781E+04  0.25500000920E-02 0. -1.
</event>
<event>
 5   0  0.3772254E-03  0.1226008E+04  0.7818609E-02  0.9090391E-01
       -1   -1    0    0    0  501  0.00000000000E+00  0.00000000000E+00  0.26707561651E+03  0.26707561656E+03  0.50400001928E-02 0.  1.
        1   -1    0    0  501    0  0.00000000000E+00  0.00000000000E+00 -0.14069950834E+04  0.14069950834E+04  0.50400001928E-02 0. -1.
    10030    2    1    2    0    0  0.00000000000E+00  0.00000000000E+00 -0.11399194669E+04  0.16740707000E+04  0.12260082861E+04 0.  0.
        3    1    3    3  502    0 -0.44052410309E+03  0.31791836733E+03 -0.95771435586E+03  0.11010678323E+04  0.10100000352E+00 0. -1.
       -3    1    3    3    0  502  0.44052410309E+03 -0.31791836733E+03 -0.18220511104E+03  0.57300286769E+03  0.10100000352E+00 0.  1.
</event>
<event>
 5   0  0.6640844E-03  0.1120884E+04  0.7818609E-02  0.9185073E-01
       -2   -1    0    0    0  501  0.00000000000E+00  0.00000000000E+00  0.20303977494E+03  0.20303977495E+03  0.25500000920E-02 0.  1.
        2   -1    0    0  501    0  0.00000000000E+00  0.00000000000E+00 -0.15469638552E+04  0.15469638552E+04  0.25500000920E-02 0. -1.
    10030    2    1    2    0    0  0.00000000000E+00  0.00000000000E+00 -0.13439240803E+04  0.17500036302E+04  0.11208839244E+04 0.  0.
        5    1    3    3  502    0  0.24679359414E+03 -0.50139371819E+03 -0.60627047246E+03  0.82455364563E+03  0.46999998093E+01 0.  1.
       -5    1    3    3    0  502 -0.24679359414E+03  0.50139371819E+03 -0.73765360780E+03  0.92544998452E+03  0.46999998093E+01 0. -1.
</event>
<event>
 5   0  0.3731281E-03  0.1204694E+04  0.7818609E-02  0.9108758E-01
       -1   -1    0    0    0  501  0.00000000000E+00  0.00000000000E+00  0.10144149039E+04  0.10144149039E+04  0.50400001928E-02 0. -1.
        1   -1    0    0  501    0  0.00000000000E+00  0.00000000000E+00 -0.35766620312E+03  0.35766620315E+03  0.50400001928E-02 0.  1.
    10030    2    1    2    0    0  0.00000000000E+00  0.00000000000E+00  0.65674870082E+03  0.13720811071E+04  0.12046940310E+04 0.  0.
        5    1    3    3  502    0  0.39245579238E+03  0.44413410362E+03  0.20611296452E+03  0.62751995595E+03  0.46999998093E+01 0. -1.
       -5    1    3    3    0  502 -0.39245579238E+03 -0.44413410362E+03  0.45063573630E+03  0.74456115115E+03  0.46999998093E+01 0.  1.
</event>
<event>
 5   0  0.6640844E-03  0.1122291E+04  0.7818609E-02  0.9183734E-01
       -2   -1    0    0    0  501  0.00000000000E+00  0.00000000000E+00  0.22345104285E+03  0.22345104286E+03  0.25500000920E-02 0. -1.
        2   -1    0    0  501    0  0.00000000000E+00  0.00000000000E+00 -0.14091873762E+04  0.14091873762E+04  0.25500000920E-02 0.  1.
    10030    2    1    2    0    0  0.00000000000E+00  0.00000000000E+00 -0.11857363333E+04  0.16326384191E+04  0.11222912078E+04 0.  0.
        5    1    3    3  502    0 -0.34183646724E+03 -0.41952407237E+03 -0.80868798720E+03  0.97306267438E+03  0.46999998093E+01 0.  1.
       -5    1    3    3    0  502  0.34183646724E+03  0.41952407237E+03 -0.37704834613E+03  0.65957574467E+03  0.46999998093E+01 0. -1.
</event>
<event>
 5   0  0.6349142E-03  0.1177328E+04  0.7818609E-02  0.9132936E-01
        2   -1    0    0  501    0  0.00000000000E+00  0.00000000000E+00  0.82051296360E+03  0.82051296360E+03  0.25500000920E-02 0. -1.
       -2   -1    0    0    0  501  0.00000000000E+00  0.00000000000E+00 -0.42232741314E+03  0.42232741314E+03  0.25500000920E-02 0.  1.
    10030    2    1    2    0    0  0.00000000000E+00  0.00000000000E+00  0.39818555046E+03  0.12428403767E+04  0.11773276814E+04 0.  0.
        1    1    3    3  502    0 -0.45963685022E+03  0.35794166850E+03  0.28827352878E+03  0.64999223037E+03  0.50400001928E-02 0.  1.
       -1    1    3    3    0  502  0.45963685022E+03 -0.35794166850E+03  0.10991202168E+03  0.59284814637E+03  0.50400001928E-02 0. -1.
</event>
<event>
 5   0  0.6658994E-03  0.1289129E+04  0.7818609E-02  0.9038231E-01
        2   -1    0    0  501    0  0.00000000000E+00  0.00000000000E+00  0.14253739477E+04  0.14253739477E+04  0.25500000920E-02 0. -1.
       -2   -1    0    0    0  501  0.00000000000E+00  0.00000000000E+00 -0.29147656183E+03  0.29147656184E+03  0.25500000920E-02 0.  1.
    10030    2    1    2    0    0  0.00000000000E+00  0.00000000000E+00  0.11338973859E+04  0.17168505095E+04  0.12891285391E+04 0.  0.
        4    1    3    3  502    0  0.13496349643E+03  0.62368573336E+03  0.44589151146E+03  0.77847279481E+03  0.12699999809E+01 0. -1.
       -4    1    3    3    0  502 -0.13496349643E+03 -0.62368573336E+03  0.68800587440E+03  0.93837771472E+03  0.12699999809E+01 0.  1.
</event>
<event>
 5   0  0.3772254E-03  0.1029729E+04  0.7818609E-02  0.9276527E-01
       -1   -1    0    0    0  501  0.00000000000E+00  0.00000000000E+00  0.47141664981E+03  0.47141664984E+03  0.50400001928E-02 0.  1.
        1   -1    0    0  501    0  0.00000000000E+00  0.00000000000E+00 -0.56231631013E+03  0.56231631015E+03  0.50400001928E-02 0. -1.
    10030    2    1    2    0    0  0.00000000000E+00  0.00000000000E+00 -0.90899660313E+02  0.10337329600E+04  0.10297286460E+04 0.  0.
        3    1    3    3  502    0 -0.29791492270E+01 -0.34288397168E+03 -0.43100971030E+03  0.55077007356E+03  0.10100000352E+00 0.  1.
       -3    1    3    3    0  502  0.29791492270E+01  0.34288397168E+03  0.34011004998E+03  0.48296288643E+03  0.10100000352E+00 0. -1.
</event>
<event>
 5   0  0.3944074E-03  0.1209262E+04  0.7818609E-02  0.9104788E-01
       -1   -1    0    0    0  501  0.00000000000E+00  0.00000000000E+00  0.69501049998E+03  0.69501050000E+03  0.50400001928E-02 0.  1.
        1   -1    0    0  501    0  0.00000000000E+00  0.00000000000E+00 -0.52600492535E+03  0.52600492537E+03  0.50400001928E-02 0. -1.
    10030    2    1    2    0    0  0.00000000000E+00  0.00000000000E+00  0.16900557463E+03  0.12210154254E+04  0.12092624962E+04 0.  0.
        4    1    3    3  502    0 -0.52936275096E+03 -0.27136012977E+03  0.19379568424E+03  0.62563537485E+03  0.12699999809E+01 0.  1.
       -4    1    3    3    0  502  0.52936275096E+03  0.27136012977E+03 -0.24790109616E+02  0.59538005053E+03  0.12699999809E+01 0. -1.
</event>
<event>
 5   0  0.6349142E-03  0.1203558E+04  0.7818609E-02  0.9109748E-01
       -2   -1    0    0    0  501  0.00000000000E+00  0.00000000000E+00  0.17240803713E+03  0.17240803715E+03  0.25500000920E-02 0.  1.
        2   -1    0    0  501    0  0.00000000000E+00  0.00000000000E+00 -0.21004712682E+04  0.21004712682E+04  0.25500000920E-02 0. -1.
    10030    2    1    2    0    0  0.00000000000E+00  0.00000000000E+00 -0.19280632311E+04  0.22728793054E+04  0.12035582718E+04 0.  0.
        1    1    3    3  502    0 -0.32553570940E+03 -0.41816410846E+03 -0.42555899061E+03  0.67965813040E+03  0.50400001928E-02 0. -1.
       -1    1    3    3    0  502  0.32553570940E+03  0.41816410846E+03 -0.15025042405E+04  0.15932211750E+04  0.50400001928E-02 0.  1.
</event>
<event>
 5   0  0.3944074E-03  0.1188970E+04  0.7818609E-02  0.9122566E-01
       -1   -1    0    0    0  501  0.00000000000E+00  0.00000000000E+00  0.25024404086E+03  0.25024404091E+03  0.50400001928E-02 0.  1.
        1   -1    0    0  501    0  0.00000000000E+00  0.00000000000E+00 -0.14122711716E+04  0.14122711716E+04  0.50400001928E-02 0. -1.
    10030    2    1    2    0    0  0.00000000000E+00  0.00000000000E+00 -0.11620271307E+04  0.16625152125E+04  0.11889700498E+04 0.  0.
        4    1    3    3  502    0  0.26285335310E+03 -0.12455550448E+03  0.14394516094E+03  0.32454241816E+03  0.12699999809E+01 0.  1.
       -4    1    3    3    0  502 -0.26285335310E+03  0.12455550448E+03 -0.13059722917E+04  0.13379727944E+04  0.12699999809E+01 0. -1.
</event>
<event>
 5   0  0.6658994E-03  0.1258093E+04  0.7818609E-02  0.9063475E-01
        2   -1    0    0  501    0  0.00000000000E+00  0.00000000000E+00  0.45597609756E+03  0.45597609757E+03  0.25500000920E-02 0.  1.
       -2   -1    0    0    0  501  0.00000000000E+00  0.00000000000E+00 -0.86780701470E+03  0.86780701471E+03  0.25500000920E-02 0. -1.
    10030    2    1    2    0    0  0.00000000000E+00  0.00000000000E+00 -0.41183091714E+03  0.13237831123E+04  0.12580926135E+04 0.  0.
        4    1    3    3  502    0  0.26461086919E+03  0.41531997833E+03  0.20591329272E+03  0.53377101224E+03  0.12699999809E+01 0.  1.
       -4    1    3    3    0  502 -0.26461086919E+03 -0.41531997833E+03 -0.61774420986E+03  0.79001210003E+03  0.12699999809E+01 0. -1.
</event>
<event>
 5   0  0.6640844E-03  0.1213245E+04  0.7818609E-02  0.9101341E-01
        2   -1    0    0  501    0  0.00000000000E+00  0.00000000000E+00  0.11178743177E+04  0.11178743177E+04  0.25500000920E-02 0. -1.
       -2   -1    0    0    0  501  0.00000000000E+00  0.00000000000E+00 -0.32918810388E+03  0.32918810389E+03  0.25500000920E-02 0.  1.
    10030    2    1    2    0    0  0.00000000000E+00  0.00000000000E+00  0.78868621378E+03  0.14470624215E+04  0.12132451146E+04 0.  0.
        5    1    3    3  502    0 -0.21315607469E+03  0.58546341983E+02 -0.27941803747E+03  0.35631406932E+03  0.46999998093E+01 0.  1.
       -5    1    3    3    0  502  0.21315607469E+03 -0.58546341983E+02  0.10681042513E+04  0.10907483522E+04  0.46999998093E+01 0. -1.
</event>
<event>
 5   0  0.6640844E-03  0.1207395E+04  0.7818609E-02  0.9106408E-01
        2   -1    0    0  501    0  0.00000000000E+00  0.00000000000E+00  0.13403029711E+04  0.13403029711E+04  0.25500000920E-02 0.  1.
       -2   -1    0    0    0  501  0.00000000000E+00  0.00000000000E+00 -0.27191671838E+03  0.27191671839E+03  0.25500000920E-02 0. -1.
    10030    2    1    2    0    0  0.00000000000E+00  0.00000000000E+00  0.10683862527E+04  0.16122196895E+04  0.12073951889E+04 0.  0.
        5    1    3    3  502    0  0.53010649542E+03 -0.16639372935E+03  0.84941410719E+03  0.10150005838E+04  0.46999998093E+01 0.  1.
       -5    1    3    3    0  502 -0.53010649542E+03  0.16639372935E+03  0.21897214552E+03  0.59721910566E+03  0.46999998093E+01 0. -1.
</event>
<event>
 5   0  0.3648616E-03  0.1193840E+04  0.7818609E-02  0.9118266E-01
        1   -1    0    0  501    0  0.00000000000E+00  0.00000000000E+00  0.12977663326E+04  0.12977663326E+04  0.50400001928E-02 0. -1.
       -1   -1    0    0    0  501  0.00000000000E+00  0.00000000000E+00 -0.27455895959E+03  0.27455895963E+03  0.50400001928E-02 0.  1.
    10030    2    1    2    0    0  0.00000000000E+00  0.00000000000E+00  0.10232073730E+04  0.15723252922E+04  0.11938398119E+04 0.  0.
        2    1    3    3  502    0 -0.29070360803E+03 -0.42581107523E+03  0.11542058078E+03  0.52834228488E+03  0.25500000920E-02 0.  1.
       -2    1    3    3    0  502  0.29070360803E+03  0.42581107523E+03  0.90778679221E+03  0.10439830073E+04  0.25500000920E-02 0. -1.
</event>
<event>
 5   0  0.3944074E-03  0.1114239E+04  0.7818609E-02  0.9191423E-01
        1   -1    0    0  501    0  0.00000000000E+00  0.00000000000E+00  0.36580012577E+03  0.36580012581E+03  0.50400001928E-02 0.  1.
       -1   -1    0    0    0  501  0.00000000000E+00  0.00000000000E+00 -0.84850247744E+03  0.84850247746E+03  0.50400001928E-02 0. -1.
    10030    2    1    2    0    0  0.00000000000E+00  0.00000000000E+00 -0.48270235167E+03  0.12143026033E+04  0.11142393154E+04 0.  0.
        4    1    3    3  502    0 -0.50042719682E+03 -0.36276875570E+02 -0.50524878993E+03  0.71205431228E+03  0.12699999809E+01 0.  1.
       -4    1    3    3    0  502  0.50042719682E+03  0.36276875570E+02  0.22546438255E+02  0.50224829098E+03  0.12699999809E+01 0. -1.
</event>
<event>
 5   0  0.2537625E-03  0.8574188E+03  0.7818609E-02  0.9480433E-01
       -3   -1    0    0    0  501  0.00000000000E+00  0.00000000000E+00  0.47747180067E+03  0.47747181136E+03  0.10100000352E+00 0. -1.
        3   -1    0    0  501    0  0.00000000000E+00  0.00000000000E+00 -0.38492690481E+03  0.38492691806E+03  0.10100000352E+00 0.  1.
    10030    2    1    2    0    0  0.00000000000E+00  0.00000000000E+00  0.92544895867E+02  0.86239872941E+03  0.85741880708E+03 0.  0.
        3    1    3    3  502    0  0.82787112561E+02  0.13629448227E+03 -0.35398588918E+03  0.38824723031E+03  0.10100000352E+00 0.  1.
       -3    1    3    3    0  502 -0.82787112561E+02 -0.13629448227E+03  0.44653078505E+03  0.47415149910E+03  0.10100000352E+00 0. -1.
</event>
<event>
 5   0  0.3701879E-03  0.1196128E+04  0.7818609E-02  0.9116253E-01
        1   -1    0    0  501    0  0.00000000000E+00  0.00000000000E+00  0.86503920114E+03  0.86503920116E+03  0.50400001928E-02 0. -1.
       -1   -1    0    0    0  501  0.00000000000E+00  0.00000000000E+00 -0.41348468102E+03  0.41348468105E+03  0.50400001928E-02 0.  1.
    10030    2    1    2    0    0  0.00000000000E+00  0.00000000000E+00  0.45155452012E+03  0.12785238822E+04  0.11961278497E+04 0.  0.
        1    1    3    3  502    0 -0.37527821161E+03 -0.11161392944E+03 -0.25745960486E+03  0.46859028321E+03  0.50400001928E-02 0.  1.
       -1    1    3    3    0  502  0.37527821161E+03  0.11161392944E+03  0.70901412497E+03  0.80993359900E+03  0.50400001928E-02 0. -1.
</event>
<event>
 5   0  0.6640844E-03  0.1107174E+04  0.7818609E-02  0.9198228E-01
       -2   -1    0    0    0  501  0.00000000000E+00  0.00000000000E+00  0.18343247993E+03  0.18343247995E+03  0.25500000920E-02 0. -1.
        2   -1    0    0  501    0  0.00000000000E+00  0.00000000000E+00 -0.16706885750E+04  0.16706885750E+04  0.25500000920E-02 0.  1.
    10030    2    1    2    0    0  0.00000000000E+00  0.00000000000E+00 -0.14872560950E+04  0.18541210549E+04  0.11071739674E+04 0.  0.
        5    1    3    3  502    0  0.19257534798E+03 -0.67594182283E+02 -0.16053489542E+04  0.16182773535E+04  0.46999998093E+01 0.  1.
       -5    1    3    3    0  502 -0.19257534798E+03  0.67594182283E+02  0.11809285914E+03  0.23584370143E+03  0.46999998093E+01 0. -1.
</event>
<event>
 5   0  0.6658994E-03  0.1210581E+04  0.7818609E-02  0.9103645E-01
       -2   -1    0    0    0  501  0.00000000000E+00  0.00000000000E+00  0.28131335407E+03  0.28131335408E+03  0.25500000920E-02 0.  1.
        2   -1    0    0  501    0  0.00000000000E+00  0.00000000000E+00 -0.13023783695E+04  0.13023783695E+04  0.25500000920E-02 0. -1.
    10030    2    1    2    0    0  0.00000000000E+00  0.00000000000E+00 -0.10210650155E+04  0.15836917236E+04  0.12105807324E+04 0.  0.
        4    1    3    3  502    0 -0.11003563109E+03 -0.36467107679E+03 -0.11259217702E+04  0.11886102304E+04  0.12699999809E+01 0. -1.
       -4    1    3    3    0  502  0.11003563109E+03  0.36467107679E+03  0.10485675474E+03  0.39508149320E+03  0.12699999809E+01 0.  1.
</event>
<event>
 5   0  0.6349142E-03  0.1185541E+04  0.7818609E-02  0.9125607E-01
        2   -1    0    0  501    0  0.00000000000E+00  0.00000000000E+00  0.80102532536E+03  0.80102532536E+03  0.25500000920E-02 0. -1.
       -2   -1    0    0    0  501  0.00000000000E+00  0.00000000000E+00 -0.43865898156E+03  0.43865898156E+03  0.25500000920E-02 0.  1.
    10030    2    1    2    0    0  0.00000000000E+00  0.00000000000E+00  0.36236634380E+03  0.12396843069E+04  0.11855411480E+04 0.  0.
        1    1    3    3  502    0  0.42929794882E+03  0.40476008449E+03  0.12157543341E+03  0.60241849315E+03  0.50400001928E-02 0. -1.
       -1    1    3    3    0  502 -0.42929794882E+03 -0.40476008449E+03  0.24079091040E+03  0.63726581378E+03  0.50400001928E-02 0.  1.
</event>
<event>
 5   0  0.6349142E-03  0.1194432E+04  0.7818609E-02  0.9117744E-01
       -2   -1    0    0    0  501  0.00000000000E+00  0.00000000000E+00  0.67418257944E+03  0.67418257945E+03  0.25500000920E-02 0. -1.
        2   -1    0    0  501    0  0.00000000000E+00  0.00000000000E+00 -0.52903607413E+03  0.52903607413E+03  0.25500000920E-02 0.  1.
    10030    2    1    2    0    0  0.00000000000E+00  0.00000000000E+00  0.14514650532E+03  0.12032186536E+04  0.11944319237E+04 0.  0.
        1    1    3    3  502    0  0.55679252737E+03  0.20374884669E+03  0.38441681607E+00  0.59290105318E+03  0.50400001928E-02 0.  1.
       -1    1    3    3    0  502 -0.55679252737E+03 -0.20374884669E+03  0.14476208850E+03  0.61031760040E+03  0.50400001928E-02 0. -1.
</event>
<event>
 5   0  0.3648616E-03  0.1166865E+04  0.7818609E-02  0.9142364E-01
        1   -1    0    0  501    0  0.00000000000E+00  0.00000000000E+00  0.34849286838E+03  0.34849286841E+03  0.50400001928E-02 0. -1.
       -1   -1    0    0    0  501  0.00000000000E+00  0.00000000000E+00 -0.97675904916E+03  0.97675904917E+03  0.50400001928E-02 0.  1.
    10030    2    1    2    0    0  0.00000000000E+00  0.00000000000E+00 -0.62826618079E+03  0.13252519176E+04  0.11668651384E+04 0.  0.
        2    1    3    3  502    0 -0.24320964231E+03  0.50355784599E+03 -0.12520390216E+03  0.57305972768E+03  0.25500000920E-02 0. -1.
       -2    1    3    3    0  502  0.24320964231E+03 -0.50355784599E+03 -0.50306227862E+03  0.75219218990E+03  0.25500000920E-02 0.  1.
</event>
<event>
 5   0  0.3731281E-03  0.1142201E+04  0.7818609E-02  0.9165009E-01
        1   -1    0    0  501    0  0.00000000000E+00  0.00000000000E+00  0.74279009620E+03  0.74279009622E+03  0.50400001928E-02 0.  1.
       -1   -1    0    0    0  501  0.00000000000E+00  0.00000000000E+00 -0.43909564214E+03  0.43909564217E+03  0.50400001928E-02 0. -1.
    10030    2    1    2    0    0  0.00000000000E+00  0.00000000000E+00  0.30369445406E+03  0.11818857384E+04  0.11422011982E+04 0.  0.
        5    1    3    3  502    0  0.21069025941E+03 -0.24060397860E+03  0.64141686982E+03  0.71674148116E+03  0.46999998093E+01 0.  1.
       -5    1    3    3    0  502 -0.21069025941E+03  0.24060397860E+03 -0.33772241576E+03  0.46514425723E+03  0.46999998093E+01 0. -1.
</event>
<event>
 5   0  0.6640844E-03  0.1130786E+04  0.7818609E-02  0.9175694E-01
        2   -1    0    0  501    0  0.00000000000E+00  0.00000000000E+00  0.70154027971E+03  0.70154027972E+03  0.25500000920E-02 0.  1.
       -2   -1    0    0    0  501  0.00000000000E+00  0.00000000000E+00 -0.45566775618E+03  0.45566775619E+03  0.25500000920E-02 0. -1.
    10030    2    1    2    0    0  0.00000000000E+00  0.00000000000E+00  0.24587252353E+03  0.11572080359E+04  0.11307860720E+04 0.  0.
        5    1    3    3  502    0  0.19674511557E+03  0.42529758571E+03 -0.20077839562E+03  0.50982421584E+03  0.46999998093E+01 0. -1.
       -5    1    3    3    0  502 -0.19674511557E+03 -0.42529758571E+03  0.44665091915E+03  0.64738382007E+03  0.46999998093E+01 0.  1.
</event>
<event>
 5   0  0.3944074E-03  0.1113046E+04  0.7818609E-02  0.9192569E-01
       -1   -1    0    0    0  501  0.00000000000E+00  0.00000000000E+00  0.28023904332E+03  0.28023904336E+03  0.50400001928E-02 0. -1.
        1   -1    0    0  501    0  0.00000000000E+00  0.00000000000E+00 -0.11051914307E+04  0.11051914307E+04  0.50400001928E-02 0.  1.
    10030    2    1    2    0    0  0.00000000000E+00  0.00000000000E+00 -0.82495238738E+03  0.13854304741E+04  0.11130458917E+04 0.  0.
        4    1    3    3  502    0  0.46012784842E+03 -0.51428954469E+02 -0.79683799238E+03  0.92158286293E+03  0.12699999809E+01 0.  1.
       -4    1    3    3    0  502 -0.46012784842E+03  0.51428954469E+02 -0.28114394998E+02  0.46384761114E+03  0.12699999809E+01 0. -1.
</event>
<event>
 5   0  0.6585930E-03  0.1208245E+04  0.7818609E-02  0.9105670E-01
        2   -1    0    0  501    0  0.00000000000E+00  0.00000000000E+00  0.12106558759E+04  0.12106558759E+04  0.25500000920E-02 0. -1.
       -2   -1    0    0    0  501  0.00000000000E+00  0.00000000000E+00 -0.30145982152E+03  0.30145982153E+03  0.25500000920E-02 0.  1.
    10030    2    1    2    0    0  0.00000000000E+00  0.00000000000E+00  0.90919605442E+03  0.15121156975E+04  0.12082451809E+04 0.  0.
        2    1    3    3  502    0 -0.38221763701E+02 -0.85742364940E+02 -0.29227591477E+03  0.30698186709E+03  0.25500000920E-02 0.  1.
       -2    1    3    3    0  502  0.38221763701E+02  0.85742364940E+02  0.12014719692E+04  0.12051338304E+04  0.25500000920E-02 0. -1.
</event>
<event>
 5   0  0.3701879E-03  0.1229251E+04  0.7818609E-02  0.9087631E-01
       -1   -1    0    0    0  501  0.00000000000E+00  0.00000000000E+00  0.31725623203E+03  0.31725623207E+03  0.50400001928E-02 0.  1.
        1   -1    0    0  501    0  0.00000000000E+00  0.00000000000E+00 -0.11907242930E+04  0.11907242930E+04  0.50400001928E-02 0. -1.
    10030    2    1    2    0    0  0.00000000000E+00  0.00000000000E+00 -0.87346806100E+03  0.15079805251E+04  0.12292513211E+04 0.  0.
        1    1    3    3  502    0  0.25746093438E+03  0.43189674979E+01  0.24789629231E+03  0.35743161301E+03  0.50400001928E-02 0.  1.
       -1    1    3    3    0  502 -0.25746093438E+03 -0.43189674979E+01 -0.11213643533E+04  0.11505489121E+04  0.50400001928E-02 0. -1.
</event>
<event>
 5   0  0.6493047E-03  0.1183300E+04  0.7818609E-02  0.9127601E-01
       -2   -1    0    0    0  501  0.00000000000E+00  0.00000000000E+00  0.21497130074E+03  0.21497130076E+03  0.25500000920E-02 0. -1.
        2   -1    0    0  501    0  0.00000000000E+00  0.00000000000E+00 -0.16283565157E+04  0.16283565157E+04  0.25500000920E-02 0.  1.
    10030    2    1    2    0    0  0.00000000000E+00  0.00000000000E+00 -0.14133852149E+04  0.18433278164E+04  0.11833003309E+04 0.  0.
        3    1    3    3  502    0 -0.23167262563E+03  0.15055731993E+03 -0.15216841063E+04  0.15465646581E+04  0.10100000352E+00 0.  1.
       -3    1    3    3    0  502  0.23167262563E+03 -0.15055731993E+03  0.10829889141E+03  0.29676315831E+03  0.10100000352E+00 0. -1.
</event>
<event>
 5   0  0.6640844E-03  0.1116557E+04  0.7818609E-02  0.9189203E-01
        2   -1    0    0  501    0  0.00000000000E+00  0.00000000000E+00  0.86138062122E+03  0.86138062123E+03  0.25500000920E-02 0. -1.
       -2   -1    0    0    0  501  0.00000000000E+00  0.00000000000E+00 -0.36183203463E+03  0.36183203464E+03  0.25500000920E-02 0.  1.
    10030    2    1    2    0    0  0.00000000000E+00  0.00000000000E+00  0.49954858659E+03  0.12232126559E+04  0.11165573927E+04 0.  0.
        5    1    3    3  502    0 -0.23764329941E+03  0.16730471831E+02  0.80287572324E+03  0.83748776911E+03  0.46999998093E+01 0. -1.
       -5    1    3    3    0  502  0.23764329941E+03 -0.16730471831E+02 -0.30332713664E+03  0.38572488676E+03  0.46999998093E+01 0.  1.
</event>
<event>
 5   0  0.3701879E-03  0.1253681E+04  0.7818609E-02  0.9067125E-01
       -1   -1    0    0    0  501  0.00000000000E+00  0.00000000000E+00  0.88640902728E+03  0.88640902729E+03  0.50400001928E-02 0. -1.
        1   -1    0    0  501    0  0.00000000000E+00  0.00000000000E+00 -0.44328189487E+03  0.44328189490E+03  0.50400001928E-02 0.  1.
    10030    2    1    2    0    0  0.00000000000E+00  0.00000000000E+00  0.44312713240E+03  0.13296909222E+04  0.12536810970E+04 0.  0.
        1    1    3    3  502    0  0.42797817602E+03  0.45794755672E+03  0.22889568304E+03  0.66728893112E+03  0.50400001928E-02 0.  1.
       -1    1    3    3    0  502 -0.42797817602E+03 -0.45794755672E+03  0.21423144937E+03  0.66240199108E+03  0.50400001928E-02 0. -1.
</event>
<event>
 5   0  0.3944074E-03  0.1128339E+04  0.7818609E-02  0.9178002E-01
        1   -1    0    0  501    0  0.00000000000E+00  0.00000000000E+00  0.12070904827E+04  0.12070904827E+04  0.50400001928E-02 0. -1.
       -1   -1    0    0    0  501  0.00000000000E+00  0.00000000000E+00 -0.26368154237E+03  0.26368154242E+03  0.50400001928E-02 0.  1.
    10030    2    1    2    0    0  0.00000000000E+00  0.00000000000E+00  0.94340894031E+03  0.14707720251E+04  0.11283394530E+04 0.  0.
        4    1    3    3  502    0  0.31714007230E+03  0.24992770883E+03  0.98529056173E+03  0.10648196040E+04  0.12699999809E+01 0. -1.
       -4    1    3    3    0  502 -0.31714007230E+03 -0.24992770883E+03 -0.41881621420E+02  0.40595242112E+03  0.12699999809E+01 0.  1.
</event>
<event>
 5   0  0.3731281E-03  0.1248892E+04  0.7818609E-02  0.9071106E-01
        1   -1    0    0  501    0  0.00000000000E+00  0.00000000000E+00  0.87774252282E+03  0.87774252284E+03  0.50400001928E-02 0.  1.
       -1   -1    0    0    0  501  0.00000000000E+00  0.00000000000E+00 -0.44424493271E+03  0.44424493274E+03  0.50400001928E-02 0. -1.
    10030    2    1    2    0    0  0.00000000000E+00  0.00000000000E+00  0.43349759011E+03  0.13219874556E+04  0.12488917776E+04 0.  0.
        5    1    3    3  502    0 -0.65236742035E+01 -0.17522052568E+03  0.85112956264E+03  0.86901577278E+03  0.46999998093E+01 0.  1.
       -5    1    3    3    0  502  0.65236742035E+01  0.17522052568E+03 -0.41763197253E+03  0.45297168280E+03  0.46999998093E+01 0. -1.
</event>
<event>
 5   0  0.3731281E-03  0.1194617E+04  0.7818609E-02  0.9117581E-01
       -1   -1    0    0    0  501  0.00000000000E+00  0.00000000000E+00  0.37352195701E+03  0.37352195705E+03  0.50400001928E-02 0.  1.
        1   -1    0    0  501    0  0.00000000000E+00  0.00000000000E+00 -0.95517192447E+03  0.95517192448E+03  0.50400001928E-02 0. -1.
    10030    2    1    2    0    0  0.00000000000E+00  0.00000000000E+00 -0.58164996746E+03  0.13286938815E+04  0.11946174058E+04 0.  0.
        5    1    3    3  502    0  0.40736657250E+03  0.33924428016E+03  0.15234180019E+02  0.53036626613E+03  0.46999998093E+01 0.  1.
       -5    1    3    3    0  502 -0.40736657250E+03 -0.33924428016E+03 -0.59688414748E+03  0.79832761540E+03  0.46999998093E+01 0. -1.
</event>
<event>
 5   0  0.6640844E-03  0.1197155E+04  0.7818609E-02  0.9115351E-01
        2   -1    0    0  501    0  0.00000000000E+00  0.00000000000E+00  0.93606606200E+03  0.93606606200E+03  0.25500000920E-02 0. -1.
       -2   -1    0    0    0  501  0.00000000000E+00  0.00000000000E+00 -0.38276652699E+03  0.38276652700E+03  0.25500000920E-02 0.  1.
    10030    2    1    2    0    0  0.00000000000E+00  0.00000000000E+00  0.55329953500E+03  0.13188325890E+04  0.11971545524E+04 0.  0.
        5    1    3    3  502    0 -0.49571120024E+03  0.23970669426E+03  0.53520378239E+03  0.76788936182E+03  0.46999998093E+01 0. -1.
       -5    1    3    3    0  502  0.49571120024E+03 -0.23970669426E+03  0.18095752612E+02  0.55094322718E+03  0.46999998093E+01 0.  1.
</event>
<event>
 5   0  0.6640844E-03  0.1198209E+04  0.7818609E-02  0.9114426E-01
       -2   -1    0    0    0  501  0.00000000000E+00  0.00000000000E+00  0.37227918510E+03  0.37227918511E+03  0.25500000920E-02 0.  1.
        2   -1    0    0  501    0  0.00000000000E+00  0.00000000000E+00 -0.96413120121E+03  0.96413120121E+03  0.25500000920E-02 0. -1.
    10030    2    1    2    0    0  0.00000000000E+00  0.00000000000E+00 -0.59185201611E+03  0.13364103863E+04  0.11982086261E+04 0.  0.
        5    1    3    3  502    0 -0.13144686843E+03 -0.18196404424E+03  0.32357972256E+03  0.39384656843E+03  0.46999998093E+01 0.  1.
       -5    1    3    3    0  502  0.13144686843E+03  0.18196404424E+03 -0.91543173868E+03  0.94256381789E+03  0.46999998093E+01 0. -1.
</event>
<event>
 5   0  0.6493047E-03  0.1201580E+04  0.7818609E-02  0.9111474E-01
        2   -1    0    0  501    0  0.00000000000E+00  0.00000000000E+00  0.53487551633E+03  0.53487551634E+03  0.25500000920E-02 0.  1.
       -2   -1    0    0    0  501  0.00000000000E+00  0.00000000000E+00 -0.67482782689E+03  0.67482782689E+03  0.25500000920E-02 0. -1.
    10030    2    1    2    0    0  0.00000000000E+00  0.00000000000E+00 -0.13995231056E+03  0.12097033432E+04  0.12015804298E+04 0.  0.
        3    1    3    3  502    0  0.45671163462E+03 -0.13091394845E+03  0.30023914033E+03  0.56202093438E+03  0.10100000352E+00 0.  1.
       -3    1    3    3    0  502 -0.45671163462E+03  0.13091394845E+03 -0.44019145089E+03  0.64768240885E+03  0.10100000352E+00 0. -1.
</event>
<event>
 5   0  0.6640844E-03  0.1196389E+04  0.7818609E-02  0.9116023E-01
        2   -1    0    0  501    0  0.00000000000E+00  0.00000000000E+00  0.84986019917E+03  0.84986019917E+03  0.25500000920E-02 0. -1.
       -2   -1    0    0    0  501  0.00000000000E+00  0.00000000000E+00 -0.42105343902E+03  0.42105343902E+03  0.25500000920E-02 0.  1.
    10030    2    1    2    0    0  0.00000000000E+00  0.00000000000E+00  0.42880676015E+03  0.12709136382E+04  0.11963888324E+04 0.  0.
        5    1    3    3  502    0  0.11185182666E+03  0.51474062940E+03 -0.86706545058E+02  0.53386221222E+03  0.46999998093E+01 0.  1.
       -5    1    3    3    0  502 -0.11185182666E+03 -0.51474062940E+03  0.51551330521E+03  0.73705142597E+03  0.46999998093E+01 0. -1.
</event>
<event>
 5   0  0.3648616E-03  0.1093844E+04  0.7818609E-02  0.9211213E-01
       -1   -1    0    0    0  501  0.00000000000E+00  0.00000000000E+00  0.41070453956E+03  0.41070453960E+03  0.50400001928E-02 0. -1.
        1   -1    0    0  501    0  0.00000000000E+00  0.00000000000E+00 -0.72831779589E+03  0.72831779591E+03  0.50400001928E-02 0.  1.
    10030    2    1    2    0    0  0.00000000000E+00  0.00000000000E+00 -0.31761325632E+03  0.11390223355E+04  0.10938435447E+04 0.  0.
        2    1    3    3  502    0 -0.45166612933E+03 -0.50432855605E+02  0.15802616881E+03  0.48116321072E+03  0.25500000920E-02 0.  1.
       -2    1    3    3    0  502  0.45166612933E+03  0.50432855605E+02 -0.47563942514E+03  0.65785912478E+03  0.25500000920E-02 0. -1.
</event>
<event>
 5   0  0.6493047E-03  0.1189982E+04  0.7818609E-02  0.9121671E-01
        2   -1    0    0  501    0  0.00000000000E+00  0.00000000000E+00  0.15000395607E+04  0.15000395607E+04  0.25500000920E-02 0. -1.
       -2   -1    0    0    0  501  0.00000000000E+00  0.00000000000E+00 -0.23600330138E+03  0.23600330139E+03  0.25500000920E-02 0.  1.
    10030    2    1    2    0    0  0.00000000000E+00  0.00000000000E+00  0.12640362593E+04  0.17360428621E+04  0.11899819974E+04 0.  0.
        3    1    3    3  502    0  0.12222183702E+03 -0.34717750463E+03 -0.49989727505E+02  0.37144229730E+03  0.10100000352E+00 0.  1.
       -3    1    3    3    0  502 -0.12222183702E+03  0.34717750463E+03  0.13140259868E+04  0.13646005648E+04  0.10100000352E+00 0. -1.
</event>
<event>
 5   0  0.6658994E-03  0.1199939E+04  0.7818609E-02  0.9112910E-01
       -2   -1    0    0    0  501  0.00000000000E+00  0.00000000000E+00  0.43753201685E+03  0.43753201686E+03  0.25500000920E-02 0.  1.
        2   -1    0    0  501    0  0.00000000000E+00  0.00000000000E+00 -0.82271326004E+03  0.82271326005E+03  0.25500000920E-02 0. -1.
    10030    2    1    2    0    0  0.00000000000E+00  0.00000000000E+00 -0.38518124319E+03  0.12602452769E+04  0.11999389851E+04 0.  0.
        4    1    3    3  502    0 -0.26505098671E+03  0.59728306742E+02  0.36921610386E+03  0.45841208583E+03  0.12699999809E+01 0.  1.
       -4    1    3    3    0  502  0.26505098671E+03 -0.59728306742E+02 -0.75439734705E+03  0.80183319108E+03  0.12699999809E+01 0. -1.
</event>
<event>
 5   0  0.6493047E-03  0.1166650E+04  0.7818609E-02  0.9142559E-01
       -2   -1    0    0    0  501  0.00000000000E+00  0.00000000000E+00  0.14695926588E+03  0.14695926590E+03  0.25500000920E-02 0.  1.
        2   -1    0    0  501    0  0.00000000000E+00  0.00000000000E+00 -0.23153889903E+04  0.23153889903E+04  0.25500000920E-02 0. -1.
    10030    2    1    2    0    0  0.00000000000E+00  0.00000000000E+00 -0.21684297244E+04  0.24623482562E+04  0.11666496754E+04 0.  0.
        3    1    3    3  502    0  0.35998321191E+03  0.43064932081E+03 -0.74902484721E+03  0.93599411446E+03  0.10100000352E+00 0. -1.
       -3    1    3    3    0  502 -0.35998321191E+03 -0.43064932081E+03 -0.14194048772E+04  0.15263541418E+04  0.10100000352E+00 0.  1.
</event>
<event>
 5   0  0.3648616E-03  0.1303676E+04  0.7818609E-02  0.9026655E-01
       -1   -1    0    0    0  501  0.00000000000E+00  0.00000000000E+00  0.21676083068E+03  0.21676083073E+03  0.50400001928E-02 0. -1.
        1   -1    0    0  501    0  0.00000000000E+00  0.00000000000E+00 -0.19601916392E+04  0.19601916393E+04  0.50400001928E-02 0.  1.
    10030    2    1    2    0    0  0.00000000000E+00  0.00000000000E+00 -0.17434308086E+04  0.21769524700E+04  0.13036759844E+04 0.  0.
        2    1    3    3  502    0  0.40781633580E+03  0.47752982686E+03 -0.11635530442E+04  0.13221968786E+04  0.25500000920E-02 0.  1.
       -2    1    3    3    0  502 -0.40781633580E+03 -0.47752982686E+03 -0.57987776440E+03  0.85475559134E+03  0.25500000920E-02 0. -1.
</event>
<event>
 5   0  0.6585930E-03  0.1078186E+04  0.7818609E-02  0.9226718E-01
       -2   -1    0    0    0  501  0.00000000000E+00  0.00000000000E+00  0.23200315245E+03  0.23200315246E+03  0.25500000920E-02 0.  1.
        2   -1    0    0  501    0  0.00000000000E+00  0.00000000000E+00 -0.12526611275E+04  0.12526611275E+04  0.25500000920E-02 0. -1.
    10030    2    1    2    0    0  0.00000000000E+00  0.00000000000E+00 -0.10206579751E+04  0.14846642800E+04  0.10781861259E+04 0.  0.
        2    1    3    3  502    0 -0.51056869165E+03 -0.58049037765E+02 -0.73478979483E+03  0.89664157961E+03  0.25500000920E-02 0. -1.
       -2    1    3    3    0  502  0.51056869165E+03  0.58049037765E+02 -0.28586818022E+03  0.58802270037E+03  0.25500000920E-02 0.  1.
</event>
<event>
 5   0  0.3944074E-03  0.1164032E+04  0.7818609E-02  0.9144935E-01
        1   -1    0    0  501    0  0.00000000000E+00  0.00000000000E+00  0.12099265505E+04  0.12099265505E+04  0.50400001928E-02 0.  1.
       -1   -1    0    0    0  501  0.00000000000E+00  0.00000000000E+00 -0.27996959390E+03  0.27996959395E+03  0.50400001928E-02 0. -1.
    10030    2    1    2    0    0  0.00000000000E+00  0.00000000000E+00  0.92995695659E+03  0.14898961444E+04  0.11640320357E+04 0.  0.
        4    1    3    3  502    0 -0.44298189441E+03  0.37734621772E+03  0.47887665346E+03  0.75362297532E+03  0.12699999809E+01 0.  1.
       -4    1    3    3    0  502  0.44298189441E+03 -0.37734621772E+03  0.45108030312E+03  0.73627316912E+03  0.12699999809E+01 0. -1.
</event>
<event>
 5   0  0.3648616E-03  0.1187673E+04  0.7818609E-02  0.9123715E-01
       -1   -1    0    0    0  501  0.00000000000E+00  0.00000000000E+00  0.35306101915E+03  0.35306101919E+03  0.50400001928E-02 0. -1.
        1   -1    0    0  501    0  0.00000000000E+00  0.00000000000E+00 -0.99881252195E+03  0.99881252196E+03  0.50400001928E-02 0.  1.
    10030    2    1    2    0    0  0.00000000000E+00  0.00000000000E+00 -0.64575150280E+03  0.13518735411E+04  0.11876729634E+04 0.  0.
        2    1    3    3  502    0  0.18088869223E+03  0.49480547386E+03 -0.63478350840E+03  0.82492622609E+03  0.25500000920E-02 0.  1.
       -2    1    3    3    0  502 -0.18088869223E+03 -0.49480547386E+03 -0.10967994396E+02  0.52694731506E+03  0.25500000920E-02 0. -1.
</event>
<event>
 5   0  0.6658994E-03  0.1205526E+04  0.7818609E-02  0.9108034E-01
        2   -1    0    0  501    0  0.00000000000E+00  0.00000000000E+00  0.68707951435E+03  0.68707951435E+03  0.25500000920E-02 0. -1.
       -2   -1    0    0    0  501  0.00000000000E+00  0.00000000000E+00 -0.52879338041E+03  0.52879338042E+03  0.25500000920E-02 0.  1.
    10030    2    1    2    0    0  0.00000000000E+00  0.00000000000E+00  0.15828613394E+03  0.12158728948E+04  0.12055257758E+04 0.  0.
        4    1    3    3  502    0  0.10743159674E+03 -0.59270448577E+03  0.57015511001E+02  0.60505581298E+03  0.12699999809E+01 0. -1.
       -4    1    3    3    0  502 -0.10743159674E+03  0.59270448577E+03  0.10127062294E+03  0.61081708179E+03  0.12699999809E+01 0.  1.
</event>
<event>
 5   0  0.3772254E-03  0.9570308E+03  0.7818609E-02  0.9356970E-01
        1   -1    0    0  501    0  0.00000000000E+00  0.00000000000E+00  0.74319819886E+03  0.74319819888E+03  0.50400001928E-02 0. -1.
       -1   -1    0    0    0  501  0.00000000000E+00  0.00000000000E+00 -0.30809682081E+03  0.30809682085E+03  0.50400001928E-02 0.  1.
    10030    2    1    2    0    0  0.00000000000E+00  0.00000000000E+00  0.43510137805E+03  0.10512950197E+04  0.95703082988E+03 0.  0.
        3    1    3    3  502    0 -0.16679354129E+03  0.12361450869E+03  0.69114966881E+03  0.72165677927E+03  0.10100000352E+00 0. -1.
       -3    1    3    3    0  502  0.16679354129E+03 -0.12361450869E+03 -0.25604829076E+03  0.32963824046E+03  0.10100000352E+00 0.  1.
</event>
<event>
 5   0  0.2537625E-03  0.1062414E+04  0.7818609E-02  0.9242621E-01
        4   -1    0    0  501    0  0.00000000000E+00  0.00000000000E+00  0.54618714234E+03  0.54618861884E+03  0.12699999809E+01 0.  1.
       -4   -1    0    0    0  501  0.00000000000E+00  0.00000000000E+00 -0.51663461135E+03  0.51663617231E+03  0.12699999809E+01 0. -1.
    10030    2    1    2    0    0  0.00000000000E+00  0.00000000000E+00  0.29552530990E+02  0.10628247912E+04  0.10624138481E+04 0.  0.
        4    1    3    3  502    0  0.38565735517E+03 -0.32939035319E+03  0.17279173208E+03  0.53580611787E+03  0.12699999809E+01 0.  1.
       -4    1    3    3    0  502 -0.38565735517E+03  0.32939035319E+03 -0.14323920109E+03  0.52701867329E+03  0.12699999809E+01 0. -1.
</event>
<event>
 5   0  0.6349142E-03  0.1203479E+04  0.7818609E-02  0.9109816E-01
        2   -1    0    0  501    0  0.00000000000E+00  0.00000000000E+00  0.85430426413E+03  0.85430426414E+03  0.25500000920E-02 0.  1.
       -2   -1    0    0    0  501  0.00000000000E+00  0.00000000000E+00 -0.42384274238E+03  0.42384274239E+03  0.25500000920E-02 0. -1.
    10030    2    1    2    0    0  0.00000000000E+00  0.00000000000E+00  0.43046152175E+03  0.12781470065E+04  0.12034793927E+04 0.  0.
        1    1    3    3  502    0 -0.29142177077E+03 -0.49300922120E+02  0.77190087410E+03  0.82655198800E+03  0.50400001928E-02 0.  1.
       -1    1    3    3    0  502  0.29142177077E+03  0.49300922120E+02 -0.34143935235E+03  0.45159501853E+03  0.50400001928E-02 0. -1.
</event>
<event>
 5   0  0.6493047E-03  0.1197319E+04  0.7818609E-02  0.9115207E-01
        2   -1    0    0  501    0  0.00000000000E+00  0.00000000000E+00  0.10436993347E+04  0.10436993347E+04  0.25500000920E-02 0. -1.
       -2   -1    0    0    0  501  0.00000000000E+00  0.00000000000E+00 -0.34338722769E+03  0.34338722770E+03  0.25500000920E-02 0.  1.
    10030    2    1    2    0    0  0.00000000000E+00  0.00000000000E+00  0.70031210701E+03  0.13870865624E+04  0.11973187063E+04 0.  0.
        3    1    3    3  502    0  0.43948916365E+03 -0.38868335371E+03  0.21226345156E+03  0.62392407990E+03  0.10100000352E+00 0. -1.
       -3    1    3    3    0  502 -0.43948916365E+03  0.38868335371E+03  0.48804865546E+03  0.76316248251E+03  0.10100000352E+00 0.  1.
</event>
<event>
 5   0  0.6658994E-03  0.1268080E+04  0.7818609E-02  0.9055268E-01
        2   -1    0    0  501    0  0.00000000000E+00  0.00000000000E+00  0.57995148794E+03  0.57995148794E+03  0.25500000920E-02 0.  1.
       -2   -1    0    0    0  501  0.00000000000E+00  0.00000000000E+00 -0.69317299923E+03  0.69317299924E+03  0.25500000920E-02 0. -1.
    10030    2    1    2    0    0  0.00000000000E+00  0.00000000000E+00 -0.11322151129E+03  0.12731244872E+04  0.12680799853E+04 0.  0.
        4    1    3    3  502    0  0.25748924030E+03 -0.57864289800E+03 -0.86339140024E+02  0.63920604837E+03  0.12699999809E+01 0. -1.
       -4    1    3    3    0  502 -0.25748924030E+03  0.57864289800E+03 -0.26882371269E+02  0.63391843881E+03  0.12699999809E+01 0.  1.
</event>
<event>
 5   0  0.3701879E-03  0.1166362E+04  0.7818609E-02  0.9142821E-01
       -1   -1    0    0    0  501  0.00000000000E+00  0.00000000000E+00  0.46614384028E+03  0.46614384031E+03  0.50400001928E-02 0. -1.
        1   -1    0    0  501    0  0.00000000000E+00  0.00000000000E+00 -0.72960280328E+03  0.72960280330E+03  0.50400001928E-02 0.  1.
    10030    2    1    2    0    0  0.00000000000E+00  0.00000000000E+00 -0.26345896300E+03  0.11957466436E+04  0.11663616122E+04 0.  0.
        1    1    3    3  502    0 -0.47799198505E+03 -0.32359394323E+03 -0.21695308521E+03  0.61665064589E+03  0.50400001928E-02 0. -1.
       -1    1    3    3    0  502  0.47799198505E+03  0.32359394323E+03 -0.46505877788E+02  0.57909599771E+03  0.50400001928E-02 0.  1.
</event>
<event>
 5   0  0.6658994E-03  0.1266399E+04  0.7818609E-02  0.9056644E-01
        2   -1    0    0  501    0  0.00000000000E+00  0.00000000000E+00  0.34687505073E+03  0.34687505074E+03  0.25500000920E-02 0. -1.
       -2   -1    0    0    0  501  0.00000000000E+00  0.00000000000E+00 -0.11558673129E+04  0.11558673129E+04  0.25500000920E-02 0.  1.
    10030    2    1    2    0    0  0.00000000000E+00  0.00000000000E+00 -0.80899226221E+03  0.15027423637E+04  0.12663988832E+04 0.  0.
        4    1    3    3  502    0  0.10754075467E+03  0.58479420538E+03 -0.14617477427E+03  0.61230544183E+03  0.12699999809E+01 0. -1.
       -4    1    3    3    0  502 -0.10754075467E+03 -0.58479420538E+03 -0.66281748794E+03  0.89043692185E+03  0.12699999809E+01 0.  1.
</event>
<event>
 5   0  0.3772254E-03  0.1180580E+04  0.7818609E-02  0.9130027E-01
       -1   -1    0    0    0  501  0.00000000000E+00  0.00000000000E+00  0.74048498915E+03  0.74048498916E+03  0.50400001928E-02 0. -1.
        1   -1    0    0  501    0  0.00000000000E+00  0.00000000000E+00 -0.47055970595E+03  0.47055970598E+03  0.50400001928E-02 0.  1.
    10030    2    1    2    0    0  0.00000000000E+00  0.00000000000E+00  0.26992528319E+03  0.12110446951E+04  0.11805801943E+04 0.  0.
        3    1    3    3  502    0  0.18482412141E+03  0.22827371404E+03 -0.39027895292E+03  0.48845318678E+03  0.10100000352E+00 0.  1.
       -3    1    3    3    0  502 -0.18482412141E+03 -0.22827371404E+03  0.66020423612E+03  0.72259150837E+03  0.10100000352E+00 0. -1.
</event>
<event>
 5   0  0.6493047E-03  0.1204494E+04  0.7818609E-02  0.9108932E-01
        2   -1    0    0  501    0  0.00000000000E+00  0.00000000000E+00  0.10611076878E+04  0.10611076878E+04  0.25500000920E-02 0. -1.
       -2   -1    0    0    0  501  0.00000000000E+00  0.00000000000E+00 -0.34181402544E+03  0.34181402545E+03  0.25500000920E-02 0.  1.
    10030    2    1    2    0    0  0.00000000000E+00  0.00000000000E+00  0.71929366235E+03  0.14029217132E+04  0.12044940684E+04 0.  0.
        3    1    3    3  502    0  0.45002919362E+03  0.37180669684E+03  0.18714351713E+03  0.61301647704E+03  0.10100000352E+00 0.  1.
       -3    1    3    3    0  502 -0.45002919362E+03 -0.37180669684E+03  0.53215014522E+03  0.78990523620E+03  0.10100000352E+00 0. -1.
</event>
<event>
 5   0  0.6493047E-03  0.1171700E+04  0.7818609E-02  0.9137994E-01
       -2   -1    0    0    0  501  0.00000000000E+00  0.00000000000E+00  0.11596149943E+03  0.11596149946E+03  0.25500000920E-02 0. -1.
        2   -1    0    0  501    0  0.00000000000E+00  0.00000000000E+00 -0.29597785609E+04  0.29597785609E+04  0.25500000920E-02 0.  1.
    10030    2    1    2    0    0  0.00000000000E+00  0.00000000000E+00 -0.28438170615E+04  0.30757400604E+04  0.11717002346E+04 0.  0.
        3    1    3    3  502    0  0.36518242883E+03  0.61425119660E+02 -0.23022586630E+03  0.43604496484E+03  0.10100000352E+00 0. -1.
       -3    1    3    3    0  502 -0.36518242883E+03 -0.61425119660E+02 -0.26135911952E+04  0.26396950955E+04  0.10100000352E+00 0.  1.
</event>
<event>
 5   0  0.3944074E-03  0.1132757E+04  0.7818609E-02  0.9173840E-01
       -1   -1    0    0    0  501  0.00000000000E+00  0.00000000000E+00  0.36669484746E+03  0.36669484749E+03  0.50400001928E-02 0. -1.
        1   -1    0    0  501    0  0.00000000000E+00  0.00000000000E+00 -0.87480035586E+03  0.87480035588E+03  0.50400001928E-02 0.  1.
    10030    2    1    2    0    0  0.00000000000E+00  0.00000000000E+00 -0.50810550841E+03  0.12414952034E+04  0.11327573140E+04 0.  0.
        4    1    3    3  502    0 -0.55234158438E+03 -0.41793206952E+02 -0.12458031595E+03  0.56775854552E+03  0.12699999809E+01 0.  1.
       -4    1    3    3    0  502  0.55234158438E+03  0.41793206952E+02 -0.38352519246E+03  0.67373665785E+03  0.12699999809E+01 0. -1.
</event>
<event>
 5   0  0.3701879E-03  0.1118859E+04  0.7818609E-02  0.9187003E-01
        1   -1    0    0  501    0  0.00000000000E+00  0.00000000000E+00  0.70196936150E+03  0.70196936152E+03  0.50400001928E-02 0. -1.
       -1   -1    0    0    0  501  0.00000000000E+00  0.00000000000E+00 -0.44583329248E+03  0.44583329251E+03  0.50400001928E-02 0.  1.
    10030    2    1    2    0    0  0.00000000000E+00  0.00000000000E+00  0.25613606902E+03  0.11478026540E+04  0.11188589039E+04 0.  0.
        1    1    3    3  502    0 -0.83517923533E+02 -0.52702694041E+03 -0.44292220323E+02  0.53543854948E+03  0.50400001928E-02 0.  1.
       -1    1    3    3    0  502  0.83517923533E+02  0.52702694041E+03  0.30042828934E+03  0.61236410454E+03  0.50400001928E-02 0. -1.
</event>
<event>
 5   0  0.6349142E-03  0.1137379E+04  0.7818609E-02  0.9169507E-01
        2   -1    0    0  501    0  0.00000000000E+00  0.00000000000E+00  0.25840668556E+04  0.25840668556E+04  0.25500000920E-02 0.  1.
       -2   -1    0    0    0  501  0.00000000000E+00  0.00000000000E+00 -0.12515444971E+03  0.12515444973E+03  0.25500000920E-02 0. -1.
    10030    2    1    2    0    0  0.00000000000E+00  0.00000000000E+00  0.24589124059E+04  0.27092213053E+04  0.11373785040E+04 0.  0.
        1    1    3    3  502    0 -0.27695910819E+02  0.22013183631E+03  0.24767226355E+04  0.24866403242E+04  0.50400001928E-02 0.  1.
       -1    1    3    3    0  502  0.27695910819E+02 -0.22013183631E+03 -0.17810229644E+02  0.22258098108E+03  0.50400001928E-02 0. -1.
</event>
<event>
 5   0  0.3648616E-03  0.1171292E+04  0.7818609E-02  0.9138363E-01
        1   -1    0    0  501    0  0.00000000000E+00  0.00000000000E+00  0.46473916959E+03  0.46473916961E+03  0.50400001928E-02 0. -1.
       -1   -1    0    0    0  501  0.00000000000E+00  0.00000000000E+00 -0.73800752359E+03  0.73800752361E+03  0.50400001928E-02 0.  1.
    10030    2    1    2    0    0  0.00000000000E+00  0.00000000000E+00 -0.27326835400E+03  0.12027466932E+04  0.11712916011E+04 0.  0.
        2    1    3    3  502    0 -0.41512339719E+03 -0.16839184919E+02 -0.56047786284E+03  0.69767214921E+03  0.25500000920E-02 0.  1.
       -2    1    3    3    0  502  0.41512339719E+03  0.16839184919E+02  0.28720950883E+03  0.50507454401E+03  0.25500000920E-02 0. -1.
</event>
<event>
 5   0  0.6640844E-03  0.1426552E+04  0.7818609E-02  0.8934820E-01
        2   -1    0    0  501    0  0.00000000000E+00  0.00000000000E+00  0.14176738121E+04  0.14176738121E+04  0.25500000920E-02 0.  1.
       -2   -1    0    0    0  501  0.00000000000E+00  0.00000000000E+00 -0.35887119864E+03  0.35887119865E+03  0.25500000920E-02 0. -1.
    10030    2    1    2    0    0  0.00000000000E+00  0.00000000000E+00  0.10588026135E+04  0.17765450108E+04  0.14265515066E+04 0.  0.
        5    1    3    3  502    0  0.19541093972E+03  0.58840818763E+03  0.96851576576E+03  0.11499802212E+04  0.46999998093E+01 0.  1.
       -5    1    3    3    0  502 -0.19541093972E+03 -0.58840818763E+03  0.90286847697E+02  0.62656478955E+03  0.46999998093E+01 0. -1.
</event>
<event>
 5   0  0.3648616E-03  0.1021717E+04  0.7818609E-02  0.9285041E-01
       -1   -1    0    0    0  501  0.00000000000E+00  0.00000000000E+00  0.23958384782E+03  0.23958384787E+03  0.50400001928E-02 0. -1.
        1   -1    0    0  501    0  0.00000000000E+00  0.00000000000E+00 -0.10892913077E+04  0.10892913077E+04  0.50400001928E-02 0.  1.
    10030    2    1    2    0    0  0.00000000000E+00  0.00000000000E+00 -0.84970745987E+03  0.13288751556E+04  0.10217173835E+04 0.  0.
        2    1    3    3  502    0 -0.37196337200E+03 -0.28379143454E+03 -0.15804317758E+03  0.49383395429E+03  0.25500000920E-02 0. -1.
       -2    1    3    3    0  502  0.37196337200E+03  0.28379143454E+03 -0.69166428228E+03  0.83504120127E+03  0.25500000920E-02 0.  1.
</event>
<event>
 5   0  0.3731281E-03  0.1191044E+04  0.7818609E-02  0.9120732E-01
       -1   -1    0    0    0  501  0.00000000000E+00  0.00000000000E+00  0.41650036632E+03  0.41650036635E+03  0.50400001928E-02 0.  1.
        1   -1    0    0  501    0  0.00000000000E+00  0.00000000000E+00 -0.85149070009E+03  0.85149070010E+03  0.50400001928E-02 0. -1.
    10030    2    1    2    0    0  0.00000000000E+00  0.00000000000E+00 -0.43499033377E+03  0.12679910665E+04  0.11910435568E+04 0.  0.
        5    1    3    3  502    0 -0.25156329698E+03 -0.35442621311E+02 -0.79088542193E+03  0.83069977273E+03  0.46999998093E+01 0. -1.
       -5    1    3    3    0  502  0.25156329698E+03  0.35442621311E+02  0.35589508816E+03  0.43729129372E+03  0.46999998093E+01 0.  1.
</event>
<event>
 5   0  0.3701879E-03  0.1237733E+04  0.7818609E-02  0.9080455E-01
       -1   -1    0    0    0  501  0.00000000000E+00  0.00000000000E+00  0.39027775483E+03  0.39027775486E+03  0.50400001928E-02 0.  1.
        1   -1    0    0  501    0  0.00000000000E+00  0.00000000000E+00 -0.98134155356E+03  0.98134155358E+03  0.50400001928E-02 0. -1.
    10030    2    1    2    0    0  0.00000000000E+00  0.00000000000E+00 -0.59106379874E+03  0.13716193084E+04  0.12377330541E+04 0.  0.
        1    1    3    3  502    0  0.56996356242E+03 -0.24096646868E+03 -0.30496611772E+03  0.68987508615E+03  0.50400001928E-02 0. -1.
       -1    1    3    3    0  502 -0.56996356242E+03  0.24096646868E+03 -0.28609768101E+03  0.68174422228E+03  0.50400001928E-02 0.  1.
</event>
<event>
 5   0  0.6640844E-03  0.1213685E+04  0.7818609E-02  0.9100962E-01
       -2   -1    0    0    0  501  0.00000000000E+00  0.00000000000E+00  0.27416358827E+03  0.27416358828E+03  0.25500000920E-02 0. -1.
        2   -1    0    0  501    0  0.00000000000E+00  0.00000000000E+00 -0.13432049381E+04  0.13432049381E+04  0.25500000920E-02 0.  1.
    10030    2    1    2    0    0  0.00000000000E+00  0.00000000000E+00 -0.10690413498E+04  0.16173685264E+04  0.12136851085E+04 0.  0.
        5    1    3    3  502    0  0.16021251443E+03  0.13008921497E+03  0.22593668249E+03  0.30604040276E+03  0.46999998093E+01 0. -1.
       -5    1    3    3    0  502 -0.16021251443E+03 -0.13008921497E+03 -0.12949780323E+04  0.13113281236E+04  0.46999998093E+01 0.  1.
</event>
<event>
 5   0  0.3648616E-03  0.1197823E+04  0.7818609E-02  0.9114764E-01
        1   -1    0    0  501    0  0.00000000000E+00  0.00000000000E+00  0.43134462544E+03  0.43134462547E+03  0.50400001928E-02 0.  1.
       -1   -1    0    0    0  501  0.00000000000E+00  0.00000000000E+00 -0.83157395400E+03  0.83157395402E+03  0.50400001928E-02 0. -1.
    10030    2    1    2    0    0  0.00000000000E+00  0.00000000000E+00 -0.40022932857E+03  0.12629185795E+04  0.11978229514E+04 0.  0.
        2    1    3    3  502    0 -0.89410489425E+02 -0.25478490727E+03 -0.76375584921E+03  0.81008183649E+03  0.25500000920E-02 0. -1.
       -2    1    3    3    0  502  0.89410489425E+02  0.25478490727E+03  0.36352652064E+03  0.45283674300E+03  0.25500000920E-02 0.  1.
</event>
<event>
 5   0  0.3772254E-03  0.1136210E+04  0.7818609E-02  0.9170601E-01
       -1   -1    0    0    0  501  0.00000000000E+00  0.00000000000E+00  0.31479399670E+03  0.31479399674E+03  0.50400001928E-02 0.  1.
        1   -1    0    0  501    0  0.00000000000E+00  0.00000000000E+00 -0.10252515851E+04  0.10252515851E+04  0.50400001928E-02 0. -1.
    10030    2    1    2    0    0  0.00000000000E+00  0.00000000000E+00 -0.71045758835E+03  0.13400455818E+04  0.11362095654E+04 0.  0.
        3    1    3    3  502    0  0.33820271448E+03 -0.24826856937E+02 -0.89278890095E+03  0.95502328808E+03  0.10100000352E+00 0. -1.
       -3    1    3    3    0  502 -0.33820271448E+03  0.24826856937E+02  0.18233131261E+03  0.38502229373E+03  0.10100000352E+00 0.  1.
</event>
<event>
 5   0  0.6493047E-03  0.1198724E+04  0.7818609E-02  0.9113974E-01
       -2   -1    0    0    0  501  0.00000000000E+00  0.00000000000E+00  0.42236665393E+03  0.42236665394E+03  0.25500000920E-02 0.  1.
        2   -1    0    0  501    0  0.00000000000E+00  0.00000000000E+00 -0.85052791834E+03  0.85052791834E+03  0.25500000920E-02 0. -1.
    10030    2    1    2    0    0  0.00000000000E+00  0.00000000000E+00 -0.42816126441E+03  0.12728945723E+04  0.11987237062E+04 0.  0.
        3    1    3    3  502    0  0.44497569191E+03  0.34921876497E+03 -0.42452887628E+03  0.70723538457E+03  0.10100000352E+00 0. -1.
       -3    1    3    3    0  502 -0.44497569191E+03 -0.34921876497E+03 -0.36323881263E+01  0.56565918771E+03  0.10100000352E+00 0.  1.
</event>
<event>
 5   0  0.6640844E-03  0.1071134E+04  0.7818609E-02  0.9233792E-01
       -2   -1    0    0    0  501  0.00000000000E+00  0.00000000000E+00  0.52052789610E+03  0.52052789611E+03  0.25500000920E-02 0.  1.
        2   -1    0    0  501    0  0.00000000000E+00  0.00000000000E+00 -0.55104081226E+03  0.55104081226E+03  0.25500000920E-02 0. -1.
    10030    2    1    2    0    0  0.00000000000E+00  0.00000000000E+00 -0.30512916157E+02  0.10715687084E+04  0.10711341927E+04 0.  0.
        5    1    3    3  502    0  0.63111061760E+02 -0.22225418297E+03  0.46808557545E+03  0.52202119105E+03  0.46999998093E+01 0.  1.
       -5    1    3    3    0  502 -0.63111061760E+02  0.22225418297E+03 -0.49859849161E+03  0.54954751732E+03  0.46999998093E+01 0. -1.
</event>
<event>
 5   0  0.6349142E-03  0.1240232E+04  0.7818609E-02  0.9078352E-01
       -2   -1    0    0    0  501  0.00000000000E+00  0.00000000000E+00  0.36936016482E+03  0.36936016482E+03  0.25500000920E-02 0. -1.
        2   -1    0    0  501    0  0.00000000000E+00  0.00000000000E+00 -0.10411084735E+04  0.10411084735E+04  0.25500000920E-02 0.  1.
    10030    2    1    2    0    0  0.00000000000E+00  0.00000000000E+00 -0.67174830873E+03  0.14104686384E+04  0.12402322321E+04 0.  0.
        1    1    3    3  502    0  0.56575032400E+03 -0.12923755172E+03 -0.58443342461E+03  0.82361289554E+03  0.50400001928E-02 0.  1.
       -1    1    3    3    0  502 -0.56575032400E+03  0.12923755172E+03 -0.87314884118E+02  0.58685574283E+03  0.50400001928E-02 0. -1.
</event>
<event>
 5   0  0.3944074E-03  0.1172285E+04  0.7818609E-02  0.9137468E-01
       -1   -1    0    0    0  501  0.00000000000E+00  0.00000000000E+00  0.75126154039E+03  0.75126154040E+03  0.50400001928E-02 0.  1.
        1   -1    0    0  501    0  0.00000000000E+00  0.00000000000E+00 -0.45731464782E+03  0.45731464785E+03  0.50400001928E-02 0. -1.
    10030    2    1    2    0    0  0.00000000000E+00  0.00000000000E+00  0.29394689257E+03  0.12085761883E+04  0.11722847893E+04 0.  0.
        4    1    3    3  502    0 -0.42569204821E+02 -0.49765228262E+03 -0.16926581125E+03  0.52737316897E+03  0.12699999809E+01 0. -1.
       -4    1    3    3    0  502  0.42569204821E+02  0.49765228262E+03  0.46321270382E+03  0.68120301928E+03  0.12699999809E+01 0.  1.
</event>
<event>
 5   0  0.3772254E-03  0.1185935E+04  0.7818609E-02  0.9125257E-01
        1   -1    0    0  501    0  0.00000000000E+00  0.00000000000E+00  0.12736276047E+04  0.12736276047E+04  0.50400001928E-02 0.  1.
       -1   -1    0    0    0  501  0.00000000000E+00  0.00000000000E+00 -0.27607029683E+03  0.27607029688E+03  0.50400001928E-02 0. -1.
    10030    2    1    2    0    0  0.00000000000E+00  0.00000000000E+00  0.99755730782E+03  0.15496979015E+04  0.11859354973E+04 0.  0.
        3    1    3    3  502    0  0.25323381765E+03 -0.16586309836E+03 -0.16749085403E+03  0.34596405910E+03  0.10100000352E+00 0. -1.
       -3    1    3    3    0  502 -0.25323381765E+03  0.16586309836E+03  0.11650481619E+04  0.12037338424E+04  0.10100000352E+00 0.  1.
</event>
<event>
 5   0  0.3701879E-03  0.1184727E+04  0.7818609E-02  0.9126331E-01
        1   -1    0    0  501    0  0.00000000000E+00  0.00000000000E+00  0.19262493972E+04  0.19262493972E+04  0.50400001928E-02 0.  1.
       -1   -1    0    0    0  501  0.00000000000E+00  0.00000000000E+00 -0.18216457697E+03  0.18216457704E+03  0.50400001928E-02 0. -1.
    10030    2    1    2    0    0  0.00000000000E+00  0.00000000000E+00  0.17440848202E+04  0.21084139742E+04  0.11847268152E+04 0.  0.
        1    1    3    3  502    0  0.33653669253E+03  0.39028772044E+03  0.35223177131E+03  0.62421844805E+03  0.50400001928E-02 0. -1.
       -1    1    3    3    0  502 -0.33653669253E+03 -0.39028772044E+03  0.13918530489E+04  0.14841955262E+04  0.50400001928E-02 0.  1.
</event>
<event>
 5   0  0.6585930E-03  0.1217606E+04  0.7818609E-02  0.9097584E-01
        2   -1    0    0  501    0  0.00000000000E+00  0.00000000000E+00  0.13280432184E+04  0.13280432184E+04  0.25500000920E-02 0.  1.
       -2   -1    0    0    0  501  0.00000000000E+00  0.00000000000E+00 -0.27908828590E+03  0.27908828591E+03  0.25500000920E-02 0. -1.
    10030    2    1    2    0    0  0.00000000000E+00  0.00000000000E+00  0.10489549325E+04  0.16071315043E+04  0.12176063492E+04 0.  0.
        2    1    3    3  502    0 -0.30048480572E+03 -0.46713074892E+03  0.85350088941E+03  0.10183152868E+04  0.25500000920E-02 0. -1.
       -2    1    3    3    0  502  0.30048480572E+03  0.46713074892E+03  0.19545404309E+03  0.58881621753E+03  0.25500000920E-02 0.  1.
</event>
<event>
 5   0  0.3701879E-03  0.1402369E+04  0.7818609E-02  0.8952106E-01
        1   -1    0    0  501    0  0.00000000000E+00  0.00000000000E+00  0.10521661052E+04  0.10521661053E+04  0.50400001928E-02 0. -1.
       -1   -1    0    0    0  501  0.00000000000E+00  0.00000000000E+00 -0.46728324745E+03  0.46728324747E+03  0.50400001928E-02 0.  1.
    10030    2    1    2    0    0  0.00000000000E+00  0.00000000000E+00  0.58488285780E+03  0.15194493527E+04  0.14023688453E+04 0.  0.
        1    1    3    3  502    0 -0.58515817610E+03 -0.30313361380E+03  0.55193506479E+03  0.85961176972E+03  0.50400001928E-02 0. -1.
       -1    1    3    3    0  502  0.58515817610E+03  0.30313361380E+03  0.32947793015E+02  0.65983758302E+03  0.50400001928E-02 0.  1.
</event>
<event>
 5   0  0.2537625E-03  0.1115748E+04  0.7818609E-02  0.9189978E-01
       -4   -1    0    0    0  501  0.00000000000E+00  0.00000000000E+00  0.25036339435E+03  0.25036661544E+03  0.12699999809E+01 0. -1.
        4   -1    0    0  501    0  0.00000000000E+00  0.00000000000E+00 -0.12430742824E+04  0.12430749312E+04  0.12699999809E+01 0.  1.
    10030    2    1    2    0    0  0.00000000000E+00  0.00000000000E+00 -0.99271088809E+03  0.14934415466E+04  0.11157476175E+04 0.  0.
        4    1    3    3  502    0 -0.39201921146E+03 -0.19306552305E+03 -0.32163398683E+02  0.43816601358E+03  0.12699999809E+01 0.  1.
       -4    1    3    3    0  502  0.39201921146E+03  0.19306552305E+03 -0.96054748941E+03  0.10552755331E+04  0.12699999809E+01 0. -1.
</event>
<event>
 5   0  0.3944074E-03  0.1187014E+04  0.7818609E-02  0.9124299E-01
       -1   -1    0    0    0  501  0.00000000000E+00  0.00000000000E+00  0.97871178663E+03  0.97871178665E+03  0.50400001928E-02 0.  1.
        1   -1    0    0  501    0  0.00000000000E+00  0.00000000000E+00 -0.35991267895E+03  0.35991267898E+03  0.50400001928E-02 0. -1.
    10030    2    1    2    0    0  0.00000000000E+00  0.00000000000E+00  0.61879910769E+03  0.13386244656E+04  0.11870143741E+04 0.  0.
        4    1    3    3  502    0 -0.24978490313E+03  0.14629131918E+02  0.91632317861E+03  0.94987172286E+03  0.12699999809E+01 0.  1.
       -4    1    3    3    0  502  0.24978490313E+03 -0.14629131918E+02 -0.29752407093E+03  0.38875274277E+03  0.12699999809E+01 0. -1.
</event>
<event>
 5   0  0.6349142E-03  0.1218283E+04  0.7818609E-02  0.9097002E-01
        2   -1    0    0  501    0  0.00000000000E+00  0.00000000000E+00  0.17020361127E+04  0.17020361127E+04  0.25500000920E-02 0.  1.
       -2   -1    0    0    0  501  0.00000000000E+00  0.00000000000E+00 -0.21800565558E+03  0.21800565560E+03  0.25500000920E-02 0. -1.
    10030    2    1    2    0    0  0.00000000000E+00  0.00000000000E+00  0.14840304571E+04  0.19200417683E+04  0.12182832160E+04 0.  0.
        1    1    3    3  502    0  0.26837194407E+02 -0.59802725514E+03  0.56442982881E+03  0.82276233784E+03  0.50400001928E-02 0. -1.
       -1    1    3    3    0  502 -0.26837194407E+02  0.59802725514E+03  0.91960062829E+03  0.10972794304E+04  0.50400001928E-02 0.  1.
</event>
<event>
 5   0  0.6493047E-03  0.1184346E+04  0.7818609E-02  0.9126670E-01
        2   -1    0    0  501    0  0.00000000000E+00  0.00000000000E+00  0.90371498852E+03  0.90371498852E+03  0.25500000920E-02 0. -1.
       -2   -1    0    0    0  501  0.00000000000E+00  0.00000000000E+00 -0.38803024994E+03  0.38803024995E+03  0.25500000920E-02 0.  1.
    10030    2    1    2    0    0  0.00000000000E+00  0.00000000000E+00  0.51568473858E+03  0.12917452385E+04  0.11843458158E+04 0.  0.
        3    1    3    3  502    0 -0.29837664319E+03 -0.38942469965E+03 -0.10387721899E+03  0.50146854809E+03  0.10100000352E+00 0.  1.
       -3    1    3    3    0  502  0.29837664319E+03  0.38942469965E+03  0.61956195757E+03  0.79027669039E+03  0.10100000352E+00 0. -1.
</event>
<event>
 5   0  0.3648616E-03  0.1204073E+04  0.7818609E-02  0.9109299E-01
       -1   -1    0    0    0  501  0.00000000000E+00  0.00000000000E+00  0.54495635950E+03  0.54495635953E+03  0.50400001928E-02 0. -1.
        1   -1    0    0  501    0  0.00000000000E+00  0.00000000000E+00 -0.66509494745E+03  0.66509494747E+03  0.50400001928E-02 0.  1.
    10030    2    1    2    0    0  0.00000000000E+00  0.00000000000E+00 -0.12013858795E+03  0.12100513070E+04  0.12040726246E+04 0.  0.
        2    1    3    3  502    0 -0.40982713318E+03 -0.44013457774E+03 -0.32164612012E+02  0.60225516842E+03  0.25500000920E-02 0. -1.
       -2    1    3    3    0  502  0.40982713318E+03  0.44013457774E+03 -0.87973975936E+02  0.60779613857E+03  0.25500000920E-02 0.  1.
</event>
<event>
 5   0  0.2537625E-03  0.1211517E+04  0.7818609E-02  0.9102835E-01
       -3   -1    0    0    0  501  0.00000000000E+00  0.00000000000E+00  0.38347785298E+03  0.38347786628E+03  0.10100000352E+00 0. -1.
        3   -1    0    0  501    0  0.00000000000E+00  0.00000000000E+00 -0.95688338790E+03  0.95688339323E+03  0.10100000352E+00 0.  1.
    10030    2    1    2    0    0  0.00000000000E+00  0.00000000000E+00 -0.57340553491E+03  0.13403612595E+04  0.12115173951E+04 0.  0.
        4    1    3    3  502    0  0.15226278590E+03 -0.35054714608E+03 -0.80665713160E+03  0.89261671420E+03  0.12699999809E+01 0.  1.
       -4    1    3    3    0  502 -0.15226278590E+03  0.35054714608E+03  0.23325159669E+03  0.44774454531E+03  0.12699999809E+01 0. -1.
</event>
<event>
 5   0  0.3731281E-03  0.1218739E+04  0.7818609E-02  0.9096610E-01
       -1   -1    0    0    0  501  0.00000000000E+00  0.00000000000E+00  0.57755662930E+03  0.57755662932E+03  0.50400001928E-02 0. -1.
        1   -1    0    0  501    0  0.00000000000E+00  0.00000000000E+00 -0.64293509907E+03  0.64293509909E+03  0.50400001928E-02 0.  1.
    10030    2    1    2    0    0  0.00000000000E+00  0.00000000000E+00 -0.65378469774E+02  0.12204917284E+04  0.12187393958E+04 0.  0.
        5    1    3    3  502    0 -0.24147110115E+03  0.29872845672E+03  0.44102616436E+03  0.58487020029E+03  0.46999998093E+01 0. -1.
       -5    1    3    3    0  502  0.24147110115E+03 -0.29872845672E+03 -0.50640463413E+03  0.63562152812E+03  0.46999998093E+01 0.  1.
</event>
<event>
 5   0  0.6640844E-03  0.9652272E+03  0.7818609E-02  0.9347527E-01
        2   -1    0    0  501    0  0.00000000000E+00  0.00000000000E+00  0.66730362661E+03  0.66730362661E+03  0.25500000920E-02 0. -1.
       -2   -1    0    0    0  501  0.00000000000E+00  0.00000000000E+00 -0.34904037301E+03  0.34904037302E+03  0.25500000920E-02 0.  1.
    10030    2    1    2    0    0  0.00000000000E+00  0.00000000000E+00  0.31826325360E+03  0.10163439996E+04  0.96522724112E+03 0.  0.
        5    1    3    3  502    0 -0.25785777457E+03 -0.10763767788E+03 -0.25517408720E+03  0.37843415065E+03  0.46999998093E+01 0.  1.
       -5    1    3    3    0  502  0.25785777457E+03  0.10763767788E+03  0.57343734080E+03  0.63790984898E+03  0.46999998093E+01 0. -1.
</event>
<event>
 5   0  0.6349142E-03  0.1234453E+04  0.7818609E-02  0.9083223E-01
       -2   -1    0    0    0  501  0.00000000000E+00  0.00000000000E+00  0.32537288602E+03  0.32537288603E+03  0.25500000920E-02 0. -1.
        2   -1    0    0  501    0  0.00000000000E+00  0.00000000000E+00 -0.11708668659E+04  0.11708668659E+04  0.25500000920E-02 0.  1.
    10030    2    1    2    0    0  0.00000000000E+00  0.00000000000E+00 -0.84549397990E+03  0.14962397520E+04  0.12344526420E+04 0.  0.
        1    1    3    3  502    0  0.23541355094E+03 -0.53393752124E+03 -0.66654889241E+03  0.88588726289E+03  0.50400001928E-02 0.  1.
       -1    1    3    3    0  502 -0.23541355094E+03  0.53393752124E+03 -0.17894508750E+03  0.61035248907E+03  0.50400001928E-02 0. -1.
</event>
<event>
 5   0  0.3731281E-03  0.1176673E+04  0.7818609E-02  0.9133523E-01
       -1   -1    0    0    0  501  0.00000000000E+00  0.00000000000E+00  0.26350253717E+03  0.26350253722E+03  0.50400001928E-02 0.  1.
        1   -1    0    0  501    0  0.00000000000E+00  0.00000000000E+00 -0.13136107293E+04  0.13136107293E+04  0.50400001928E-02 0. -1.
    10030    2    1    2    0    0  0.00000000000E+00  0.00000000000E+00 -0.10501081921E+04  0.15771132665E+04  0.11766728688E+04 0.  0.
        5    1    3    3  502    0  0.52529183301E+03 -0.21673211518E+03 -0.72926365134E+03  0.92452792426E+03  0.46999998093E+01 0. -1.
       -5    1    3    3    0  502 -0.52529183301E+03  0.21673211518E+03 -0.32084454078E+03  0.65258534225E+03  0.46999998093E+01 0.  1.
</event>
<event>
 5   0  0.3648616E-03  0.1168723E+04  0.7818609E-02  0.9140682E-01
       -1   -1    0    0    0  501  0.00000000000E+00  0.00000000000E+00  0.19996314126E+03  0.19996314132E+03  0.50400001928E-02 0.  1.
        1   -1    0    0  501    0  0.00000000000E+00  0.00000000000E+00 -0.17077066181E+04  0.17077066181E+04  0.50400001928E-02 0. -1.
    10030    2    1    2    0    0  0.00000000000E+00  0.00000000000E+00 -0.15077434769E+04  0.19076697594E+04  0.11687230293E+04 0.  0.
        2    1    3    3  502    0  0.51501425787E+03  0.21586214155E+03 -0.47284539766E+03  0.73172325373E+03  0.25500000920E-02 0.  1.
       -2    1    3    3    0  502 -0.51501425787E+03 -0.21586214155E+03 -0.10348980792E+04  0.11759465057E+04  0.25500000920E-02 0. -1.
</event>
<event>
 5   0  0.6658994E-03  0.1216650E+04  0.7818609E-02  0.9098406E-01
       -2   -1    0    0    0  501  0.00000000000E+00  0.00000000000E+00  0.54599893299E+03  0.54599893300E+03  0.25500000920E-02 0.  1.
        2   -1    0    0  501    0  0.00000000000E+00  0.00000000000E+00 -0.67776594097E+03  0.67776594097E+03  0.25500000920E-02 0. -1.
    10030    2    1    2    0    0  0.00000000000E+00  0.00000000000E+00 -0.13176700797E+03  0.12237648740E+04  0.12166502876E+04 0.  0.
        4    1    3    3  502    0 -0.41003841335E+03  0.27293120435E+03  0.29318429042E+03  0.57322036232E+03  0.12699999809E+01 0.  1.
       -4    1    3    3    0  502  0.41003841335E+03 -0.27293120435E+03 -0.42495129839E+03  0.65054451165E+03  0.12699999809E+01 0. -1.
</event>
<event>
 5   0  0.6349142E-03  0.1201418E+04  0.7818609E-02  0.9111616E-01
        2   -1    0    0  501    0  0.00000000000E+00  0.00000000000E+00  0.73207149117E+03  0.73207149117E+03  0.25500000920E-02 0. -1.
       -2   -1    0    0    0  501  0.00000000000E+00  0.00000000000E+00 -0.49291829069E+03  0.49291829070E+03  0.25500000920E-02 0.  1.
    10030    2    1    2    0    0  0.00000000000E+00  0.00000000000E+00  0.23915320048E+03  0.12249897819E+04  0.12014182088E+04 0.  0.
        1    1    3    3  502    0 -0.51497514162E+03  0.13041993908E+03 -0.16635844288E+03  0.55667215535E+03  0.50400001928E-02 0. -1.
       -1    1    3    3    0  502  0.51497514162E+03 -0.13041993908E+03  0.40551164336E+03  0.66831762652E+03  0.50400001928E-02 0.  1.
</event>
<event>
 5   0  0.6640844E-03  0.1158530E+04  0.7818609E-02  0.9149950E-01
       -2   -1    0    0    0  501  0.00000000000E+00  0.00000000000E+00  0.25827939556E+03  0.25827939558E+03  0.25500000920E-02 0.  1.
        2   -1    0    0  501    0  0.00000000000E+00  0.00000000000E+00 -0.12991660854E+04  0.12991660854E+04  0.25500000920E-02 0. -1.
    10030    2    1    2    0    0  0.00000000000E+00  0.00000000000E+00 -0.10408866898E+04  0.15574454810E+04  0.11585298119E+04 0.  0.
        5    1    3    3  502    0 -0.35952379513E+03  0.44865855120E+03 -0.61525321959E+03  0.84208697237E+03  0.46999998093E+01 0.  1.
       -5    1    3    3    0  502  0.35952379513E+03 -0.44865855120E+03 -0.42563347022E+03  0.71535850858E+03  0.46999998093E+01 0. -1.
</event>
<event>
 5   0  0.6640844E-03  0.1193869E+04  0.7818609E-02  0.9118240E-01
        2   -1    0    0  501    0  0.00000000000E+00  0.00000000000E+00  0.18544865143E+04  0.18544865143E+04  0.25500000920E-02 0. -1.
       -2   -1    0    0    0  501  0.00000000000E+00  0.00000000000E+00 -0.19214525056E+03  0.19214525058E+03  0.25500000920E-02 0.  1.
    10030    2    1    2    0    0  0.00000000000E+00  0.00000000000E+00  0.16623412638E+04  0.20466317649E+04  0.11938689643E+04 0.  0.
        5    1    3    3  502    0 -0.53096029492E+03 -0.76729387334E+02  0.12798500081E+04  0.13877479479E+04  0.46999998093E+01 0. -1.
       -5    1    3    3    0  502  0.53096029492E+03  0.76729387334E+02  0.38249125568E+03  0.65888381702E+03  0.46999998093E+01 0.  1.
</event>
<event>
 5   0  0.6640844E-03  0.1176586E+04  0.7818609E-02  0.9133601E-01
        2   -1    0    0  501    0  0.00000000000E+00  0.00000000000E+00  0.16110266991E+04  0.16110266991E+04  0.25500000920E-02 0. -1.
       -2   -1    0    0    0  501  0.00000000000E+00  0.00000000000E+00 -0.21482493174E+03  0.21482493176E+03  0.25500000920E-02 0.  1.
    10030    2    1    2    0    0  0.00000000000E+00  0.00000000000E+00  0.13962017674E+04  0.18258516309E+04  0.11765860796E+04 0.  0.
        5    1    3    3  502    0 -0.43864430394E+03 -0.14852184712E+02  0.90235926741E+02  0.44810046333E+03  0.46999998093E+01 0.  1.
       -5    1    3    3    0  502  0.43864430394E+03  0.14852184712E+02  0.13059658407E+04  0.13777511676E+04  0.46999998093E+01 0. -1.
</event>
<event>
 5   0  0.3731281E-03  0.1205658E+04  0.7818609E-02  0.9107919E-01
        1   -1    0    0  501    0  0.00000000000E+00  0.00000000000E+00  0.11819793070E+04  0.11819793070E+04  0.50400001928E-02 0.  1.
       -1   -1    0    0    0  501  0.00000000000E+00  0.00000000000E+00 -0.30745253315E+03  0.30745253319E+03  0.50400001928E-02 0. -1.
    10030    2    1    2    0    0  0.00000000000E+00  0.00000000000E+00  0.87452677381E+03  0.14894318402E+04  0.12056575502E+04 0.  0.
        5    1    3    3  502    0  0.94550982427E+02 -0.55482314774E+03  0.70397672421E+03  0.90131788609E+03  0.46999998093E+01 0. -1.
       -5    1    3    3    0  502 -0.94550982427E+02  0.55482314774E+03  0.17055004959E+03  0.58811395406E+03  0.46999998093E+01 0.  1.
</event>
<event>
 5   0  0.6349142E-03  0.1210030E+04  0.7818609E-02  0.9104123E-01
        2   -1    0    0  501    0  0.00000000000E+00  0.00000000000E+00  0.13019996069E+04  0.13019996069E+04  0.25500000920E-02 0.  1.
       -2   -1    0    0    0  501  0.00000000000E+00  0.00000000000E+00 -0.28113905821E+03  0.28113905822E+03  0.25500000920E-02 0. -1.
    10030    2    1    2    0    0  0.00000000000E+00  0.00000000000E+00  0.10208605487E+04  0.15831386651E+04  0.12100296580E+04 0.  0.
        1    1    3    3  502    0 -0.15086480062E+03 -0.48429316382E+02  0.12743720074E+04  0.12841844104E+04  0.50400001928E-02 0.  1.
       -1    1    3    3    0  502  0.15086480062E+03  0.48429316382E+02 -0.25351145863E+03  0.29895425475E+03  0.50400001928E-02 0. -1.
</event>
<event>
 5   0  0.3648616E-03  0.1146696E+04  0.7818609E-02  0.9160837E-01
        1   -1    0    0  501    0  0.00000000000E+00  0.00000000000E+00  0.30616659737E+03  0.30616659741E+03  0.50400001928E-02 0.  1.
       -1   -1    0    0    0  501  0.00000000000E+00  0.00000000000E+00 -0.10736905506E+04  0.10736905506E+04  0.50400001928E-02 0. -1.
    10030    2    1    2    0    0  0.00000000000E+00  0.00000000000E+00 -0.76752395318E+03  0.13798571480E+04  0.11466964420E+04 0.  0.
        2    1    3    3  502    0  0.16323279948E+03  0.53902590474E+03 -0.51299736934E+03  0.76181373955E+03  0.25500000920E-02 0.  1.
       -2    1    3    3    0  502 -0.16323279948E+03 -0.53902590474E+03 -0.25452658384E+03  0.61804340842E+03  0.25500000920E-02 0. -1.
</event>
<event>
 5   0  0.3648616E-03  0.1212058E+04  0.7818609E-02  0.9102368E-01
        1   -1    0    0  501    0  0.00000000000E+00  0.00000000000E+00  0.12533154235E+04  0.12533154235E+04  0.50400001928E-02 0.  1.
       -1   -1    0    0    0  501  0.00000000000E+00  0.00000000000E+00 -0.29303946079E+03  0.29303946083E+03  0.50400001928E-02 0. -1.
    10030    2    1    2    0    0  0.00000000000E+00  0.00000000000E+00  0.96027596273E+03  0.15463548844E+04  0.12120575497E+04 0.  0.
        2    1    3    3  502    0 -0.50353903381E+01 -0.39582068378E+03 -0.10530652101E+03  0.40962035135E+03  0.25500000920E-02 0. -1.
       -2    1    3    3    0  502  0.50353903381E+01  0.39582068378E+03  0.10655824837E+04  0.11367345330E+04  0.25500000920E-02 0.  1.
</event>
<event>
 5   0  0.3772254E-03  0.6165503E+03  0.7818609E-02  0.9871652E-01
        1   -1    0    0  501    0  0.00000000000E+00  0.00000000000E+00  0.77667669012E+03  0.77667669014E+03  0.50400001928E-02 0.  1.
       -1   -1    0    0    0  501  0.00000000000E+00  0.00000000000E+00 -0.12235924442E+03  0.12235924452E+03  0.50400001928E-02 0. -1.
    10030    2    1    2    0    0  0.00000000000E+00  0.00000000000E+00  0.65431744570E+03  0.89903593467E+03  0.61655031592E+03 0.  0.
        3    1    3    3  502    0  0.22945570787E+02  0.27530689598E+03  0.12768656554E+03  0.30434233260E+03  0.10100000352E+00 0. -1.
       -3    1    3    3    0  502 -0.22945570787E+02 -0.27530689598E+03  0.52663088017E+03  0.59469360207E+03  0.10100000352E+00 0.  1.
</event>
<event>
 5   0  0.6349142E-03  0.7678038E+03  0.7818609E-02  0.9607826E-01
       -2   -1    0    0    0  501  0.00000000000E+00  0.00000000000E+00  0.16860655375E+03  0.16860655377E+03  0.25500000920E-02 0. -1.
        2   -1    0    0  501    0  0.00000000000E+00  0.00000000000E+00 -0.87410999636E+03  0.87410999636E+03  0.25500000920E-02 0.  1.
    10030    2    1    2    0    0  0.00000000000E+00  0.00000000000E+00 -0.70550344261E+03  0.10427165501E+04  0.76780381373E+03 0.  0.
        1    1    3    3  502    0  0.92866711035E+02 -0.26542666456E+03  0.21782508379E+01  0.28121217093E+03  0.50400001928E-02 0. -1.
       -1    1    3    3    0  502 -0.92866711035E+02  0.26542666456E+03 -0.70768169345E+03  0.76150437920E+03  0.50400001928E-02 0.  1.
</event>
<event>
 5   0  0.3944074E-03  0.8373915E+03  0.7818609E-02  0.9507418E-01
       -1   -1    0    0    0  501  0.00000000000E+00  0.00000000000E+00  0.66505987111E+03  0.66505987113E+03  0.50400001928E-02 0. -1.
        1   -1    0    0  501    0  0.00000000000E+00  0.00000000000E+00 -0.26359451981E+03  0.26359451986E+03  0.50400001928E-02 0.  1.
    10030    2    1    2    0    0  0.00000000000E+00  0.00000000000E+00  0.40146535130E+03  0.92865439099E+03  0.83739151513E+03 0.  0.
        4    1    3    3  502    0  0.22431588822E+03  0.25680833517E+03 -0.68721824735E+02  0.34783967688E+03  0.12699999809E+01 0.  1.
       -4    1    3    3    0  502 -0.22431588822E+03 -0.25680833517E+03  0.47018717604E+03  0.58081471411E+03  0.12699999809E+01 0. -1.
</event>
<event>
 5   0  0.3944074E-03  0.1200572E+04  0.7818609E-02  0.9112356E-01
       -1   -1    0    0    0  501  0.00000000000E+00  0.00000000000E+00  0.40596787484E+03  0.40596787487E+03  0.50400001928E-02 0.  1.
        1   -1    0    0  501    0  0.00000000000E+00  0.00000000000E+00 -0.88761541515E+03  0.88761541517E+03  0.50400001928E-02 0. -1.
    10030    2    1    2    0    0  0.00000000000E+00  0.00000000000E+00 -0.48164754032E+03  0.12935832900E+04  0.12005721033E+04 0.  0.
        4    1    3    3  502    0 -0.30013125073E+03  0.47556754600E+03 -0.14558487774E+02  0.56254495015E+03  0.12699999809E+01 0.  1.
       -4    1    3    3    0  502  0.30013125073E+03 -0.47556754600E+03 -0.46708905254E+03  0.73103833988E+03  0.12699999809E+01 0. -1.
</event>
<event>
 5   0  0.3731281E-03  0.1213627E+04  0.7818609E-02  0.9101012E-01
       -1   -1    0    0    0  501  0.00000000000E+00  0.00000000000E+00  0.80439639510E+03  0.80439639511E+03  0.50400001928E-02 0. -1.
        1   -1    0    0  501    0  0.00000000000E+00  0.00000000000E+00 -0.45776283596E+03  0.45776283599E+03  0.50400001928E-02 0.  1.
    10030    2    1    2    0    0  0.00000000000E+00  0.00000000000E+00  0.34663355914E+03  0.12621592311E+04  0.12136272493E+04 0.  0.
        5    1    3    3  502    0 -0.39782311068E+03  0.11224057602E+03 -0.28867670687E+03  0.50419986650E+03  0.46999998093E+01 0.  1.
       -5    1    3    3    0  502  0.39782311068E+03 -0.11224057602E+03  0.63531026601E+03  0.75795936460E+03  0.46999998093E+01 0. -1.
</event>
<event>
 5   0  0.6585930E-03  0.1244491E+04  0.7818609E-02  0.9074781E-01
       -2   -1    0    0    0  501  0.00000000000E+00  0.00000000000E+00  0.71485439952E+03  0.71485439953E+03  0.25500000920E-02 0. -1.
        2   -1    0    0  501    0  0.00000000000E+00  0.00000000000E+00 -0.54163435535E+03  0.54163435535E+03  0.25500000920E-02 0.  1.
    10030    2    1    2    0    0  0.00000000000E+00  0.00000000000E+00  0.17322004418E+03  0.12564887549E+04  0.12444913850E+04 0.  0.
        2    1    3    3  502    0  0.55862099619E+03  0.23422156400E+03  0.23036431779E+03  0.64806240236E+03  0.25500000920E-02 0. -1.
       -2    1    3    3    0  502 -0.55862099619E+03 -0.23422156400E+03 -0.57144273618E+02  0.60842635252E+03  0.25500000920E-02 0.  1.
</event>
<event>
 5   0  0.6658994E-03  0.1135867E+04  0.7818609E-02  0.9170922E-01
        2   -1    0    0  501    0  0.00000000000E+00  0.00000000000E+00  0.46258564023E+03  0.46258564024E+03  0.25500000920E-02 0. -1.
       -2   -1    0    0    0  501  0.00000000000E+00  0.00000000000E+00 -0.69727274160E+03  0.69727274160E+03  0.25500000920E-02 0.  1.
    10030    2    1    2    0    0  0.00000000000E+00  0.00000000000E+00 -0.23468710136E+03  0.11598583818E+04  0.11358668189E+04 0.  0.
        4    1    3    3  502    0 -0.21993965562E+03 -0.52357802698E+03 -0.11093872733E+03  0.57863323147E+03  0.12699999809E+01 0. -1.
       -4    1    3    3    0  502  0.21993965562E+03  0.52357802698E+03 -0.12374837404E+03  0.58122515037E+03  0.12699999809E+01 0.  1.
</event>
<event>
 5   0  0.6640844E-03  0.1187842E+04  0.7818609E-02  0.9123566E-01
        2   -1    0    0  501    0  0.00000000000E+00  0.00000000000E+00  0.79592203237E+03  0.79592203238E+03  0.25500000920E-02 0.  1.
       -2   -1    0    0    0  501  0.00000000000E+00  0.00000000000E+00 -0.44318654368E+03  0.44318654368E+03  0.25500000920E-02 0. -1.
    10030    2    1    2    0    0  0.00000000000E+00  0.00000000000E+00  0.35273548870E+03  0.12391085761E+04  0.11878416301E+04 0.  0.
        5    1    3    3  502    0 -0.19476778507E+03 -0.37243165826E+03  0.61409728200E+03  0.74416220808E+03  0.46999998093E+01 0.  1.
       -5    1    3    3    0  502  0.19476778507E+03  0.37243165826E+03 -0.26136179330E+03  0.49494636798E+03  0.46999998093E+01 0. -1.
</event>
<event>
 5   0  0.6493047E-03  0.1200526E+04  0.7818609E-02  0.9112396E-01
       -2   -1    0    0    0  501  0.00000000000E+00  0.00000000000E+00  0.24591977597E+03  0.24591977598E+03  0.25500000920E-02 0.  1.
        2   -1    0    0  501    0  0.00000000000E+00  0.00000000000E+00 -0.14651765133E+04  0.14651765134E+04  0.25500000920E-02 0. -1.
    10030    2    1    2    0    0  0.00000000000E+00  0.00000000000E+00 -0.12192567374E+04  0.17110962893E+04  0.12005263511E+04 0.  0.
        3    1    3    3  502    0  0.20245849917E+03 -0.10437464126E+03  0.18192959195E+03  0.29151654542E+03  0.10100000352E+00 0.  1.
       -3    1    3    3    0  502 -0.20245849917E+03  0.10437464126E+03 -0.14011863293E+04  0.14195797439E+04  0.10100000352E+00 0. -1.
</event>
<event>
 5   0  0.6640844E-03  0.1375337E+04  0.7818609E-02  0.8971867E-01
       -2   -1    0    0    0  501  0.00000000000E+00  0.00000000000E+00  0.11611625525E+04  0.11611625525E+04  0.25500000920E-02 0. -1.
        2   -1    0    0  501    0  0.00000000000E+00  0.00000000000E+00 -0.40725369667E+03  0.40725369668E+03  0.25500000920E-02 0.  1.
    10030    2    1    2    0    0  0.00000000000E+00  0.00000000000E+00  0.75390885581E+03  0.15684162492E+04  0.13753366743E+04 0.  0.
        5    1    3    3  502    0 -0.22047870252E+03  0.48902757361E+02  0.11176473406E+04  0.11402455901E+04  0.46999998093E+01 0. -1.
       -5    1    3    3    0  502  0.22047870252E+03 -0.48902757361E+02 -0.36373848477E+03  0.42817065902E+03  0.46999998093E+01 0.  1.
</event>
<event>
 5   0  0.6585930E-03  0.1210336E+04  0.7818609E-02  0.9103858E-01
       -2   -1    0    0    0  501  0.00000000000E+00  0.00000000000E+00  0.33206139762E+03  0.33206139763E+03  0.25500000920E-02 0. -1.
        2   -1    0    0  501    0  0.00000000000E+00  0.00000000000E+00 -0.11028927817E+04  0.11028927817E+04  0.25500000920E-02 0.  1.
    10030    2    1    2    0    0  0.00000000000E+00  0.00000000000E+00 -0.77083138408E+03  0.14349541793E+04  0.12103356865E+04 0.  0.
        2    1    3    3  502    0  0.16352499269E+02 -0.39661382840E+03  0.15614845853E+03  0.42655864101E+03  0.25500000920E-02 0. -1.
       -2    1    3    3    0  502 -0.16352499269E+02  0.39661382840E+03 -0.92697984261E+03  0.10083955383E+04  0.25500000920E-02 0.  1.
</event>
<event>
 5   0  0.3701879E-03  0.1214779E+04  0.7818609E-02  0.9100018E-01
        1   -1    0    0  501    0  0.00000000000E+00  0.00000000000E+00  0.43934954355E+03  0.43934954358E+03  0.50400001928E-02 0. -1.
       -1   -1    0    0    0  501  0.00000000000E+00  0.00000000000E+00 -0.83970024687E+03  0.83970024689E+03  0.50400001928E-02 0.  1.
    10030    2    1    2    0    0  0.00000000000E+00  0.00000000000E+00 -0.40035070332E+03  0.12790497905E+04  0.12147788609E+04 0.  0.
        1    1    3    3  502    0  0.74603194926E+02  0.46305535070E+03  0.20616514334E+03  0.51233774101E+03  0.50400001928E-02 0. -1.
       -1    1    3    3    0  502 -0.74603194926E+02 -0.46305535070E+03 -0.60651584666E+03  0.76671204946E+03  0.50400001928E-02 0.  1.
</event>
<event>
 5   0  0.3944074E-03  0.1331511E+04  0.7818609E-02  0.9004943E-01
        1   -1    0    0  501    0  0.00000000000E+00  0.00000000000E+00  0.10287432863E+04  0.10287432863E+04  0.50400001928E-02 0. -1.
       -1   -1    0    0    0  501  0.00000000000E+00  0.00000000000E+00 -0.43084667350E+03  0.43084667353E+03  0.50400001928E-02 0.  1.
    10030    2    1    2    0    0  0.00000000000E+00  0.00000000000E+00  0.59789661277E+03  0.14595899598E+04  0.13315113560E+04 0.  0.
        4    1    3    3  502    0 -0.10418740019E+03  0.65590371049E+03  0.34994553086E+03  0.75068513989E+03  0.12699999809E+01 0.  1.
       -4    1    3    3    0  502  0.10418740019E+03 -0.65590371049E+03  0.24795108192E+03  0.70890481992E+03  0.12699999809E+01 0. -1.
</event>
<event>
 5   0  0.6658994E-03  0.1201791E+04  0.7818609E-02  0.9111291E-01
        2   -1    0    0  501    0  0.00000000000E+00  0.00000000000E+00  0.11002998526E+04  0.11002998526E+04  0.25500000920E-02 0.  1.
       -2   -1    0    0    0  501  0.00000000000E+00  0.00000000000E+00 -0.32816072923E+03  0.32816072924E+03  0.25500000920E-02 0. -1.
    10030    2    1    2    0    0  0.00000000000E+00  0.00000000000E+00  0.77213912338E+03  0.14284605819E+04  0.12017906673E+04 0.  0.
        4    1    3    3  502    0 -0.24690409986E+03  0.52656230103E+03  0.20641988576E+03  0.61712257577E+03  0.12699999809E+01 0. -1.
       -4    1    3    3    0  502  0.24690409986E+03 -0.52656230103E+03  0.56571923762E+03  0.81133800608E+03  0.12699999809E+01 0.  1.
</event>
<event>
 5   0  0.6658994E-03  0.1157073E+04  0.7818609E-02  0.9151283E-01
       -2   -1    0    0    0  501  0.00000000000E+00  0.00000000000E+00  0.46433534070E+03  0.46433534070E+03  0.25500000920E-02 0.  1.
        2   -1    0    0  501    0  0.00000000000E+00  0.00000000000E+00 -0.72082491700E+03  0.72082491700E+03  0.25500000920E-02 0. -1.
    10030    2    1    2    0    0  0.00000000000E+00  0.00000000000E+00 -0.25648957630E+03  0.11851602577E+04  0.11570730027E+04 0.  0.
        4    1    3    3  502    0 -0.14045680042E+03  0.26513960919E+03  0.37840956584E+03  0.48293119341E+03  0.12699999809E+01 0.  1.
       -4    1    3    3    0  502  0.14045680042E+03 -0.26513960919E+03 -0.63489914214E+03  0.70222906430E+03  0.12699999809E+01 0. -1.
</event>
<event>
 5   0  0.3648616E-03  0.1163339E+04  0.7818609E-02  0.9145565E-01
       -1   -1    0    0    0  501  0.00000000000E+00  0.00000000000E+00  0.11352366098E+04  0.11352366098E+04  0.50400001928E-02 0.  1.
        1   -1    0    0  501    0  0.00000000000E+00  0.00000000000E+00 -0.29803426800E+03  0.29803426804E+03  0.50400001928E-02 0. -1.
    10030    2    1    2    0    0  0.00000000000E+00  0.00000000000E+00  0.83720234180E+03  0.14332708778E+04  0.11633390083E+04 0.  0.
        2    1    3    3  502    0 -0.90868957557E+02 -0.32006835491E+02 -0.28813624698E+03  0.30381590116E+03  0.25500000920E-02 0. -1.
       -2    1    3    3    0  502  0.90868957557E+02  0.32006835491E+02  0.11253385888E+04  0.11294549767E+04  0.25500000920E-02 0.  1.
</event>
<event>
 5   0  0.2537625E-03  0.1219190E+04  0.7818609E-02  0.9096223E-01
        4   -1    0    0  501    0  0.00000000000E+00  0.00000000000E+00  0.54931175622E+03  0.54931322433E+03  0.12699999809E+01 0. -1.
       -4   -1    0    0    0  501  0.00000000000E+00  0.00000000000E+00 -0.67649141173E+03  0.67649260383E+03  0.12699999809E+01 0.  1.
    10030    2    1    2    0    0  0.00000000000E+00  0.00000000000E+00 -0.12717965551E+03  0.12258058282E+04  0.12191904132E+04 0.  0.
        5    1    3    3  502    0 -0.23660682795E+03  0.75969135514E+02 -0.62323397233E+03  0.67096704453E+03  0.46999998093E+01 0.  1.
       -5    1    3    3    0  502  0.23660682795E+03 -0.75969135514E+02  0.49605431682E+03  0.55483878363E+03  0.46999998093E+01 0. -1.
</event>
<event>
 5   0  0.6585930E-03  0.1216764E+04  0.7818609E-02  0.9098308E-01
        2   -1    0    0  501    0  0.00000000000E+00  0.00000000000E+00  0.14626644413E+04  0.14626644413E+04  0.25500000920E-02 0. -1.
       -2   -1    0    0    0  501  0.00000000000E+00  0.00000000000E+00 -0.25305102187E+03  0.25305102188E+03  0.25500000920E-02 0.  1.
    10030    2    1    2    0    0  0.00000000000E+00  0.00000000000E+00  0.12096134194E+04  0.17157154631E+04  0.12167641210E+04 0.  0.
        2    1    3    3  502    0 -0.58554651183E+03  0.84543132399E+02  0.40481371336E+03  0.71685870385E+03  0.25500000920E-02 0.  1.
       -2    1    3    3    0  502  0.58554651183E+03 -0.84543132399E+02  0.80479970602E+03  0.99885675929E+03  0.25500000920E-02 0. -1.
</event>
<event>
 5   0  0.6493047E-03  0.1215013E+04  0.7818609E-02  0.9099816E-01
       -2   -1    0    0    0  501  0.00000000000E+00  0.00000000000E+00  0.22007304411E+03  0.22007304412E+03  0.25500000920E-02 0.  1.
        2   -1    0    0  501    0  0.00000000000E+00  0.00000000000E+00 -0.16770081756E+04  0.16770081756E+04  0.25500000920E-02 0. -1.
    10030    2    1    2    0    0  0.00000000000E+00  0.00000000000E+00 -0.14569351315E+04  0.18970812197E+04  0.12150132414E+04 0.  0.
        3    1    3    3  502    0  0.13660157279E+03 -0.15766562599E+03 -0.16193307094E+04  0.16327125883E+04  0.10100000352E+00 0. -1.
       -3    1    3    3    0  502 -0.13660157279E+03  0.15766562599E+03  0.16239557799E+03  0.26436863138E+03  0.10100000352E+00 0.  1.
</event>
<event>
 5   0  0.2537625E-03  0.1158271E+04  0.7818609E-02  0.9150187E-01
        3   -1    0    0  501    0  0.00000000000E+00  0.00000000000E+00  0.68885121929E+03  0.68885122670E+03  0.10100000352E+00 0.  1.
       -3   -1    0    0    0  501  0.00000000000E+00  0.00000000000E+00 -0.48689449237E+03  0.48689450284E+03  0.10100000352E+00 0. -1.
    10030    2    1    2    0    0  0.00000000000E+00  0.00000000000E+00  0.20195672693E+03  0.11757457295E+04  0.11582709100E+04 0.  0.
        5    1    3    3  502    0 -0.70182469590E+02 -0.26416513789E+03 -0.41727994848E+03  0.49885212691E+03  0.46999998093E+01 0. -1.
       -5    1    3    3    0  502  0.70182469590E+02  0.26416513789E+03  0.61923667541E+03  0.67689360263E+03  0.46999998093E+01 0.  1.
</event>
<event>
 5   0  0.6585930E-03  0.9691647E+03  0.7818609E-02  0.9343026E-01
       -2   -1    0    0    0  501  0.00000000000E+00  0.00000000000E+00  0.73256831289E+03  0.73256831290E+03  0.25500000920E-02 0. -1.
        2   -1    0    0  501    0  0.00000000000E+00  0.00000000000E+00 -0.32054358124E+03  0.32054358125E+03  0.25500000920E-02 0.  1.
    10030    2    1    2    0    0  0.00000000000E+00  0.00000000000E+00  0.41202473166E+03  0.10531118941E+04  0.96916473424E+03 0.  0.
        2    1    3    3  502    0 -0.91131148531E+02 -0.13946309193E+03 -0.28844688322E+03  0.33310125291E+03  0.25500000920E-02 0.  1.
       -2    1    3    3    0  502  0.91131148531E+02  0.13946309193E+03  0.70047161487E+03  0.72001064124E+03  0.25500000920E-02 0. -1.
</event>
<event>
 5   0  0.6349142E-03  0.1196997E+04  0.7818609E-02  0.9115489E-01
       -2   -1    0    0    0  501  0.00000000000E+00  0.00000000000E+00  0.11154835094E+04  0.11154835094E+04  0.25500000920E-02 0. -1.
        2   -1    0    0  501    0  0.00000000000E+00  0.00000000000E+00 -0.32111664408E+03  0.32111664409E+03  0.25500000920E-02 0.  1.
    10030    2    1    2    0    0  0.00000000000E+00  0.00000000000E+00  0.79436686530E+03  0.14366001535E+04  0.11969967770E+04 0.  0.
        1    1    3    3  502    0  0.44064618299E+03 -0.80135393830E+02  0.87365197732E+03  0.98176296397E+03  0.50400001928E-02 0.  1.
       -1    1    3    3    0  502 -0.44064618299E+03  0.80135393830E+02 -0.79285112024E+02  0.45483718949E+03  0.50400001928E-02 0. -1.
</event>
<event>
 5   0  0.3772254E-03  0.1213518E+04  0.7818609E-02  0.9101106E-01
       -1   -1    0    0    0  501  0.00000000000E+00  0.00000000000E+00  0.70956977607E+03  0.70956977609E+03  0.50400001928E-02 0.  1.
        1   -1    0    0  501    0  0.00000000000E+00  0.00000000000E+00 -0.51884458689E+03  0.51884458692E+03  0.50400001928E-02 0. -1.
    10030    2    1    2    0    0  0.00000000000E+00  0.00000000000E+00  0.19072518918E+03  0.12284143630E+04  0.12135179230E+04 0.  0.
        3    1    3    3  502    0 -0.34413461748E+02 -0.27897962710E+03  0.63968305957E+03  0.69871907487E+03  0.10100000352E+00 0.  1.
       -3    1    3    3    0  502  0.34413461748E+02  0.27897962710E+03 -0.44895787039E+03  0.52969528813E+03  0.10100000352E+00 0. -1.
</event>
<event>
 5   0  0.6640844E-03  0.1131088E+04  0.7818609E-02  0.9175410E-01
       -2   -1    0    0    0  501  0.00000000000E+00  0.00000000000E+00  0.59647277299E+03  0.59647277299E+03  0.25500000920E-02 0.  1.
        2   -1    0    0  501    0  0.00000000000E+00  0.00000000000E+00 -0.53621915598E+03  0.53621915599E+03  0.25500000920E-02 0. -1.
    10030    2    1    2    0    0  0.00000000000E+00  0.00000000000E+00  0.60253617004E+02  0.11326919290E+04  0.11310881962E+04 0.  0.
        5    1    3    3  502    0  0.12452716521E+03  0.64765577546E+02 -0.51847878371E+03  0.53716285619E+03  0.46999998093E+01 0. -1.
       -5    1    3    3    0  502 -0.12452716521E+03 -0.64765577546E+02  0.57873240072E+03  0.59552907280E+03  0.46999998093E+01 0.  1.
</event>
<event>
 5   0  0.6658994E-03  0.1168366E+04  0.7818609E-02  0.9141006E-01
        2   -1    0    0  501    0  0.00000000000E+00  0.00000000000E+00  0.25217427023E+04  0.25217427023E+04  0.25500000920E-02 0.  1.
       -2   -1    0    0    0  501  0.00000000000E+00  0.00000000000E+00 -0.13533085919E+03  0.13533085922E+03  0.25500000920E-02 0. -1.
    10030    2    1    2    0    0  0.00000000000E+00  0.00000000000E+00  0.23864118431E+04  0.26570735615E+04  0.11683657075E+04 0.  0.
        4    1    3    3  502    0 -0.50849987740E+03  0.26317351002E+03  0.14568104441E+04  0.15652893358E+04  0.12699999809E+01 0.  1.
       -4    1    3    3    0  502  0.50849987740E+03 -0.26317351002E+03  0.92960139900E+03  0.10917842258E+04  0.12699999809E+01 0. -1.
</event>
<event>
 5   0  0.6585930E-03  0.1201350E+04  0.7818609E-02  0.9111675E-01
       -2   -1    0    0    0  501  0.00000000000E+00  0.00000000000E+00  0.15877851492E+03  0.15877851494E+03  0.25500000920E-02 0.  1.
        2   -1    0    0  501    0  0.00000000000E+00  0.00000000000E+00 -0.22724154363E+04  0.22724154363E+04  0.25500000920E-02 0. -1.
    10030    2    1    2    0    0  0.00000000000E+00  0.00000000000E+00 -0.21136369213E+04  0.24311939512E+04  0.12013504872E+04 0.  0.
        2    1    3    3  502    0  0.33481641987E+03 -0.30333929730E+03 -0.25573818416E+03  0.51915198463E+03  0.25500000920E-02 0.  1.
       -2    1    3    3    0  502 -0.33481641987E+03  0.30333929730E+03 -0.18578987372E+04  0.19120419666E+04  0.25500000920E-02 0. -1.
</event>
<event>
 5   0  0.3772254E-03  0.1221139E+04  0.7818609E-02  0.9094552E-01
       -1   -1    0    0    0  501  0.00000000000E+00  0.00000000000E+00  0.44281122491E+03  0.44281122493E+03  0.50400001928E-02 0.  1.
        1   -1    0    0  501    0  0.00000000000E+00  0.00000000000E+00 -0.84188261151E+03  0.84188261153E+03  0.50400001928E-02 0. -1.
    10030    2    1    2    0    0  0.00000000000E+00  0.00000000000E+00 -0.39907138661E+03  0.12846938365E+04  0.12211389281E+04 0.  0.
        3    1    3    3  502    0 -0.11090546401E+03 -0.25901643549E+03  0.37032500743E+03  0.46532801026E+03  0.10100000352E+00 0.  1.
       -3    1    3    3    0  502  0.11090546401E+03  0.25901643549E+03 -0.76939639403E+03  0.81936582621E+03  0.10100000352E+00 0. -1.
</event>
<event>
 5   0  0.3731281E-03  0.1229090E+04  0.7818609E-02  0.9087769E-01
       -1   -1    0    0    0  501  0.00000000000E+00  0.00000000000E+00  0.38594023649E+03  0.38594023652E+03  0.50400001928E-02 0. -1.
        1   -1    0    0  501    0  0.00000000000E+00  0.00000000000E+00 -0.97855944425E+03  0.97855944426E+03  0.50400001928E-02 0.  1.
    10030    2    1    2    0    0  0.00000000000E+00  0.00000000000E+00 -0.59261920776E+03  0.13644996808E+04  0.12290898476E+04 0.  0.
        5    1    3    3  502    0  0.11376159480E+03 -0.40717505344E+03  0.19881929828E+03  0.46720919079E+03  0.46999998093E+01 0. -1.
       -5    1    3    3    0  502 -0.11376159480E+03  0.40717505344E+03 -0.79143850604E+03  0.89729048999E+03  0.46999998093E+01 0.  1.
</event>
<event>
 5   0  0.6349142E-03  0.1134082E+04  0.7818609E-02  0.9172595E-01
       -2   -1    0    0    0  501  0.00000000000E+00  0.00000000000E+00  0.31694065762E+03  0.31694065763E+03  0.25500000920E-02 0. -1.
        2   -1    0    0  501    0  0.00000000000E+00  0.00000000000E+00 -0.10144980346E+04  0.10144980346E+04  0.25500000920E-02 0.  1.
    10030    2    1    2    0    0  0.00000000000E+00  0.00000000000E+00 -0.69755737695E+03  0.13314386922E+04  0.11340823149E+04 0.  0.
        1    1    3    3  502    0 -0.16618866286E+03  0.54203790416E+03 -0.36119855410E+03  0.67222626898E+03  0.50400001928E-02 0. -1.
       -1    1    3    3    0  502  0.16618866286E+03 -0.54203790416E+03 -0.33635882286E+03  0.65921242323E+03  0.50400001928E-02 0.  1.
</event>
<event>
 5   0  0.6640844E-03  0.1179449E+04  0.7818609E-02  0.9131037E-01
        2   -1    0    0  501    0  0.00000000000E+00  0.00000000000E+00  0.26335908521E+03  0.26335908522E+03  0.25500000920E-02 0.  1.
       -2   -1    0    0    0  501  0.00000000000E+00  0.00000000000E+00 -0.13205356522E+04  0.13205356522E+04  0.25500000920E-02 0. -1.
    10030    2    1    2    0    0  0.00000000000E+00  0.00000000000E+00 -0.10571765670E+04  0.15838947374E+04  0.11794491279E+04 0.  0.
        5    1    3    3  502    0  0.17198609845E+03  0.22820618257E+03 -0.12213215177E+04  0.12543148007E+04  0.46999998093E+01 0. -1.
       -5    1    3    3    0  502 -0.17198609845E+03 -0.22820618257E+03  0.16414495068E+03  0.32957993667E+03  0.46999998093E+01 0.  1.
</event>
<event>
 5   0  0.6640844E-03  0.1208549E+04  0.7818609E-02  0.9105407E-01
       -2   -1    0    0    0  501  0.00000000000E+00  0.00000000000E+00  0.79630540543E+03  0.79630540544E+03  0.25500000920E-02 0. -1.
        2   -1    0    0  501    0  0.00000000000E+00  0.00000000000E+00 -0.45855194889E+03  0.45855194890E+03  0.25500000920E-02 0.  1.
    10030    2    1    2    0    0  0.00000000000E+00  0.00000000000E+00  0.33775345654E+03  0.12548573543E+04  0.12085485436E+04 0.  0.
        5    1    3    3  502    0  0.33706518827E+03  0.47617607916E+03  0.33228796643E+03  0.67141193178E+03  0.46999998093E+01 0.  1.
       -5    1    3    3    0  502 -0.33706518827E+03 -0.47617607916E+03  0.54654901163E+01  0.58344542255E+03  0.46999998093E+01 0. -1.
</event>
<event>
 5   0  0.3944074E-03  0.1019264E+04  0.7818609E-02  0.9287665E-01
        1   -1    0    0  501    0  0.00000000000E+00  0.00000000000E+00  0.17868401383E+04  0.17868401383E+04  0.50400001928E-02 0.  1.
       -1   -1    0    0    0  501  0.00000000000E+00  0.00000000000E+00 -0.14535425819E+03  0.14535425828E+03  0.50400001928E-02 0. -1.
    10030    2    1    2    0    0  0.00000000000E+00  0.00000000000E+00  0.16414858801E+04  0.19321943966E+04  0.10192640932E+04 0.  0.
        4    1    3    3  502    0  0.84476845809E+02  0.48234007549E+03  0.10883954907E+04  0.11934800556E+04  0.12699999809E+01 0.  1.
       -4    1    3    3    0  502 -0.84476845809E+02 -0.48234007549E+03  0.55309038940E+03  0.73871434104E+03  0.12699999809E+01 0. -1.
</event>
<event>
 5   0  0.3944074E-03  0.1208794E+04  0.7818609E-02  0.9105194E-01
        1   -1    0    0  501    0  0.00000000000E+00  0.00000000000E+00  0.14822727149E+04  0.14822727149E+04  0.50400001928E-02 0. -1.
       -1   -1    0    0    0  501  0.00000000000E+00  0.00000000000E+00 -0.24644281786E+03  0.24644281791E+03  0.50400001928E-02 0.  1.
    10030    2    1    2    0    0  0.00000000000E+00  0.00000000000E+00  0.12358298970E+04  0.17287155328E+04  0.12087935552E+04 0.  0.
        4    1    3    3  502    0  0.43783726678E+03  0.33083553404E+03  0.25572478473E+03  0.60543406015E+03  0.12699999809E+01 0.  1.
       -4    1    3    3    0  502 -0.43783726678E+03 -0.33083553404E+03  0.98010511230E+03  0.11232814727E+04  0.12699999809E+01 0. -1.
</event>
<event>
 5   0  0.3648616E-03  0.1182558E+04  0.7818609E-02  0.9128262E-01
        1   -1    0    0  501    0  0.00000000000E+00  0.00000000000E+00  0.10831612313E+04  0.10831612313E+04  0.50400001928E-02 0.  1.
       -1   -1    0    0    0  501  0.00000000000E+00  0.00000000000E+00 -0.32276925615E+03  0.32276925619E+03  0.50400001928E-02 0. -1.
    10030    2    1    2    0    0  0.00000000000E+00  0.00000000000E+00  0.76039197518E+03  0.14059304875E+04  0.11825584890E+04 0.  0.
        2    1    3    3  502    0 -0.24169012503E+03  0.25039016326E+03  0.94850694063E+03  0.10103339878E+04  0.25500000920E-02 0.  1.
       -2    1    3    3    0  502  0.24169012503E+03 -0.25039016326E+03 -0.18811496546E+03  0.39559649977E+03  0.25500000920E-02 0. -1.
</event>
<event>
 5   0  0.6349142E-03  0.1215781E+04  0.7818609E-02  0.9099155E-01
        2   -1    0    0  501    0  0.00000000000E+00  0.00000000000E+00  0.10504354577E+04  0.10504354577E+04  0.25500000920E-02 0.  1.
       -2   -1    0    0    0  501  0.00000000000E+00  0.00000000000E+00 -0.35178816655E+03  0.35178816656E+03  0.25500000920E-02 0. -1.
    10030    2    1    2    0    0  0.00000000000E+00  0.00000000000E+00  0.69864729117E+03  0.14022236243E+04  0.12157808417E+04 0.  0.
        1    1    3    3  502    0  0.32809064981E+03 -0.17579393252E+02 -0.24055517423E+03  0.40720916178E+03  0.50400001928E-02 0. -1.
       -1    1    3    3    0  502 -0.32809064981E+03  0.17579393252E+02  0.93920246540E+03  0.99501446251E+03  0.50400001928E-02 0.  1.
</event>
<event>
 5   0  0.6640844E-03  0.1094544E+04  0.7818609E-02  0.9210526E-01
        2   -1    0    0  501    0  0.00000000000E+00  0.00000000000E+00  0.65879884429E+03  0.65879884430E+03  0.25500000920E-02 0. -1.
       -2   -1    0    0    0  501  0.00000000000E+00  0.00000000000E+00 -0.45462534134E+03  0.45462534135E+03  0.25500000920E-02 0.  1.
    10030    2    1    2    0    0  0.00000000000E+00  0.00000000000E+00  0.20417350295E+03  0.11134241857E+04  0.10945440137E+04 0.  0.
        5    1    3    3  502    0  0.40464398333E+03 -0.66609912455E+02 -0.26653236372E+03  0.48911678012E+03  0.46999998093E+01 0.  1.
       -5    1    3    3    0  502 -0.40464398333E+03  0.66609912455E+02  0.47070586667E+03  0.62430740553E+03  0.46999998093E+01 0. -1.
</event>
<event>
 5   0  0.6493047E-03  0.1137821E+04  0.7818609E-02  0.9169093E-01
        2   -1    0    0  501    0  0.00000000000E+00  0.00000000000E+00  0.87038727910E+03  0.87038727911E+03  0.25500000920E-02 0.  1.
       -2   -1    0    0    0  501  0.00000000000E+00  0.00000000000E+00 -0.37185648804E+03  0.37185648805E+03  0.25500000920E-02 0. -1.
    10030    2    1    2    0    0  0.00000000000E+00  0.00000000000E+00  0.49853079106E+03  0.12422437672E+04  0.11378209997E+04 0.  0.
        3    1    3    3  502    0 -0.19884555989E+03 -0.44933429565E+03  0.56231782388E+03  0.74675445174E+03  0.10100000352E+00 0.  1.
       -3    1    3    3    0  502  0.19884555989E+03  0.44933429565E+03 -0.63787032816E+02  0.49548931542E+03  0.10100000352E+00 0. -1.
</event>
<event>
 5   0  0.3944074E-03  0.1189715E+04  0.7818609E-02  0.9121907E-01
       -1   -1    0    0    0  501  0.00000000000E+00  0.00000000000E+00  0.47168683396E+03  0.47168683398E+03  0.50400001928E-02 0.  1.
        1   -1    0    0  501    0  0.00000000000E+00  0.00000000000E+00 -0.75019157911E+03  0.75019157912E+03  0.50400001928E-02 0. -1.
    10030    2    1    2    0    0  0.00000000000E+00  0.00000000000E+00 -0.27850474515E+03  0.12218784131E+04  0.11897150765E+04 0.  0.
        4    1    3    3  502    0 -0.15316072654E+03  0.38833021753E+03 -0.57449610404E+03  0.71014502213E+03  0.12699999809E+01 0. -1.
       -4    1    3    3    0  502  0.15316072654E+03 -0.38833021753E+03  0.29599135889E+03  0.51173339098E+03  0.12699999809E+01 0.  1.
</event>
<event>
 5   0  0.6349142E-03  0.1216844E+04  0.7818609E-02  0.9098240E-01
       -2   -1    0    0    0  501  0.00000000000E+00  0.00000000000E+00  0.19125957095E+03  0.19125957096E+03  0.25500000920E-02 0. -1.
        2   -1    0    0  501    0  0.00000000000E+00  0.00000000000E+00 -0.19354701544E+04  0.19354701544E+04  0.25500000920E-02 0.  1.
    10030    2    1    2    0    0  0.00000000000E+00  0.00000000000E+00 -0.17442105834E+04  0.21267297253E+04  0.12168437719E+04 0.  0.
        1    1    3    3  502    0  0.31011443153E+03  0.47441084133E+03 -0.12587499839E+04  0.13804666345E+04  0.50400001928E-02 0.  1.
       -1    1    3    3    0  502 -0.31011443153E+03 -0.47441084133E+03 -0.48546059954E+03  0.74626309083E+03  0.50400001928E-02 0. -1.
</event>
<event>
 5   0  0.3944074E-03  0.1218168E+04  0.7818609E-02  0.9097101E-01
        1   -1    0    0  501    0  0.00000000000E+00  0.00000000000E+00  0.16045956828E+04  0.16045956828E+04  0.50400001928E-02 0. -1.
       -1   -1    0    0    0  501  0.00000000000E+00  0.00000000000E+00 -0.23120058968E+03  0.23120058973E+03  0.50400001928E-02 0.  1.
    10030    2    1    2    0    0  0.00000000000E+00  0.00000000000E+00  0.13733950932E+04  0.18357962726E+04  0.12181682447E+04 0.  0.
        4    1    3    3  502    0  0.84438216133E+02 -0.57517356521E+03  0.41282122473E+03  0.71300590387E+03  0.12699999809E+01 0.  1.
       -4    1    3    3    0  502 -0.84438216133E+02  0.57517356521E+03  0.96057386842E+03  0.11227903687E+04  0.12699999809E+01 0. -1.
</event>
<event>
 5   0  0.6493047E-03  0.1204923E+04  0.7818609E-02  0.9108558E-01
       -2   -1    0    0    0  501  0.00000000000E+00  0.00000000000E+00  0.32079570275E+03  0.32079570276E+03  0.25500000920E-02 0. -1.
        2   -1    0    0  501    0  0.00000000000E+00  0.00000000000E+00 -0.11314370225E+04  0.11314370225E+04  0.25500000920E-02 0.  1.
    10030    2    1    2    0    0  0.00000000000E+00  0.00000000000E+00 -0.81064131978E+03  0.14522327253E+04  0.12049234578E+04 0.  0.
        3    1    3    3  502    0 -0.14104350451E+02 -0.58901959795E+03 -0.25374123333E+03  0.64150420355E+03  0.10100000352E+00 0. -1.
       -3    1    3    3    0  502  0.14104350451E+02  0.58901959795E+03 -0.55690008645E+03  0.81072852174E+03  0.10100000352E+00 0.  1.
</event>
<event>
 5   0  0.6658994E-03  0.1230538E+04  0.7818609E-02  0.9086539E-01
        2   -1    0    0  501    0  0.00000000000E+00  0.00000000000E+00  0.75244102810E+03  0.75244102810E+03  0.25500000920E-02 0.  1.
       -2   -1    0    0    0  501  0.00000000000E+00  0.00000000000E+00 -0.50310381112E+03  0.50310381112E+03  0.25500000920E-02 0. -1.
    10030    2    1    2    0    0  0.00000000000E+00  0.00000000000E+00  0.24933721698E+03  0.12555448392E+04  0.12305380106E+04 0.  0.
        4    1    3    3  502    0 -0.11248724319E+03 -0.37675578171E+03 -0.35818844613E+03  0.53188238810E+03  0.12699999809E+01 0. -1.
       -4    1    3    3    0  502  0.11248724319E+03  0.37675578171E+03  0.60752566311E+03  0.72366245113E+03  0.12699999809E+01 0.  1.
</event>
<event>
 5   0  0.3701879E-03  0.8993780E+03  0.7818609E-02  0.9426359E-01
       -1   -1    0    0    0  501  0.00000000000E+00  0.00000000000E+00  0.27831285231E+03  0.27831285236E+03  0.50400001928E-02 0.  1.
        1   -1    0    0  501    0  0.00000000000E+00  0.00000000000E+00 -0.72659312777E+03  0.72659312779E+03  0.50400001928E-02 0. -1.
    10030    2    1    2    0    0  0.00000000000E+00  0.00000000000E+00 -0.44828027546E+03  0.10049059801E+04  0.89937802040E+03 0.  0.
        1    1    3    3  502    0  0.84652081507E+02  0.11005179262E+03  0.25376407855E+03  0.28926385801E+03  0.50400001928E-02 0.  1.
       -1    1    3    3    0  502 -0.84652081507E+02 -0.11005179262E+03 -0.70204435401E+03  0.71564212214E+03  0.50400001928E-02 0. -1.
</event>
<event>
 5   0  0.6349142E-03  0.1190510E+04  0.7818609E-02  0.9121204E-01
       -2   -1    0    0    0  501  0.00000000000E+00  0.00000000000E+00  0.34079634849E+03  0.34079634850E+03  0.25500000920E-02 0. -1.
        2   -1    0    0  501    0  0.00000000000E+00  0.00000000000E+00 -0.10397073963E+04  0.10397073963E+04  0.25500000920E-02 0.  1.
    10030    2    1    2    0    0  0.00000000000E+00  0.00000000000E+00 -0.69891104784E+03  0.13805037448E+04  0.11905099482E+04 0.  0.
        1    1    3    3  502    0 -0.11939894867E+03 -0.39576631972E+03 -0.84610871803E+03  0.94169371428E+03  0.50400001928E-02 0.  1.
       -1    1    3    3    0  502  0.11939894867E+03  0.39576631972E+03  0.14719767019E+03  0.43881003054E+03  0.50400001928E-02 0. -1.
</event>
<event>
 5   0  0.3731281E-03  0.1209667E+04  0.7818609E-02  0.9104437E-01
       -1   -1    0    0    0  501  0.00000000000E+00  0.00000000000E+00  0.31872978413E+03  0.31872978417E+03  0.50400001928E-02 0.  1.
        1   -1    0    0  501    0  0.00000000000E+00  0.00000000000E+00 -0.11477545010E+04  0.11477545011E+04  0.50400001928E-02 0. -1.
    10030    2    1    2    0    0  0.00000000000E+00  0.00000000000E+00 -0.82902471691E+03  0.14664842852E+04  0.12096669697E+04 0.  0.
        5    1    3    3  502    0  0.43252299696E+03 -0.74060462511E+02 -0.91909944196E+03  0.10184924984E+04  0.46999998093E+01 0. -1.
       -5    1    3    3    0  502 -0.43252299696E+03  0.74060462511E+02  0.90074725047E+02  0.44799178687E+03  0.46999998093E+01 0.  1.
</event>
<event>
 5   0  0.3731281E-03  0.1218252E+04  0.7818609E-02  0.9097029E-01
       -1   -1    0    0    0  501  0.00000000000E+00  0.00000000000E+00  0.11374324650E+03  0.11374324661E+03  0.50400001928E-02 0.  1.
        1   -1    0    0  501    0  0.00000000000E+00  0.00000000000E+00 -0.32620339195E+04  0.32620339195E+04  0.50400001928E-02 0. -1.
    10030    2    1    2    0    0  0.00000000000E+00  0.00000000000E+00 -0.31482906730E+04  0.33757771661E+04  0.12182517447E+04 0.  0.
        5    1    3    3  502    0 -0.46661550797E+03  0.65036084110E+02 -0.50433600490E+03  0.69017144273E+03  0.46999998093E+01 0.  1.
       -5    1    3    3    0  502  0.46661550797E+03 -0.65036084110E+02 -0.26439546681E+04  0.26856057234E+04  0.46999998093E+01 0. -1.
</event>
<event>
 5   0  0.3944074E-03  0.1218933E+04  0.7818609E-02  0.9096444E-01
       -1   -1    0    0    0  501  0.00000000000E+00  0.00000000000E+00  0.29765361812E+03  0.29765361817E+03  0.50400001928E-02 0. -1.
        1   -1    0    0  501    0  0.00000000000E+00  0.00000000000E+00 -0.12479255723E+04  0.12479255724E+04  0.50400001928E-02 0.  1.
    10030    2    1    2    0    0  0.00000000000E+00  0.00000000000E+00 -0.95027195422E+03  0.15455791905E+04  0.12189332415E+04 0.  0.
        4    1    3    3  502    0  0.13283408262E+03  0.58150519577E+03 -0.63378397116E+03  0.87033150076E+03  0.12699999809E+01 0.  1.
       -4    1    3    3    0  502 -0.13283408262E+03 -0.58150519577E+03 -0.31648798306E+03  0.67524768977E+03  0.12699999809E+01 0. -1.
</event>
<event>
 5   0  0.3772254E-03  0.1138316E+04  0.7818609E-02  0.9168630E-01
        1   -1    0    0  501    0  0.00000000000E+00  0.00000000000E+00  0.76308595591E+03  0.76308595593E+03  0.50400001928E-02 0. -1.
       -1   -1    0    0    0  501  0.00000000000E+00  0.00000000000E+00 -0.42451453687E+03  0.42451453690E+03  0.50400001928E-02 0.  1.
    10030    2    1    2    0    0  0.00000000000E+00  0.00000000000E+00  0.33857141904E+03  0.11876004928E+04  0.11383164432E+04 0.  0.
        3    1    3    3  502    0 -0.28160186967E+03  0.14254657496E+03  0.66341799214E+03  0.73467175088E+03  0.10100000352E+00 0. -1.
       -3    1    3    3    0  502  0.28160186967E+03 -0.14254657496E+03 -0.32484657310E+03  0.45292874196E+03  0.10100000352E+00 0.  1.
</event>
<event>
 5   0  0.3772254E-03  0.1169635E+04  0.7818609E-02  0.9139858E-01
        1   -1    0    0  501    0  0.00000000000E+00  0.00000000000E+00  0.35524585890E+03  0.35524585894E+03  0.50400001928E-02 0.  1.
       -1   -1    0    0    0  501  0.00000000000E+00  0.00000000000E+00 -0.96274603208E+03  0.96274603209E+03  0.50400001928E-02 0. -1.
    10030    2    1    2    0    0  0.00000000000E+00  0.00000000000E+00 -0.60750017318E+03  0.13179918910E+04  0.11696350561E+04 0.  0.
        3    1    3    3  502    0 -0.13576008517E+03  0.19825694218E+02 -0.94435424719E+03  0.95426873221E+03  0.10100000352E+00 0. -1.
       -3    1    3    3    0  502  0.13576008517E+03 -0.19825694218E+02  0.33685407402E+03  0.36372315882E+03  0.10100000352E+00 0.  1.
</event>
<event>
 5   0  0.3944074E-03  0.1204188E+04  0.7818609E-02  0.9109198E-01
        1   -1    0    0  501    0  0.00000000000E+00  0.00000000000E+00  0.71089322465E+03  0.71089322467E+03  0.50400001928E-02 0. -1.
       -1   -1    0    0    0  501  0.00000000000E+00  0.00000000000E+00 -0.50994627993E+03  0.50994627995E+03  0.50400001928E-02 0.  1.
    10030    2    1    2    0    0  0.00000000000E+00  0.00000000000E+00  0.20094694472E+03  0.12208395046E+04  0.12041882832E+04 0.  0.
        4    1    3    3  502    0 -0.15530347672E+03 -0.27081286136E+03 -0.42148240065E+03  0.52450719987E+03  0.12699999809E+01 0.  1.
       -4    1    3    3    0  502  0.15530347672E+03  0.27081286136E+03  0.62242934537E+03  0.69633230475E+03  0.12699999809E+01 0. -1.
</event>
<event>
 5   0  0.3772254E-03  0.1201523E+04  0.7818609E-02  0.9111524E-01
        1   -1    0    0  501    0  0.00000000000E+00  0.00000000000E+00  0.57463283757E+03  0.57463283759E+03  0.50400001928E-02 0. -1.
       -1   -1    0    0    0  501  0.00000000000E+00  0.00000000000E+00 -0.62807843551E+03  0.62807843553E+03  0.50400001928E-02 0.  1.
    10030    2    1    2    0    0  0.00000000000E+00  0.00000000000E+00 -0.53445597937E+02  0.12027112731E+04  0.12015231893E+04 0.  0.
        3    1    3    3  502    0 -0.28133543939E+03 -0.51838223542E+03  0.87603586180E+02  0.59627524682E+03  0.10100000352E+00 0. -1.
       -3    1    3    3    0  502  0.28133543939E+03  0.51838223542E+03 -0.14104918412E+03  0.60643602630E+03  0.10100000352E+00 0.  1.
</event>
<event>
 5   0  0.3701879E-03  0.1177388E+04  0.7818609E-02  0.9132882E-01
        1   -1    0    0  501    0  0.00000000000E+00  0.00000000000E+00  0.88672217142E+03  0.88672217143E+03  0.50400001928E-02 0.  1.
       -1   -1    0    0    0  501  0.00000000000E+00  0.00000000000E+00 -0.39083349817E+03  0.39083349821E+03  0.50400001928E-02 0. -1.
    10030    2    1    2    0    0  0.00000000000E+00  0.00000000000E+00  0.49588867325E+03  0.12775556696E+04  0.11773881742E+04 0.  0.
        1    1    3    3  502    0  0.48496435571E+03  0.32605517480E+03  0.32511700592E+03  0.66873273502E+03  0.50400001928E-02 0. -1.
       -1    1    3    3    0  502 -0.48496435571E+03 -0.32605517480E+03  0.17077166733E+03  0.60882293462E+03  0.50400001928E-02 0.  1.
</event>
<event>
 5   0  0.3731281E-03  0.1173165E+04  0.7818609E-02  0.9136675E-01
        1   -1    0    0  501    0  0.00000000000E+00  0.00000000000E+00  0.55413936119E+03  0.55413936121E+03  0.50400001928E-02 0. -1.
       -1   -1    0    0    0  501  0.00000000000E+00  0.00000000000E+00 -0.62092530040E+03  0.62092530042E+03  0.50400001928E-02 0.  1.
    10030    2    1    2    0    0  0.00000000000E+00  0.00000000000E+00 -0.66785939217E+02  0.11750646616E+04  0.11731652046E+04 0.  0.
        5    1    3    3  502    0  0.49454232011E+03 -0.31520666784E+03 -0.21985521507E+02  0.58688397745E+03  0.46999998093E+01 0.  1.
       -5    1    3    3    0  502 -0.49454232011E+03  0.31520666784E+03 -0.44800417710E+02  0.58818068419E+03  0.46999998093E+01 0. -1.
</event>
<event>
 5   0  0.6493047E-03  0.1172299E+04  0.7818609E-02  0.9137455E-01
        2   -1    0    0  501    0  0.00000000000E+00  0.00000000000E+00  0.12493008819E+04  0.12493008819E+04  0.25500000920E-02 0. -1.
       -2   -1    0    0    0  501  0.00000000000E+00  0.00000000000E+00 -0.27501076392E+03  0.27501076393E+03  0.25500000920E-02 0.  1.
    10030    2    1    2    0    0  0.00000000000E+00  0.00000000000E+00  0.97429011795E+03  0.15243116458E+04  0.11722989208E+04 0.  0.
        3    1    3    3  502    0  0.15069057036E+03  0.24174585533E+03  0.11532396615E+04  0.11879016936E+04  0.10100000352E+00 0. -1.
       -3    1    3    3    0  502 -0.15069057036E+03 -0.24174585533E+03 -0.17894954359E+03  0.33640995217E+03  0.10100000352E+00 0.  1.
</event>
<event>
 5   0  0.6585930E-03  0.1261102E+04  0.7818609E-02  0.9060993E-01
       -2   -1    0    0    0  501  0.00000000000E+00  0.00000000000E+00  0.72812373799E+03  0.72812373800E+03  0.25500000920E-02 0.  1.
        2   -1    0    0  501    0  0.00000000000E+00  0.00000000000E+00 -0.54605380079E+03  0.54605380079E+03  0.25500000920E-02 0. -1.
    10030    2    1    2    0    0  0.00000000000E+00  0.00000000000E+00  0.18206993721E+03  0.12741775388E+04  0.12611022712E+04 0.  0.
        2    1    3    3  502    0 -0.44748629934E+03  0.28137401319E+03 -0.25630163090E+03  0.58745710431E+03  0.25500000920E-02 0. -1.
       -2    1    3    3    0  502  0.44748629934E+03 -0.28137401319E+03  0.43837156811E+03  0.68672043448E+03  0.25500000920E-02 0.  1.
</event>
<event>
 5   0  0.3731281E-03  0.1210904E+04  0.7818609E-02  0.9103366E-01
        1   -1    0    0  501    0  0.00000000000E+00  0.00000000000E+00  0.14225138446E+04  0.14225138446E+04  0.50400001928E-02 0. -1.
       -1   -1    0    0    0  501  0.00000000000E+00  0.00000000000E+00 -0.25769297388E+03  0.25769297392E+03  0.50400001928E-02 0.  1.
    10030    2    1    2    0    0  0.00000000000E+00  0.00000000000E+00  0.11648208707E+04  0.16802068186E+04  0.12109035024E+04 0.  0.
        5    1    3    3  502    0  0.58925740692E+03  0.12147842036E+01  0.77529671512E+03  0.97382383098E+03  0.46999998093E+01 0. -1.
       -5    1    3    3    0  502 -0.58925740692E+03 -0.12147842036E+01  0.38952415562E+03  0.70638298757E+03  0.46999998093E+01 0.  1.
</event>
<event>
 5   0  0.6493047E-03  0.8972456E+03  0.7818609E-02  0.9429031E-01
       -2   -1    0    0    0  501  0.00000000000E+00  0.00000000000E+00  0.96550058113E+02  0.96550058146E+02  0.25500000920E-02 0.  1.
        2   -1    0    0  501    0  0.00000000000E+00  0.00000000000E+00 -0.20845394387E+04  0.20845394387E+04  0.25500000920E-02 0. -1.
    10030    2    1    2    0    0  0.00000000000E+00  0.00000000000E+00 -0.19879893806E+04  0.21810894969E+04  0.89724557171E+03 0.  0.
        3    1    3    3  502    0  0.28697484660E+03 -0.11707650637E+03 -0.20554872043E+03  0.37190288731E+03  0.10100000352E+00 0.  1.
       -3    1    3    3    0  502 -0.28697484660E+03  0.11707650637E+03 -0.17824406602E+04  0.18091866096E+04  0.10100000352E+00 0. -1.
</event>
<event>
 5   0  0.6349142E-03  0.1140197E+04  0.7818609E-02  0.9166875E-01
        2   -1    0    0  501    0  0.00000000000E+00  0.00000000000E+00  0.23191472268E+04  0.23191472268E+04  0.25500000920E-02 0. -1.
       -2   -1    0    0    0  501  0.00000000000E+00  0.00000000000E+00 -0.14014305673E+03  0.14014305675E+03  0.25500000920E-02 0.  1.
    10030    2    1    2    0    0  0.00000000000E+00  0.00000000000E+00  0.21790041701E+04  0.24592902835E+04  0.11401971433E+04 0.  0.
        1    1    3    3  502    0  0.55321248662E+03 -0.11112046322E+03  0.91400193478E+03  0.10741468007E+04  0.50400001928E-02 0.  1.
       -1    1    3    3    0  502 -0.55321248662E+03  0.11112046322E+03  0.12650022353E+04  0.13851434828E+04  0.50400001928E-02 0. -1.
</event>
<event>
 5   0  0.6658994E-03  0.1205106E+04  0.7818609E-02  0.9108399E-01
       -2   -1    0    0    0  501  0.00000000000E+00  0.00000000000E+00  0.94274783988E+03  0.94274783988E+03  0.25500000920E-02 0. -1.
        2   -1    0    0  501    0  0.00000000000E+00  0.00000000000E+00 -0.38511870961E+03  0.38511870962E+03  0.25500000920E-02 0.  1.
    10030    2    1    2    0    0  0.00000000000E+00  0.00000000000E+00  0.55762913027E+03  0.13278665495E+04  0.12051055250E+04 0.  0.
        4    1    3    3  502    0  0.51092394653E+03  0.99845318834E+02 -0.55499811974E+02  0.52354007378E+03  0.12699999809E+01 0.  1.
       -4    1    3    3    0  502 -0.51092394653E+03 -0.99845318834E+02  0.61312894224E+03  0.80432647572E+03  0.12699999809E+01 0. -1.
</event>
<event>
 5   0  0.6585930E-03  0.1190709E+04  0.7818609E-02  0.9121028E-01
        2   -1    0    0  501    0  0.00000000000E+00  0.00000000000E+00  0.16049619499E+04  0.16049619499E+04  0.25500000920E-02 0. -1.
       -2   -1    0    0    0  501  0.00000000000E+00  0.00000000000E+00 -0.22084430493E+03  0.22084430495E+03  0.25500000920E-02 0.  1.
    10030    2    1    2    0    0  0.00000000000E+00  0.00000000000E+00  0.13841176450E+04  0.18258062549E+04  0.11907085391E+04 0.  0.
        2    1    3    3  502    0  0.36516358675E+03 -0.14492315914E+03  0.13779769279E+04  0.14328878466E+04  0.25500000920E-02 0. -1.
       -2    1    3    3    0  502 -0.36516358675E+03  0.14492315914E+03  0.61407170980E+01  0.39291840826E+03  0.25500000920E-02 0.  1.
</event>
<event>
 5   0  0.3731281E-03  0.1191748E+04  0.7818609E-02  0.9120110E-01
       -1   -1    0    0    0  501  0.00000000000E+00  0.00000000000E+00  0.17843650800E+03  0.17843650807E+03  0.50400001928E-02 0. -1.
        1   -1    0    0  501    0  0.00000000000E+00  0.00000000000E+00 -0.19898731517E+04  0.19898731517E+04  0.50400001928E-02 0.  1.
    10030    2    1    2    0    0  0.00000000000E+00  0.00000000000E+00 -0.18114366437E+04  0.21683096598E+04  0.11917483235E+04 0.  0.
        5    1    3    3  502    0  0.20577319005E+03 -0.13628842267E+03 -0.18924612991E+04  0.19084939084E+04  0.46999998093E+01 0.  1.
       -5    1    3    3    0  502 -0.20577319005E+03  0.13628842267E+03  0.81024655358E+02  0.25981575140E+03  0.46999998093E+01 0. -1.
</event>
<event>
 5   0  0.6585930E-03  0.1190403E+04  0.7818609E-02  0.9121298E-01
       -2   -1    0    0    0  501  0.00000000000E+00  0.00000000000E+00  0.20790917881E+03  0.20790917882E+03  0.25500000920E-02 0. -1.
        2   -1    0    0  501    0  0.00000000000E+00  0.00000000000E+00 -0.17039405315E+04  0.17039405315E+04  0.25500000920E-02 0.  1.
    10030    2    1    2    0    0  0.00000000000E+00  0.00000000000E+00 -0.14960313527E+04  0.19118497103E+04  0.11904030858E+04 0.  0.
        2    1    3    3  502    0 -0.32700820322E+03 -0.31413566787E+03 -0.12880115746E+03  0.47138659397E+03  0.25500000920E-02 0. -1.
       -2    1    3    3    0  502  0.32700820322E+03  0.31413566787E+03 -0.13672301952E+04  0.14404631163E+04  0.25500000920E-02 0.  1.
</event>
<event>
 5   0  0.3731281E-03  0.1225213E+04  0.7818609E-02  0.9091070E-01
       -1   -1    0    0    0  501  0.00000000000E+00  0.00000000000E+00  0.39654976724E+03  0.39654976727E+03  0.50400001928E-02 0.  1.
        1   -1    0    0  501    0  0.00000000000E+00  0.00000000000E+00 -0.94637947497E+03  0.94637947498E+03  0.50400001928E-02 0. -1.
    10030    2    1    2    0    0  0.00000000000E+00  0.00000000000E+00 -0.54982970773E+03  0.13429292423E+04  0.12252127334E+04 0.  0.
        5    1    3    3  502    0  0.57296858116E+03  0.15400191487E+03 -0.10776779689E+03  0.60303032497E+03  0.46999998093E+01 0. -1.
       -5    1    3    3    0  502 -0.57296858116E+03 -0.15400191487E+03 -0.44206191084E+03  0.73989891728E+03  0.46999998093E+01 0.  1.
</event>
<event>
 5   0  0.3648616E-03  0.1150957E+04  0.7818609E-02  0.9156901E-01
       -1   -1    0    0    0  501  0.00000000000E+00  0.00000000000E+00  0.20480292244E+03  0.20480292250E+03  0.50400001928E-02 0.  1.
        1   -1    0    0  501    0  0.00000000000E+00  0.00000000000E+00 -0.16170448041E+04  0.16170448041E+04  0.50400001928E-02 0. -1.
    10030    2    1    2    0    0  0.00000000000E+00  0.00000000000E+00 -0.14122418817E+04  0.18218477266E+04  0.11509569960E+04 0.  0.
        2    1    3    3  502    0 -0.46269235206E+03  0.11162386846E+03 -0.12181374899E+04  0.13078237821E+04  0.25500000920E-02 0. -1.
       -2    1    3    3    0  502  0.46269235206E+03 -0.11162386846E+03 -0.19410439180E+03  0.51402394456E+03  0.25500000920E-02 0.  1.
</event>
<event>
 5   0  0.3648616E-03  0.1177202E+04  0.7818609E-02  0.9133049E-01
        1   -1    0    0  501    0  0.00000000000E+00  0.00000000000E+00  0.10073756910E+04  0.10073756910E+04  0.50400001928E-02 0. -1.
       -1   -1    0    0    0  501  0.00000000000E+00  0.00000000000E+00 -0.34391467025E+03  0.34391467028E+03  0.50400001928E-02 0.  1.
    10030    2    1    2    0    0  0.00000000000E+00  0.00000000000E+00  0.66346102071E+03  0.13512903613E+04  0.11772022402E+04 0.  0.
        2    1    3    3  502    0 -0.26759112251E+03  0.80012165086E+02  0.92646717265E+03  0.96765095846E+03  0.25500000920E-02 0. -1.
       -2    1    3    3    0  502  0.26759112251E+03 -0.80012165086E+02 -0.26300615194E+03  0.38363940279E+03  0.25500000920E-02 0.  1.
</event>
<event>
 5   0  0.3648616E-03  0.1170586E+04  0.7818609E-02  0.9139000E-01
       -1   -1    0    0    0  501  0.00000000000E+00  0.00000000000E+00  0.30415083377E+04  0.30415083377E+04  0.50400001928E-02 0. -1.
        1   -1    0    0  501    0  0.00000000000E+00  0.00000000000E+00 -0.11263089455E+03  0.11263089466E+03  0.50400001928E-02 0.  1.
    10030    2    1    2    0    0  0.00000000000E+00  0.00000000000E+00  0.29288774432E+04  0.31541392324E+04  0.11705858449E+04 0.  0.
        2    1    3    3  502    0 -0.87810501461E+02  0.42721360821E+02  0.30194035815E+04  0.30209822553E+04  0.25500000920E-02 0. -1.
       -2    1    3    3    0  502  0.87810501461E+02 -0.42721360821E+02 -0.90526138292E+02  0.13315697713E+03  0.25500000920E-02 0.  1.
</event>
<event>
 5   0  0.6349142E-03  0.1198475E+04  0.7818609E-02  0.9114193E-01
       -2   -1    0    0    0  501  0.00000000000E+00  0.00000000000E+00  0.10995708141E+04  0.10995708141E+04  0.25500000920E-02 0.  1.
        2   -1    0    0  501    0  0.00000000000E+00  0.00000000000E+00 -0.32656865226E+03  0.32656865227E+03  0.25500000920E-02 0. -1.
    10030    2    1    2    0    0  0.00000000000E+00  0.00000000000E+00  0.77300216184E+03  0.14261394664E+04  0.11984746286E+04 0.  0.
        1    1    3    3  502    0 -0.24201123587E+03 -0.51838629745E+03  0.59867359491E+03  0.82807237904E+03  0.50400001928E-02 0.  1.
       -1    1    3    3    0  502  0.24201123587E+03  0.51838629745E+03  0.17432856693E+03  0.59806708733E+03  0.50400001928E-02 0. -1.
</event>
<event>
 5   0  0.6658994E-03  0.1216683E+04  0.7818609E-02  0.9098378E-01
       -2   -1    0    0    0  501  0.00000000000E+00  0.00000000000E+00  0.49099168151E+03  0.49099168151E+03  0.25500000920E-02 0. -1.
        2   -1    0    0  501    0  0.00000000000E+00  0.00000000000E+00 -0.75373863624E+03  0.75373863624E+03  0.25500000920E-02 0.  1.
    10030    2    1    2    0    0  0.00000000000E+00  0.00000000000E+00 -0.26274695473E+03  0.12447303178E+04  0.12166830326E+04 0.  0.
        4    1    3    3  502    0 -0.54598126567E+03 -0.24564363576E+03 -0.24175626084E+03  0.64566557970E+03  0.12699999809E+01 0.  1.
       -4    1    3    3    0  502  0.54598126567E+03  0.24564363576E+03 -0.20990693890E+02  0.59906473806E+03  0.12699999809E+01 0. -1.
</event>
<event>
 5   0  0.3772254E-03  0.1227027E+04  0.7818609E-02  0.9089523E-01
       -1   -1    0    0    0  501  0.00000000000E+00  0.00000000000E+00  0.37368410025E+03  0.37368410029E+03  0.50400001928E-02 0. -1.
        1   -1    0    0  501    0  0.00000000000E+00  0.00000000000E+00 -0.10072655326E+04  0.10072655326E+04  0.50400001928E-02 0.  1.
    10030    2    1    2    0    0  0.00000000000E+00  0.00000000000E+00 -0.63358143231E+03  0.13809496329E+04  0.12270274883E+04 0.  0.
        3    1    3    3  502    0 -0.53995850250E+03 -0.28751833000E+03 -0.26427785445E+03  0.66638184929E+03  0.10100000352E+00 0. -1.
       -3    1    3    3    0  502  0.53995850250E+03  0.28751833000E+03 -0.36930357786E+03  0.71456778358E+03  0.10100000352E+00 0.  1.
</event>
<event>
 5   0  0.6493047E-03  0.1169608E+04  0.7818609E-02  0.9139883E-01
        2   -1    0    0  501    0  0.00000000000E+00  0.00000000000E+00  0.54253795316E+03  0.54253795316E+03  0.25500000920E-02 0. -1.
       -2   -1    0    0    0  501  0.00000000000E+00  0.00000000000E+00 -0.63036229451E+03  0.63036229452E+03  0.25500000920E-02 0.  1.
    10030    2    1    2    0    0  0.00000000000E+00  0.00000000000E+00 -0.87824341354E+02  0.11729002477E+04  0.11696075735E+04 0.  0.
        3    1    3    3  502    0  0.63950055452E+02  0.56611828243E+03  0.88428813559E+02  0.57654070503E+03  0.10100000352E+00 0. -1.
       -3    1    3    3    0  502 -0.63950055452E+02 -0.56611828243E+03 -0.17625315491E+03  0.59635954265E+03  0.10100000352E+00 0.  1.
</event>
<event>
 5   0  0.3772254E-03  0.1208606E+04  0.7818609E-02  0.9105357E-01
        1   -1    0    0  501    0  0.00000000000E+00  0.00000000000E+00  0.97208452002E+03  0.97208452003E+03  0.50400001928E-02 0.  1.
       -1   -1    0    0    0  501  0.00000000000E+00  0.00000000000E+00 -0.37566902744E+03  0.37566902748E+03  0.50400001928E-02 0. -1.
    10030    2    1    2    0    0  0.00000000000E+00  0.00000000000E+00  0.59641549257E+03  0.13477535475E+04  0.12086058849E+04 0.  0.
        3    1    3    3  502    0  0.40183259949E+03  0.44814401983E+03  0.35804711459E+03  0.70035722813E+03  0.10100000352E+00 0. -1.
       -3    1    3    3    0  502 -0.40183259949E+03 -0.44814401983E+03  0.23836837798E+03  0.64739631938E+03  0.10100000352E+00 0.  1.
</event>
<event>
 5   0  0.3648616E-03  0.1113542E+04  0.7818609E-02  0.9192092E-01
       -1   -1    0    0    0  501  0.00000000000E+00  0.00000000000E+00  0.10794240551E+04  0.10794240551E+04  0.50400001928E-02 0.  1.
        1   -1    0    0  501    0  0.00000000000E+00  0.00000000000E+00 -0.28718474264E+03  0.28718474269E+03  0.50400001928E-02 0. -1.
    10030    2    1    2    0    0  0.00000000000E+00  0.00000000000E+00  0.79223931241E+03  0.13666087978E+04  0.11135423108E+04 0.  0.
        2    1    3    3  502    0  0.82891911881E+02 -0.43507377622E+02 -0.27745651358E+03  0.29282431234E+03  0.25500000920E-02 0. -1.
       -2    1    3    3    0  502 -0.82891911881E+02  0.43507377622E+02  0.10696958260E+04  0.10737844854E+04  0.25500000920E-02 0.  1.
</event>
<event>
 5   0  0.6585930E-03  0.1254861E+04  0.7818609E-02  0.9066147E-01
       -2   -1    0    0    0  501  0.00000000000E+00  0.00000000000E+00  0.27923103687E+03  0.27923103689E+03  0.25500000920E-02 0.  1.
        2   -1    0    0  501    0  0.00000000000E+00  0.00000000000E+00 -0.14098320208E+04  0.14098320208E+04  0.25500000920E-02 0. -1.
    10030    2    1    2    0    0  0.00000000000E+00  0.00000000000E+00 -0.11306009840E+04  0.16890630577E+04  0.12548607206E+04 0.  0.
        2    1    3    3  502    0  0.33508271214E+03 -0.25957170014E+03 -0.11879854163E+04  0.12613354989E+04  0.25500000920E-02 0. -1.
       -2    1    3    3    0  502 -0.33508271214E+03  0.25957170014E+03  0.57384432325E+02  0.42772755882E+03  0.25500000920E-02 0.  1.
</event>
<event>
 5   0  0.3731281E-03  0.1162235E+04  0.7818609E-02  0.9146570E-01
       -1   -1    0    0    0  501  0.00000000000E+00  0.00000000000E+00  0.37539413562E+03  0.37539413566E+03  0.50400001928E-02 0. -1.
        1   -1    0    0  501    0  0.00000000000E+00  0.00000000000E+00 -0.89958086197E+03  0.89958086199E+03  0.50400001928E-02 0.  1.
    10030    2    1    2    0    0  0.00000000000E+00  0.00000000000E+00 -0.52418672635E+03  0.12749749976E+04  0.11622347097E+04 0.  0.
        5    1    3    3  502    0  0.34143883023E+03  0.10578947853E+03 -0.76468767053E+03  0.84412156235E+03  0.46999998093E+01 0.  1.
       -5    1    3    3    0  502 -0.34143883023E+03 -0.10578947853E+03  0.24050094418E+03  0.43085343530E+03  0.46999998093E+01 0. -1.
</event>
<event>
 5   0  0.3701879E-03  0.1218131E+04  0.7818609E-02  0.9097133E-01
       -1   -1    0    0    0  501  0.00000000000E+00  0.00000000000E+00  0.43520617685E+03  0.43520617688E+03  0.50400001928E-02 0. -1.
        1   -1    0    0  501    0  0.00000000000E+00  0.00000000000E+00 -0.85237888270E+03  0.85237888272E+03  0.50400001928E-02 0.  1.
    10030    2    1    2    0    0  0.00000000000E+00  0.00000000000E+00 -0.41717270585E+03  0.12875850596E+04  0.12181306248E+04 0.  0.
        1    1    3    3  502    0  0.57769534082E+03  0.18207360895E+03 -0.27608539841E+03  0.66566196610E+03  0.50400001928E-02 0.  1.
       -1    1    3    3    0  502 -0.57769534082E+03 -0.18207360895E+03 -0.14108730745E+03  0.62192309350E+03  0.50400001928E-02 0. -1.
</event>
<event>
 5   0  0.6658994E-03  0.1131660E+04  0.7818609E-02  0.9174872E-01
       -2   -1    0    0    0  501  0.00000000000E+00  0.00000000000E+00  0.64481033829E+03  0.64481033829E+03  0.25500000920E-02 0. -1.
        2   -1    0    0  501    0  0.00000000000E+00  0.00000000000E+00 -0.49652360000E+03  0.49652360001E+03  0.25500000920E-02 0.  1.
    10030    2    1    2    0    0  0.00000000000E+00  0.00000000000E+00  0.14828673829E+03  0.11413339383E+04  0.11316599321E+04 0.  0.
        4    1    3    3  502    0  0.55434993387E+03 -0.11018350014E+03  0.10116201861E+03  0.57417734177E+03  0.12699999809E+01 0. -1.
       -4    1    3    3    0  502 -0.55434993387E+03  0.11018350014E+03  0.47124719675E+02  0.56715659653E+03  0.12699999809E+01 0.  1.
</event>
<event>
 5   0  0.3701879E-03  0.1171277E+04  0.7818609E-02  0.9138376E-01
        1   -1    0    0  501    0  0.00000000000E+00  0.00000000000E+00  0.16833899983E+04  0.16833899983E+04  0.50400001928E-02 0.  1.
       -1   -1    0    0    0  501  0.00000000000E+00  0.00000000000E+00 -0.20373914713E+03  0.20373914719E+03  0.50400001928E-02 0. -1.
    10030    2    1    2    0    0  0.00000000000E+00  0.00000000000E+00  0.14796508511E+04  0.18871291455E+04  0.11712769828E+04 0.  0.
        1    1    3    3  502    0  0.51348418602E+03  0.27930007634E+03  0.79787014768E+03  0.98907599027E+03  0.50400001928E-02 0. -1.
       -1    1    3    3    0  502 -0.51348418602E+03 -0.27930007634E+03  0.68178070346E+03  0.89805315520E+03  0.50400001928E-02 0.  1.
</event>
<event>
 5   0  0.6658994E-03  0.9740269E+03  0.7818609E-02  0.9337499E-01
       -2   -1    0    0    0  501  0.00000000000E+00  0.00000000000E+00  0.40905475990E+03  0.40905475990E+03  0.25500000920E-02 0. -1.
        2   -1    0    0  501    0  0.00000000000E+00  0.00000000000E+00 -0.57982966936E+03  0.57982966936E+03  0.25500000920E-02 0.  1.
    10030    2    1    2    0    0  0.00000000000E+00  0.00000000000E+00 -0.17077490946E+03  0.98888442927E+03  0.97402687065E+03 0.  0.
        4    1    3    3  502    0  0.23934181999E+03  0.31587049558E+02  0.34402794609E+03  0.42028453349E+03  0.12699999809E+01 0. -1.
       -4    1    3    3    0  502 -0.23934181999E+03 -0.31587049558E+02 -0.51480285556E+03  0.56859989578E+03  0.12699999809E+01 0.  1.
</event>
<event>
 5   0  0.6640844E-03  0.1119243E+04  0.7818609E-02  0.9186637E-01
        2   -1    0    0  501    0  0.00000000000E+00  0.00000000000E+00  0.40431763542E+03  0.40431763543E+03  0.25500000920E-02 0.  1.
       -2   -1    0    0    0  501  0.00000000000E+00  0.00000000000E+00 -0.77457914441E+03  0.77457914441E+03  0.25500000920E-02 0. -1.
    10030    2    1    2    0    0  0.00000000000E+00  0.00000000000E+00 -0.37026150899E+03  0.11788967798E+04  0.11192426156E+04 0.  0.
        5    1    3    3  502    0  0.38964841181E+03  0.39696454928E+03 -0.12065390388E+03  0.56919785025E+03  0.46999998093E+01 0.  1.
       -5    1    3    3    0  502 -0.38964841181E+03 -0.39696454928E+03 -0.24960760511E+03  0.60969892959E+03  0.46999998093E+01 0. -1.
</event>
<event>
 5   0  0.3944074E-03  0.1191400E+04  0.7818609E-02  0.9120417E-01
        1   -1    0    0  501    0  0.00000000000E+00  0.00000000000E+00  0.63478890412E+03  0.63478890414E+03  0.50400001928E-02 0.  1.
       -1   -1    0    0    0  501  0.00000000000E+00  0.00000000000E+00 -0.55901822635E+03  0.55901822637E+03  0.50400001928E-02 0. -1.
    10030    2    1    2    0    0  0.00000000000E+00  0.00000000000E+00  0.75770677774E+02  0.11938071305E+04  0.11914001298E+04 0.  0.
        4    1    3    3  502    0  0.97096513353E+01 -0.57989500660E+03  0.17411757667E+03  0.60555019562E+03  0.12699999809E+01 0.  1.
       -4    1    3    3    0  502 -0.97096513353E+01  0.57989500660E+03 -0.98346898900E+02  0.58825693488E+03  0.12699999809E+01 0. -1.
</event>
<event>
 5   0  0.6640844E-03  0.1205818E+04  0.7818609E-02  0.9107779E-01
        2   -1    0    0  501    0  0.00000000000E+00  0.00000000000E+00  0.31187429097E+04  0.31187429097E+04  0.25500000920E-02 0.  1.
       -2   -1    0    0    0  501  0.00000000000E+00  0.00000000000E+00 -0.11655319856E+03  0.11655319859E+03  0.25500000920E-02 0. -1.
    10030    2    1    2    0    0  0.00000000000E+00  0.00000000000E+00  0.30021897111E+04  0.32352961082E+04  0.12058183307E+04 0.  0.
        5    1    3    3  502    0 -0.54605728848E+03 -0.12328092968E+03  0.21016511336E+04  0.21749336375E+04  0.46999998093E+01 0.  1.
       -5    1    3    3    0  502  0.54605728848E+03  0.12328092968E+03  0.90053857746E+03  0.10603624708E+04  0.46999998093E+01 0. -1.
</event>
<event>
 5   0  0.2537625E-03  0.6380447E+03  0.7818609E-02  0.9829475E-01
        4   -1    0    0  501    0  0.00000000000E+00  0.00000000000E+00  0.27676964223E+03  0.27677255601E+03  0.12699999809E+01 0. -1.
       -4   -1    0    0    0  501  0.00000000000E+00  0.00000000000E+00 -0.36771957691E+03  0.36772177001E+03  0.12699999809E+01 0.  1.
    10030    2    1    2    0    0  0.00000000000E+00  0.00000000000E+00 -0.90949934675E+02  0.64449432603E+03  0.63804470507E+03 0.  0.
        1    1    3    3  502    0 -0.24629028475E+03 -0.17685296260E+03 -0.14567134078E+03  0.33638670350E+03  0.50400001928E-02 0. -1.
       -1    1    3    3    0  502  0.24629028475E+03  0.17685296260E+03  0.54721406103E+02  0.30810762252E+03  0.50400001928E-02 0.  1.
</event>
<event>
 5   0  0.6585930E-03  0.1232700E+04  0.7818609E-02  0.9084706E-01
       -2   -1    0    0    0  501  0.00000000000E+00  0.00000000000E+00  0.98307739008E+03  0.98307739009E+03  0.25500000920E-02 0. -1.
        2   -1    0    0  501    0  0.00000000000E+00  0.00000000000E+00 -0.38642665090E+03  0.38642665090E+03  0.25500000920E-02 0.  1.
    10030    2    1    2    0    0  0.00000000000E+00  0.00000000000E+00  0.59665073919E+03  0.13695040410E+04  0.12326999691E+04 0.  0.
        2    1    3    3  502    0 -0.51397398456E+03  0.12184519313E+03  0.65117592769E+03  0.83847814324E+03  0.25500000920E-02 0. -1.
       -2    1    3    3    0  502  0.51397398456E+03 -0.12184519313E+03 -0.54525188501E+02  0.53102589775E+03  0.25500000920E-02 0.  1.
</event>
<event>
 5   0  0.3772254E-03  0.1186773E+04  0.7818609E-02  0.9124514E-01
       -1   -1    0    0    0  501  0.00000000000E+00  0.00000000000E+00  0.42428342885E+03  0.42428342888E+03  0.50400001928E-02 0.  1.
        1   -1    0    0  501    0  0.00000000000E+00  0.00000000000E+00 -0.82988753507E+03  0.82988753509E+03  0.50400001928E-02 0. -1.
    10030    2    1    2    0    0  0.00000000000E+00  0.00000000000E+00 -0.40560410622E+03  0.12541709640E+04  0.11867729841E+04 0.  0.
        3    1    3    3  502    0  0.59311602129E+03  0.21778796223E+01 -0.22159276229E+03  0.63316247549E+03  0.10100000352E+00 0. -1.
       -3    1    3    3    0  502 -0.59311602129E+03 -0.21778796223E+01 -0.18401134393E+03  0.62100848848E+03  0.10100000352E+00 0.  1.
</event>
</LesHouchesEvents>
